   27   27  100    1
  0.9710400E+02  0.1002848E-08  0.1002848E-08  0.3000000E-08  0.5000000E-15
  1.000000000000000E-004
  CAR 
 unknown system                          
    159     34    120
 
  0.0000000E+00  0.0000000E+00  0.0000000E+00  0.1562500E-01
    1      -17.803182   1.000000
    2      -16.728320   1.000000
    3      -16.678115   1.000000
    4      -16.578059   1.000000
    5      -16.535772   1.000000
    6      -16.460043   1.000000
    7      -16.427298   1.000000
    8      -16.313386   1.000000
    9      -16.156404   1.000000
   10      -16.097827   1.000000
   11      -16.075177   1.000000
   12      -15.948874   1.000000
   13      -15.916143   1.000000
   14      -15.675720   1.000000
   15      -15.590122   1.000000
   16      -15.531261   1.000000
   17      -15.322256   1.000000
   18      -15.256154   1.000000
   19       -9.285555   1.000000
   20       -9.000943   1.000000
   21       -8.925281   1.000000
   22       -8.821594   1.000000
   23       -8.767615   1.000000
   24       -8.705622   1.000000
   25       -8.652883   1.000000
   26       -8.604678   1.000000
   27       -8.556170   1.000000
   28       -8.422594   1.000000
   29       -8.403386   1.000000
   30       -8.350282   1.000000
   31       -8.287996   1.000000
   32       -8.196181   1.000000
   33       -8.119825   1.000000
   34       -8.031816   1.000000
   35       -7.873703   1.000000
   36       -7.769785   1.000000
   37       -7.690763   1.000000
   38       -7.517846   1.000000
   39       -7.501226   1.000000
   40       -7.429285   1.000000
   41       -7.312175   1.000000
   42       -7.209313   1.000000
   43       -7.134173   1.000000
   44       -6.898127   1.000000
   45       -6.811243   1.000000
   46       -6.806736   1.000000
   47       -6.684276   1.000000
   48       -6.641047   1.000000
   49       -6.542109   1.000000
   50       -6.535988   1.000000
   51       -6.483863   1.000000
   52       -6.425478   1.000000
   53       -6.321076   1.000000
   54       -6.222792   1.000000
   55       -6.174593   1.000000
   56       -6.065992   1.000000
   57       -6.036562   1.000000
   58       -5.861531   1.000000
   59       -5.823060   1.000000
   60       -5.573954   1.000000
   61       -5.504743   1.000000
   62       -5.459616   1.000000
   63       -5.254150   1.000000
   64       -5.115204   1.000000
   65       -5.056853   1.000000
   66       -4.996483   1.000000
   67       -4.957324   1.000000
   68       -4.823858   1.000000
   69       -4.790516   1.000000
   70       -4.691552   1.000000
   71       -4.589070   1.000000
   72       -4.566847   1.000000
   73       -4.538243   1.000000
   74       -4.371810   1.000000
   75       -4.156921   1.000000
   76       -4.022062   1.000000
   77       -3.762426   0.998917
   78       -3.631254   0.983784
   79       -3.540815   0.933135
   80       -3.358732   0.583960
   81       -3.265209   0.326617
   82       -2.846724   0.000327
   83       -2.761329   0.000030
   84       -2.547526   0.000000
   85       -2.481752   0.000000
   86       -2.363585   0.000000
   87       -2.316220   0.000000
   88       -2.199531   0.000000
   89       -2.139483   0.000000
   90       -2.033677   0.000000
   91       -1.776332   0.000000
   92       -1.533348   0.000000
   93       -1.497448   0.000000
   94       -1.370060   0.000000
   95       -1.261145   0.000000
   96       -1.013134   0.000000
   97       -0.967557   0.000000
   98       -0.848880   0.000000
   99       -0.822709   0.000000
  100       -0.639061   0.000000
  101       -0.516335   0.000000
  102       -0.471716   0.000000
  103       -0.466779   0.000000
  104       -0.312747   0.000000
  105       -0.282663   0.000000
  106       -0.163642   0.000000
  107       -0.078338   0.000000
  108       -0.044459   0.000000
  109        0.075350   0.000000
  110        0.184541   0.000000
  111        0.373623   0.000000
  112        0.487706   0.000000
  113        0.680807   0.000000
  114        0.819272   0.000000
  115        0.835666   0.000000
  116        1.092221   0.000000
  117        1.302960   0.000000
  118        1.644520   0.000000
  119        1.835302   0.000000
  120        2.150104   0.000000
 
  0.1250000E+00  0.2775558E-16  0.0000000E+00  0.3125000E-01
    1      -17.778322   1.000000
    2      -16.797045   1.000000
    3      -16.711168   1.000000
    4      -16.635278   1.000000
    5      -16.554633   1.000000
    6      -16.429304   1.000000
    7      -16.370265   1.000000
    8      -16.301377   1.000000
    9      -16.148237   1.000000
   10      -16.090862   1.000000
   11      -16.044026   1.000000
   12      -15.934141   1.000000
   13      -15.880000   1.000000
   14      -15.683576   1.000000
   15      -15.596561   1.000000
   16      -15.542969   1.000000
   17      -15.326692   1.000000
   18      -15.258793   1.000000
   19       -9.284850   1.000000
   20       -9.167364   1.000000
   21       -9.017188   1.000000
   22       -8.911553   1.000000
   23       -8.809310   1.000000
   24       -8.745432   1.000000
   25       -8.674692   1.000000
   26       -8.569481   1.000000
   27       -8.457282   1.000000
   28       -8.393363   1.000000
   29       -8.370858   1.000000
   30       -8.299316   1.000000
   31       -8.190776   1.000000
   32       -8.126749   1.000000
   33       -8.104997   1.000000
   34       -7.953412   1.000000
   35       -7.831359   1.000000
   36       -7.713230   1.000000
   37       -7.635278   1.000000
   38       -7.577687   1.000000
   39       -7.516656   1.000000
   40       -7.448796   1.000000
   41       -7.289624   1.000000
   42       -7.235020   1.000000
   43       -7.124006   1.000000
   44       -6.953086   1.000000
   45       -6.862793   1.000000
   46       -6.760988   1.000000
   47       -6.675811   1.000000
   48       -6.613947   1.000000
   49       -6.565190   1.000000
   50       -6.528891   1.000000
   51       -6.453481   1.000000
   52       -6.413479   1.000000
   53       -6.324379   1.000000
   54       -6.253277   1.000000
   55       -6.191758   1.000000
   56       -6.082528   1.000000
   57       -5.975773   1.000000
   58       -5.877828   1.000000
   59       -5.785144   1.000000
   60       -5.578081   1.000000
   61       -5.539597   1.000000
   62       -5.460827   1.000000
   63       -5.368212   1.000000
   64       -5.274092   1.000000
   65       -5.036352   1.000000
   66       -4.971266   1.000000
   67       -4.935062   1.000000
   68       -4.885741   1.000000
   69       -4.719141   1.000000
   70       -4.646914   1.000000
   71       -4.609771   1.000000
   72       -4.546896   1.000000
   73       -4.460667   1.000000
   74       -4.326911   1.000000
   75       -4.129812   1.000000
   76       -4.082032   1.000000
   77       -3.799604   0.999565
   78       -3.696422   0.995337
   79       -3.593313   0.969312
   80       -3.314315   0.459360
   81       -3.235758   0.255422
   82       -2.812417   0.000131
   83       -2.727011   0.000010
   84       -2.541093   0.000000
   85       -2.473158   0.000000
   86       -2.354202   0.000000
   87       -2.296024   0.000000
   88       -2.165770   0.000000
   89       -2.143957   0.000000
   90       -2.009203   0.000000
   91       -1.786014   0.000000
   92       -1.551986   0.000000
   93       -1.481559   0.000000
   94       -1.366586   0.000000
   95       -1.256068   0.000000
   96       -1.027766   0.000000
   97       -0.963282   0.000000
   98       -0.886284   0.000000
   99       -0.843635   0.000000
  100       -0.694536   0.000000
  101       -0.593820   0.000000
  102       -0.512321   0.000000
  103       -0.463264   0.000000
  104       -0.445462   0.000000
  105       -0.335071   0.000000
  106       -0.192775   0.000000
  107       -0.118635   0.000000
  108        0.046533   0.000000
  109        0.097989   0.000000
  110        0.191037   0.000000
  111        0.355440   0.000000
  112        0.565766   0.000000
  113        0.664327   0.000000
  114        0.824442   0.000000
  115        0.895464   0.000000
  116        1.110164   0.000000
  117        1.263343   0.000000
  118        1.686328   0.000000
  119        1.876457   0.000000
  120        2.184851   0.000000
 
  0.2500000E+00  0.5551115E-16  0.0000000E+00  0.3125000E-01
    1      -17.704977   1.000000
    2      -16.995998   1.000000
    3      -16.736127   1.000000
    4      -16.678750   1.000000
    5      -16.588140   1.000000
    6      -16.414262   1.000000
    7      -16.309004   1.000000
    8      -16.242705   1.000000
    9      -16.142678   1.000000
   10      -16.083696   1.000000
   11      -15.978280   1.000000
   12      -15.905690   1.000000
   13      -15.786288   1.000000
   14      -15.707345   1.000000
   15      -15.618148   1.000000
   16      -15.557906   1.000000
   17      -15.340659   1.000000
   18      -15.266169   1.000000
   19       -9.493035   1.000000
   20       -9.256247   1.000000
   21       -9.128969   1.000000
   22       -8.998629   1.000000
   23       -8.912128   1.000000
   24       -8.805307   1.000000
   25       -8.633265   1.000000
   26       -8.516455   1.000000
   27       -8.439468   1.000000
   28       -8.358640   1.000000
   29       -8.311663   1.000000
   30       -8.214166   1.000000
   31       -8.135326   1.000000
   32       -8.072308   1.000000
   33       -7.967049   1.000000
   34       -7.832721   1.000000
   35       -7.756921   1.000000
   36       -7.670792   1.000000
   37       -7.594440   1.000000
   38       -7.514756   1.000000
   39       -7.497328   1.000000
   40       -7.375051   1.000000
   41       -7.341896   1.000000
   42       -7.201798   1.000000
   43       -7.112777   1.000000
   44       -7.010051   1.000000
   45       -6.847201   1.000000
   46       -6.770649   1.000000
   47       -6.654341   1.000000
   48       -6.636440   1.000000
   49       -6.582274   1.000000
   50       -6.545624   1.000000
   51       -6.403928   1.000000
   52       -6.373660   1.000000
   53       -6.351882   1.000000
   54       -6.226139   1.000000
   55       -6.133122   1.000000
   56       -6.084902   1.000000
   57       -5.955307   1.000000
   58       -5.889853   1.000000
   59       -5.752078   1.000000
   60       -5.686656   1.000000
   61       -5.659813   1.000000
   62       -5.568487   1.000000
   63       -5.496003   1.000000
   64       -5.417187   1.000000
   65       -5.191194   1.000000
   66       -4.920636   1.000000
   67       -4.863082   1.000000
   68       -4.805119   1.000000
   69       -4.676894   1.000000
   70       -4.640334   1.000000
   71       -4.578221   1.000000
   72       -4.493796   1.000000
   73       -4.383034   1.000000
   74       -4.285508   1.000000
   75       -4.220296   1.000000
   76       -4.065261   1.000000
   77       -3.876611   0.999946
   78       -3.803052   0.999602
   79       -3.607790   0.975760
   80       -3.306378   0.437164
   81       -3.165761   0.124562
   82       -2.754867   0.000025
   83       -2.637311   0.000001
   84       -2.512159   0.000000
   85       -2.457729   0.000000
   86       -2.340574   0.000000
   87       -2.241109   0.000000
   88       -2.148402   0.000000
   89       -2.071020   0.000000
   90       -1.945955   0.000000
   91       -1.793485   0.000000
   92       -1.580354   0.000000
   93       -1.470461   0.000000
   94       -1.367418   0.000000
   95       -1.258366   0.000000
   96       -1.106639   0.000000
   97       -0.984785   0.000000
   98       -0.946127   0.000000
   99       -0.911574   0.000000
  100       -0.813230   0.000000
  101       -0.683156   0.000000
  102       -0.602055   0.000000
  103       -0.560216   0.000000
  104       -0.512079   0.000000
  105       -0.479772   0.000000
  106       -0.253152   0.000000
  107       -0.202848   0.000000
  108        0.060864   0.000000
  109        0.128987   0.000000
  110        0.232896   0.000000
  111        0.377828   0.000000
  112        0.539590   0.000000
  113        0.718697   0.000000
  114        0.877238   0.000000
  115        0.995402   0.000000
  116        1.143579   0.000000
  117        1.243412   0.000000
  118        1.805063   0.000000
  119        1.992401   0.000000
  120        2.287914   0.000000
 
  0.3750000E+00  0.0000000E+00  0.0000000E+00  0.3125000E-01
    1      -17.588359   1.000000
    2      -17.206795   1.000000
    3      -16.767015   1.000000
    4      -16.697777   1.000000
    5      -16.600459   1.000000
    6      -16.424929   1.000000
    7      -16.283378   1.000000
    8      -16.191585   1.000000
    9      -16.110829   1.000000
   10      -16.059545   1.000000
   11      -15.928621   1.000000
   12      -15.873844   1.000000
   13      -15.787477   1.000000
   14      -15.700373   1.000000
   15      -15.626081   1.000000
   16      -15.545339   1.000000
   17      -15.362365   1.000000
   18      -15.275063   1.000000
   19       -9.700319   1.000000
   20       -9.325288   1.000000
   21       -9.191929   1.000000
   22       -9.042344   1.000000
   23       -8.929787   1.000000
   24       -8.845880   1.000000
   25       -8.536468   1.000000
   26       -8.486004   1.000000
   27       -8.422178   1.000000
   28       -8.373483   1.000000
   29       -8.279505   1.000000
   30       -8.206367   1.000000
   31       -8.136748   1.000000
   32       -8.024314   1.000000
   33       -7.980702   1.000000
   34       -7.769060   1.000000
   35       -7.755119   1.000000
   36       -7.684218   1.000000
   37       -7.558484   1.000000
   38       -7.457769   1.000000
   39       -7.381968   1.000000
   40       -7.268657   1.000000
   41       -7.238113   1.000000
   42       -7.169042   1.000000
   43       -7.072055   1.000000
   44       -6.963015   1.000000
   45       -6.842729   1.000000
   46       -6.785964   1.000000
   47       -6.671937   1.000000
   48       -6.634898   1.000000
   49       -6.586418   1.000000
   50       -6.473711   1.000000
   51       -6.400357   1.000000
   52       -6.348115   1.000000
   53       -6.312493   1.000000
   54       -6.154571   1.000000
   55       -6.122005   1.000000
   56       -6.071659   1.000000
   57       -5.990396   1.000000
   58       -5.928567   1.000000
   59       -5.888857   1.000000
   60       -5.827428   1.000000
   61       -5.738573   1.000000
   62       -5.638410   1.000000
   63       -5.604742   1.000000
   64       -5.486629   1.000000
   65       -5.208108   1.000000
   66       -4.903876   1.000000
   67       -4.851952   1.000000
   68       -4.775896   1.000000
   69       -4.745250   1.000000
   70       -4.648947   1.000000
   71       -4.590642   1.000000
   72       -4.468361   1.000000
   73       -4.362192   1.000000
   74       -4.278754   1.000000
   75       -4.151117   1.000000
   76       -4.075803   1.000000
   77       -3.932074   0.999990
   78       -3.795463   0.999517
   79       -3.601567   0.973143
   80       -3.316770   0.466257
   81       -3.122692   0.072555
   82       -2.720355   0.000008
   83       -2.565121   0.000000
   84       -2.468398   0.000000
   85       -2.424936   0.000000
   86       -2.326974   0.000000
   87       -2.199577   0.000000
   88       -2.119801   0.000000
   89       -1.958812   0.000000
   90       -1.885782   0.000000
   91       -1.772590   0.000000
   92       -1.600309   0.000000
   93       -1.491526   0.000000
   94       -1.389705   0.000000
   95       -1.302127   0.000000
   96       -1.211433   0.000000
   97       -1.045567   0.000000
   98       -1.033525   0.000000
   99       -0.925670   0.000000
  100       -0.879384   0.000000
  101       -0.755104   0.000000
  102       -0.691659   0.000000
  103       -0.653407   0.000000
  104       -0.588655   0.000000
  105       -0.512891   0.000000
  106       -0.335210   0.000000
  107       -0.249602   0.000000
  108        0.015319   0.000000
  109        0.139157   0.000000
  110        0.231747   0.000000
  111        0.370734   0.000000
  112        0.507330   0.000000
  113        0.779453   0.000000
  114        0.903032   0.000000
  115        1.072334   0.000000
  116        1.173921   0.000000
  117        1.315996   0.000000
  118        1.984321   0.000000
  119        2.168084   0.000000
  120        2.443593   0.000000
 
  0.5000000E+00  0.1110223E-15  0.0000000E+00  0.1562500E-01
    1      -17.477259   1.000000
    2      -17.351333   1.000000
    3      -16.779496   1.000000
    4      -16.705000   1.000000
    5      -16.600687   1.000000
    6      -16.432382   1.000000
    7      -16.277731   1.000000
    8      -16.183851   1.000000
    9      -16.070594   1.000000
   10      -16.055278   1.000000
   11      -15.892082   1.000000
   12      -15.863588   1.000000
   13      -15.820587   1.000000
   14      -15.721400   1.000000
   15      -15.604745   1.000000
   16      -15.526811   1.000000
   17      -15.376423   1.000000
   18      -15.279263   1.000000
   19       -9.774782   1.000000
   20       -9.359814   1.000000
   21       -9.218279   1.000000
   22       -9.064794   1.000000
   23       -8.889219   1.000000
   24       -8.861458   1.000000
   25       -8.501787   1.000000
   26       -8.473407   1.000000
   27       -8.444464   1.000000
   28       -8.381836   1.000000
   29       -8.274101   1.000000
   30       -8.174721   1.000000
   31       -8.094264   1.000000
   32       -8.025486   1.000000
   33       -8.017056   1.000000
   34       -7.821408   1.000000
   35       -7.803992   1.000000
   36       -7.693213   1.000000
   37       -7.475743   1.000000
   38       -7.426974   1.000000
   39       -7.346841   1.000000
   40       -7.232709   1.000000
   41       -7.201747   1.000000
   42       -7.066706   1.000000
   43       -7.040614   1.000000
   44       -6.982875   1.000000
   45       -6.881891   1.000000
   46       -6.693192   1.000000
   47       -6.687177   1.000000
   48       -6.603278   1.000000
   49       -6.570607   1.000000
   50       -6.460427   1.000000
   51       -6.407424   1.000000
   52       -6.322909   1.000000
   53       -6.284406   1.000000
   54       -6.233520   1.000000
   55       -6.164787   1.000000
   56       -6.106101   1.000000
   57       -6.033060   1.000000
   58       -5.925064   1.000000
   59       -5.894522   1.000000
   60       -5.833094   1.000000
   61       -5.713827   1.000000
   62       -5.646391   1.000000
   63       -5.607870   1.000000
   64       -5.550182   1.000000
   65       -5.178917   1.000000
   66       -5.139278   1.000000
   67       -4.844599   1.000000
   68       -4.759098   1.000000
   69       -4.724135   1.000000
   70       -4.637721   1.000000
   71       -4.573815   1.000000
   72       -4.458993   1.000000
   73       -4.332746   1.000000
   74       -4.263578   1.000000
   75       -4.168234   1.000000
   76       -4.089344   1.000000
   77       -3.907257   0.999978
   78       -3.785111   0.999374
   79       -3.591600   0.968462
   80       -3.326935   0.494893
   81       -3.109359   0.060415
   82       -2.711273   0.000006
   83       -2.542888   0.000000
   84       -2.452275   0.000000
   85       -2.401228   0.000000
   86       -2.315266   0.000000
   87       -2.191654   0.000000
   88       -2.092547   0.000000
   89       -1.898061   0.000000
   90       -1.868706   0.000000
   91       -1.756504   0.000000
   92       -1.597151   0.000000
   93       -1.526297   0.000000
   94       -1.409776   0.000000
   95       -1.329739   0.000000
   96       -1.245675   0.000000
   97       -1.087066   0.000000
   98       -1.064295   0.000000
   99       -0.937294   0.000000
  100       -0.897623   0.000000
  101       -0.785365   0.000000
  102       -0.718351   0.000000
  103       -0.698988   0.000000
  104       -0.598632   0.000000
  105       -0.519391   0.000000
  106       -0.368545   0.000000
  107       -0.275988   0.000000
  108       -0.005282   0.000000
  109        0.143561   0.000000
  110        0.226183   0.000000
  111        0.345189   0.000000
  112        0.505611   0.000000
  113        0.803360   0.000000
  114        0.904242   0.000000
  115        1.097397   0.000000
  116        1.199910   0.000000
  117        1.353011   0.000000
  118        2.185991   0.000000
  119        2.237042   0.000000
  120        2.375276   0.000000
 
  0.0000000E+00  0.1250000E+00  0.0000000E+00  0.3125000E-01
    1      -17.777863   1.000000
    2      -16.810831   1.000000
    3      -16.706203   1.000000
    4      -16.592436   1.000000
    5      -16.563883   1.000000
    6      -16.450290   1.000000
    7      -16.402541   1.000000
    8      -16.270430   1.000000
    9      -16.172623   1.000000
   10      -16.087402   1.000000
   11      -16.021633   1.000000
   12      -15.948913   1.000000
   13      -15.879102   1.000000
   14      -15.668794   1.000000
   15      -15.600340   1.000000
   16      -15.533268   1.000000
   17      -15.334140   1.000000
   18      -15.262128   1.000000
   19       -9.258719   1.000000
   20       -9.157200   1.000000
   21       -9.016480   1.000000
   22       -8.971282   1.000000
   23       -8.822247   1.000000
   24       -8.704748   1.000000
   25       -8.633545   1.000000
   26       -8.575048   1.000000
   27       -8.492771   1.000000
   28       -8.420510   1.000000
   29       -8.379462   1.000000
   30       -8.318784   1.000000
   31       -8.250357   1.000000
   32       -8.105511   1.000000
   33       -8.042247   1.000000
   34       -7.901370   1.000000
   35       -7.870555   1.000000
   36       -7.726549   1.000000
   37       -7.662498   1.000000
   38       -7.558643   1.000000
   39       -7.449333   1.000000
   40       -7.406911   1.000000
   41       -7.315932   1.000000
   42       -7.255650   1.000000
   43       -7.140510   1.000000
   44       -6.911013   1.000000
   45       -6.879584   1.000000
   46       -6.846199   1.000000
   47       -6.705262   1.000000
   48       -6.648864   1.000000
   49       -6.559976   1.000000
   50       -6.494015   1.000000
   51       -6.470628   1.000000
   52       -6.368418   1.000000
   53       -6.293732   1.000000
   54       -6.234388   1.000000
   55       -6.167837   1.000000
   56       -6.060307   1.000000
   57       -6.000415   1.000000
   58       -5.884246   1.000000
   59       -5.779136   1.000000
   60       -5.583514   1.000000
   61       -5.543316   1.000000
   62       -5.449987   1.000000
   63       -5.381842   1.000000
   64       -5.145119   1.000000
   65       -5.105646   1.000000
   66       -5.020666   1.000000
   67       -4.955307   1.000000
   68       -4.855053   1.000000
   69       -4.748696   1.000000
   70       -4.699886   1.000000
   71       -4.658603   1.000000
   72       -4.510841   1.000000
   73       -4.426307   1.000000
   74       -4.345258   1.000000
   75       -4.119725   1.000000
   76       -4.007053   0.999999
   77       -3.787124   0.999405
   78       -3.702731   0.995909
   79       -3.581582   0.963097
   80       -3.463030   0.828824
   81       -3.100441   0.053224
   82       -2.846710   0.000327
   83       -2.742072   0.000017
   84       -2.554939   0.000000
   85       -2.465098   0.000000
   86       -2.352824   0.000000
   87       -2.302626   0.000000
   88       -2.174633   0.000000
   89       -2.133870   0.000000
   90       -2.021004   0.000000
   91       -1.801248   0.000000
   92       -1.545226   0.000000
   93       -1.480214   0.000000
   94       -1.344643   0.000000
   95       -1.259621   0.000000
   96       -1.014111   0.000000
   97       -0.978449   0.000000
   98       -0.866000   0.000000
   99       -0.812456   0.000000
  100       -0.687496   0.000000
  101       -0.654734   0.000000
  102       -0.539995   0.000000
  103       -0.484919   0.000000
  104       -0.357701   0.000000
  105       -0.312672   0.000000
  106       -0.187275   0.000000
  107       -0.138451   0.000000
  108        0.025633   0.000000
  109        0.115335   0.000000
  110        0.174844   0.000000
  111        0.402321   0.000000
  112        0.460517   0.000000
  113        0.668984   0.000000
  114        0.806689   0.000000
  115        0.879450   0.000000
  116        1.125383   0.000000
  117        1.327913   0.000000
  118        1.688139   0.000000
  119        1.874232   0.000000
  120        2.185300   0.000000
 
  0.1250000E+00  0.1250000E+00  0.0000000E+00  0.3125000E-01
    1      -17.728200   1.000000
    2      -16.929771   1.000000
    3      -16.784038   1.000000
    4      -16.645368   1.000000
    5      -16.521116   1.000000
    6      -16.441301   1.000000
    7      -16.345955   1.000000
    8      -16.236960   1.000000
    9      -16.185294   1.000000
   10      -16.048418   1.000000
   11      -15.996415   1.000000
   12      -15.943252   1.000000
   13      -15.808424   1.000000
   14      -15.678986   1.000000
   15      -15.612279   1.000000
   16      -15.547753   1.000000
   17      -15.344774   1.000000
   18      -15.265858   1.000000
   19       -9.357487   1.000000
   20       -9.289911   1.000000
   21       -9.168001   1.000000
   22       -8.988959   1.000000
   23       -8.828267   1.000000
   24       -8.766658   1.000000
   25       -8.663156   1.000000
   26       -8.533945   1.000000
   27       -8.427856   1.000000
   28       -8.356575   1.000000
   29       -8.326927   1.000000
   30       -8.215575   1.000000
   31       -8.154348   1.000000
   32       -8.126641   1.000000
   33       -8.039655   1.000000
   34       -7.895450   1.000000
   35       -7.736064   1.000000
   36       -7.713920   1.000000
   37       -7.603893   1.000000
   38       -7.507247   1.000000
   39       -7.435671   1.000000
   40       -7.400530   1.000000
   41       -7.325982   1.000000
   42       -7.249893   1.000000
   43       -7.110759   1.000000
   44       -6.996312   1.000000
   45       -6.863068   1.000000
   46       -6.829252   1.000000
   47       -6.707338   1.000000
   48       -6.644561   1.000000
   49       -6.592255   1.000000
   50       -6.479308   1.000000
   51       -6.412546   1.000000
   52       -6.348295   1.000000
   53       -6.304603   1.000000
   54       -6.237509   1.000000
   55       -6.133176   1.000000
   56       -6.071506   1.000000
   57       -5.934714   1.000000
   58       -5.926123   1.000000
   59       -5.762440   1.000000
   60       -5.676064   1.000000
   61       -5.618862   1.000000
   62       -5.541478   1.000000
   63       -5.434173   1.000000
   64       -5.267626   1.000000
   65       -5.137345   1.000000
   66       -5.040707   1.000000
   67       -4.903388   1.000000
   68       -4.841236   1.000000
   69       -4.736416   1.000000
   70       -4.664425   1.000000
   71       -4.588289   1.000000
   72       -4.444060   1.000000
   73       -4.392558   1.000000
   74       -4.308278   1.000000
   75       -4.171384   1.000000
   76       -4.087823   1.000000
   77       -3.837562   0.999840
   78       -3.781251   0.999312
   79       -3.595874   0.970546
   80       -3.399977   0.692758
   81       -3.077365   0.037740
   82       -2.799704   0.000092
   83       -2.682458   0.000002
   84       -2.528186   0.000000
   85       -2.458570   0.000000
   86       -2.327530   0.000000
   87       -2.262124   0.000000
   88       -2.148126   0.000000
   89       -2.105486   0.000000
   90       -1.983181   0.000000
   91       -1.816850   0.000000
   92       -1.578402   0.000000
   93       -1.458313   0.000000
   94       -1.333945   0.000000
   95       -1.256221   0.000000
   96       -1.065993   0.000000
   97       -0.970711   0.000000
   98       -0.907861   0.000000
   99       -0.877640   0.000000
  100       -0.779791   0.000000
  101       -0.681396   0.000000
  102       -0.638281   0.000000
  103       -0.563196   0.000000
  104       -0.433986   0.000000
  105       -0.378937   0.000000
  106       -0.229292   0.000000
  107       -0.185270   0.000000
  108        0.025940   0.000000
  109        0.097396   0.000000
  110        0.251481   0.000000
  111        0.408227   0.000000
  112        0.506795   0.000000
  113        0.648614   0.000000
  114        0.823671   0.000000
  115        0.931265   0.000000
  116        1.165539   0.000000
  117        1.321547   0.000000
  118        1.767207   0.000000
  119        1.953508   0.000000
  120        2.254225   0.000000
 
  0.2500000E+00  0.1250000E+00  0.0000000E+00  0.3125000E-01
    1      -17.632033   1.000000
    2      -17.107336   1.000000
    3      -16.878099   1.000000
    4      -16.650604   1.000000
    5      -16.519428   1.000000
    6      -16.419774   1.000000
    7      -16.287053   1.000000
    8      -16.221991   1.000000
    9      -16.157072   1.000000
   10      -16.036183   1.000000
   11      -15.962342   1.000000
   12      -15.900617   1.000000
   13      -15.777808   1.000000
   14      -15.674921   1.000000
   15      -15.639141   1.000000
   16      -15.538915   1.000000
   17      -15.363281   1.000000
   18      -15.270519   1.000000
   19       -9.597532   1.000000
   20       -9.393305   1.000000
   21       -9.226341   1.000000
   22       -9.024917   1.000000
   23       -8.836054   1.000000
   24       -8.785354   1.000000
   25       -8.573789   1.000000
   26       -8.496847   1.000000
   27       -8.417451   1.000000
   28       -8.314626   1.000000
   29       -8.278599   1.000000
   30       -8.218817   1.000000
   31       -8.147204   1.000000
   32       -8.087211   1.000000
   33       -8.013078   1.000000
   34       -7.843096   1.000000
   35       -7.804520   1.000000
   36       -7.655986   1.000000
   37       -7.546056   1.000000
   38       -7.500409   1.000000
   39       -7.352497   1.000000
   40       -7.308006   1.000000
   41       -7.235478   1.000000
   42       -7.187688   1.000000
   43       -7.111381   1.000000
   44       -6.957352   1.000000
   45       -6.846604   1.000000
   46       -6.817224   1.000000
   47       -6.716015   1.000000