       N       E                     dE             d eps       ncg     rms          rms(c)
DAV:   1     0.112587750488E+04    0.11259E+04   -0.35982E+04  8160   0.577E+02
DAV:   2    -0.340377027063E+01   -0.11293E+04   -0.10888E+04 11200   0.173E+02
DAV:   3    -0.199753704697E+03   -0.19635E+03   -0.18851E+03 10880   0.820E+01
DAV:   4    -0.208990889384E+03   -0.92372E+01   -0.89436E+01 12240   0.262E+01
DAV:   5    -0.209321662351E+03   -0.33077E+00   -0.32974E+00 11440   0.352E+00    0.275E+01
DAV:   6    -0.237932743182E+03   -0.28611E+02   -0.10711E+02 12600   0.601E+01    0.595E+01
DAV:   7    -0.196570125597E+03    0.41363E+02   -0.17569E+02 13480   0.153E+02    0.200E+01
DAV:   8    -0.189490070428E+03    0.70801E+01   -0.17909E+01 11960   0.127E+01    0.125E+01
DAV:   9    -0.188167994594E+03    0.13221E+01   -0.31334E+00 13440   0.624E+00    0.926E+00
DAV:  10    -0.186957944057E+03    0.12101E+01   -0.17551E+00 13400   0.771E+00    0.217E+00
DAV:  11    -0.187061348858E+03   -0.10340E+00   -0.59061E-01 13520   0.303E+00    0.387E+00
DAV:  12    -0.187003942761E+03    0.57406E-01   -0.82390E-01 12800   0.456E+00    0.369E+00
DAV:  13    -0.186887217191E+03    0.11673E+00   -0.30332E-01 13240   0.298E+00    0.187E+00
DAV:  14    -0.186850253664E+03    0.36964E-01   -0.10696E-01 13160   0.175E+00    0.900E-01
DAV:  15    -0.186848127009E+03    0.21267E-02   -0.28780E-02 12720   0.901E-01    0.817E-01
DAV:  16    -0.186842434519E+03    0.56925E-02   -0.11080E-02 13240   0.533E-01    0.273E-01
DAV:  17    -0.186841232463E+03    0.12021E-02   -0.44583E-03 12840   0.285E-01    0.182E-01
DAV:  18    -0.186841001358E+03    0.23111E-03   -0.18554E-03 11680   0.147E-01    0.131E-01
DAV:  19    -0.186840801470E+03    0.19989E-03   -0.81765E-04 11160   0.894E-02    0.584E-02
DAV:  20    -0.186841553404E+03   -0.75193E-03   -0.68551E-04  9080   0.741E-02    0.551E-02
DAV:  21    -0.186842389605E+03   -0.83620E-03   -0.24156E-04  8200   0.495E-02    0.321E-02
DAV:  22    -0.186843336386E+03   -0.94678E-03   -0.15737E-04  7600   0.383E-02    0.311E-02
DAV:  23    -0.186844488879E+03   -0.11525E-02   -0.10600E-04  7560   0.365E-02    0.131E-02
DAV:  24    -0.186845040896E+03   -0.55202E-03   -0.23900E-05  6800   0.153E-02    0.477E-03
DAV:  25    -0.186845436254E+03   -0.39536E-03   -0.16118E-05  5520   0.960E-03    0.320E-03
DAV:  26    -0.186845677915E+03   -0.24166E-03   -0.93061E-06  6840   0.702E-03    0.166E-03
DAV:  27    -0.186845766624E+03   -0.88709E-04   -0.32942E-06  7440   0.406E-03
   1 F= -.18684577E+03 E0= -.18667480E+03  d E =-.186846E+03
       N       E                     dE             d eps       ncg     rms          rms(c)
DAV:   1    -0.187499856029E+03   -0.65418E+00   -0.27222E+02  8160   0.350E+01    0.460E+00
DAV:   2    -0.189346436844E+03   -0.18466E+01   -0.19881E+01 12240   0.150E+01    0.856E+00
DAV:   3    -0.189359988249E+03   -0.13551E-01   -0.39334E+00 12400   0.120E+01    0.659E+00
DAV:   4    -0.188757375307E+03    0.60261E+00   -0.64192E-01 12520   0.477E+00    0.199E+00
DAV:   5    -0.188849993425E+03   -0.92618E-01   -0.41674E-01 11800   0.342E+00    0.488E+00
DAV:   6    -0.188755567634E+03    0.94426E-01   -0.73795E-01 12560   0.436E+00    0.269E+00
DAV:   7    -0.188676293548E+03    0.79274E-01   -0.21325E-01 12360   0.160E+00    0.102E+00
DAV:   8    -0.188661724491E+03    0.14569E-01   -0.50005E-02 11480   0.732E-01    0.650E-01
DAV:   9    -0.188656959723E+03    0.47648E-02   -0.11594E-02 12560   0.404E-01    0.399E-01
DAV:  10    -0.188657389736E+03   -0.43001E-03   -0.56555E-03 12000   0.413E-01    0.450E-01
DAV:  11    -0.188655857622E+03    0.15321E-02   -0.40354E-03 12840   0.329E-01    0.131E-01
DAV:  12    -0.188655851889E+03    0.57328E-05   -0.95871E-04 11720   0.100E-01
   2 F= -.18865585E+03 E0= -.18851712E+03  d E =-.181009E+01
       N       E                     dE             d eps       ncg     rms          rms(c)
DAV:   1    -0.190582412535E+03   -0.19266E+01   -0.31126E+01  9200   0.142E+01    0.445E+00
DAV:   2    -0.190528440727E+03    0.53972E-01   -0.27745E+00 11520   0.945E+00    0.718E+00
DAV:   3    -0.190064481323E+03    0.46396E+00   -0.12907E+00 12360   0.862E+00    0.425E+00
DAV:   4    -0.189852706157E+03    0.21178E+00   -0.68024E-01 12960   0.432E+00    0.253E+00
DAV:   5    -0.189823293960E+03    0.29412E-01   -0.36934E-01 12240   0.309E+00    0.284E+00
DAV:   6    -0.189751406614E+03    0.71887E-01   -0.16060E-01 12680   0.251E+00    0.753E-01
DAV:   7    -0.189745559755E+03    0.58469E-02   -0.15848E-02 11600   0.611E-01    0.389E-01
DAV:   8    -0.189745445430E+03    0.11433E-03   -0.58911E-03 12640   0.468E-01    0.343E-01
DAV:   9    -0.189744585123E+03    0.86031E-03   -0.21535E-03 11400   0.249E-01    0.121E-01
DAV:  10    -0.189745016765E+03   -0.43164E-03   -0.99472E-04 10720   0.106E-01    0.138E-01
DAV:  11    -0.189744709084E+03    0.30768E-03   -0.55704E-04  9400   0.843E-02    0.194E-02
DAV:  12    -0.189744731541E+03   -0.22457E-04   -0.64662E-05  7120   0.249E-02
   3 F= -.18974473E+03 E0= -.18962847E+03  d E =-.108888E+01
       N       E                     dE             d eps       ncg     rms          rms(c)
DAV:   1    -0.191299667773E+03   -0.15550E+01   -0.74222E+01  8160   0.196E+01    0.456E+00
DAV:   2    -0.191105820906E+03    0.19385E+00   -0.52544E+00 13440   0.750E+00    0.438E+00
DAV:   3    -0.191306203113E+03   -0.20038E+00   -0.14855E+00 12200   0.903E+00    0.733E+00
DAV:   4    -0.190898697297E+03    0.40751E+00   -0.16788E+00 11920   0.851E+00    0.352E+00
DAV:   5    -0.190903596466E+03   -0.48992E-02   -0.69389E-01 10960   0.544E+00    0.355E+00
DAV:   6    -0.190729007395E+03    0.17459E+00   -0.20377E-01 11480   0.313E+00    0.611E-01
DAV:   7    -0.190731620576E+03   -0.26132E-02   -0.34357E-02 12400   0.883E-01    0.731E-01
DAV:   8    -0.190728313722E+03    0.33069E-02   -0.17476E-02 11680   0.898E-01    0.534E-01
DAV:   9    -0.190725311179E+03    0.30025E-02   -0.46811E-03 11360   0.445E-01    0.150E-01
DAV:  10    -0.190725628768E+03   -0.31759E-03   -0.14552E-03 10080   0.139E-01    0.104E-01
DAV:  11    -0.190725477498E+03    0.15127E-03   -0.58438E-04  9880   0.908E-02    0.439E-02
DAV:  12    -0.190725475920E+03    0.15781E-05   -0.10309E-04  7120   0.358E-02
   4 F= -.19072548E+03 E0= -.19062788E+03  d E =-.980744E+00
       N       E                     dE             d eps       ncg     rms          rms(c)
DAV:   1    -0.192199930834E+03   -0.14745E+01   -0.17536E+02  8160   0.295E+01    0.587E+00
DAV:   2    -0.191896987867E+03    0.30294E+00   -0.98646E+00 10960   0.810E+00    0.404E+00
DAV:   3    -0.192373459952E+03   -0.47647E+00   -0.28111E+00 12200   0.109E+01    0.867E+00
DAV:   4    -0.191688524035E+03    0.68494E+00   -0.23559E+00 11600   0.110E+01    0.352E+00
DAV:   5    -0.191634333847E+03    0.54190E-01   -0.58867E-01 12240   0.566E+00    0.443E+00
DAV:   6    -0.191476200498E+03    0.15813E+00   -0.63655E-01 12320   0.525E+00    0.164E+00
DAV:   7    -0.191464933484E+03    0.11267E-01   -0.10139E-01 12440   0.188E+00    0.121E+00
DAV:   8    -0.191448794061E+03    0.16139E-01   -0.33544E-02 12280   0.139E+00    0.474E-01
DAV:   9    -0.191445984157E+03    0.28099E-02   -0.74460E-03 11320   0.494E-01    0.200E-01
DAV:  10    -0.191446118469E+03   -0.13431E-03   -0.28599E-03 11560   0.215E-01    0.104E-01
DAV:  11    -0.191446035751E+03    0.82718E-04   -0.61226E-04 10600   0.935E-02
   5 F= -.19144604E+03 E0= -.19135296E+03  d E =-.720560E+00
       N       E                     dE             d eps       ncg     rms          rms(c)
DAV:   1    -0.191519186859E+03   -0.73068E-01   -0.60892E+00  8160   0.520E+00    0.736E-01
DAV:   2    -0.191593032095E+03   -0.73845E-01   -0.31209E-01 13080   0.342E+00    0.241E+00
DAV:   3    -0.191528052136E+03    0.64980E-01   -0.11310E-01 12600   0.257E+00    0.334E-01
DAV:   4    -0.191530651407E+03   -0.25993E-02   -0.12198E-02 11520   0.740E-01    0.682E-01
DAV:   5    -0.191526398744E+03    0.42527E-02   -0.96482E-03 10920   0.703E-01    0.238E-01
DAV:   6    -0.191526715381E+03   -0.31664E-03   -0.37425E-03 11400   0.328E-01    0.277E-01
DAV:   7    -0.191526345593E+03    0.36979E-03   -0.34502E-03 11360   0.400E-01    0.231E-01
DAV:   8    -0.191525795260E+03    0.55033E-03   -0.10923E-03  9920   0.216E-01    0.414E-02
DAV:   9    -0.191525793645E+03    0.16147E-05   -0.10011E-04  6520   0.424E-02
   6 F= -.19152579E+03 E0= -.19143090E+03  d E =-.797579E-01
       N       E                     dE             d eps       ncg     rms          rms(c)
DAV:   1    -0.191626180497E+03   -0.10039E+00   -0.16512E+01  8160   0.848E+00    0.969E-01
DAV:   2    -0.191727539485E+03   -0.10136E+00   -0.46289E-01 13080   0.369E+00    0.279E+00
DAV:   3    -0.191641413392E+03    0.86126E-01   -0.18194E-01 12520   0.324E+00    0.643E-01
DAV:   4    -0.191648399913E+03   -0.69865E-02   -0.32837E-02 12000   0.123E+00    0.110E+00
DAV:   5    -0.191636843500E+03    0.11556E-01   -0.24267E-02 11800   0.110E+00    0.314E-01
DAV:   6    -0.191638343820E+03   -0.15003E-02   -0.79861E-03 11320   0.536E-01    0.481E-01
DAV:   7    -0.191636777531E+03    0.15663E-02   -0.77554E-03 11600   0.617E-01    0.288E-01
DAV:   8    -0.191635840608E+03    0.93692E-03   -0.19215E-03 10280   0.271E-01    0.555E-02
DAV:   9    -0.191635817123E+03    0.23486E-04   -0.22351E-04  7640   0.569E-02
   7 F= -.19163582E+03 E0= -.19154021E+03  d E =-.110023E+00
       N       E                     dE             d eps       ncg     rms          rms(c)
DAV:   1    -0.191665072095E+03   -0.29231E-01   -0.95357E-01  8160   0.214E+00    0.377E-01
DAV:   2    -0.191672259506E+03   -0.71874E-02   -0.49293E-02 12040   0.122E+00    0.859E-01
DAV:   3    -0.191664107001E+03    0.81525E-02   -0.17874E-02 11720   0.103E+00    0.220E-01
DAV:   4    -0.191664213301E+03   -0.10630E-03   -0.41479E-03 11880   0.391E-01    0.332E-01
DAV:   5    -0.191663456948E+03    0.75635E-03   -0.37816E-03 10880   0.442E-01    0.218E-01
DAV:   6    -0.191662968733E+03    0.48822E-03   -0.13719E-03 10360   0.223E-01    0.665E-02
DAV:   7    -0.191662956207E+03    0.12526E-04   -0.36513E-04  7720   0.107E-01
   8 F= -.19166296E+03 E0= -.19156688E+03  d E =-.271391E-01
       N       E                     dE             d eps       ncg     rms          rms(c)
DAV:   1    -0.191719049445E+03   -0.56081E-01   -0.59485E+00  8160   0.513E+00    0.547E-01
DAV:   2    -0.191746415084E+03   -0.27366E-01   -0.17135E-01 12720   0.203E+00    0.134E+00
DAV:   3    -0.191726703438E+03    0.19712E-01   -0.47604E-02 12480   0.163E+00    0.394E-01
DAV:   4    -0.191727939182E+03   -0.12357E-02   -0.98917E-03 12320   0.672E-01    0.554E-01
DAV:   5    -0.191724992476E+03    0.29467E-02   -0.67348E-03 10680   0.619E-01    0.219E-01
DAV:   6    -0.191724901167E+03    0.91309E-04   -0.23407E-03 10920   0.249E-01    0.140E-01
DAV:   7    -0.191724524534E+03    0.37663E-03   -0.90150E-04 10720   0.126E-01    0.458E-02
DAV:   8    -0.191724545795E+03   -0.21262E-04   -0.20539E-04  6680   0.925E-02
   9 F= -.19172455E+03 E0= -.19162894E+03  d E =-.615896E-01
       N       E                     dE             d eps       ncg     rms          rms(c)
DAV:   1    -0.191749274139E+03   -0.24750E-01   -0.87203E-01  8160   0.202E+00    0.298E-01
DAV:   2    -0.191754772974E+03   -0.54988E-02   -0.38444E-02 12960   0.102E+00    0.692E-01
DAV:   3    -0.191749704493E+03    0.50685E-02   -0.12341E-02 11720   0.822E-01    0.209E-01
DAV:   4    -0.191750401593E+03   -0.69710E-03   -0.41999E-03 11440   0.427E-01    0.375E-01
DAV:   5    -0.191749080101E+03    0.13215E-02   -0.30802E-03 10840   0.397E-01    0.123E-01
DAV:   6    -0.191749007170E+03    0.72930E-04   -0.82929E-04 10000   0.155E-01
  10 F= -.19174901E+03 E0= -.19165345E+03  d E =-.244614E-01
       N       E                     dE             d eps       ncg     rms          rms(c)
DAV:   1    -0.191806754164E+03   -0.57674E-01   -0.66432E+00  8160   0.549E+00    0.595E-01
DAV:   2    -0.191833881881E+03   -0.27128E-01   -0.21206E-01 12400   0.201E+00    0.136E+00
DAV:   3    -0.191817865084E+03    0.16017E-01   -0.58280E-02 12440   0.163E+00    0.575E-01
DAV:   4    -0.191819361433E+03   -0.14963E-02   -0.18528E-02 12200   0.934E-01    0.709E-01
DAV:   5    -0.191813772224E+03    0.55892E-02   -0.95806E-03 11480   0.755E-01    0.196E-01
DAV:   6    -0.191813950263E+03   -0.17804E-03   -0.33778E-03 10760   0.263E-01    0.165E-01
DAV:   7    -0.191813464027E+03    0.48624E-03   -0.13821E-03 10800   0.193E-01    0.113E-01
DAV:   8    -0.191813371454E+03    0.92573E-04   -0.38371E-04  9000   0.137E-01
  11 F= -.19181337E+03 E0= -.19171866E+03  d E =-.643643E-01
       N       E                     dE             d eps       ncg     rms          rms(c)
DAV:   1    -0.191839865953E+03   -0.26402E-01   -0.10463E+00  8160   0.223E+00    0.304E-01
DAV:   2    -0.191844239347E+03   -0.43734E-02   -0.43095E-02 12360   0.857E-01    0.614E-01
DAV:   3    -0.191841539685E+03    0.26997E-02   -0.13516E-02 12160   0.776E-01    0.337E-01
DAV:   4    -0.191841104755E+03    0.43493E-03   -0.44533E-03 11680   0.453E-01    0.291E-01
DAV:   5    -0.191840276621E+03    0.82813E-03   -0.23239E-03 10160   0.384E-01    0.147E-01
DAV:   6    -0.191840098618E+03    0.17800E-03   -0.10602E-03 10120   0.188E-01    0.846E-02
DAV:   7    -0.191840107913E+03   -0.92952E-05   -0.49890E-04  9040   0.155E-01
  12 F= -.19184011E+03 E0= -.19174555E+03  d E =-.267365E-01
       N       E                     dE             d eps       ncg     rms          rms(c)
DAV:   1    -0.191891195641E+03   -0.51097E-01   -0.50061E+00  8160   0.479E+00    0.524E-01
DAV:   2    -0.191911083464E+03   -0.19888E-01   -0.16441E-01 11240   0.158E+00    0.119E+00
DAV:   3    -0.191900775037E+03    0.10308E-01   -0.46642E-02 12440   0.141E+00    0.560E-01
DAV:   4    -0.191897963773E+03    0.28113E-02   -0.82590E-03 12120   0.524E-01    0.273E-01
DAV:   5    -0.191897243146E+03    0.72063E-03   -0.34847E-03 11400   0.403E-01    0.243E-01
DAV:   6    -0.191897462348E+03   -0.21920E-03   -0.35544E-03 11760   0.451E-01    0.261E-01
DAV:   7    -0.191896873751E+03    0.58860E-03   -0.18196E-03 10120   0.305E-01    0.171E-01
DAV:   8    -0.191896581266E+03    0.29249E-03   -0.56140E-04  8520   0.179E-01    0.351E-02
DAV:   9    -0.191896575641E+03    0.56252E-05   -0.55028E-05  6440   0.379E-02
  13 F= -.19189658E+03 E0= -.19180317E+03  d E =-.564677E-01
       N       E                     dE             d eps       ncg     rms          rms(c)
DAV:   1    -0.191916897205E+03   -0.20316E-01   -0.64165E-01  8160   0.174E+00    0.234E-01
DAV:   2    -0.191920684899E+03   -0.37877E-02   -0.27078E-02 11120   0.708E-01    0.591E-01
DAV:   3    -0.191917834856E+03    0.28500E-02   -0.95841E-03 11880   0.655E-01    0.222E-01
DAV:   4    -0.191917319857E+03    0.51500E-03   -0.14521E-03 10760   0.198E-01    0.963E-02
DAV:   5    -0.191917223010E+03    0.96847E-04   -0.64275E-04 10720   0.120E-01
  14 F= -.19191722E+03 E0= -.19182405E+03  d E =-.206474E-01
       N       E                     dE             d eps       ncg     rms          rms(c)
DAV:   1    -0.191965762672E+03   -0.48443E-01   -0.43422E+00  8160   0.449E+00    0.564E-01
DAV:   2    -0.191991613187E+03   -0.25851E-01   -0.16656E-01 11640   0.179E+00    0.151E+00
DAV:   3    -0.191972719281E+03    0.18894E-01   -0.56507E-02 12400   0.162E+00    0.490E-01
DAV:   4    -0.191971179175E+03    0.15401E-02   -0.87473E-03 11440   0.556E-01    0.411E-01
DAV:   5    -0.191969887602E+03    0.12916E-02   -0.62028E-03 12960   0.599E-01    0.297E-01
DAV:   6    -0.191969953406E+03   -0.65804E-04   -0.40963E-03 11400   0.446E-01    0.284E-01
DAV:   7    -0.191969250286E+03    0.70312E-03   -0.23428E-03 10680   0.377E-01    0.153E-01
DAV:   8    -0.191968936852E+03    0.31343E-03   -0.53537E-04  9640   0.165E-01    0.329E-02
DAV:   9    -0.191968926364E+03    0.10487E-04   -0.70207E-05  6720   0.351E-02
  15 F= -.19196893E+03 E0= -.19187669E+03  d E =-.517034E-01
       N       E                     dE             d eps       ncg     rms          rms(c)
DAV:   1    -0.192028774526E+03   -0.59838E-01   -0.10833E+01  8160   0.704E+00    0.842E-01
DAV:   2    -0.192099699133E+03   -0.70925E-01   -0.41339E-01 10880   0.291E+00    0.236E+00
DAV:   3    -0.192050488197E+03    0.49211E-01   -0.13602E-01 12280   0.260E+00    0.780E-01
DAV:   4    -0.192048964522E+03    0.15237E-02   -0.24784E-02 12120   0.114E+00    0.731E-01
DAV:   5    -0.192042595679E+03    0.63688E-02   -0.13957E-02 12440   0.951E-01    0.284E-01
DAV:   6    -0.192042352171E+03    0.24351E-03   -0.48486E-03 11920   0.369E-01    0.215E-01
DAV:   7    -0.192042185086E+03    0.16709E-03   -0.28853E-03 11760   0.353E-01    0.261E-01
DAV:   8    -0.192041503681E+03    0.68140E-03   -0.11532E-03 10040   0.268E-01    0.527E-02
DAV:   9    -0.192041478868E+03    0.24813E-04   -0.10530E-04  6000   0.534E-02
  16 F= -.19204148E+03 E0= -.19195098E+03  d E =-.725525E-01
       N       E                     dE             d eps       ncg     rms          rms(c)
DAV:   1    -0.192055246103E+03   -0.13742E-01   -0.49377E-01  8160   0.156E+00    0.263E-01
DAV:   2    -0.192058362542E+03   -0.31164E-02   -0.27237E-02 10360   0.720E-01    0.584E-01
DAV:   3    -0.192055830376E+03    0.25322E-02   -0.97623E-03 12360   0.709E-01    0.280E-01
DAV:   4    -0.192054923188E+03    0.90719E-03   -0.19839E-03 11400   0.279E-01    0.111E-01
DAV:   5    -0.192054911054E+03    0.12134E-04   -0.99553E-04 10720   0.214E-01
  17 F= -.19205491E+03 E0= -.19196413E+03  d E =-.134322E-01
       N       E                     dE             d eps       ncg     rms          rms(c)
DAV:   1    -0.192078122705E+03   -0.23200E-01   -0.17691E+00  8160   0.283E+00    0.358E-01
DAV:   2    -0.192089962920E+03   -0.11840E-01   -0.67960E-02 11080   0.120E+00    0.994E-01
DAV:   3    -0.192081184417E+03    0.87785E-02   -0.21343E-02 12360   0.108E+00    0.301E-01
DAV:   4    -0.192080853575E+03    0.33084E-03   -0.34176E-03 11280   0.396E-01    0.269E-01
DAV:   5    -0.192080091007E+03    0.76257E-03   -0.22105E-03 12160   0.379E-01    0.137E-01
DAV:   6    -0.192080275524E+03   -0.18452E-03   -0.11620E-03 10320   0.240E-01    0.180E-01
DAV:   7    -0.192080025879E+03    0.24965E-03   -0.87782E-04  9760   0.242E-01    0.987E-02
DAV:   8    -0.192079891974E+03    0.13390E-03   -0.17583E-04  6480   0.947E-02    0.151E-02
DAV:   9    -0.192079895752E+03   -0.37777E-05   -0.43157E-05  6800   0.225E-02
  18 F= -.19207990E+03 E0= -.19199032E+03  d E =-.249847E-01
       N       E                     dE             d eps       ncg     rms          rms(c)
DAV:   1    -0.192101551465E+03   -0.21659E-01   -0.19231E+00  8160   0.296E+00    0.384E-01
DAV:   2    -0.192115885966E+03   -0.14335E-01   -0.85988E-02 10520   0.148E+00    0.994E-01
DAV:   3    -0.192105720481E+03    0.10165E-01   -0.23603E-02 12480   0.120E+00    0.351E-01
DAV:   4    -0.192105605089E+03    0.11539E-03   -0.48947E-03 10880   0.534E-01    0.345E-01
DAV:   5    -0.192104340013E+03    0.12651E-02   -0.28361E-03 10560   0.422E-01    0.138E-01
DAV:   6    -0.192104263253E+03    0.76761E-04   -0.10997E-03 11080   0.166E-01    0.933E-02
DAV:   7    -0.192104308967E+03   -0.45714E-04   -0.68342E-04 10240   0.185E-01
  19 F= -.19210431E+03 E0= -.19201595E+03  d E =-.244132E-01
       N       E                     dE             d eps       ncg     rms          rms(c)
DAV:   1    -0.192112217209E+03   -0.79540E-02   -0.22505E-01  8160   0.106E+00    0.173E-01
DAV:   2    -0.192113088421E+03   -0.87121E-03   -0.10696E-02 11000   0.413E-01    0.306E-01
DAV:   3    -0.192112582185E+03    0.50624E-03   -0.35328E-03 12280   0.447E-01    0.220E-01
DAV:   4    -0.192112072189E+03    0.51000E-03   -0.10154E-03  9600   0.211E-01    0.761E-02
DAV:   5    -0.192112006003E+03    0.66186E-04   -0.38739E-04  9360   0.975E-02
  20 F= -.19211201E+03 E0= -.19202396E+03  d E =-.769704E-02
       N       E                     dE             d eps       ncg     rms          rms(c)
DAV:   1    -0.192128718595E+03   -0.16646E-01   -0.12191E+00  8160   0.237E+00    0.311E-01
DAV:   2    -0.192138317163E+03   -0.95986E-02   -0.49107E-02 11240   0.111E+00    0.832E-01
DAV:   3    -0.192130848699E+03    0.74685E-02   -0.14200E-02 12240   0.975E-01    0.254E-01
DAV:   4    -0.192131072344E+03   -0.22364E-03   -0.27929E-03 11040   0.424E-01    0.293E-01
DAV:   5    -0.192130115143E+03    0.95720E-03   -0.17295E-03 10360   0.338E-01    0.947E-02
DAV:   6    -0.192130348515E+03   -0.23337E-03   -0.86415E-04 10160   0.209E-01    0.171E-01
DAV:   7    -0.192130105521E+03    0.24299E-03   -0.66627E-04  9240   0.213E-01    0.728E-02
DAV:   8    -0.192130028359E+03    0.77162E-04   -0.11138E-04  5760   0.703E-02
  21 F= -.19213003E+03 E0= -.19204276E+03  d E =-.180224E-01
       N       E                     dE             d eps       ncg     rms          rms(c)
DAV:   1    -0.192162037397E+03   -0.31932E-01   -0.74148E+00  8160   0.585E+00    0.700E-01
DAV:   2    -0.192198440778E+03   -0.36403E-01   -0.26374E-01 11520   0.217E+00    0.146E+00
DAV:   3    -0.192177343689E+03    0.21097E-01   -0.58357E-02 12240   0.197E+00    0.668E-01
DAV:   4    -0.192176470951E+03    0.87274E-03   -0.13917E-02 11920   0.956E-01    0.636E-01
DAV:   5    -0.192172096261E+03    0.43747E-02   -0.90179E-03 11480   0.795E-01    0.238E-01
DAV:   6    -0.192172312481E+03   -0.21622E-03   -0.39022E-03 12640   0.362E-01    0.252E-01
DAV:   7    -0.192172093244E+03    0.21924E-03   -0.28501E-03 11680   0.430E-01    0.243E-01
DAV:   8    -0.192171402432E+03    0.69081E-03   -0.92045E-04 10040   0.243E-01    0.345E-02
DAV:   9    -0.192171400511E+03    0.19209E-05   -0.96498E-05  6240   0.381E-02
  22 F= -.19217140E+03 E0= -.19208551E+03  d E =-.413722E-01
       N       E                     dE             d eps       ncg     rms          rms(c)
DAV:   1    -0.192186740823E+03   -0.15338E-01   -0.12207E+00  8160   0.238E+00    0.277E-01
DAV:   2    -0.192189989400E+03   -0.32486E-02   -0.36719E-02 11240   0.648E-01    0.397E-01
DAV:   3    -0.192189094323E+03    0.89508E-03   -0.71619E-03 12040   0.682E-01    0.320E-01
DAV:   4    -0.192188401242E+03    0.69308E-03   -0.21430E-03 11480   0.390E-01    0.223E-01
DAV:   5    -0.192187950407E+03    0.45084E-03   -0.12684E-03 10160   0.315E-01    0.116E-01
DAV:   6    -0.192187875396E+03    0.75010E-04   -0.53826E-04 10440   0.137E-01
  23 F= -.19218788E+03 E0= -.19210179E+03  d E =-.164749E-01
       N       E                     dE             d eps       ncg     rms          rms(c)
DAV:   1    -0.192194781085E+03   -0.68307E-02   -0.24209E-01  8160   0.106E+00    0.135E-01
DAV:   2    -0.192195506520E+03   -0.72543E-03   -0.71826E-03 10600   0.336E-01    0.215E-01
DAV:   3    -0.192195130054E+03    0.37647E-03   -0.14750E-03 11120   0.335E-01    0.137E-01
DAV:   4    -0.192195094136E+03    0.35918E-04   -0.58809E-04  8680   0.197E-01
  24 F= -.19219509E+03 E0= -.19210878E+03  d E =-.721874E-02
       N       E                     dE             d eps       ncg     rms          rms(c)
DAV:   1    -0.192170827874E+03    0.24302E-01   -0.32071E+00  8160   0.385E+00    0.508E-01
DAV:   2    -0.192193966113E+03   -0.23138E-01   -0.10999E-01 11440   0.175E+00    0.142E+00
DAV:   3    -0.192173574107E+03    0.20392E-01   -0.43973E-02 12240   0.164E+00    0.393E-01
DAV:   4    -0.192174043780E+03   -0.46967E-03   -0.68778E-03 11520   0.643E-01    0.443E-01
DAV:   5    -0.192171766539E+03    0.22772E-02   -0.42422E-03 12040   0.568E-01    0.177E-01
DAV:   6    -0.192171987565E+03   -0.22103E-03   -0.17980E-03 11640   0.328E-01    0.232E-01
DAV:   7    -0.192171589267E+03    0.39830E-03   -0.13053E-03 10480   0.323E-01    0.130E-01
DAV:   8    -0.192171353524E+03    0.23574E-03   -0.37544E-04  9240   0.134E-01    0.236E-02
DAV:   9    -0.192171352968E+03    0.55556E-06   -0.50423E-05  6920   0.278E-02
  25 F= -.19217135E+03 E0= -.19208601E+03  d E =0.237412E-01
       N       E                     dE             d eps       ncg     rms          rms(c)
DAV:   1    -0.192127056823E+03    0.44297E-01   -0.13741E+01  8160   0.802E+00    0.102E+00
DAV:   2    -0.192203159473E+03   -0.76103E-01   -0.43858E-01 11800   0.336E+00    0.257E+00
DAV:   3    -0.192142264081E+03    0.60895E-01   -0.17593E-01 12360   0.312E+00    0.903E-01
DAV:   4    -0.192144509991E+03   -0.22459E-02   -0.37633E-02 12400   0.146E+00    0.103E+00
DAV:   5    -0.192132781209E+03    0.11729E-01   -0.22962E-02 12160   0.126E+00    0.419E-01
DAV:   6    -0.192134230822E+03   -0.14496E-02   -0.10321E-02 11760   0.802E-01    0.574E-01
DAV:   7    -0.192131440309E+03    0.27905E-02   -0.75441E-03 11760   0.730E-01    0.235E-01
DAV:   8    -0.192130514795E+03    0.92551E-03   -0.15023E-03 10480   0.229E-01    0.447E-02
DAV:   9    -0.192130507915E+03    0.68802E-05   -0.20702E-04  8680   0.483E-02
  26 F= -.19213051E+03 E0= -.19204361E+03  d E =0.408451E-01
       N       E                     dE             d eps       ncg     rms          rms(c)
DAV:   1    -0.192134628430E+03   -0.41136E-02   -0.40036E-01  8160   0.137E+00    0.193E-01
DAV:   2    -0.192136218589E+03   -0.15902E-02   -0.15181E-02 12680   0.515E-01    0.371E-01
DAV:   3    -0.192135174241E+03    0.10443E-02   -0.45719E-03 12080   0.527E-01    0.231E-01
DAV:   4    -0.192134671773E+03    0.50247E-03   -0.12177E-03  9960   0.228E-01    0.114E-01
DAV:   5    -0.192134686064E+03   -0.14291E-04   -0.88596E-04 10480   0.227E-01
  27 F= -.19213469E+03 E0= -.19204833E+03  d E =-.417815E-02
       N       E                     dE             d eps       ncg     rms          rms(c)
DAV:   1    -0.192125207616E+03    0.94642E-02   -0.24037E+00  8160   0.336E+00    0.402E-01
DAV:   2    -0.192130475603E+03   -0.52680E-02   -0.63460E-02 11240   0.963E-01    0.572E-01
DAV:   3    -0.192128890925E+03    0.15847E-02   -0.15063E-02 11960   0.979E-01    0.464E-01
DAV:   4    -0.192127257682E+03    0.16332E-02   -0.48738E-03 12000   0.555E-01    0.299E-01
DAV:   5    -0.192126451934E+03    0.80575E-03   -0.29396E-03 10480   0.456E-01    0.183E-01
DAV:   6    -0.192126267752E+03    0.18418E-03   -0.12744E-03 10520   0.236E-01    0.124E-01
DAV:   7    -0.192126234404E+03    0.33349E-04   -0.83249E-04  9720   0.205E-01
  28 F= -.19212623E+03 E0= -.19203930E+03  d E =0.845166E-02
       N       E                     dE             d eps       ncg     rms          rms(c)
DAV:   1    -0.192131830643E+03   -0.55629E-02   -0.61893E-01  8160   0.170E+00    0.196E-01
DAV:   2    -0.192134815112E+03   -0.29845E-02   -0.18387E-02 12680   0.626E-01    0.480E-01
DAV:   3    -0.192132645772E+03    0.21693E-02   -0.57380E-03 12200   0.585E-01    0.191E-01
DAV:   4    -0.192132536833E+03    0.10894E-03   -0.12977E-03  9680   0.241E-01    0.171E-01
DAV:   5    -0.192132257855E+03    0.27898E-03   -0.89142E-04 10360   0.228E-01    0.882E-02
DAV:   6    -0.192132292136E+03   -0.34281E-04   -0.43367E-04  8520   0.154E-01
  29 F= -.19213229E+03 E0= -.19204499E+03  d E =-.605773E-02
       N       E                     dE             d eps       ncg     rms          rms(c)
DAV:   1    -0.192135202235E+03   -0.29444E-02   -0.17732E-01  8160   0.905E-01    0.116E-01
DAV:   2    -0.192136229262E+03   -0.10270E-02   -0.74465E-03 11400   0.401E-01    0.251E-01
DAV:   3    -0.192135594699E+03    0.63456E-03   -0.17280E-03 12080   0.334E-01    0.110E-01
DAV:   4    -0.192135605492E+03   -0.10793E-04   -0.50417E-04  8800   0.165E-01
  30 F= -.19213561E+03 E0= -.19204788E+03  d E =-.331336E-02
       N       E                     dE             d eps       ncg     rms          rms(c)
DAV:   1    -0.192138128486E+03   -0.25338E-02   -0.12063E-01  8160   0.751E-01    0.105E-01
DAV:   2    -0.192138936421E+03   -0.80793E-03   -0.44906E-03 12520   0.302E-01    0.273E-01
DAV:   3    -0.192138264382E+03    0.67204E-03   -0.17781E-03 10960   0.296E-01    0.906E-02
DAV:   4    -0.192138184311E+03    0.80071E-04   -0.12962E-04  5920   0.715E-02
  31 F= -.19213818E+03 E0= -.19205142E+03  d E =-.257882E-02
       N       E                     dE             d eps       ncg     rms          rms(c)
DAV:   1    -0.192141875051E+03   -0.36107E-02   -0.23761E-01  8160   0.105E+00    0.151E-01
DAV:   2    -0.192144115257E+03   -0.22402E-02   -0.98281E-03 12600   0.535E-01    0.421E-01
DAV:   3    -0.192142182943E+03    0.19323E-02   -0.37471E-03 12400   0.493E-01    0.130E-01
DAV:   4    -0.192142259885E+03   -0.76943E-04   -0.82937E-04  9320   0.213E-01
  32 F= -.19214226E+03 E0= -.19205473E+03  d E =-.407557E-02
       N       E                     dE             d eps       ncg     rms          rms(c)
DAV:   1    -0.192142570015E+03   -0.38707E-03   -0.49911E-03 11040   0.221E-01    0.491E-02
DAV:   2    -0.192142798412E+03   -0.22840E-03   -0.60395E-04 10080   0.167E-01    0.158E-01
DAV:   3    -0.192142549829E+03    0.24858E-03   -0.45635E-04  8720   0.159E-01    0.340E-02
DAV:   4    -0.192142560450E+03   -0.10621E-04   -0.51000E-05  5920   0.521E-02
  33 F= -.19214256E+03 E0= -.19205600E+03  d E =-.300565E-03
       N       E                     dE             d eps       ncg     rms          rms(c)
DAV:   1    -0.192146490416E+03   -0.39406E-02   -0.25689E-01  8160   0.109E+00    0.143E-01
DAV:   2    -0.192148070291E+03   -0.15799E-02   -0.89378E-03 11680   0.459E-01    0.349E-01
DAV:   3    -0.192146825188E+03    0.12451E-02   -0.28211E-03 12280   0.429E-01    0.133E-01
DAV:   4    -0.192146828529E+03   -0.33412E-05   -0.66212E-04  9120   0.194E-01
  34 F= -.19214683E+03 E0= -.19205984E+03  d E =-.426808E-02
       N       E                     dE             d eps       ncg     rms          rms(c)
DAV:   1    -0.192146510058E+03    0.31513E-03   -0.11428E-03 11040   0.194E-01    0.616E-02
DAV:   2    -0.192147201949E+03   -0.69189E-03   -0.14909E-03 10720   0.287E-01    0.260E-01
DAV:   3    -0.192146473327E+03    0.72862E-03   -0.11065E-03  9160   0.252E-01    0.408E-02
DAV:   4    -0.192146478566E+03   -0.52395E-05   -0.60472E-05  5760   0.613E-02
  35 F= -.19214648E+03 E0= -.19206024E+03  d E =0.349962E-03
       N       E                     dE             d eps       ncg     rms          rms(c)
DAV:   1    -0.192150538189E+03   -0.40649E-02   -0.24987E-01  8160   0.108E+00    0.141E-01
DAV:   2    -0.192151749413E+03   -0.12112E-02   -0.85424E-03 11680   0.411E-01    0.305E-01
DAV:   3    -0.192150898146E+03    0.85127E-03   -0.24302E-03 12440   0.394E-01    0.142E-01
DAV:   4    -0.192150839049E+03    0.59097E-04   -0.61339E-04  9080   0.186E-01
  36 F= -.19215084E+03 E0= -.19206438E+03  d E =-.436048E-02
       N       E                     dE             d eps       ncg     rms          rms(c)
DAV:   1    -0.192148936231E+03    0.19619E-02   -0.39575E-02  8160   0.456E-01    0.744E-02
DAV:   2    -0.192150067357E+03   -0.11311E-02   -0.30928E-03 12080   0.369E-01    0.308E-01
DAV:   3    -0.192148982939E+03    0.10844E-02   -0.16291E-03 10000   0.316E-01    0.456E-02
DAV:   4    -0.192148995929E+03   -0.12990E-04   -0.88480E-05  5880   0.773E-02
  37 F= -.19214900E+03 E0= -.19206294E+03  d E =0.184312E-02
       N       E                     dE             d eps       ncg     rms          rms(c)
DAV:   1    -0.192148688567E+03    0.29437E-03   -0.25189E-02  8160   0.343E-01    0.588E-02
DAV:   2    -0.192148982774E+03   -0.29421E-03   -0.13962E-03 12480   0.212E-01    0.154E-01
DAV:   3    -0.192148704605E+03    0.27817E-03   -0.52141E-04  8760   0.186E-01    0.475E-02
DAV:   4    -0.192148719873E+03   -0.15268E-04   -0.10957E-04  5600   0.825E-02
  38 F= -.19214872E+03 E0= -.19206261E+03  d E =0.276056E-03
       N       E                     dE             d eps       ncg     rms          rms(c)
DAV:   1    -0.192152991028E+03   -0.42864E-02   -0.28197E-01  8160   0.116E+00    0.140E-01
DAV:   2    -0.192154012607E+03   -0.10216E-02   -0.85087E-03 12480   0.367E-01    0.266E-01
DAV:   3    -0.192153397219E+03    0.61539E-03   -0.22253E-03 12120   0.378E-01    0.154E-01
DAV:   4    -0.192153321891E+03    0.75328E-04   -0.69353E-04  9040   0.195E-01
  39 F= -.19215332E+03 E0= -.19206674E+03  d E =-.460202E-02
       N       E                     dE             d eps       ncg     rms          rms(c)
DAV:   1    -0.192147377269E+03    0.60200E-02   -0.41733E-01  8160   0.143E+00    0.170E-01
DAV:   2    -0.192148543763E+03   -0.11665E-02   -0.13229E-02 11360   0.403E-01    0.260E-01
DAV:   3    -0.192148076851E+03    0.46691E-03   -0.30003E-03 11840   0.435E-01    0.193E-01
DAV:   4    -0.192147789241E+03    0.28761E-03   -0.90439E-04  9840   0.234E-01    0.128E-01
DAV:   5    -0.192147627884E+03    0.16136E-03   -0.46713E-04  8720   0.189E-01    0.676E-02
DAV:   6    -0.192147588762E+03    0.39121E-04   -0.15101E-04  6240   0.788E-02
  40 F= -.19214759E+03 E0= -.19206143E+03  d E =0.573313E-02
       N       E                     dE             d eps       ncg     rms          rms(c)
DAV:   1    -0.192144151575E+03    0.34763E-02   -0.18467E-01  8160   0.926E-01    0.135E-01
DAV:   2    -0.192145871614E+03   -0.17200E-02   -0.88255E-03 11680   0.490E-01    0.389E-01
DAV:   3    -0.192144426192E+03    0.14454E-02   -0.33806E-03 10920   0.412E-01    0.114E-01
DAV:   4    -0.192144456017E+03   -0.29825E-04   -0.61952E-04  8720   0.192E-01
  41 F= -.19214446E+03 E0= -.19205815E+03  d E =0.313275E-02
       N       E                     dE             d eps       ncg     rms          rms(c)
DAV:   1    -0.192147656209E+03   -0.32300E-02   -0.22649E-01  8160   0.103E+00    0.124E-01
DAV:   2    -0.192149371850E+03   -0.17156E-02   -0.94516E-03 11800   0.467E-01    0.319E-01
DAV:   3    -0.192148128382E+03    0.12435E-02   -0.21837E-03 11040   0.395E-01    0.862E-02
DAV:   4    -0.192148182444E+03   -0.54063E-04   -0.34746E-04  8520   0.155E-01
  42 F= -.19214818E+03 E0= -.19206171E+03  d E =-.372643E-02
       N       E                     dE             d eps       ncg     rms          rms(c)
DAV:   1    -0.192147642003E+03    0.48638E-03   -0.26867E-03 11560   0.180E-01    0.338E-02
DAV:   2    -0.192147825724E+03   -0.18372E-03   -0.42555E-04  9240   0.146E-01    0.132E-01
DAV:   3    -0.192147639855E+03    0.18587E-03   -0.28993E-04  7960   0.132E-01    0.232E-02
DAV:   4    -0.192147648498E+03   -0.86426E-05   -0.30545E-05  5800   0.422E-02
  43 F= -.19214765E+03 E0= -.19206174E+03  d E =0.533946E-03
       N       E                     dE             d eps       ncg     rms          rms(c)
DAV:   1    -0.192150826450E+03   -0.31866E-02   -0.19353E-01  8160   0.947E-01    0.126E-01
DAV:   2    -0.192152396121E+03   -0.15697E-02   -0.71846E-03 11880   0.475E-01    0.363E-01
DAV:   3    -0.192151021473E+03    0.13746E-02   -0.23856E-03 11880   0.405E-01    0.981E-02
DAV:   4    -0.192151048842E+03   -0.27369E-04   -0.44495E-04  8240   0.160E-01
  44 F= -.19215105E+03 E0= -.19206478E+03  d E =-.340034E-02
       N       E                     dE             d eps       ncg     rms          rms(c)
DAV:   1    -0.192148396832E+03    0.26246E-02   -0.12807E-01  8160   0.779E-01    0.126E-01
DAV:   2    -0.192151434182E+03   -0.30374E-02   -0.79745E-03 12240   0.609E-01    0.517E-01
DAV:   3    -0.192148459720E+03    0.29745E-02   -0.38581E-03 10880   0.524E-01    0.475E-02
DAV:   4    -0.192148509249E+03   -0.49528E-04   -0.18461E-04  7360   0.106E-01
  45 F= -.19214851E+03 E0= -.19206271E+03  d E =0.253959E-02
       N       E                     dE             d eps       ncg     rms          rms(c)
DAV:   1    -0.192148248579E+03    0.21114E-03   -0.37576E-02  8160   0.431E-01    0.650E-02
DAV:   2    -0.192148483473E+03   -0.23489E-03   -0.17349E-03 12120   0.204E-01    0.145E-01
DAV:   3    -0.192148273758E+03    0.20971E-03   -0.56010E-04  8680   0.180E-01    0.557E-02
DAV:   4    -0.192148275507E+03   -0.17489E-05   -0.14335E-04  5440   0.943E-02
  46 F= -.19214828E+03 E0= -.19206214E+03  d E =0.233741E-03
       N       E                     dE             d eps       ncg     rms          rms(c)
DAV:   1    -0.192147457538E+03    0.81622E-03   -0.31304E-02  8160   0.397E-01    0.600E-02
DAV:   2    -0.192147755370E+03   -0.29783E-03   -0.15414E-03 12720   0.196E-01    0.165E-01
DAV:   3    -0.192147480454E+03    0.27492E-03   -0.63232E-04  8480   0.188E-01    0.521E-02
DAV:   4    -0.192147468633E+03    0.11822E-04   -0.10040E-04  5640   0.595E-02
  47 F= -.19214747E+03 E0= -.19206118E+03  d E =0.806875E-03
       N       E                     dE             d eps       ncg     rms          rms(c)
DAV:   1    -0.192151841251E+03   -0.43608E-02   -0.33559E-01  8160   0.126E+00    0.183E-01
DAV:   2    -0.192155491923E+03   -0.36507E-02   -0.13832E-02 12360   0.686E-01    0.567E-01
DAV:   3    -0.192152047794E+03    0.34441E-02   -0.53954E-03 12240   0.619E-01    0.126E-01
DAV:   4    -0.192152118841E+03   -0.71047E-04   -0.85643E-04  9680   0.200E-01
  48 F= -.19215212E+03 E0= -.19206516E+03  d E =-.465021E-02
       N       E                     dE             d eps       ncg     rms          rms(c)
DAV:   1    -0.192147437016E+03    0.46108E-02   -0.31042E-01  8160   0.125E+00    0.163E-01
DAV:   2    -0.192149093865E+03   -0.16568E-02   -0.12140E-02 12320   0.488E-01    0.366E-01
DAV:   3    -0.192147812844E+03    0.12810E-02   -0.37489E-03 11440   0.472E-01    0.151E-01
DAV:   4    -0.192147724902E+03    0.87942E-04   -0.84219E-04  8960   0.204E-01
  49 F= -.19214772E+03 E0= -.19206164E+03  d E =0.439394E-02
       N       E                     dE             d eps       ncg     rms          rms(c)
DAV:   1    -0.192145409078E+03    0.24038E-02   -0.16508E-01  8160   0.897E-01    0.164E-01
DAV:   2    -0.192146806128E+03   -0.13971E-02   -0.79396E-03 11080   0.525E-01    0.391E-01
DAV:   3    -0.192145266927E+03    0.15392E-02   -0.35004E-03 11280   0.470E-01    0.138E-01
DAV:   4    -0.192145210286E+03    0.56641E-04   -0.83200E-04  8880   0.203E-01
  50 F= -.19214521E+03 E0= -.19205851E+03  d E =0.251462E-02
       N       E                     dE             d eps       ncg     rms          rms(c)
DAV:   1    -0.192149925432E+03   -0.46585E-02   -0.42386E-01  8160   0.141E+00    0.214E-01
DAV:   2    -0.192157763964E+03   -0.78385E-02   -0.20774E-02 12240   0.962E-01    0.845E-01
DAV:   3    -0.192150165264E+03    0.75987E-02   -0.10145E-02 11400   0.843E-01    0.113E-01
DAV:   4    -0.192150442478E+03   -0.27721E-03   -0.11408E-03 10120   0.237E-01    0.201E-01
DAV:   5    -0.192150022032E+03    0.42045E-03   -0.79911E-04  8560   0.216E-01    0.537E-02
DAV:   6    -0.192150043191E+03   -0.21160E-04   -0.17774E-04  6480   0.940E-02
  51 F= -.19215004E+03 E0= -.19206439E+03  d E =-.483291E-02
       N       E                     dE             d eps       ncg     rms          rms(c)
DAV:   1    -0.192148555929E+03    0.14661E-02   -0.31914E-02  8160   0.393E-01    0.540E-02
DAV:   2    -0.192148808261E+03   -0.25233E-03   -0.12572E-03 12320   0.189E-01    0.139E-01
DAV:   3    -0.192148579022E+03    0.22924E-03   -0.41283E-04  8560   0.172E-01    0.447E-02
DAV:   4    -0.192148576487E+03    0.25353E-05   -0.73575E-05  5480   0.717E-02
  52 F= -.19214858E+03 E0= -.19206279E+03  d E =0.146670E-02
       N       E                     dE             d eps       ncg     rms          rms(c)
DAV:   1    -0.192154634211E+03   -0.60552E-02   -0.56607E-01  8160   0.164E+00    0.204E-01
DAV:   2    -0.192156376032E+03   -0.17418E-02   -0.17918E-02 11960   0.530E-01    0.358E-01
DAV:   3    -0.192155499346E+03    0.87669E-03   -0.40619E-03 12320   0.523E-01    0.225E-01
DAV:   4    -0.192154971306E+03    0.52804E-03   -0.10326E-03  9920   0.236E-01    0.112E-01
DAV:   5    -0.192155070740E+03   -0.99434E-04   -0.88952E-04  9760   0.236E-01
  53 F= -.19215507E+03 E0= -.19206982E+03  d E =-.649425E-02
       N       E                     dE             d eps       ncg     rms          rms(c)
DAV:   1    -0.192152855455E+03    0.21159E-02   -0.57438E-02  8160   0.552E-01    0.909E-02
DAV:   2    -0.192154269782E+03   -0.14143E-02   -0.42466E-03 11440   0.413E-01    0.365E-01
DAV:   3    -0.192152861180E+03    0.14086E-02   -0.21887E-03 10080   0.356E-01    0.524E-02
DAV:   4    -0.192152855302E+03    0.58780E-05   -0.12120E-04  5600   0.823E-02
  54 F= -.19215286E+03 E0= -.19206720E+03  d E =0.221544E-02
       N       E                     dE             d eps       ncg     rms          rms(c)
DAV:   1    -0.192154874973E+03   -0.20138E-02   -0.10523E-01  8160   0.721E-01    0.117E-01
DAV:   2    -0.192155328659E+03   -0.45369E-03   -0.44823E-03 11480   0.359E-01    0.219E-01
DAV:   3    -0.192154795812E+03    0.53285E-03   -0.13404E-03 10880   0.301E-01    0.806E-02
DAV:   4    -0.192154774256E+03    0.21556E-04   -0.34159E-04  8640   0.135E-01
  55 F= -.19215477E+03 E0= -.19206952E+03  d E =-.191895E-02
       N       E                     dE             d eps       ncg     rms          rms(c)
DAV:   1    -0.192157731248E+03   -0.29354E-02   -0.10450E-01  8160   0.725E-01    0.122E-01
DAV:   2    -0.192158757238E+03   -0.10260E-02   -0.47022E-03 12280   0.411E-01    0.318E-01
DAV:   3    -0.192157678968E+03    0.10783E-02   -0.18712E-03 11280   0.368E-01    0.896E-02
DAV:   4    -0.192157768206E+03   -0.89238E-04   -0.45805E-04  8760   0.180E-01
  56 F= -.19215777E+03 E0= -.19207222E+03  d E =-.299395E-02
       N       E                     dE             d eps       ncg     rms          rms(c)
DAV:   1    -0.192156727886E+03    0.95108E-03   -0.94792E-03  8920   0.260E-01    0.535E-02
DAV:   2    -0.192157377602E+03   -0.64972E-03   -0.14404E-03 10640   0.284E-01    0.246E-01
DAV:   3    -0.192156712547E+03    0.66506E-03   -0.84913E-04  9080   0.236E-01    0.307E-02
DAV:   4    -0.192156720544E+03   -0.79968E-05   -0.39144E-05  5880   0.479E-02
  57 F= -.19215672E+03 E0= -.19207117E+03  d E =0.104766E-02
       N       E                     dE             d eps       ncg     rms          rms(c)
DAV:   1    -0.192158112368E+03   -0.13998E-02   -0.97021E-02  8160   0.668E-01    0.124E-01
DAV:   2    -0.192160320566E+03   -0.22082E-02   -0.71209E-03 12120   0.608E-01    0.432E-01
DAV:   3    -0.192158137945E+03    0.21826E-02   -0.28409E-03 11040   0.456E-01    0.852E-02
DAV:   4    -0.192158154210E+03   -0.16264E-04   -0.35686E-04  8280   0.148E-01
  58 F= -.19215815E+03 E0= -.19207237E+03  d E =-.143367E-02
       N       E                     dE             d eps       ncg     rms          rms(c)
DAV:   1    -0.192160168355E+03   -0.20304E-02   -0.17442E-01  8160   0.907E-01    0.194E-01
DAV:   2    -0.192163915406E+03   -0.37471E-02   -0.13650E-02 11640   0.847E-01    0.581E-01
DAV:   3    -0.192159782105E+03    0.41333E-02   -0.57099E-03 11120   0.647E-01    0.995E-02
DAV:   4    -0.192160166895E+03   -0.38479E-03   -0.10661E-03 10040   0.272E-01    0.221E-01
DAV:   5    -0.192159637868E+03    0.52903E-03   -0.77921E-04  9160   0.228E-01    0.568E-02
DAV:   6    -0.192159637758E+03    0.11027E-06   -0.24116E-04  6320   0.957E-02
  59 F= -.19215964E+03 E0= -.19207441E+03  d E =-.148355E-02
       N       E                     dE             d eps       ncg     rms          rms(c)
DAV:   1    -0.192158943672E+03    0.69420E-03   -0.50195E-03  8160   0.182E-01    0.384E-02
DAV:   2    -0.192159231896E+03   -0.28822E-03   -0.62724E-04  9600   0.189E-01    0.165E-01
DAV:   3    -0.192158927797E+03    0.30410E-03   -0.39990E-04  8640   0.168E-01    0.213E-02
DAV:   4    -0.192158934053E+03   -0.62564E-05   -0.28482E-05  5880   0.317E-02
  60 F= -.19215893E+03 E0= -.19207352E+03  d E =0.703705E-03
       N       E                     dE             d eps       ncg     rms          rms(c)
DAV:   1    -0.192164375806E+03   -0.54480E-02   -0.33840E-01  8160   0.126E+00    0.159E-01
DAV:   2    -0.192165748025E+03   -0.13722E-02   -0.10690E-02 10480   0.519E-01    0.306E-01
DAV:   3    -0.192164709842E+03    0.10382E-02   -0.25914E-03 12280   0.420E-01    0.120E-01
DAV:   4    -0.192164753777E+03   -0.43935E-04   -0.56721E-04  9320   0.202E-01
  61 F= -.19216475E+03 E0= -.19207917E+03  d E =-.581972E-02
       N       E                     dE             d eps       ncg     rms          rms(c)
DAV:   1    -0.192163130055E+03    0.15798E-02   -0.20079E-02  8960   0.378E-01    0.742E-02
DAV:   2    -0.192164124429E+03   -0.99437E-03   -0.21875E-03 11680   0.354E-01    0.299E-01
DAV:   3    -0.192163108104E+03    0.10163E-02   -0.12732E-03  9920   0.308E-01    0.490E-02
DAV:   4    -0.192163115975E+03   -0.78710E-05   -0.90889E-05  5800   0.801E-02
  62 F= -.19216312E+03 E0= -.19207795E+03  d E =0.163780E-02
       N       E                     dE             d eps       ncg     rms          rms(c)
DAV:   1    -0.192164556226E+03   -0.14481E-02   -0.13931E-01  8160   0.806E-01    0.145E-01
DAV:   2    -0.192166728412E+03   -0.21722E-02   -0.84932E-03 12480   0.579E-01    0.448E-01
DAV:   3    -0.192164537897E+03    0.21905E-02   -0.33112E-03 12000   0.493E-01    0.871E-02
DAV:   4    -0.192164453913E+03    0.83984E-04   -0.32566E-04  8320   0.102E-01
  63 F= -.19216445E+03 E0= -.19207955E+03  d E =-.133794E-02
       N       E                     dE             d eps       ncg     rms          rms(c)
DAV:   1    -0.192169454327E+03   -0.49164E-02   -0.23452E-01  8160   0.106E+00    0.174E-01
DAV:   2    -0.192171122564E+03   -0.16682E-02   -0.94466E-03 11480   0.543E-01    0.421E-01
DAV:   3    -0.192169317850E+03    0.18047E-02   -0.37256E-03 12160   0.500E-01    0.131E-01
DAV:   4    -0.192169177295E+03    0.14055E-03   -0.66201E-04  9680   0.150E-01    0.911E-02
DAV:   5    -0.192169211361E+03   -0.34066E-04   -0.56529E-04 10240   0.177E-01
  64 F= -.19216921E+03 E0= -.19208463E+03  d E =-.475745E-02
       N       E                     dE             d eps       ncg     rms          rms(c)
DAV:   1    -0.192172187482E+03   -0.30102E-02   -0.14051E-01  8160   0.817E-01    0.111E-01
DAV:   2    -0.192173128909E+03   -0.94143E-03   -0.55534E-03 12760   0.375E-01    0.268E-01
DAV:   3    -0.192172360405E+03    0.76850E-03   -0.19007E-03 11640   0.339E-01    0.974E-02
DAV:   4    -0.192172314541E+03    0.45864E-04   -0.29491E-04  8360   0.127E-01
  65 F= -.19217231E+03 E0= -.19208749E+03  d E =-.310318E-02
       N       E                     dE             d eps       ncg     rms          rms(c)
DAV:   1    -0.192173040745E+03   -0.68034E-03   -0.57430E-03  8160   0.213E-01    0.673E-02
DAV:   2    -0.192173720030E+03   -0.67929E-03   -0.13546E-03 11160   0.300E-01    0.254E-01
DAV:   3    -0.192172990621E+03    0.72941E-03   -0.90918E-04  9480   0.263E-01    0.447E-02
DAV:   4    -0.192172999893E+03   -0.92718E-05   -0.86628E-05  6160   0.692E-02
  66 F= -.19217300E+03 E0= -.19208842E+03  d E =-.685351E-03
       N       E                     dE             d eps       ncg     rms          rms(c)
DAV:   1    -0.192181397317E+03   -0.84067E-02   -0.49467E-01  8160   0.152E+00    0.213E-01
DAV:   2    -0.192183209748E+03   -0.18124E-02   -0.15938E-02 11000   0.616E-01    0.385E-01
DAV:   3    -0.192181703907E+03    0.15058E-02   -0.46417E-03 12480   0.539E-01    0.184E-01
DAV:   4    -0.192181733065E+03   -0.29157E-04   -0.14160E-03 10240   0.295E-01    0.202E-01
DAV:   5    -0.192181368575E+03    0.36449E-03   -0.10211E-03 10040   0.279E-01    0.106E-01
DAV:   6    -0.192181282447E+03    0.86128E-04   -0.39043E-04  9040   0.137E-01
  67 F= -.19218128E+03 E0= -.19209699E+03  d E =-.828255E-02
       N       E                     dE             d eps       ncg     rms          rms(c)
DAV:   1    -0.192181799893E+03   -0.43132E-03   -0.54133E-03 11160   0.220E-01    0.883E-02
DAV:   2    -0.192183133601E+03   -0.13337E-02   -0.23846E-03 11720   0.419E-01    0.362E-01
DAV:   3    -0.192181660924E+03    0.14727E-02   -0.15359E-03 10160   0.363E-01    0.395E-02
DAV:   4    -0.192181677980E+03   -0.17056E-04   -0.85056E-05  6000   0.665E-02
  68 F= -.19218168E+03 E0= -.19209714E+03  d E =-.395533E-03
       N       E                     dE             d eps       ncg     rms          rms(c)
DAV:   1    -0.192190515589E+03   -0.88547E-02   -0.49819E-01  8160   0.153E+00    0.203E-01
DAV:   2    -0.192192666431E+03   -0.21508E-02   -0.15693E-02 11640   0.555E-01    0.423E-01
DAV:   3    -0.192191027513E+03    0.16389E-02   -0.47765E-03 12000   0.558E-01    0.188E-01
DAV:   4    -0.192190688164E+03    0.33935E-03   -0.74952E-04 10080   0.191E-01    0.992E-02
DAV:   5    -0.192190724096E+03   -0.35932E-04   -0.56648E-04  9400   0.209E-01
  69 F= -.19219072E+03 E0= -.19210610E+03  d E =-.904612E-02
       N       E                     dE             d eps       ncg     rms          rms(c)
DAV:   1    -0.192195726151E+03   -0.50380E-02   -0.14885E-01  8160   0.853E-01    0.124E-01
DAV:   2    -0.192196476355E+03   -0.75020E-03   -0.48284E-03 11600   0.336E-01    0.264E-01
DAV:   3    -0.192195815441E+03    0.66091E-03   -0.15212E-03 11480   0.338E-01    0.108E-01
DAV:   4    -0.192195697044E+03    0.11840E-03   -0.19096E-04  8200   0.954E-02    0.468E-02
DAV:   5    -0.192195760650E+03   -0.63605E-04   -0.22077E-04  8880   0.125E-01
  70 F= -.19219576E+03 E0= -.19211120E+03  d E =-.503655E-02
       N       E                     dE             d eps       ncg     rms          rms(c)
DAV:   1    -0.192206594886E+03   -0.10898E-01   -0.60706E-01  8160   0.168E+00    0.235E-01
DAV:   2    -0.192210038631E+03   -0.34437E-02   -0.21198E-02 11440   0.769E-01    0.518E-01
DAV:   3    -0.192207013771E+03    0.30249E-02   -0.67152E-03 12360   0.653E-01    0.177E-01
DAV:   4    -0.192207290081E+03   -0.27631E-03   -0.16020E-03 10280   0.335E-01    0.238E-01
DAV:   5    -0.192206664038E+03    0.62604E-03   -0.10740E-03 10120   0.299E-01    0.808E-02
DAV:   6    -0.192206653935E+03    0.10103E-04   -0.31889E-04  8920   0.108E-01
  71 F= -.19220665E+03 E0= -.19212181E+03  d E =-.108933E-01
       N       E                     dE             d eps       ncg     rms          rms(c)
DAV:   1    -0.192207778769E+03   -0.11147E-02   -0.65771E-03  8560   0.206E-01    0.691E-02
DAV:   2    -0.192208841272E+03   -0.10625E-02   -0.16843E-03 11240   0.364E-01    0.315E-01
DAV:   3    -0.192207721957E+03    0.11193E-02   -0.10637E-03 10120   0.305E-01    0.204E-02
DAV:   4    -0.192207742714E+03   -0.20757E-04   -0.32760E-05  6040   0.441E-02
  72 F= -.19220774E+03 E0= -.19212278E+03  d E =-.108878E-02
       N       E                     dE             d eps       ncg     rms          rms(c)
DAV:   1    -0.192218109979E+03   -0.10388E-01   -0.51933E-01  8160   0.155E+00    0.210E-01
DAV:   2    -0.192220717422E+03   -0.26074E-02   -0.16659E-02 11360   0.621E-01    0.468E-01
DAV:   3    -0.192218524119E+03    0.21933E-02   -0.56048E-03 11920   0.595E-01    0.177E-01
DAV:   4    -0.192218422767E+03    0.10135E-03   -0.91761E-04 10040   0.237E-01    0.152E-01
DAV:   5    -0.192218160826E+03    0.26194E-03   -0.62221E-04  9760   0.229E-01    0.766E-02
DAV:   6    -0.192218147173E+03    0.13653E-04   -0.26019E-04  8120   0.112E-01
  73 F= -.19221815E+03 E0= -.19213273E+03  d E =-.104045E-01
       N       E                     dE             d eps       ncg     rms          rms(c)
DAV:   1    -0.192219877744E+03   -0.17169E-02   -0.14547E-02  8160   0.279E-01    0.692E-02
DAV:   2    -0.192220768309E+03   -0.89057E-03   -0.16323E-03 11320   0.337E-01    0.286E-01
DAV:   3    -0.192219834006E+03    0.93430E-03   -0.95642E-04 10160   0.284E-01    0.280E-02
DAV:   4    -0.192219858946E+03   -0.24940E-04   -0.51175E-05  5760   0.642E-02
  74 F= -.19221986E+03 E0= -.19213426E+03  d E =-.171177E-02
       N       E                     dE             d eps       ncg     rms          rms(c)
DAV:   1    -0.192228490778E+03   -0.86568E-02   -0.35538E-01  8160   0.128E+00    0.181E-01
DAV:   2    -0.192230597911E+03   -0.21071E-02   -0.13308E-02 10720   0.589E-01    0.410E-01
DAV:   3    -0.192228815315E+03    0.17826E-02   -0.42909E-03 11800   0.513E-01    0.143E-01
DAV:   4    -0.192228885048E+03   -0.69733E-04   -0.85298E-04  9800   0.247E-01
  75 F= -.19222889E+03 E0= -.19214297E+03  d E =-.902610E-02
       N       E                     dE             d eps       ncg     rms          rms(c)
DAV:   1    -0.192228430168E+03    0.38515E-03   -0.60148E-03 10520   0.265E-01    0.747E-02
DAV:   2    -0.192229292059E+03   -0.86189E-03   -0.17186E-03 10880   0.344E-01    0.266E-01
DAV:   3    -0.192228394819E+03    0.89724E-03   -0.97935E-04 10040   0.293E-01    0.506E-02
DAV:   4    -0.192228387544E+03    0.72757E-05   -0.78502E-05  5880   0.710E-02
  76 F= -.19222839E+03 E0= -.19214248E+03  d E =0.497504E-03
       N       E                     dE             d eps       ncg     rms          rms(c)
DAV:   1    -0.192239200456E+03   -0.10806E-01   -0.60717E-01  8160   0.167E+00    0.236E-01
DAV:   2    -0.192243662056E+03   -0.44616E-02   -0.23854E-02 11360   0.776E-01    0.608E-01
DAV:   3    -0.192239780328E+03    0.38817E-02   -0.84835E-03 11880   0.725E-01    0.179E-01
DAV:   4    -0.192239636938E+03    0.14339E-03   -0.10889E-03  9880   0.224E-01    0.134E-01
DAV:   5    -0.192239441946E+03    0.19499E-03   -0.70470E-04 10600   0.216E-01    0.964E-02
DAV:   6    -0.192239402499E+03    0.39447E-04   -0.40234E-04  9240   0.163E-01
  77 F= -.19223940E+03 E0= -.19215257E+03  d E =-.110150E-01
       N       E                     dE             d eps       ncg     rms          rms(c)
DAV:   1    -0.192257519807E+03   -0.18078E-01   -0.20844E+00  8160   0.309E+00    0.429E-01
DAV:   2    -0.192275075994E+03   -0.17556E-01   -0.85554E-02 11240   0.151E+00    0.121E+00
DAV:   3    -0.192259676420E+03    0.15400E-01   -0.31871E-02 12680   0.138E+00    0.291E-01
DAV:   4    -0.192259590939E+03    0.85481E-04   -0.32999E-03 11240   0.431E-01    0.282E-01
DAV:   5    -0.192258644588E+03    0.94635E-03   -0.23644E-03 12440   0.421E-01    0.149E-01
DAV:   6    -0.192258609448E+03    0.35140E-04   -0.12202E-03 10720   0.240E-01    0.123E-01
DAV:   7    -0.192258500088E+03    0.10936E-03   -0.61196E-04 10040   0.191E-01    0.112E-01
DAV:   8    -0.192258359979E+03    0.14011E-03   -0.19565E-04  8120   0.127E-01    0.235E-02
DAV:   9    -0.192258359376E+03    0.60279E-06   -0.25942E-05  6360   0.273E-02
  78 F= -.19225836E+03 E0= -.19217028E+03  d E =-.189569E-01
       N       E                     dE             d eps       ncg     rms          rms(c)
DAV:   1    -0.192278299973E+03   -0.19940E-01   -0.33456E+00  8160   0.390E+00    0.519E-01
DAV:   2    -0.192301000784E+03   -0.22701E-01   -0.13057E-01 11000   0.178E+00    0.132E+00
DAV:   3    -0.192282058166E+03    0.18943E-01   -0.47069E-02 12560   0.160E+00    0.397E-01
DAV:   4    -0.192281959783E+03    0.98383E-04   -0.59315E-03 10560   0.627E-01    0.392E-01
DAV:   5    -0.192280239806E+03    0.17200E-02   -0.39814E-03 11520   0.571E-01    0.200E-01
DAV:   6    -0.192280030668E+03    0.20914E-03   -0.20534E-03 11840   0.302E-01    0.156E-01
DAV:   7    -0.192280027850E+03    0.28182E-05   -0.11502E-03 10840   0.284E-01    0.170E-01
DAV:   8    -0.192279681255E+03    0.34660E-03   -0.40370E-04  8720   0.182E-01    0.282E-02
DAV:   9    -0.192279679544E+03    0.17110E-05   -0.48000E-05  6160   0.327E-02
  79 F= -.19227968E+03 E0= -.19219035E+03  d E =-.213202E-01
       N       E                     dE             d eps       ncg     rms          rms(c)
DAV:   1    -0.192283887755E+03   -0.42065E-02   -0.30161E-01  8160   0.120E+00    0.210E-01
DAV:   2    -0.192287922958E+03   -0.40352E-02   -0.16492E-02 12360   0.786E-01    0.582E-01
DAV:   3    -0.192283923831E+03    0.39991E-02   -0.58301E-03 11400   0.685E-01    0.142E-01
DAV:   4    -0.192283945604E+03   -0.21773E-04   -0.13564E-03 10120   0.245E-01    0.164E-01
DAV:   5    -0.192283624605E+03    0.32100E-03   -0.72342E-04  9760   0.217E-01    0.626E-02
DAV:   6    -0.192283587684E+03    0.36922E-04   -0.23732E-04  7240   0.863E-02
  80 F= -.19228359E+03 E0= -.19219396E+03  d E =-.390814E-02
       N       E                     dE             d eps       ncg     rms          rms(c)
DAV:   1    -0.192290815766E+03   -0.71912E-02   -0.46931E-01  8160   0.146E+00    0.207E-01
DAV:   2    -0.192294205726E+03   -0.33900E-02   -0.20326E-02 10600   0.774E-01    0.482E-01
DAV:   3    -0.192291372562E+03    0.28332E-02   -0.58483E-03 12360   0.616E-01    0.133E-01
DAV:   4    -0.192291473471E+03   -0.10091E-03   -0.99626E-04 10200   0.252E-01    0.168E-01
DAV:   5    -0.192291183226E+03    0.29025E-03   -0.60582E-04  9360   0.233E-01    0.797E-02
DAV:   6    -0.192291146097E+03    0.37129E-04   -0.27957E-04  7760   0.978E-02
  81 F= -.19229115E+03 E0= -.19220136E+03  d E =-.755841E-02
       N       E                     dE             d eps       ncg     rms          rms(c)
DAV:   1    -0.192303050965E+03   -0.11868E-01   -0.22270E+00  8160   0.317E+00    0.392E-01
DAV:   2    -0.192312122776E+03   -0.90718E-02   -0.78922E-02 11040   0.113E+00    0.687E-01
DAV:   3    -0.192306772975E+03    0.53498E-02   -0.19175E-02 12320   0.103E+00    0.317E-01
DAV:   4    -0.192306578406E+03    0.19457E-03   -0.40188E-03 11760   0.475E-01    0.313E-01
DAV:   5    -0.192305648099E+03    0.93031E-03   -0.24868E-03 10200   0.440E-01    0.162E-01
DAV:   6    -0.192305539239E+03    0.10886E-03   -0.12167E-03 10440   0.196E-01    0.921E-02
DAV:   7    -0.192305352886E+03    0.18635E-03   -0.39632E-04  9600   0.842E-02    0.249E-02
DAV:   8    -0.192305361142E+03   -0.82565E-05   -0.52331E-05  7720   0.573E-02
  82 F= -.19230536E+03 E0= -.19221590E+03  d E =-.142150E-01
       N       E                     dE             d eps       ncg     rms          rms(c)
DAV:   1    -0.192315481199E+03   -0.10128E-01   -0.39612E+00  8160   0.423E+00    0.491E-01
DAV:   2    -0.192328179918E+03   -0.12699E-01   -0.12986E-01 11280   0.132E+00    0.751E-01
DAV:   3    -0.192322880180E+03    0.52997E-02   -0.28904E-02 12320   0.123E+00    0.468E-01
DAV:   4    -0.192321704502E+03    0.11757E-02   -0.74259E-03 12400   0.648E-01    0.375E-01
DAV:   5    -0.192320404520E+03    0.13000E-02   -0.38931E-03 10360   0.547E-01    0.216E-01
DAV:   6    -0.192320127451E+03    0.27707E-03   -0.20490E-03 11600   0.286E-01    0.123E-01
DAV:   7    -0.192319851986E+03    0.27547E-03   -0.69677E-04 10520   0.128E-01    0.453E-02
DAV:   8    -0.192319846480E+03    0.55056E-05   -0.90787E-05  7040   0.848E-02
  83 F= -.19231985E+03 E0= -.19223191E+03  d E =-.144853E-01
       N       E                     dE             d eps       ncg     rms          rms(c)
DAV:   1    -0.192324313339E+03   -0.44614E-02   -0.14267E+00  8160   0.253E+00    0.289E-01
DAV:   2    -0.192328387826E+03   -0.40745E-02   -0.48222E-02 11480   0.736E-01    0.365E-01
DAV:   3    -0.192327571062E+03    0.81676E-03   -0.82028E-03 12360   0.686E-01    0.297E-01
DAV:   4    -0.192326771012E+03    0.80005E-03   -0.23482E-03 12440   0.368E-01    0.177E-01
DAV:   5    -0.192326603101E+03    0.16791E-03   -0.11652E-03 10240   0.294E-01    0.146E-01
DAV:   6    -0.192326476380E+03    0.12672E-03   -0.76467E-04  9920   0.195E-01    0.763E-02
DAV:   7    -0.192326373664E+03    0.10272E-03   -0.22731E-04  7120   0.769E-02    0.231E-02
DAV:   8    -0.192326375945E+03   -0.22810E-05   -0.48649E-05  6960   0.481E-02
  84 F= -.19232638E+03 E0= -.19224028E+03  d E =-.652946E-02
       N       E                     dE             d eps       ncg     rms          rms(c)
DAV:   1    -0.192328435136E+03   -0.20615E-02   -0.20568E-01  8160   0.963E-01    0.107E-01
DAV:   2    -0.192329016833E+03   -0.58170E-03   -0.74631E-03 12720   0.281E-01    0.117E-01
DAV:   3    -0.192329073349E+03   -0.56516E-04   -0.94955E-04 11240   0.253E-01
  85 F= -.19232907E+03 E0= -.19224411E+03  d E =-.269740E-02
       N       E                     dE             d eps       ncg     rms          rms(c)
DAV:   1    -0.192331067136E+03   -0.20503E-02   -0.26628E-01  8160   0.111E+00    0.144E-01
DAV:   2    -0.192331636847E+03   -0.56971E-03   -0.84711E-03 12560   0.292E-01    0.142E-01
DAV:   3    -0.192331515607E+03    0.12124E-03   -0.15433E-03 11440   0.256E-01    0.151E-01
DAV:   4    -0.192331389957E+03    0.12565E-03   -0.64868E-04 11000   0.225E-01    0.109E-01
DAV:   5    -0.192331245684E+03    0.14427E-03   -0.30072E-04  8400   0.121E-01    0.419E-02
DAV:   6    -0.192331291908E+03   -0.46224E-04   -0.17413E-04  7760   0.111E-01
  86 F= -.19233129E+03 E0= -.19224703E+03  d E =-.221856E-02
       N       E                     dE             d eps       ncg     rms          rms(c)
DAV:   1    -0.192332333421E+03   -0.10877E-02   -0.68685E-02  8200   0.562E-01    0.668E-02
DAV:   2    -0.192332520379E+03   -0.18696E-03   -0.25509E-03 12200   0.159E-01    0.760E-02
DAV:   3    -0.192332526719E+03   -0.63392E-05   -0.36219E-04  9680   0.156E-01
  87 F= -.19233253E+03 E0= -.19224866E+03  d E =-.123481E-02
       N       E                     dE             d eps       ncg     rms          rms(c)
DAV:   1    -0.192334439503E+03   -0.19191E-02   -0.28862E-01  8160   0.115E+00    0.138E-01
DAV:   2    -0.192335026152E+03   -0.58665E-03   -0.89751E-03 11960   0.282E-01    0.123E-01
DAV:   3    -0.192334956746E+03    0.69407E-04   -0.12916E-03 11400   0.219E-01    0.130E-01
DAV:   4    -0.192334861618E+03    0.95128E-04   -0.56680E-04  9640   0.215E-01
  88 F= -.19233486E+03 E0= -.19225255E+03  d E =-.233490E-02
       N       E                     dE             d eps       ncg     rms          rms(c)
DAV:   1    -0.192334504647E+03    0.45210E-03   -0.97400E-03 10240   0.239E-01    0.415E-02
DAV:   2    -0.192334661788E+03   -0.15714E-03   -0.59498E-04 10640   0.154E-01    0.102E-01
DAV:   3    -0.192334510959E+03    0.15083E-03   -0.22712E-04  8960   0.134E-01    0.257E-02
DAV:   4    -0.192334516996E+03   -0.60368E-05   -0.38002E-05  6040   0.435E-02
  89 F= -.19233452E+03 E0= -.19225189E+03  d E =0.344622E-03
       N       E                     dE             d eps       ncg     rms          rms(c)
DAV:   1    -0.192335004802E+03   -0.49384E-03   -0.17852E-02  8240   0.296E-01    0.621E-02
DAV:   2    -0.192335086878E+03   -0.82076E-04   -0.10633E-03 11680   0.182E-01    0.105E-01
DAV:   3    -0.192334960574E+03    0.12630E-03   -0.30107E-04  8920   0.155E-01    0.427E-02
DAV:   4    -0.192334956192E+03    0.43823E-05   -0.98642E-05  6000   0.773E-02
  90 F= -.19233496E+03 E0= -.19225274E+03  d E =-.439195E-03
       N       E                     dE             d eps       ncg     rms          rms(c)
DAV:   1    -0.192335685224E+03   -0.72465E-03   -0.54061E-02  8160   0.504E-01    0.655E-02
DAV:   2    -0.192335775655E+03   -0.90431E-04   -0.18961E-03 11080   0.122E-01    0.579E-02
DAV:   3    -0.192335804544E+03   -0.28889E-04   -0.24819E-04  9880   0.129E-01
  91 F= -.19233580E+03 E0= -.19225396E+03  d E =-.848353E-03
       N       E                     dE             d eps       ncg     rms          rms(c)
DAV:   1    -0.192336089713E+03   -0.31406E-03   -0.88842E-03  9320   0.226E-01    0.434E-02
DAV:   2    -0.192336166921E+03   -0.77208E-04   -0.38692E-04 10000   0.117E-01
  92 F= -.19233617E+03 E0= -.19225447E+03  d E =-.362377E-03
       N       E                     dE             d eps       ncg     rms          rms(c)
DAV:   1    -0.192336753595E+03   -0.66388E-03   -0.30294E-02  8160   0.395E-01    0.668E-02
DAV:   2    -0.192337098722E+03   -0.34513E-03   -0.13039E-03 12760   0.227E-01    0.173E-01
DAV:   3    -0.192336752891E+03    0.34583E-03   -0.49026E-04  9240   0.210E-01    0.451E-02
DAV:   4    -0.192336748291E+03    0.46004E-05   -0.79029E-05  6160   0.618E-02
  93 F= -.19233675E+03 E0= -.19225562E+03  d E =-.581370E-03
       N       E                     dE             d eps       ncg     rms          rms(c)
DAV:   1    -0.192336737679E+03    0.15212E-04   -0.63176E-05  6760   0.647E-02    0.328E-02
DAV:   2    -0.192336928311E+03   -0.19063E-03   -0.37553E-04  9800   0.170E-01    0.125E-01
DAV:   3    -0.192336721663E+03    0.20665E-03   -0.25649E-04  8920   0.139E-01    0.168E-02
DAV:   4    -0.192336726077E+03   -0.44137E-05   -0.11406E-05  5960   0.245E-02
  94 F= -.19233673E+03 E0= -.19225558E+03  d E =0.222138E-04
       N       E                     dE             d eps       ncg     rms          rms(c)
DAV:   1    -0.192336497245E+03    0.22442E-03   -0.29599E-02  8160   0.367E-01    0.600E-02
DAV:   2    -0.192336792607E+03   -0.29536E-03   -0.12883E-03 12080   0.230E-01    0.152E-01
DAV:   3    -0.192336485404E+03    0.30720E-03   -0.51975E-04  9240   0.192E-01    0.416E-02
DAV:   4    -0.192336486600E+03   -0.11955E-05   -0.89372E-05  5760   0.748E-02
  95 F= -.19233649E+03 E0= -.19225506E+03  d E =0.239477E-03
       N       E                     dE             d eps       ncg     rms          rms(c)
DAV:   1    -0.192335766014E+03    0.71939E-03   -0.50709E-02  8160   0.488E-01    0.847E-02
DAV:   2    -0.192336097474E+03   -0.33146E-03   -0.21521E-03 12440   0.247E-01    0.171E-01
DAV:   3    -0.192335751023E+03    0.34645E-03   -0.90346E-04 11000   0.234E-01    0.781E-02
DAV:   4    -0.192335714836E+03    0.36187E-04   -0.24658E-04  7440   0.113E-01
  96 F= -.19233571E+03 E0= -.19225385E+03  d E =0.771764E-03
       N       E                     dE             d eps       ncg     rms          rms(c)
DAV:   1    -0.192338082631E+03   -0.23316E-02   -0.34351E-01  8160   0.126E+00    0.203E-01
DAV:   2    -0.192341572229E+03   -0.34896E-02   -0.15743E-02 12560   0.820E-01    0.507E-01
DAV:   3    -0.192338082640E+03    0.34896E-02   -0.54578E-03 12240   0.641E-01    0.990E-02
DAV:   4    -0.192338180950E+03   -0.98310E-04   -0.93870E-04 10040   0.194E-01
  97 F= -.19233818E+03 E0= -.19225789E+03  d E =-.246611E-02
       N       E                     dE             d eps       ncg     rms          rms(c)
DAV:   1    -0.192338197950E+03   -0.11531E-03   -0.30217E-03 10600   0.233E-01    0.986E-02
DAV:   2    -0.192339815024E+03   -0.16171E-02   -0.31486E-03 10960   0.474E-01    0.371E-01
DAV:   3    -0.192338084436E+03    0.17306E-02   -0.20620E-03 10160   0.402E-01    0.526E-02
DAV:   4    -0.192338071870E+03    0.12566E-04   -0.12023E-04  5960   0.730E-02
  98 F= -.19233807E+03 E0= -.19225766E+03  d E =0.109080E-03
