<?xml version="1.0" encoding="ISO-8859-1"?>
<modeling>
 <generator>
  <i name="program" type="string">vasp </i>
  <i name="version" type="string">5.4.1  </i>
  <i name="subversion" type="string">05Feb16 (build Jul 05 2020 17:13:04) complex                          parallel </i>
  <i name="platform" type="string">IFC91_ompi </i>
  <i name="date" type="string">2024 04 25 </i>
  <i name="time" type="string">10:34:54 </i>
 </generator>
 <incar>
  <i type="int" name="ISTART">     0</i>
  <i type="string" name="PREC">normal</i>
  <i type="string" name="ALGO"> Normal</i>
  <i type="int" name="ISPIN">     1</i>
  <i type="int" name="ICHARG">     2</i>
  <i type="int" name="IBRION">     1</i>
  <i type="int" name="NSW">   100</i>
  <i type="int" name="ISIF">     3</i>
  <i type="int" name="ISYM">     0</i>
  <i name="SYMPREC">      0.00000001</i>
  <i name="POTIM">      0.50000000</i>
  <i type="logical" name="LREAL"> F  </i>
  <i type="logical" name="LPLANE"> F  </i>
  <i type="int" name="ISMEAR">     0</i>
  <i type="logical" name="LWAVE"> F  </i>
  <i type="logical" name="LCHARG"> F  </i>
  <v type="int" name="KPOINT_BSE">    -1     0     0     0</v>
 </incar>
 <kpoints>
  <generation param="Gamma">
   <v type="int" name="divisions">       8        8        1 </v>
   <v name="usershift">      0.00000000       0.00000000       0.00000000 </v>
   <v name="genvec1">      0.12500000       0.00000000       0.00000000 </v>
   <v name="genvec2">     -0.00000000       0.12500000       0.00000000 </v>
   <v name="genvec3">      0.00000000       0.00000000       1.00000000 </v>
   <v name="shift">      0.00000000       0.00000000       0.00000000 </v>
  </generation>
  <varray name="kpointlist" >
   <v>       0.00000000       0.00000000       0.00000000 </v>
   <v>       0.12500000       0.00000000       0.00000000 </v>
   <v>       0.25000000       0.00000000       0.00000000 </v>
   <v>       0.37500000       0.00000000       0.00000000 </v>
   <v>       0.50000000       0.00000000       0.00000000 </v>
   <v>       0.00000000       0.12500000       0.00000000 </v>
   <v>       0.12500000       0.12500000       0.00000000 </v>
   <v>       0.25000000       0.12500000       0.00000000 </v>
   <v>       0.37500000       0.12500000       0.00000000 </v>
   <v>       0.50000000       0.12500000       0.00000000 </v>
   <v>      -0.37500000       0.12500000       0.00000000 </v>
   <v>      -0.25000000       0.12500000       0.00000000 </v>
   <v>      -0.12500000       0.12500000       0.00000000 </v>
   <v>       0.00000000       0.25000000       0.00000000 </v>
   <v>       0.12500000       0.25000000       0.00000000 </v>
   <v>       0.25000000       0.25000000       0.00000000 </v>
   <v>       0.37500000       0.25000000       0.00000000 </v>
   <v>       0.50000000       0.25000000       0.00000000 </v>
   <v>      -0.37500000       0.25000000       0.00000000 </v>
   <v>      -0.25000000       0.25000000       0.00000000 </v>
   <v>      -0.12500000       0.25000000       0.00000000 </v>
   <v>      -0.00000000       0.37500000       0.00000000 </v>
   <v>       0.12500000       0.37500000       0.00000000 </v>
   <v>       0.25000000       0.37500000       0.00000000 </v>
   <v>       0.37500000       0.37500000       0.00000000 </v>
   <v>       0.50000000       0.37500000       0.00000000 </v>
   <v>      -0.37500000       0.37500000       0.00000000 </v>
   <v>      -0.25000000       0.37500000       0.00000000 </v>
   <v>      -0.12500000       0.37500000       0.00000000 </v>
   <v>       0.00000000       0.50000000       0.00000000 </v>
   <v>       0.12500000       0.50000000       0.00000000 </v>
   <v>       0.25000000       0.50000000       0.00000000 </v>
   <v>       0.37500000       0.50000000       0.00000000 </v>
   <v>       0.50000000       0.50000000       0.00000000 </v>
  </varray>
  <varray name="weights" >
   <v>       0.01562500 </v>
   <v>       0.03125000 </v>
   <v>       0.03125000 </v>
   <v>       0.03125000 </v>
   <v>       0.01562500 </v>
   <v>       0.03125000 </v>
   <v>       0.03125000 </v>
   <v>       0.03125000 </v>
   <v>       0.03125000 </v>
   <v>       0.03125000 </v>
   <v>       0.03125000 </v>
   <v>       0.03125000 </v>
   <v>       0.03125000 </v>
   <v>       0.03125000 </v>
   <v>       0.03125000 </v>
   <v>       0.03125000 </v>
   <v>       0.03125000 </v>
   <v>       0.03125000 </v>
   <v>       0.03125000 </v>
   <v>       0.03125000 </v>
   <v>       0.03125000 </v>
   <v>       0.03125000 </v>
   <v>       0.03125000 </v>
   <v>       0.03125000 </v>
   <v>       0.03125000 </v>
   <v>       0.03125000 </v>
   <v>       0.03125000 </v>
   <v>       0.03125000 </v>
   <v>       0.03125000 </v>
   <v>       0.01562500 </v>
   <v>       0.03125000 </v>
   <v>       0.03125000 </v>
   <v>       0.03125000 </v>
   <v>       0.01562500 </v>
  </varray>
 </kpoints>
 <parameters>
  <separator name="general" >
   <i type="string" name="SYSTEM">unknown system</i>
   <i type="logical" name="LCOMPAT"> F  </i>
  </separator>
  <separator name="electronic" >
   <i type="string" name="PREC">normal</i>
   <i name="ENMAX">    280.00000000</i>
   <i name="ENAUG">    373.43800000</i>
   <i name="EDIFF">      0.00010000</i>
   <i type="int" name="IALGO">    38</i>
   <i type="int" name="IWAVPR">    11</i>
   <i type="int" name="NBANDS">   120</i>
   <i name="NELECT">    159.00000000</i>
   <i type="int" name="TURBO">     0</i>
   <i type="int" name="IRESTART">     0</i>
   <i type="int" name="NREBOOT">     0</i>
   <i type="int" name="NMIN">     0</i>
   <i name="EREF">      0.00000000</i>
   <separator name="electronic smearing" >
    <i type="int" name="ISMEAR">     0</i>
    <i name="SIGMA">      0.20000000</i>
    <i name="KSPACING">      0.50000000</i>
    <i type="logical" name="KGAMMA"> T  </i>
   </separator>
   <separator name="electronic projectors" >
    <i type="logical" name="LREAL"> F  </i>
    <v name="ROPT">      0.00000000      0.00000000      0.00000000      0.00000000</v>
    <i type="int" name="LMAXPAW">  -100</i>
    <i type="int" name="LMAXMIX">     2</i>
    <i type="logical" name="NLSPLINE"> F  </i>
   </separator>
   <separator name="electronic startup" >
    <i type="int" name="ISTART">     0</i>
    <i type="int" name="ICHARG">     2</i>
    <i type="int" name="INIWAV">     1</i>
   </separator>
   <separator name="electronic spin" >
    <i type="int" name="ISPIN">     1</i>
    <i type="logical" name="LNONCOLLINEAR"> F  </i>
    <v name="MAGMOM">      1.00000000      1.00000000      1.00000000      1.00000000      1.00000000      1.00000000      1.00000000      1.00000000      1.00000000      1.00000000      1.00000000      1.00000000      1.00000000      1.00000000      1.00000000      1.00000000      1.00000000      1.00000000      1.00000000      1.00000000
      1.00000000      1.00000000      1.00000000      1.00000000      1.00000000      1.00000000      1.00000000</v>
    <i name="NUPDOWN">     -1.00000000</i>
    <i type="logical" name="LSORBIT"> F  </i>
    <v name="SAXIS">      0.00000000      0.00000000      1.00000000</v>
    <i type="logical" name="LSPIRAL"> F  </i>
    <v name="QSPIRAL">      0.00000000      0.00000000      0.00000000</v>
    <i type="logical" name="LZEROZ"> F  </i>
   </separator>
   <separator name="electronic exchange-correlation" >
    <i type="logical" name="LASPH"> F  </i>
    <i type="logical" name="LMETAGGA"> F  </i>
   </separator>
   <separator name="electronic convergence" >
    <i type="int" name="NELM">    60</i>
    <i type="int" name="NELMDL">    -5</i>
    <i type="int" name="NELMIN">     2</i>
    <i name="ENINI">    280.00000000</i>
    <separator name="electronic convergence detail" >
     <i type="logical" name="LDIAG"> T  </i>
     <i type="logical" name="LSUBROT"> F  </i>
     <i name="WEIMIN">      0.00100000</i>
     <i name="EBREAK">      0.00000021</i>
     <i name="DEPER">      0.30000000</i>
     <i type="int" name="NRMM">     4</i>
     <i name="TIME">      0.40000000</i>
    </separator>
   </separator>
   <separator name="electronic mixer" >
    <i name="AMIX">      0.40000000</i>
    <i name="BMIX">      1.00000000</i>
    <i name="AMIN">      0.10000000</i>
    <i name="AMIX_MAG">      1.60000000</i>
    <i name="BMIX_MAG">      1.00000000</i>
    <separator name="electronic mixer details" >
     <i type="int" name="IMIX">     4</i>
     <i type="logical" name="MIXFIRST"> F  </i>
     <i type="int" name="MAXMIX">   -45</i>
     <i name="WC">    100.00000000</i>
     <i type="int" name="INIMIX">     1</i>
     <i type="int" name="MIXPRE">     1</i>
     <i type="int" name="MREMOVE">     5</i>
    </separator>
   </separator>
   <separator name="electronic dipolcorrection" >
    <i type="logical" name="LDIPOL"> F  </i>
    <i type="logical" name="LMONO"> F  </i>
    <i type="int" name="IDIPOL">     0</i>
    <i name="EPSILON">      1.00000000</i>
    <v name="DIPOL">   -100.00000000   -100.00000000   -100.00000000</v>
    <i name="EFIELD">      0.00000000</i>
   </separator>
  </separator>
  <separator name="grids" >
   <i type="int" name="NGX">    42</i>
   <i type="int" name="NGY">    42</i>
   <i type="int" name="NGZ">   126</i>
   <i type="int" name="NGXF">    84</i>
   <i type="int" name="NGYF">    84</i>
   <i type="int" name="NGZF">   252</i>
   <i type="logical" name="ADDGRID"> F  </i>
  </separator>
  <separator name="ionic" >
   <i type="int" name="NSW">   100</i>
   <i type="int" name="IBRION">     1</i>
   <i type="int" name="ISIF">     3</i>
   <i name="PSTRESS">      0.00000000</i>
   <i name="EDIFFG">      0.00100000</i>
   <i type="int" name="NFREE">     0</i>
   <i name="POTIM">      0.50000000</i>
   <i name="SMASS">     -3.00000000</i>
   <i name="SCALEE">      1.00000000</i>
  </separator>
  <separator name="ionic md" >
   <i name="TEBEG">      0.00010000</i>
   <i name="TEEND">      0.00010000</i>
   <i type="int" name="NBLOCK">     1</i>
   <i type="int" name="KBLOCK">   100</i>
   <i type="int" name="NPACO">   256</i>
   <i name="APACO">     16.00000000</i>
  </separator>
  <separator name="symmetry" >
   <i type="int" name="ISYM">     0</i>
   <i name="SYMPREC">      0.00000001</i>
  </separator>
  <separator name="dos" >
   <i type="logical" name="LORBIT"> F  </i>
   <v name="RWIGS">     -1.00000000     -1.00000000     -1.00000000     -1.00000000</v>
   <i type="int" name="NEDOS">   301</i>
   <i name="EMIN">     10.00000000</i>
   <i name="EMAX">    -10.00000000</i>
   <i name="EFERMI">      0.00000000</i>
  </separator>
  <separator name="writing" >
   <i type="int" name="NWRITE">     2</i>
   <i type="logical" name="LWAVE"> F  </i>
   <i type="logical" name="LCHARG"> F  </i>
   <i type="logical" name="LPARD"> F  </i>
   <i type="logical" name="LVTOT"> F  </i>
   <i type="logical" name="LVHAR"> F  </i>
   <i type="logical" name="LELF"> F  </i>
   <i type="logical" name="LOPTICS"> F  </i>
   <v name="STM">      0.00000000      0.00000000      0.00000000      0.00000000      0.00000000      0.00000000      0.00000000</v>
  </separator>
  <separator name="performance" >
   <i type="int" name="NPAR">    40</i>
   <i type="int" name="NSIM">     4</i>
   <i type="int" name="NBLK">    -1</i>
   <i type="logical" name="LPLANE"> F  </i>
   <i type="logical" name="LSCALAPACK"> T  </i>
   <i type="logical" name="LSCAAWARE"> F  </i>
   <i type="logical" name="LSCALU"> F  </i>
   <i type="logical" name="LASYNC"> F  </i>
   <i type="logical" name="LORBITALREAL"> F  </i>
  </separator>
  <separator name="miscellaneous" >
   <i type="int" name="IDIOT">     3</i>
   <i type="logical" name="LMUSIC"> F  </i>
   <v name="POMASS">     50.94100000     95.94000000    183.85000000     32.06600000</v>
   <v name="DARWINR">      0.00000000      0.00000000      0.00000000      0.00000000</v>
   <v name="DARWINV">      1.00000000      1.00000000      1.00000000      1.00000000</v>
   <i type="logical" name="LCORR"> T  </i>
  </separator>
  <i type="logical" name="GGA_COMPAT"> T  </i>
  <i type="logical" name="LBERRY"> F  </i>
  <i type="int" name="ICORELEVEL">     0</i>
  <i type="logical" name="LDAU"> F  </i>
  <i type="int" name="I_CONSTRAINED_M">     0</i>
  <separator name="electronic exchange-correlation" >
   <i type="string" name="GGA">--</i>
   <i type="int" name="VOSKOWN">     0</i>
   <i type="logical" name="LHFCALC"> F  </i>
   <i type="string" name="PRECFOCK"></i>
   <i type="logical" name="LSYMGRAD"> F  </i>
   <i type="logical" name="LHFONE"> F  </i>
   <i type="logical" name="LRHFCALC"> F  </i>
   <i type="logical" name="LTHOMAS"> F  </i>
   <i type="logical" name="LMODELHF"> F  </i>
   <i name="ENCUT4O">     -1.00000000</i>
   <i type="int" name="EXXOEP">     0</i>
   <i type="int" name="FOURORBIT">     0</i>
   <i name="AEXX">      0.00000000</i>
   <i name="HFALPHA">      0.00000000</i>
   <i name="MCALPHA">      0.00000000</i>
   <i name="ALDAX">      1.00000000</i>
   <i name="AGGAX">      1.00000000</i>
   <i name="ALDAC">      1.00000000</i>
   <i name="AGGAC">      1.00000000</i>
   <i type="int" name="NKREDX">     1</i>
   <i type="int" name="NKREDY">     1</i>
   <i type="int" name="NKREDZ">     1</i>
   <i type="logical" name="SHIFTRED"> F  </i>
   <i type="logical" name="ODDONLY"> F  </i>
   <i type="logical" name="EVENONLY"> F  </i>
   <i type="int" name="LMAXFOCK">     0</i>
   <i type="int" name="NMAXFOCKAE">     0</i>
   <i type="logical" name="LFOCKAEDFT"> F  </i>
   <i name="HFSCREEN">      0.00000000</i>
   <i name="HFSCREENC">      0.00000000</i>
   <i type="int" name="NBANDSGWLOW">     0</i>
  </separator>
  <separator name="vdW DFT" >
   <i type="logical" name="LUSE_VDW"> F  </i>
   <i name="Zab_VDW">     -0.84910000</i>
   <i name="PARAM1">      0.12340000</i>
   <i name="PARAM2">      1.00000000</i>
   <i name="PARAM3">      0.00000000</i>
  </separator>
  <separator name="model GW" >
   <i type="int" name="MODEL_GW">     0</i>
   <i name="MODEL_EPS0">     58.26239943</i>
   <i name="MODEL_ALPHA">      1.00000000</i>
  </separator>
  <separator name="linear response parameters" >
   <i type="logical" name="LEPSILON"> F  </i>
   <i type="logical" name="LRPA"> F  </i>
   <i type="logical" name="LNABLA"> F  </i>
   <i type="logical" name="LVEL"> F  </i>
   <i type="int" name="KINTER">     0</i>
   <i name="CSHIFT">      0.10000000</i>
   <i name="OMEGAMAX">     -1.00000000</i>
   <i name="DEG_THRESHOLD">      0.00200000</i>
  </separator>
  <separator name="orbital magnetization" >
   <i type="logical" name="NUCIND"> F  </i>
   <v name="MAGPOS">      0.00000000      0.00000000      0.00000000</v>
   <i type="logical" name="LNICSALL"> T  </i>
   <i type="logical" name="ORBITALMAG"> F  </i>
   <i type="logical" name="LMAGBLOCH"> F  </i>
   <i type="logical" name="LCHIMAG"> F  </i>
   <i type="logical" name="LGAUGE"> T  </i>
   <i type="int" name="MAGATOM">     0</i>
   <v name="MAGDIPOL">      0.00000000      0.00000000      0.00000000</v>
   <v name="AVECCONST">      0.00000000      0.00000000      0.00000000</v>
  </separator>
  <separator name="response functions" >
   <i type="logical" name="LADDER"> F  </i>
   <i type="logical" name="LFXC"> F  </i>
   <i type="logical" name="LHARTREE"> T  </i>
   <i type="int" name="IBSE">     0</i>
   <v type="int" name="KPOINT">    -1     0     0     0</v>
   <i type="logical" name="LTCTE"> F  </i>
   <i type="logical" name="LTETE"> F  </i>
   <i type="logical" name="LTRIPLET"> F  </i>
   <i type="logical" name="LFXCEPS"> F  </i>
   <i type="logical" name="LFXHEG"> F  </i>
   <i type="int" name="NATURALO">     0</i>
   <i type="logical" name="L2ORDER"> F  </i>
   <i type="logical" name="LUSEW"> F  </i>
   <i name="ENCUTGW">     -2.00000000</i>
   <i name="ENCUTGWSOFT">     -2.00000000</i>
   <i name="ENCUTLF">     -1.00000000</i>
   <i type="int" name="LMAXMP2">    -1</i>
   <i name="SCISSOR">      0.00000000</i>
   <i type="int" name="NOMEGA">     0</i>
   <i type="int" name="NOMEGAR">     0</i>
   <i type="int" name="NBANDSGW">    -1</i>
   <i type="int" name="NBANDSO">    -1</i>
   <i type="int" name="NBANDSV">    -1</i>
   <i type="int" name="NELM">     1</i>
   <i type="int" name="NELMHF">     1</i>
   <i type="int" name="DIM">     3</i>
   <i type="int" name="ANTIRES">     0</i>
   <i name="OMEGAMAX">    -30.00000000</i>
   <i name="OMEGAMIN">    -30.00000000</i>
   <i name="OMEGATL">   -200.00000000</i>
   <i type="int" name="OMEGAGRID">     0</i>
   <i name="CSHIFT">     -0.10000000</i>
   <i type="logical" name="SELFENERGY"> F  </i>
   <i type="logical" name="LSPECTRAL"> F  </i>
   <i type="logical" name="LSPECTRALGW"> F  </i>
   <i type="logical" name="LSINGLES"> F  </i>
   <i type="logical" name="LFERMIGW"> F  </i>
   <i type="logical" name="ODDONLYGW"> F  </i>
   <i type="logical" name="EVENONLYGW"> F  </i>
   <i type="int" name="NKREDLFX">     1</i>
   <i type="int" name="NKREDLFY">     1</i>
   <i type="int" name="NKREDLFZ">     1</i>
   <i type="int" name="MAXMEM">  1800</i>
   <i type="int" name="TELESCOPE">     0</i>
   <i type="int" name="TAUPAR">     1</i>
   <i type="int" name="OMEGAPAR">    -1</i>
   <i name="LAMBDA">      1.00000000</i>
  </separator>
  <separator name="External order field" >
   <i name="OFIELD_KAPPA">      0.00000000</i>
   <v name="OFIELD_K">      0.00000000      0.00000000      0.00000000</v>
   <i name="OFIELD_Q6_NEAR">      0.00000000</i>
   <i name="OFIELD_Q6_FAR">      0.00000000</i>
   <i name="OFIELD_A">      0.00000000</i>
  </separator>
 </parameters>
 <atominfo>
  <atoms>      27 </atoms>
  <types>       4 </types>
  <array name="atoms" >
   <dimension dim="1">ion</dimension>
   <field type="string">element</field>
   <field type="int">atomtype</field>
   <set>
    <rc><c>V </c><c>   1</c></rc>
    <rc><c>V </c><c>   1</c></rc>
    <rc><c>V </c><c>   1</c></rc>
    <rc><c>Mo</c><c>   2</c></rc>
    <rc><c>Mo</c><c>   2</c></rc>
    <rc><c>Mo</c><c>   2</c></rc>
    <rc><c>W </c><c>   3</c></rc>
    <rc><c>W </c><c>   3</c></rc>
    <rc><c>W </c><c>   3</c></rc>
    <rc><c>S </c><c>   4</c></rc>
    <rc><c>S </c><c>   4</c></rc>
    <rc><c>S </c><c>   4</c></rc>
    <rc><c>S </c><c>   4</c></rc>
    <rc><c>S </c><c>   4</c></rc>
    <rc><c>S </c><c>   4</c></rc>
    <rc><c>S </c><c>   4</c></rc>
    <rc><c>S </c><c>   4</c></rc>
    <rc><c>S </c><c>   4</c></rc>
    <rc><c>S </c><c>   4</c></rc>
    <rc><c>S </c><c>   4</c></rc>
    <rc><c>S </c><c>   4</c></rc>
    <rc><c>S </c><c>   4</c></rc>
    <rc><c>S </c><c>   4</c></rc>
    <rc><c>S </c><c>   4</c></rc>
    <rc><c>S </c><c>   4</c></rc>
    <rc><c>S </c><c>   4</c></rc>
    <rc><c>S </c><c>   4</c></rc>
   </set>
  </array>
  <array name="atomtypes" >
   <dimension dim="1">type</dimension>
   <field type="int">atomspertype</field>
   <field type="string">element</field>
   <field>mass</field>
   <field>valence</field>
   <field type="string">pseudopotential</field>
   <set>
    <rc><c>   3</c><c>V </c><c>     50.94100000</c><c>      5.00000000</c><c> PAW_PBE V 08Apr2002                    </c></rc>
    <rc><c>   3</c><c>Mo</c><c>     95.94000000</c><c>      6.00000000</c><c> PAW_PBE Mo 08Apr2002                   </c></rc>
    <rc><c>   3</c><c>W </c><c>    183.85000000</c><c>      6.00000000</c><c> PAW_PBE W 08Apr2002                    </c></rc>
    <rc><c>  18</c><c>S </c><c>     32.06600000</c><c>      6.00000000</c><c>  PAW_PBE S 17Jan2003                   </c></rc>
   </set>
  </array>
 </atominfo>
 <structure name="initialpos" >
  <crystal>
   <varray name="basis" >
    <v>       8.66999996       5.03999989       0.00000000 </v>
    <v>      -8.66999982       5.04000013       0.00000000 </v>
    <v>       0.00000000       0.00000000      30.00000000 </v>
   </varray>
   <i name="volume">   2621.80797419 </i>
   <varray name="rec_basis" >
    <v>       0.05767013       0.09920635       0.00000000 </v>
    <v>      -0.05767013       0.09920635       0.00000000 </v>
    <v>       0.00000000       0.00000000       0.03333333 </v>
   </varray>
  </crystal>
  <varray name="positions" >
   <v>       0.66666669       0.00000000       0.00000000 </v>
   <v>       0.00000000       0.00000000       0.00000000 </v>
   <v>       0.66666669       0.66666669       0.00000000 </v>
   <v>       0.33333334       0.33333334       0.00000000 </v>
   <v>       0.33333334       0.00000000       0.00000000 </v>
   <v>       0.00000000       0.66666669       0.00000000 </v>
   <v>       1.00000000       0.33333334       0.00000000 </v>
   <v>       0.33333334       0.66666669       0.00000000 </v>
   <v>       0.66666669       0.33333334       0.00000000 </v>
   <v>       0.11068511       0.22244981       0.95539999 </v>
   <v>       0.22244981       0.11068511       0.04460000 </v>
   <v>       0.11068511       0.55578315       0.95539999 </v>
   <v>       0.22244981       0.44401845       0.04460000 </v>
   <v>       0.11068511       0.88911647       0.95539999 </v>
   <v>       0.22244981       0.77735180       0.04460000 </v>
   <v>       0.44401845       0.22244981       0.95539999 </v>
   <v>       0.55578315       0.11068511       0.04460000 </v>
   <v>       0.44401845       0.55578315       0.95539999 </v>
   <v>       0.55578315       0.44401845       0.04460000 </v>
   <v>       0.44401845       0.88911647       0.95539999 </v>
   <v>       0.55578315       0.77735180       0.04460000 </v>
   <v>       0.77735180       0.22244981       0.95539999 </v>
   <v>       0.88911647       0.11068511       0.04460000 </v>
   <v>       0.77735180       0.55578315       0.95539999 </v>
   <v>       0.88911647       0.44401845       0.04460000 </v>
   <v>       0.77735180       0.88911647       0.95539999 </v>
   <v>       0.88911647       0.77735180       0.04460000 </v>
  </varray>
 </structure>
 <calculation>
  <scstep>
   <time name="dav">   22.80   22.87</time>
   <time name="total">   22.85   22.92</time>
   <energy>
    <i name="alphaZ">     81.65567618 </i>
    <i name="ewald">  41891.17176702 </i>
    <i name="hartreedc"> -47723.81655903 </i>
    <i name="XCdc">   -242.92509794 </i>
    <i name="pawpsdc">   3467.42045192 </i>
    <i name="pawaedc">  -2871.19716117 </i>
    <i name="eentropy">     -0.54856088 </i>
    <i name="bandstr">   -237.32553549 </i>
    <i name="atom">   6761.44252427 </i>
    <i name="e_fr_energy">   1125.87750488 </i>
    <i name="e_wo_entrp">   1126.42606576 </i>
    <i name="e_0_energy">   1126.15178532 </i>
   </energy>
  </scstep>
  <scstep>
   <time name="dav">   29.49   29.56</time>
   <time name="total">   29.49   29.57</time>
   <energy>
    <i name="e_fr_energy">     -3.40377027 </i>
    <i name="e_wo_entrp">     -3.20793111 </i>
    <i name="e_0_energy">     -3.30585069 </i>
   </energy>
  </scstep>
  <scstep>
   <time name="dav">   28.77   28.84</time>
   <time name="total">   28.77   28.84</time>
   <energy>
    <i name="e_fr_energy">   -199.75370470 </i>
    <i name="e_wo_entrp">   -199.50720167 </i>
    <i name="e_0_energy">   -199.63045318 </i>
   </energy>
  </scstep>
  <scstep>
   <time name="dav">   31.66   31.74</time>
   <time name="total">   31.67   31.75</time>
   <energy>
    <i name="e_fr_energy">   -208.99088938 </i>
    <i name="e_wo_entrp">   -208.70511856 </i>
    <i name="e_0_energy">   -208.84800397 </i>
   </energy>
  </scstep>
  <scstep>
   <time name="dav">   29.92   29.99</time>
   <time name="total">   30.38   30.46</time>
   <energy>
    <i name="e_fr_energy">   -209.32166235 </i>
    <i name="e_wo_entrp">   -209.03927224 </i>
    <i name="e_0_energy">   -209.18046730 </i>
   </energy>
  </scstep>
  <scstep>
   <time name="dav">   32.37   32.45</time>
   <time name="total">   32.87   32.97</time>
   <energy>
    <i name="e_fr_energy">   -237.93274318 </i>
    <i name="e_wo_entrp">   -237.67331556 </i>
    <i name="e_0_energy">   -237.80302937 </i>
   </energy>
  </scstep>
  <scstep>
   <time name="dav">   34.35   34.44</time>
   <time name="total">   34.86   34.95</time>
   <energy>
    <i name="e_fr_energy">   -196.57012560 </i>
    <i name="e_wo_entrp">   -196.22909721 </i>
    <i name="e_0_energy">   -196.39961140 </i>
   </energy>
  </scstep>
  <scstep>
   <time name="dav">   31.01   31.09</time>
   <time name="total">   31.53   31.61</time>
   <energy>
    <i name="e_fr_energy">   -189.49007043 </i>
    <i name="e_wo_entrp">   -189.17827490 </i>
    <i name="e_0_energy">   -189.33417267 </i>
   </energy>
  </scstep>
  <scstep>
   <time name="dav">   34.21   34.29</time>
   <time name="total">   34.73   34.82</time>
   <energy>
    <i name="e_fr_energy">   -188.16799459 </i>
    <i name="e_wo_entrp">   -187.85180097 </i>
    <i name="e_0_energy">   -188.00989778 </i>
   </energy>
  </scstep>
  <scstep>
   <time name="dav">   34.15   34.23</time>
   <time name="total">   34.68   34.77</time>
   <energy>
    <i name="e_fr_energy">   -186.95794406 </i>
    <i name="e_wo_entrp">   -186.60582138 </i>
    <i name="e_0_energy">   -186.78188272 </i>
   </energy>
  </scstep>
  <scstep>
   <time name="dav">   34.41   34.50</time>
   <time name="total">   34.95   35.04</time>
   <energy>
    <i name="e_fr_energy">   -187.06134886 </i>
    <i name="e_wo_entrp">   -186.71885767 </i>
    <i name="e_0_energy">   -186.89010327 </i>
   </energy>
  </scstep>
  <scstep>
   <time name="dav">   32.88   32.95</time>
   <time name="total">   33.41   33.50</time>
   <energy>
    <i name="e_fr_energy">   -187.00394276 </i>
    <i name="e_wo_entrp">   -186.67312124 </i>
    <i name="e_0_energy">   -186.83853200 </i>
   </energy>
  </scstep>
  <scstep>
   <time name="dav">   33.82   33.90</time>
   <time name="total">   34.35   34.44</time>
   <energy>
    <i name="e_fr_energy">   -186.88721719 </i>
    <i name="e_wo_entrp">   -186.55306284 </i>
    <i name="e_0_energy">   -186.72014001 </i>
   </energy>
  </scstep>
  <scstep>
   <time name="dav">   33.63   33.71</time>
   <time name="total">   34.16   34.25</time>
   <energy>
    <i name="e_fr_energy">   -186.85025366 </i>
    <i name="e_wo_entrp">   -186.50568269 </i>
    <i name="e_0_energy">   -186.67796817 </i>
   </energy>
  </scstep>
  <scstep>
   <time name="dav">   32.67   32.75</time>
   <time name="total">   33.21   33.29</time>
   <energy>
    <i name="e_fr_energy">   -186.84812701 </i>
    <i name="e_wo_entrp">   -186.50427754 </i>
    <i name="e_0_energy">   -186.67620227 </i>
   </energy>
  </scstep>
  <scstep>
   <time name="dav">   33.82   33.90</time>
   <time name="total">   34.35   34.44</time>
   <energy>
    <i name="e_fr_energy">   -186.84243452 </i>
    <i name="e_wo_entrp">   -186.49935471 </i>
    <i name="e_0_energy">   -186.67089462 </i>
   </energy>
  </scstep>
  <scstep>
   <time name="dav">   32.88   32.96</time>
   <time name="total">   33.42   33.51</time>
   <energy>
    <i name="e_fr_energy">   -186.84123246 </i>
    <i name="e_wo_entrp">   -186.49950231 </i>
    <i name="e_0_energy">   -186.67036739 </i>
   </energy>
  </scstep>
  <scstep>
   <time name="dav">   30.40   30.47</time>
   <time name="total">   30.93   31.01</time>
   <energy>
    <i name="e_fr_energy">   -186.84100136 </i>
    <i name="e_wo_entrp">   -186.49879703 </i>
    <i name="e_0_energy">   -186.66989920 </i>
   </energy>
  </scstep>
  <scstep>
   <time name="dav">   29.25   29.33</time>
   <time name="total">   29.79   29.87</time>
   <energy>
    <i name="e_fr_energy">   -186.84080147 </i>
    <i name="e_wo_entrp">   -186.49852268 </i>
    <i name="e_0_energy">   -186.66966208 </i>
   </energy>
  </scstep>
  <scstep>
   <time name="dav">   24.72   24.78</time>
   <time name="total">   25.26   25.32</time>
   <energy>
    <i name="e_fr_energy">   -186.84155340 </i>
    <i name="e_wo_entrp">   -186.49970430 </i>
    <i name="e_0_energy">   -186.67062885 </i>
   </energy>
  </scstep>
  <scstep>
   <time name="dav">   22.93   22.98</time>
   <time name="total">   23.46   23.53</time>
   <energy>
    <i name="e_fr_energy">   -186.84238960 </i>
    <i name="e_wo_entrp">   -186.50047861 </i>
    <i name="e_0_energy">   -186.67143411 </i>
   </energy>
  </scstep>
  <scstep>
   <time name="dav">   21.63   21.68</time>
   <time name="total">   22.16   22.22</time>
   <energy>
    <i name="e_fr_energy">   -186.84333639 </i>
    <i name="e_wo_entrp">   -186.50134688 </i>
    <i name="e_0_energy">   -186.67234163 </i>
   </energy>
  </scstep>
  <scstep>
   <time name="dav">   21.51   21.56</time>
   <time name="total">   22.04   22.10</time>
   <energy>
    <i name="e_fr_energy">   -186.84448888 </i>
    <i name="e_wo_entrp">   -186.50262603 </i>
    <i name="e_0_energy">   -186.67355745 </i>
   </energy>
  </scstep>
  <scstep>
   <time name="dav">   19.97   20.02</time>
   <time name="total">   20.50   20.56</time>
   <energy>
    <i name="e_fr_energy">   -186.84504090 </i>
    <i name="e_wo_entrp">   -186.50310600 </i>
    <i name="e_0_energy">   -186.67407345 </i>
   </energy>
  </scstep>
  <scstep>
   <time name="dav">   17.25   17.29</time>
   <time name="total">   17.79   17.84</time>
   <energy>
    <i name="e_fr_energy">   -186.84543625 </i>
    <i name="e_wo_entrp">   -186.50349036 </i>
    <i name="e_0_energy">   -186.67446330 </i>
   </energy>
  </scstep>
  <scstep>
   <time name="dav">   20.08   20.12</time>
   <time name="total">   20.61   20.67</time>
   <energy>
    <i name="e_fr_energy">   -186.84567792 </i>
    <i name="e_wo_entrp">   -186.50375009 </i>
    <i name="e_0_energy">   -186.67471400 </i>
   </energy>
  </scstep>
  <scstep>
   <time name="dav">   21.41   21.46</time>
   <time name="total">   21.45   21.51</time>
   <energy>
    <i name="alphaZ">     81.65567618 </i>
    <i name="ewald">  41891.17176702 </i>
    <i name="hartreedc"> -47833.65775448 </i>
    <i name="XCdc">   -231.60478796 </i>
    <i name="pawpsdc">   4192.08121335 </i>
    <i name="pawaedc">  -3610.08232060 </i>
    <i name="eentropy">     -0.34193435 </i>
    <i name="bandstr">  -1437.51015006 </i>
    <i name="atom">   6761.44252427 </i>
    <i name="e_fr_energy">   -186.84576662 </i>
    <i name="e_wo_entrp">   -186.50383227 </i>
    <i name="e_0_energy">   -186.67479945 </i>
   </energy>
  </scstep>
  <structure>
   <crystal>
    <varray name="basis" >
     <v>       8.66999996       5.03999989       0.00000000 </v>
     <v>      -8.66999982       5.04000013       0.00000000 </v>
     <v>       0.00000000       0.00000000      30.00000000 </v>
    </varray>
    <i name="volume">   2621.80797419 </i>
    <varray name="rec_basis" >
     <v>       0.05767013       0.09920635       0.00000000 </v>
     <v>      -0.05767013       0.09920635       0.00000000 </v>
     <v>       0.00000000       0.00000000       0.03333333 </v>
    </varray>
   </crystal>
   <varray name="positions" >
    <v>       0.66666669       0.00000000       0.00000000 </v>
    <v>       0.00000000       0.00000000       0.00000000 </v>
    <v>       0.66666669       0.66666669       0.00000000 </v>
    <v>       0.33333334       0.33333334       0.00000000 </v>
    <v>       0.33333334       0.00000000       0.00000000 </v>
    <v>       0.00000000       0.66666669       0.00000000 </v>
    <v>       1.00000000       0.33333334       0.00000000 </v>
    <v>       0.33333334       0.66666669       0.00000000 </v>
    <v>       0.66666669       0.33333334       0.00000000 </v>
    <v>       0.11068511       0.22244981       0.95539999 </v>
    <v>       0.22244981       0.11068511       0.04460000 </v>
    <v>       0.11068511       0.55578315       0.95539999 </v>
    <v>       0.22244981       0.44401845       0.04460000 </v>
    <v>       0.11068511       0.88911647       0.95539999 </v>
    <v>       0.22244981       0.77735180       0.04460000 </v>
    <v>       0.44401845       0.22244981       0.95539999 </v>
    <v>       0.55578315       0.11068511       0.04460000 </v>
    <v>       0.44401845       0.55578315       0.95539999 </v>
    <v>       0.55578315       0.44401845       0.04460000 </v>
    <v>       0.44401845       0.88911647       0.95539999 </v>
    <v>       0.55578315       0.77735180       0.04460000 </v>
    <v>       0.77735180       0.22244981       0.95539999 </v>
    <v>       0.88911647       0.11068511       0.04460000 </v>
    <v>       0.77735180       0.55578315       0.95539999 </v>
    <v>       0.88911647       0.44401845       0.04460000 </v>
    <v>       0.77735180       0.88911647       0.95539999 </v>
    <v>       0.88911647       0.77735180       0.04460000 </v>
   </varray>
  </structure>
  <varray name="forces" >
   <v>      -0.02817632      -0.10475476      -0.03678825 </v>
   <v>       0.34722327       0.07484145      -0.01489101 </v>
   <v>       0.13072685       0.05828318      -0.04131431 </v>
   <v>       0.24952263      -0.16178784       0.09012865 </v>
   <v>      -0.29322736      -0.13823118       0.12112168 </v>
   <v>      -0.03250320       0.27841783      -0.05011691 </v>
   <v>       0.09590870       0.23045004      -0.07900947 </v>
   <v>      -0.21924122      -0.07767322      -0.13445412 </v>
   <v>      -0.32431661      -0.18681429       0.14616632 </v>
   <v>       0.34681004      -0.70561290      -2.14693241 </v>
   <v>      -0.51220150      -0.68331747       2.18775863 </v>
   <v>       0.27660734       0.00359044      -2.97854221 </v>
   <v>      -0.23260388       0.00443209       2.89978898 </v>
   <v>      -0.74627244      -0.01838440      -2.13700597 </v>
   <v>       0.02810304       0.03599977       2.89475923 </v>
   <v>       0.21961067       0.15040652      -2.88722835 </v>
   <v>       0.64635039       0.15971674       2.10903524 </v>
   <v>       0.34590435       0.69901233      -2.11220928 </v>
   <v>      -0.33922737       0.68501673       2.19789827 </v>
   <v>       0.63493961       0.52698565      -2.12530077 </v>
   <v>       0.24952351       0.53232989       1.41208296 </v>
   <v>       0.48823590      -0.54665172      -2.14522694 </v>
   <v>       0.23329503      -0.52464640       1.39553020 </v>
   <v>      -0.64908953      -0.12247414      -2.10962494 </v>
   <v>      -0.07181554      -0.15781131       2.84778132 </v>
   <v>       0.06196070      -0.01222606      -0.76090671 </v>
   <v>      -0.90604708       0.00090303       1.45750016 </v>
  </varray>
  <varray name="stress" >
   <v>       7.33389527       0.09149400      -1.53691834 </v>
   <v>       0.09149394       4.41908542       0.06383001 </v>
   <v>      -1.53691825       0.06382995      30.31866989 </v>
  </varray>
  <energy>
   <i name="e_fr_energy">   -186.84576662 </i>
   <i name="e_wo_entrp">   -186.67479945 </i>
   <i name="e_0_energy">     -0.34193435 </i>
  </energy>
  <time name="totalsc">  827.55  829.78</time>
 </calculation>
 <calculation>
  <scstep>
   <time name="dav">   22.77   22.83</time>
   <time name="total">   23.32   23.38</time>
   <energy>
    <i name="alphaZ">     78.92173615 </i>
    <i name="ewald">  39379.27673300 </i>
    <i name="hartreedc"> -45336.58245447 </i>
    <i name="XCdc">   -239.06889899 </i>
    <i name="pawpsdc">   4192.06762050 </i>
    <i name="pawaedc">  -3610.06883128 </i>
    <i name="eentropy">     -0.27904039 </i>
    <i name="bandstr">  -1413.20924481 </i>
    <i name="atom">   6761.44252427 </i>
    <i name="e_fr_energy">   -187.49985603 </i>
    <i name="e_wo_entrp">   -187.22081563 </i>
    <i name="e_0_energy">   -187.36033583 </i>
   </energy>
  </scstep>
  <scstep>
   <time name="dav">   31.62   31.70</time>
   <time name="total">   32.16   32.25</time>
   <energy>
    <i name="e_fr_energy">   -189.34643684 </i>
    <i name="e_wo_entrp">   -189.02387165 </i>
    <i name="e_0_energy">   -189.18515425 </i>
   </energy>
  </scstep>
  <scstep>
   <time name="dav">   31.84   31.91</time>
   <time name="total">   32.38   32.47</time>
   <energy>
    <i name="e_fr_energy">   -189.35998825 </i>
    <i name="e_wo_entrp">   -189.10292849 </i>
    <i name="e_0_energy">   -189.23145837 </i>
   </energy>
  </scstep>
  <scstep>
   <time name="dav">   32.12   32.20</time>
   <time name="total">   32.67   32.76</time>
   <energy>
    <i name="e_fr_energy">   -188.75737531 </i>
    <i name="e_wo_entrp">   -188.47495228 </i>
    <i name="e_0_energy">   -188.61616379 </i>
   </energy>
  </scstep>
  <scstep>
   <time name="dav">   30.60   30.68</time>
   <time name="total">   31.15   31.23</time>
   <energy>
    <i name="e_fr_energy">   -188.84999343 </i>
    <i name="e_wo_entrp">   -188.56511784 </i>
    <i name="e_0_energy">   -188.70755563 </i>
   </energy>
  </scstep>
  <scstep>
   <time name="dav">   32.21   32.29</time>
   <time name="total">   32.76   32.85</time>
   <energy>
    <i name="e_fr_energy">   -188.75556763 </i>
    <i name="e_wo_entrp">   -188.47324287 </i>
    <i name="e_0_energy">   -188.61440525 </i>
   </energy>
  </scstep>
  <scstep>
   <time name="dav">   31.79   31.87</time>
   <time name="total">   32.34   32.43</time>
   <energy>
    <i name="e_fr_energy">   -188.67629355 </i>
    <i name="e_wo_entrp">   -188.39651354 </i>
    <i name="e_0_energy">   -188.53640354 </i>
   </energy>
  </scstep>
  <scstep>
   <time name="dav">   29.96   30.03</time>
   <time name="total">   30.58   30.66</time>
   <energy>
    <i name="e_fr_energy">   -188.66172449 </i>
    <i name="e_wo_entrp">   -188.38190631 </i>
    <i name="e_0_energy">   -188.52181540 </i>
   </energy>
  </scstep>
  <scstep>
   <time name="dav">   32.37   32.45</time>
   <time name="total">   32.99   33.08</time>
   <energy>
    <i name="e_fr_energy">   -188.65695972 </i>
    <i name="e_wo_entrp">   -188.37832436 </i>
    <i name="e_0_energy">   -188.51764204 </i>
   </energy>
  </scstep>
  <scstep>
   <time name="dav">   31.12   31.20</time>
   <time name="total">   31.75   31.83</time>
   <energy>
    <i name="e_fr_energy">   -188.65738974 </i>
    <i name="e_wo_entrp">   -188.37845597 </i>
    <i name="e_0_energy">   -188.51792285 </i>
   </energy>
  </scstep>
  <scstep>
   <time name="dav">   32.93   33.01</time>
   <time name="total">   33.55   33.64</time>
   <energy>
    <i name="e_fr_energy">   -188.65585762 </i>
    <i name="e_wo_entrp">   -188.37834443 </i>
    <i name="e_0_energy">   -188.51710103 </i>
   </energy>
  </scstep>
  <scstep>
   <time name="dav">   30.54   30.61</time>
   <time name="total">   30.57   30.66</time>
   <energy>
    <i name="alphaZ">     78.92173615 </i>
    <i name="ewald">  39379.27673300 </i>
    <i name="hartreedc"> -45347.61248042 </i>
    <i name="XCdc">   -237.97546013 </i>
    <i name="pawpsdc">   3952.76647154 </i>
    <i name="pawaedc">  -3367.29626067 </i>
    <i name="eentropy">     -0.27747163 </i>
    <i name="bandstr">  -1407.90164401 </i>
    <i name="atom">   6761.44252427 </i>
    <i name="e_fr_energy">   -188.65585189 </i>
    <i name="e_wo_entrp">   -188.37838026 </i>
    <i name="e_0_energy">   -188.51711608 </i>
   </energy>
  </scstep>
  <structure>
   <crystal>
    <varray name="basis" >
     <v>       8.85726199       5.10744020       0.00000000 </v>
     <v>      -8.85456529       5.10280171       0.00000000 </v>
     <v>       0.00000000       0.00000000      30.00000000 </v>
    </varray>
    <i name="volume">   2712.63042833 </i>
    <varray name="rec_basis" >
     <v>       0.05643380       0.09792597       0.00000000 </v>
     <v>      -0.05648510       0.09795579       0.00000000 </v>
     <v>       0.00000000       0.00000000       0.03333333 </v>
    </varray>
   </crystal>
   <varray name="positions" >
    <v>       0.66608694      -0.00042296      -0.00005916 </v>
    <v>       0.00132422      -0.00060784      -0.00002395 </v>
    <v>       0.66730933       0.66658193      -0.00006644 </v>
    <v>       0.33325324       0.33186482       0.00014493 </v>
    <v>       0.33185597       0.00015423       0.00019477 </v>
    <v>       0.00124207       0.66808962      -0.00008059 </v>
    <v>       1.00136976       0.33416944      -0.00012705 </v>
    <v>       0.33235164       0.66690491      -0.00021621 </v>
    <v>       0.66487030       0.33334155       0.00023505 </v>
    <v>       0.10827294       0.21810788       0.95194753 </v>
    <v>       0.21775444       0.10883979       0.04811811 </v>
    <v>       0.11147186       0.55503077       0.95061023 </v>
    <v>       0.22182388       0.44468681       0.04926312 </v>
    <v>       0.10852087       0.89110473       0.95196350 </v>
    <v>       0.22270029       0.77744590       0.04925503 </v>
    <v>       0.44534929       0.22255866       0.95075707 </v>
    <v>       0.55834580       0.10965126       0.04799151 </v>
    <v>       0.44832627       0.55816625       0.95200337 </v>
    <v>       0.55811784       0.44824071       0.04813441 </v>
    <v>       0.44830710       0.88987210       0.95198232 </v>
    <v>       0.55902509       0.77920530       0.04687075 </v>
    <v>       0.77609388       0.21847520       0.95195028 </v>
    <v>       0.88725458       0.10752510       0.04684413 </v>
    <v>       0.77495977       0.55700286       0.95200753 </v>
    <v>       0.88816138       0.44346297       0.04917948 </v>
    <v>       0.77746567       0.88888557       0.95417638 </v>
    <v>       0.88660002       0.77987689       0.04694379 </v>
   </varray>
  </structure>
  <varray name="forces" >
   <v>      -0.07033237      -0.07771588      -0.00998952 </v>
   <v>       0.30426120       0.12855366       0.00853081 </v>
   <v>       0.14328475      -0.03030732      -0.07865661 </v>
   <v>       0.32232254      -0.12110590      -0.04112137 </v>
   <v>      -0.26862176      -0.07899951       0.02988258 </v>
   <v>       0.33195779       0.30091243       0.03578313 </v>
   <v>      -0.05387853       0.46197609       0.04782467 </v>
   <v>      -0.35713439      -0.35233772      -0.05757915 </v>
   <v>      -0.32071284      -0.24317080       0.04008895 </v>
   <v>      -0.10017855      -0.06682074       0.03361785 </v>
   <v>      -0.03160327      -0.09037782       0.19719183 </v>
   <v>       0.10669576       0.01280896      -0.18769013 </v>
   <v>      -0.09805796       0.01189633      -0.00693287 </v>
   <v>      -0.07515222      -0.00077391      -0.16100492 </v>
   <v>       0.14380966       0.01790540       0.12737611 </v>
   <v>       0.06629596       0.10150665      -0.09781010 </v>
   <v>      -0.02910993       0.09850329       0.01180318 </v>
   <v>      -0.11058741       0.04969673       0.14151127 </v>
   <v>       0.10730621       0.05342317       0.09332786 </v>
   <v>       0.06541915      -0.06271884       0.05051306 </v>
   <v>      -0.04874808      -0.06339824      -0.16323446 </v>
   <v>      -0.05976819       0.07716590       0.17156721 </v>
   <v>      -0.04111395       0.06222372      -0.22668344 </v>
   <v>       0.02415492      -0.09706516       0.04043618 </v>
   <v>       0.08007152      -0.10683605      -0.11007230 </v>
   <v>       0.02837829       0.00153215       0.19656926 </v>
   <v>      -0.05895830       0.01352341      -0.08524908 </v>
  </varray>
  <varray name="stress" >
   <v>     -20.06804416       0.00547384       0.07459683 </v>
   <v>       0.00547380     -19.60693539      -0.02237520 </v>
   <v>       0.07459691      -0.02237517      -1.84937651 </v>
  </varray>
  <energy>
   <i name="e_fr_energy">   -188.65585189 </i>
   <i name="e_wo_entrp">   -188.51711608 </i>
   <i name="e_0_energy">     -0.27747163 </i>
  </energy>
  <time name="totalsc">  420.19  421.30</time>
 </calculation>
 <calculation>
  <scstep>
   <time name="dav">   25.00   25.06</time>
   <time name="total">   25.62   25.68</time>
   <energy>
    <i name="alphaZ">     82.35432743 </i>
    <i name="ewald">  41307.04247420 </i>
    <i name="hartreedc"> -47305.99582452 </i>
    <i name="XCdc">   -233.84660331 </i>
    <i name="pawpsdc">   3950.46505071 </i>
    <i name="pawaedc">  -3364.96748054 </i>
    <i name="eentropy">     -0.23199661 </i>
    <i name="bandstr">  -1386.84488417 </i>
    <i name="atom">   6761.44252427 </i>
    <i name="e_fr_energy">   -190.58241253 </i>
    <i name="e_wo_entrp">   -190.35041593 </i>
    <i name="e_0_energy">   -190.46641423 </i>
   </energy>
  </scstep>
  <scstep>
   <time name="dav">   30.06   30.13</time>
   <time name="total">   30.66   30.74</time>
   <energy>
    <i name="e_fr_energy">   -190.52844073 </i>
    <i name="e_wo_entrp">   -190.31184604 </i>
    <i name="e_0_energy">   -190.42014338 </i>
   </energy>
  </scstep>
  <scstep>
   <time name="dav">   31.85   31.92</time>
   <time name="total">   32.45   32.54</time>
   <energy>
    <i name="e_fr_energy">   -190.06448132 </i>
    <i name="e_wo_entrp">   -189.81462886 </i>
    <i name="e_0_energy">   -189.93955509 </i>
   </energy>
  </scstep>
  <scstep>
   <time name="dav">   33.20   33.28</time>
   <time name="total">   33.82   33.91</time>
   <energy>
    <i name="e_fr_energy">   -189.85270616 </i>
    <i name="e_wo_entrp">   -189.63038100 </i>
    <i name="e_0_energy">   -189.74154358 </i>
   </energy>
  </scstep>
  <scstep>
   <time name="dav">   31.56   31.63</time>
   <time name="total">   32.17   32.25</time>
   <energy>
    <i name="e_fr_energy">   -189.82329396 </i>
    <i name="e_wo_entrp">   -189.58200265 </i>
    <i name="e_0_energy">   -189.70264831 </i>
   </energy>
  </scstep>
  <scstep>
   <time name="dav">   32.58   32.66</time>
   <time name="total">   33.19   33.28</time>
   <energy>
    <i name="e_fr_energy">   -189.75140661 </i>
    <i name="e_wo_entrp">   -189.52074715 </i>
    <i name="e_0_energy">   -189.63607688 </i>
   </energy>
  </scstep>
  <scstep>
   <time name="dav">   30.19   30.26</time>
   <time name="total">   30.80   30.88</time>
   <energy>
    <i name="e_fr_energy">   -189.74555975 </i>
    <i name="e_wo_entrp">   -189.51294603 </i>
    <i name="e_0_energy">   -189.62925289 </i>
   </energy>
  </scstep>
  <scstep>
   <time name="dav">   32.50   32.58</time>
   <time name="total">   33.11   33.20</time>
   <energy>
    <i name="e_fr_energy">   -189.74544543 </i>
    <i name="e_wo_entrp">   -189.51314734 </i>
    <i name="e_0_energy">   -189.62929638 </i>
   </energy>
  </scstep>
  <scstep>
   <time name="dav">   29.75   29.82</time>
   <time name="total">   30.36   30.45</time>
   <energy>
    <i name="e_fr_energy">   -189.74458512 </i>
    <i name="e_wo_entrp">   -189.51234331 </i>
    <i name="e_0_energy">   -189.62846422 </i>
   </energy>
  </scstep>
  <scstep>
   <time name="dav">   28.30   28.37</time>
   <time name="total">   28.84   28.92</time>
   <energy>
    <i name="e_fr_energy">   -189.74501676 </i>
    <i name="e_wo_entrp">   -189.51246507 </i>
    <i name="e_0_energy">   -189.62874092 </i>
   </energy>
  </scstep>
  <scstep>
   <time name="dav">   25.45   25.51</time>
   <time name="total">   25.98   26.05</time>
   <energy>
    <i name="e_fr_energy">   -189.74470908 </i>
    <i name="e_wo_entrp">   -189.51217258 </i>
    <i name="e_0_energy">   -189.62844083 </i>
   </energy>
  </scstep>
  <scstep>
   <time name="dav">   20.76   20.81</time>
   <time name="total">   20.79   20.85</time>
   <energy>
    <i name="alphaZ">     82.35432743 </i>
    <i name="ewald">  41307.04247420 </i>
    <i name="hartreedc"> -47279.28090603 </i>
    <i name="XCdc">   -235.24508557 </i>
    <i name="pawpsdc">   4038.81623879 </i>
    <i name="pawaedc">  -3454.51377225 </i>
    <i name="eentropy">     -0.23252322 </i>
    <i name="bandstr">  -1410.12800916 </i>
    <i name="atom">   6761.44252427 </i>
    <i name="e_fr_energy">   -189.74473154 </i>
    <i name="e_wo_entrp">   -189.51220832 </i>
    <i name="e_0_energy">   -189.62846993 </i>
   </energy>
  </scstep>
  <structure>
   <crystal>
    <varray name="basis" >
     <v>       8.66857046       5.00116819       0.00000000 </v>
     <v>      -8.66587188       4.99652333       0.00000000 </v>
     <v>       0.00000000       0.00000000      30.00000000 </v>
    </varray>
    <i name="volume">   2599.56591986 </i>
    <varray name="rec_basis" >
     <v>       0.05766182       0.10000753       0.00000000 </v>
     <v>      -0.05771542       0.10003867       0.00000000 </v>
     <v>       0.00000000       0.00000000       0.03333333 </v>
    </varray>
   </crystal>
   <varray name="positions" >
    <v>       0.66589088      -0.00048459      -0.00006480 </v>
    <v>       0.00182810      -0.00068562      -0.00001913 </v>
    <v>       0.66739599       0.66639462      -0.00011083 </v>
    <v>       0.33336043       0.33135569       0.00012173 </v>
    <v>       0.33146831       0.00028012       0.00021164 </v>
    <v>       0.00205819       0.66827122      -0.00006040 </v>
    <v>       1.00208426       0.33498718      -0.00010006 </v>
    <v>       0.33142619       0.66666210      -0.00024871 </v>
    <v>       0.66416066       0.33324497       0.00025767 </v>
    <v>       0.10806643       0.21809286       0.95196651 </v>
    <v>       0.21757439       0.10872012       0.04822940 </v>
    <v>       0.11159505       0.55494997       0.95050430 </v>
    <v>       0.22174991       0.44480032       0.04925920 </v>
    <v>       0.10844778       0.89117532       0.95187263 </v>
    <v>       0.22286739       0.77733806       0.04932692 </v>
    <v>       0.44558094       0.22266361       0.95070187 </v>
    <v>       0.55848131       0.10984247       0.04799818 </v>
    <v>       0.44830300       0.55835444       0.95208324 </v>
    <v>       0.55830895       0.44822669       0.04818709 </v>
    <v>       0.44826562       0.88970552       0.95201083 </v>
    <v>       0.55887339       0.77914677       0.04677863 </v>
    <v>       0.77616472       0.21866034       0.95204711 </v>
    <v>       0.88731847       0.10766762       0.04671620 </v>
    <v>       0.77482191       0.55681878       0.95203035 </v>
    <v>       0.88806075       0.44320920       0.04911736 </v>
    <v>       0.77749532       0.88886097       0.95428733 </v>
    <v>       0.88656611       0.77995570       0.04689567 </v>
   </varray>
  </structure>
  <varray name="forces" >
   <v>      -0.11534449      -0.06360230       0.00070526 </v>
   <v>       0.29897893       0.16557456       0.01475366 </v>
   <v>       0.16966445      -0.09022094      -0.06734104 </v>
   <v>       0.34595294      -0.10110483      -0.05515473 </v>
   <v>      -0.25910916      -0.04403333       0.00045604 </v>
   <v>       0.45767297       0.28435426       0.03872530 </v>
   <v>      -0.12441808       0.53826114       0.06233651 </v>
   <v>      -0.40546778      -0.45134834      -0.02410976 </v>
   <v>      -0.31431338      -0.26174484       0.00010962 </v>
   <v>       0.01745648      -0.13337576      -0.46133806 </v>
   <v>      -0.07843371      -0.16371610       0.71054969 </v>
   <v>       0.02235060       0.00697648      -0.79483475 </v>
   <v>      -0.01280471       0.02598781       0.54555687 </v>
   <v>      -0.14600502      -0.00208218      -0.65464946 </v>
   <v>       0.06590889       0.02800187       0.68827850 </v>
   <v>       0.03721597       0.02777960      -0.65452359 </v>
   <v>       0.08578460       0.02136454       0.51437690 </v>
   <v>       0.00536174       0.11017233      -0.33823169 </v>
   <v>      -0.03374008       0.12374204       0.61559085 </v>
   <v>       0.04902750       0.07112228      -0.44512670 </v>
   <v>       0.02689091       0.05678149       0.27545486 </v>
   <v>       0.00586324      -0.03822032      -0.31241540 </v>
   <v>       0.03634552      -0.06430967       0.21002258 </v>
   <v>      -0.07514989      -0.01958522      -0.43674728 </v>
   <v>       0.03658675      -0.04690107       0.42837468 </v>
   <v>       0.03085963       0.00855266      -0.21112851 </v>
   <v>      -0.12713481       0.01157385       0.35030966 </v>
  </varray>
  <varray name="stress" >
   <v>     -10.17623919      -0.02048743       0.04850316 </v>
   <v>      -0.02048741      -9.83676887      -0.03716785 </v>
   <v>       0.04850332      -0.03716775       6.48206011 </v>
  </varray>
  <energy>
   <i name="e_fr_energy">   -189.74473154 </i>
   <i name="e_wo_entrp">   -189.62846993 </i>
   <i name="e_0_energy">     -0.23252322 </i>
  </energy>
  <time name="totalsc">  401.66  402.72</time>
 </calculation>
 <calculation>
  <scstep>
   <time name="dav">   22.79   22.84</time>
   <time name="total">   23.31   23.37</time>
   <energy>
    <i name="alphaZ">     85.80505208 </i>
    <i name="ewald">  42824.80177225 </i>
    <i name="hartreedc"> -48841.24392237 </i>
    <i name="XCdc">   -232.98345088 </i>
    <i name="pawpsdc">   4038.74928167 </i>
    <i name="pawaedc">  -3454.44289007 </i>
    <i name="eentropy">     -0.19050579 </i>
    <i name="bandstr">  -1373.23752894 </i>
    <i name="atom">   6761.44252427 </i>
    <i name="e_fr_energy">   -191.29966777 </i>
    <i name="e_wo_entrp">   -191.10916199 </i>
    <i name="e_0_energy">   -191.20441488 </i>
   </energy>
  </scstep>
  <scstep>
   <time name="dav">   34.28   34.37</time>
   <time name="total">   34.80   34.89</time>
   <energy>
    <i name="e_fr_energy">   -191.10582091 </i>
    <i name="e_wo_entrp">   -190.91664309 </i>
    <i name="e_0_energy">   -191.01123200 </i>
   </energy>
  </scstep>
  <scstep>
   <time name="dav">   31.49   31.57</time>
   <time name="total">   32.01   32.10</time>
   <energy>
    <i name="e_fr_energy">   -191.30620311 </i>
    <i name="e_wo_entrp">   -191.09133018 </i>
    <i name="e_0_energy">   -191.19876665 </i>
   </energy>
  </scstep>
  <scstep>
   <time name="dav">   30.82   30.89</time>
   <time name="total">   31.34   31.43</time>
   <energy>
    <i name="e_fr_energy">   -190.89869730 </i>
    <i name="e_wo_entrp">   -190.70003764 </i>
    <i name="e_0_energy">   -190.79936747 </i>
   </energy>
  </scstep>
  <scstep>
   <time name="dav">   28.78   28.84</time>
   <time name="total">   29.30   29.37</time>
   <energy>
    <i name="e_fr_energy">   -190.90359647 </i>
    <i name="e_wo_entrp">   -190.72016421 </i>
    <i name="e_0_energy">   -190.81188034 </i>
   </energy>
  </scstep>
  <scstep>
   <time name="dav">   29.89   29.96</time>
   <time name="total">   30.41   30.49</time>
   <energy>
    <i name="e_fr_energy">   -190.72900739 </i>
    <i name="e_wo_entrp">   -190.53366888 </i>
    <i name="e_0_energy">   -190.63133814 </i>
   </energy>
  </scstep>
  <scstep>
   <time name="dav">   31.94   32.01</time>
   <time name="total">   32.46   32.54</time>
   <energy>
    <i name="e_fr_energy">   -190.73162058 </i>
    <i name="e_wo_entrp">   -190.53652534 </i>
    <i name="e_0_energy">   -190.63407296 </i>
   </energy>
  </scstep>
  <scstep>
   <time name="dav">   30.39   30.47</time>
   <time name="total">   30.91   31.00</time>
   <energy>
    <i name="e_fr_energy">   -190.72831372 </i>
    <i name="e_wo_entrp">   -190.53349244 </i>
    <i name="e_0_energy">   -190.63090308 </i>
   </energy>
  </scstep>
  <scstep>
   <time name="dav">   29.69   29.76</time>
   <time name="total">   30.21   30.29</time>
   <energy>
    <i name="e_fr_energy">   -190.72531118 </i>
    <i name="e_wo_entrp">   -190.53030788 </i>
    <i name="e_0_energy">   -190.62780953 </i>
   </energy>
  </scstep>
  <scstep>
   <time name="dav">   26.91   26.97</time>
   <time name="total">   27.43   27.50</time>
   <energy>
    <i name="e_fr_energy">   -190.72562877 </i>
    <i name="e_wo_entrp">   -190.53051901 </i>
    <i name="e_0_energy">   -190.62807389 </i>
   </energy>
  </scstep>
  <scstep>
   <time name="dav">   26.54   26.61</time>
   <time name="total">   27.07   27.14</time>
   <energy>
    <i name="e_fr_energy">   -190.72547750 </i>
    <i name="e_wo_entrp">   -190.53033510 </i>
    <i name="e_0_energy">   -190.62790630 </i>
   </energy>
  </scstep>
  <scstep>
   <time name="dav">   20.75   20.80</time>
   <time name="total">   20.78   20.84</time>
   <energy>
    <i name="alphaZ">     85.80505208 </i>
    <i name="ewald">  42824.80177225 </i>
    <i name="hartreedc"> -48812.78937355 </i>
    <i name="XCdc">   -234.30880782 </i>
    <i name="pawpsdc">   4063.06142210 </i>
    <i name="pawaedc">  -3478.92410358 </i>
    <i name="eentropy">     -0.19520151 </i>
    <i name="bandstr">  -1399.61876015 </i>
    <i name="atom">   6761.44252427 </i>
    <i name="e_fr_energy">   -190.72547592 </i>
    <i name="e_wo_entrp">   -190.53027441 </i>
    <i name="e_0_energy">   -190.62787516 </i>
   </energy>
  </scstep>
  <structure>
   <crystal>
    <varray name="basis" >
     <v>       8.48749064       4.90110561       0.00000000 </v>
     <v>      -8.48601157       4.89856977       0.00000000 </v>
     <v>       0.00000000       0.00000000      30.00000000 </v>
    </varray>
    <i name="volume">   2495.02211997 </i>
    <varray name="rec_basis" >
     <v>       0.05890012       0.10203531       0.00000000 </v>
     <v>      -0.05893061       0.10205309       0.00000000 </v>
     <v>       0.00000000       0.00000000       0.03333333 </v>
    </varray>
   </crystal>
   <varray name="positions" >
    <v>       0.66504925      -0.00036698      -0.00005434 </v>
    <v>       0.00402233      -0.00062988       0.00001655 </v>
    <v>       0.66733298       0.66503384      -0.00024025 </v>
    <v>       0.33405795       0.32949329      -0.00000390 </v>
    <v>       0.33036054       0.00101185       0.00018780 </v>
    <v>       0.00561959       0.66817737       0.00002199 </v>
    <v>       1.00508498       0.33908656       0.00004078 </v>
    <v>       0.32683460       0.66512850      -0.00027028 </v>
    <v>       0.66135801       0.33268794       0.00022424 </v>
    <v>       0.10729963       0.21686445       0.95059780 </v>
    <v>       0.21602169       0.10786568       0.05012783 </v>
    <v>       0.11158441       0.55501891       0.94835299 </v>
    <v>       0.22202245       0.44492199       0.05085013 </v>
    <v>       0.10780486       0.89178635       0.95010614 </v>
    <v>       0.22319344       0.77741156       0.05121942 </v>
    <v>       0.44566453       0.22256204       0.94888254 </v>
    <v>       0.55889653       0.10931193       0.04948273 </v>
    <v>       0.44932504       0.55900737       0.95098137 </v>
    <v>       0.55893291       0.44949634       0.04989707 </v>
    <v>       0.44919389       0.89032758       0.95067500 </v>
    <v>       0.55972983       0.77959393       0.04771639 </v>
    <v>       0.77575534       0.21802135       0.95099493 </v>
    <v>       0.88684524       0.10671138       0.04751728 </v>
    <v>       0.77447916       0.55730070       0.95072735 </v>
    <v>       0.88798593       0.44299479       0.05045467 </v>
    <v>       0.77768073       0.88881700       0.95350839 </v>
    <v>       0.88607861       0.78057861       0.04798526 </v>
   </varray>
  </structure>
  <varray name="forces" >
   <v>      -0.09735435      -0.06711287       0.02008756 </v>
   <v>       0.24902083       0.14325150       0.02357425 </v>
   <v>       0.14835333      -0.10347843      -0.01911834 </v>
   <v>       0.43534968      -0.07758071      -0.02355941 </v>
   <v>      -0.24487507       0.04858855      -0.03181132 </v>
   <v>       0.61111524       0.28542248       0.01899806 </v>
   <v>      -0.20480051       0.61522570       0.03323606 </v>
   <v>      -0.47907543      -0.50617395       0.02411183 </v>
   <v>      -0.33741064      -0.37753437      -0.03486480 </v>
   <v>       0.01642290      -0.04313471      -0.26977956 </v>
   <v>      -0.03144137      -0.06901473       0.53022991 </v>
   <v>      -0.02598220       0.00464548      -0.72000179 </v>
   <v>       0.07070297       0.05847323       0.35596054 </v>
   <v>      -0.03228120      -0.01215896      -0.43637278 </v>
   <v>      -0.01123926       0.06909877       0.51636455 </v>
   <v>       0.01754937      -0.04412920      -0.50127053 </v>
   <v>      -0.01720388      -0.02518921       0.37447892 </v>
   <v>      -0.02377149       0.00419393      -0.17909922 </v>
   <v>      -0.04966220       0.02887155       0.46114352 </v>
   <v>      -0.01951580      -0.02106633      -0.27432122 </v>
   <v>      -0.01712448      -0.03591942       0.14285274 </v>
   <v>      -0.01176741       0.02596784      -0.14094929 </v>
   <v>       0.01350877       0.03237365       0.09519192 </v>
   <v>       0.01794183       0.03644454      -0.23305304 </v>
   <v>      -0.03543193      -0.01541449       0.25465703 </v>
   <v>       0.03997215       0.02074572      -0.21957271 </v>
   <v>       0.01900015       0.02460442       0.23288714 </v>
  </varray>
  <varray name="stress" >
   <v>      -5.85512903       0.11809930      -0.03440112 </v>
   <v>       0.11809932      -5.86711365       0.10089433 </v>
   <v>      -0.03440108       0.10089427       4.52279362 </v>
  </varray>
  <energy>
   <i name="e_fr_energy">   -190.72547592 </i>
   <i name="e_wo_entrp">   -190.62787516 </i>
   <i name="e_0_energy">     -0.19520151 </i>
  </energy>
  <time name="totalsc">  393.87  394.91</time>
 </calculation>
 <calculation>
  <scstep>
   <time name="dav">   22.78   22.84</time>
   <time name="total">   23.29   23.35</time>
   <energy>
    <i name="alphaZ">     90.27184342 </i>
    <i name="ewald">  44714.61200741 </i>
    <i name="hartreedc"> -50758.77608900 </i>
    <i name="XCdc">   -231.75152041 </i>
    <i name="pawpsdc">   4063.00900668 </i>
    <i name="pawaedc">  -3478.86833384 </i>
    <i name="eentropy">     -0.17685347 </i>
    <i name="bandstr">  -1351.96251591 </i>
    <i name="atom">   6761.44252427 </i>
    <i name="e_fr_energy">   -192.19993083 </i>
    <i name="e_wo_entrp">   -192.02307737 </i>
    <i name="e_0_energy">   -192.11150410 </i>
   </energy>
  </scstep>
  <scstep>
   <time name="dav">   28.82   28.89</time>
   <time name="total">   29.32   29.40</time>
   <energy>
    <i name="e_fr_energy">   -191.89698787 </i>
    <i name="e_wo_entrp">   -191.70426035 </i>
    <i name="e_0_energy">   -191.80062411 </i>
   </energy>
  </scstep>
  <scstep>
   <time name="dav">   31.42   31.49</time>
   <time name="total">   31.92   32.01</time>
   <energy>
    <i name="e_fr_energy">   -192.37345995 </i>
    <i name="e_wo_entrp">   -192.18945168 </i>
    <i name="e_0_energy">   -192.28145582 </i>
   </energy>
  </scstep>
  <scstep>
   <time name="dav">   30.17   30.24</time>
   <time name="total">   30.67   30.75</time>
   <energy>
    <i name="e_fr_energy">   -191.68852404 </i>
    <i name="e_wo_entrp">   -191.50781253 </i>
    <i name="e_0_energy">   -191.59816828 </i>
   </energy>
  </scstep>
  <scstep>
   <time name="dav">   31.55   31.62</time>
   <time name="total">   32.05   32.14</time>
   <energy>
    <i name="e_fr_energy">   -191.63433385 </i>
    <i name="e_wo_entrp">   -191.43770722 </i>
    <i name="e_0_energy">   -191.53602053 </i>
   </energy>
  </scstep>
  <scstep>
   <time name="dav">   31.73   31.81</time>
   <time name="total">   32.24   32.33</time>
   <energy>
    <i name="e_fr_energy">   -191.47620050 </i>
    <i name="e_wo_entrp">   -191.29107689 </i>
    <i name="e_0_energy">   -191.38363869 </i>
   </energy>
  </scstep>
  <scstep>
   <time name="dav">   32.04   32.11</time>
   <time name="total">   32.55   32.63</time>
   <energy>
    <i name="e_fr_energy">   -191.46493348 </i>
    <i name="e_wo_entrp">   -191.28233586 </i>
    <i name="e_0_energy">   -191.37363467 </i>
   </energy>
  </scstep>
  <scstep>
   <time name="dav">   31.67   31.74</time>
   <time name="total">   32.17   32.26</time>
   <energy>
    <i name="e_fr_energy">   -191.44879406 </i>
    <i name="e_wo_entrp">   -191.26220545 </i>
    <i name="e_0_energy">   -191.35549975 </i>
   </energy>
  </scstep>
  <scstep>
   <time name="dav">   29.56   29.63</time>
   <time name="total">   30.07   30.14</time>
   <energy>
    <i name="e_fr_energy">   -191.44598416 </i>
    <i name="e_wo_entrp">   -191.26039627 </i>
    <i name="e_0_energy">   -191.35319022 </i>
   </energy>
  </scstep>
  <scstep>
   <time name="dav">   30.10   30.17</time>
   <time name="total">   30.61   30.69</time>
   <energy>
    <i name="e_fr_energy">   -191.44611847 </i>
    <i name="e_wo_entrp">   -191.25998596 </i>
    <i name="e_0_energy">   -191.35305221 </i>
   </energy>
  </scstep>
  <scstep>
   <time name="dav">   28.10   28.17</time>
   <time name="total">   28.14   28.22</time>
   <energy>
    <i name="alphaZ">     90.27184342 </i>
    <i name="ewald">  44714.61200741 </i>
    <i name="hartreedc"> -50723.95693017 </i>
    <i name="XCdc">   -233.29699668 </i>
    <i name="pawpsdc">   4087.96359365 </i>
    <i name="pawaedc">  -3503.95060496 </i>
    <i name="eentropy">     -0.18614308 </i>
    <i name="bandstr">  -1384.34532963 </i>
    <i name="atom">   6761.44252427 </i>
    <i name="e_fr_energy">   -191.44603575 </i>
    <i name="e_wo_entrp">   -191.25989267 </i>
    <i name="e_0_energy">   -191.35296421 </i>
   </energy>
  </scstep>
  <structure>
   <crystal>
    <varray name="basis" >
     <v>       8.27820983       4.78370082       0.00000000 </v>
     <v>      -8.27041634       4.77022868       0.00000000 </v>
     <v>       0.00000000       0.00000000      30.00000000 </v>
    </varray>
    <i name="volume">   2371.56454125 </i>
    <varray name="rec_basis" >
     <v>       0.06034281       0.10461975       0.00000000 </v>
     <v>      -0.06051323       0.10471834       0.00000000 </v>
     <v>       0.00000000       0.00000000       0.03333333 </v>
    </varray>
   </crystal>
   <varray name="positions" >
    <v>       0.66347630      -0.00036206       0.00002695 </v>
    <v>       0.00776074      -0.00053087       0.00011314 </v>
    <v>       0.66702451       0.66247387      -0.00033204 </v>
    <v>       0.33618170       0.32548399      -0.00012982 </v>
    <v>       0.32916121       0.00331004       0.00004754 </v>
    <v>       0.01353580       0.66722861       0.00011215 </v>
    <v>       1.01129260       0.34830633       0.00020490 </v>
    <v>       0.31693471       0.66209887      -0.00016564 </v>
    <v>       0.65444292       0.33053124       0.00006265 </v>
    <v>       0.10673680       0.21566973       0.94891592 </v>
    <v>       0.21444688       0.10698799       0.05287313 </v>
    <v>       0.11134820       0.55534421       0.94480535 </v>
    <v>       0.22330134       0.44506473       0.05293580 </v>
    <v>       0.10720813       0.89210827       0.94773886 </v>
    <v>       0.22387324       0.77836500       0.05395136 </v>
    <v>       0.44511909       0.22182519       0.94622567 </v>
    <v>       0.55860673       0.10868391       0.05156707 </v>
    <v>       0.44978256       0.55935963       0.94969792 </v>
    <v>       0.55907725       0.45079379       0.05235849 </v>
    <v>       0.44937551       0.89071130       0.94898522 </v>
    <v>       0.55983644       0.77960679       0.04879866 </v>
    <v>       0.77567687       0.21785682       0.94985465 </v>
    <v>       0.88696495       0.10633381       0.04839570 </v>
    <v>       0.77493447       0.55801231       0.94920480 </v>
    <v>       0.88766009       0.44318278       0.05210905 </v>
    <v>       0.77821885       0.88879277       0.95222275 </v>
    <v>       0.88623657       0.78097541       0.04941968 </v>
   </varray>
  </structure>
  <varray name="forces" >
   <v>       0.02083091      -0.11205297      -0.01415121 </v>
   <v>       0.14312200       0.01192235      -0.00902159 </v>
   <v>       0.04585302      -0.02548699      -0.03741306 </v>
   <v>       0.37716249      -0.02256267       0.04370512 </v>
   <v>      -0.11354754       0.19317450       0.00380893 </v>
   <v>       0.37709914       0.16344836      -0.01841321 </v>
   <v>      -0.19414038       0.40158518      -0.04886296 </v>
   <v>      -0.29699149      -0.18307620       0.05531650 </v>
   <v>      -0.23255022      -0.46690189      -0.02247787 </v>
   <v>      -0.04140664       0.08580502       0.07655678 </v>
   <v>       0.03024907       0.04174609       0.15592333 </v>
   <v>      -0.04633058       0.00669172      -0.45812888 </v>
   <v>       0.15063145       0.09071496       0.06998937 </v>
   <v>       0.09883390      -0.03455743      -0.05457027 </v>
   <v>      -0.07538401       0.14119933       0.21253523 </v>
   <v>      -0.00580151      -0.10943470      -0.32565667 </v>
   <v>      -0.12934476      -0.03087913       0.09748219 </v>
   <v>      -0.13045153      -0.13353618       0.15299292 </v>
   <v>      -0.00390397      -0.08999442       0.14491011 </v>
   <v>      -0.05696186      -0.14458656       0.00880213 </v>
   <v>      -0.09438279      -0.19683080      -0.07222126 </v>
   <v>      -0.06719910       0.12289342       0.15164396 </v>
   <v>      -0.07152807       0.21989352      -0.13286539 </v>
   <v>       0.15411004       0.06121863       0.13871259 </v>
   <v>      -0.11315746      -0.02723742      -0.07289737 </v>
   <v>       0.03604710       0.01475774      -0.01501315 </v>
   <v>       0.23914277       0.02208654      -0.03068627 </v>
  </varray>
  <varray name="stress" >
   <v>       0.37606966       0.22965974      -0.01193247 </v>
   <v>       0.22965987       0.28119300       0.33258434 </v>
   <v>      -0.01193237       0.33258445      -0.23895899 </v>
  </varray>
  <energy>
   <i name="e_fr_energy">   -191.44603575 </i>
   <i name="e_wo_entrp">   -191.35296421 </i>
   <i name="e_0_energy">     -0.18614308 </i>
  </energy>
  <time name="totalsc">  376.84  377.83</time>
 </calculation>
 <calculation>
  <scstep>
   <time name="dav">   22.79   22.84</time>
   <time name="total">   23.29   23.35</time>
   <energy>
    <i name="alphaZ">     90.04925478 </i>
    <i name="ewald">  44592.25918039 </i>
    <i name="hartreedc"> -50600.00130900 </i>
    <i name="XCdc">   -233.54258425 </i>
    <i name="pawpsdc">   4088.43948015 </i>
    <i name="pawaedc">  -3504.42500988 </i>
    <i name="eentropy">     -0.18781475 </i>
    <i name="bandstr">  -1385.55290858 </i>
    <i name="atom">   6761.44252427 </i>
    <i name="e_fr_energy">   -191.51918686 </i>
    <i name="e_wo_entrp">   -191.33137211 </i>
    <i name="e_0_energy">   -191.42527948 </i>
   </energy>
  </scstep>
  <scstep>
   <time name="dav">   33.45   33.54</time>
   <time name="total">   33.96   34.05</time>
   <energy>
    <i name="e_fr_energy">   -191.59303210 </i>
    <i name="e_wo_entrp">   -191.39380978 </i>
    <i name="e_0_energy">   -191.49342094 </i>
   </energy>
  </scstep>
  <scstep>
   <time name="dav">   32.36   32.44</time>
   <time name="total">   32.87   32.95</time>
   <energy>
    <i name="e_fr_energy">   -191.52805214 </i>
    <i name="e_wo_entrp">   -191.33921698 </i>
    <i name="e_0_energy">   -191.43363456 </i>
   </energy>
  </scstep>
  <scstep>
   <time name="dav">   30.01   30.08</time>
   <time name="total">   30.51   30.60</time>
   <energy>
    <i name="e_fr_energy">   -191.53065141 </i>
    <i name="e_wo_entrp">   -191.33959378 </i>
    <i name="e_0_energy">   -191.43512260 </i>
   </energy>
  </scstep>
  <scstep>
   <time name="dav">   28.75   28.82</time>
   <time name="total">   29.26   29.34</time>
   <energy>
    <i name="e_fr_energy">   -191.52639874 </i>
    <i name="e_wo_entrp">   -191.33644540 </i>
    <i name="e_0_energy">   -191.43142207 </i>
   </energy>
  </scstep>
  <scstep>
   <time name="dav">   29.76   29.83</time>
   <time name="total">   30.27   30.35</time>
   <energy>
    <i name="e_fr_energy">   -191.52671538 </i>
    <i name="e_wo_entrp">   -191.33673685 </i>
    <i name="e_0_energy">   -191.43172612 </i>
   </energy>
  </scstep>
  <scstep>
   <time name="dav">   29.69   29.76</time>
   <time name="total">   30.19   30.27</time>
   <energy>
    <i name="e_fr_energy">   -191.52634559 </i>
    <i name="e_wo_entrp">   -191.33658971 </i>
    <i name="e_0_energy">   -191.43146765 </i>
   </energy>
  </scstep>
  <scstep>
   <time name="dav">   26.63   26.69</time>
   <time name="total">   27.13   27.21</time>
   <energy>
    <i name="e_fr_energy">   -191.52579526 </i>
    <i name="e_wo_entrp">   -191.33606117 </i>
    <i name="e_0_energy">   -191.43092821 </i>
   </energy>
  </scstep>
  <scstep>
   <time name="dav">   19.46   19.51</time>
   <time name="total">   19.50   19.55</time>
   <energy>
    <i name="alphaZ">     90.04925478 </i>
    <i name="ewald">  44592.25918039 </i>
    <i name="hartreedc"> -50603.03136143 </i>
    <i name="XCdc">   -233.43186718 </i>
    <i name="pawpsdc">   4084.48309665 </i>
    <i name="pawaedc">  -3500.41280349 </i>
    <i name="eentropy">     -0.18978440 </i>
    <i name="bandstr">  -1382.69403325 </i>
    <i name="atom">   6761.44252427 </i>
    <i name="e_fr_energy">   -191.52579365 </i>
    <i name="e_wo_entrp">   -191.33600925 </i>
    <i name="e_0_energy">   -191.43090145 </i>
   </energy>
  </scstep>
  <structure>
   <crystal>
    <varray name="basis" >
     <v>       8.29212765       4.79371470       0.00000000 </v>
     <v>      -8.27892687       4.77087968       0.00000000 </v>
     <v>       0.00000000       0.00000000      30.00000000 </v>
    </varray>
    <i name="volume">   2377.42670332 </i>
    <varray name="rec_basis" >
     <v>       0.06020223       0.10446917       0.00000000 </v>
     <v>      -0.06049038       0.10463575       0.00000000 </v>
     <v>       0.00000000       0.00000000       0.03333333 </v>
    </varray>
   </crystal>
   <varray name="positions" >
    <v>       0.66303788      -0.00096326       0.00000301 </v>
    <v>       0.00811089      -0.00087690       0.00009663 </v>
    <v>       0.66703911       0.66229673      -0.00038673 </v>
    <v>       0.33706396       0.32443186      -0.00005873 </v>
    <v>       0.32981008       0.00449674       0.00005742 </v>
    <v>       0.01515582       0.66699376       0.00008118 </v>
    <v>       1.01251824       0.35053106       0.00012487 </v>
    <v>       0.31550027       0.66212947      -0.00008368 </v>
    <v>       0.65173174       0.32898414       0.00003290 </v>
    <v>       0.10705316       0.21624132       0.94908987 </v>
    <v>       0.21478391       0.10713339       0.05302699 </v>
    <v>       0.11126004       0.55549530       0.94420994 </v>
    <v>       0.22412147       0.44507990       0.05297487 </v>
    <v>       0.10733643       0.89165299       0.94773035 </v>
    <v>       0.22432736       0.77922993       0.05419175 </v>
    <v>       0.44459269       0.22133473       0.94580930 </v>
    <v>       0.55810369       0.10892049       0.05164975 </v>
    <v>       0.44875365       0.55906720       0.94997781 </v>
    <v>       0.55862623       0.45032474       0.05250326 </v>
    <v>       0.44850501       0.89015313       0.94905517 </v>
    <v>       0.55861056       0.77891407       0.04864924 </v>
    <v>       0.77609013       0.21865164       0.95012878 </v>
    <v>       0.88782933       0.10761639       0.04815891 </v>
    <v>       0.77564767       0.55785168       0.94946966 </v>
    <v>       0.88722105       0.44335944       0.05194086 </v>
    <v>       0.77837559       0.88876405       0.95224185 </v>
    <v>       0.88700848       0.78040047       0.04932466 </v>
   </varray>
  </structure>
  <varray name="forces" >
   <v>       0.04608440      -0.14273564       0.00228316 </v>
   <v>       0.15799987      -0.02179067       0.01367646 </v>
   <v>       0.03525697       0.00190705      -0.04605258 </v>
   <v>       0.40010527      -0.03855153       0.01162579 </v>
   <v>      -0.12859131       0.20196534      -0.00960924 </v>
   <v>       0.36757559       0.23028270      -0.00361409 </v>
   <v>      -0.16303169       0.44078683       0.00341841 </v>
   <v>      -0.33702287      -0.22424985       0.01979026 </v>
   <v>      -0.23607115      -0.48767698      -0.03482983 </v>
   <v>      -0.03239183       0.06259031       0.09518457 </v>
   <v>       0.01890263       0.01172541       0.12184681 </v>
   <v>      -0.02519471       0.04805365      -0.31697012 </v>
   <v>       0.08926720       0.05460682      -0.00463571 </v>
   <v>       0.06365311      -0.00731541      -0.03376158 </v>
   <v>      -0.06304395       0.10710260       0.15147847 </v>
   <v>      -0.01185911      -0.08414418      -0.28265232 </v>
   <v>      -0.07500130      -0.02460412       0.09764375 </v>
   <v>      -0.08955092      -0.09253365       0.17675967 </v>
   <v>      -0.00018583      -0.06150406       0.11478945 </v>
   <v>      -0.04190816      -0.07917768       0.00212702 </v>
   <v>      -0.06165766      -0.12314186      -0.05784322 </v>
   <v>      -0.05903913       0.08102943       0.15506065 </v>
   <v>      -0.06344611       0.15730889      -0.17742878 </v>
   <v>       0.11433841       0.01984819       0.16205532 </v>
   <v>      -0.09257419      -0.04679635      -0.12225087 </v>
   <v>       0.02455579       0.00820269       0.01622471 </v>
   <v>       0.16283069       0.00881207      -0.05431614 </v>
  </varray>
  <varray name="stress" >
   <v>      -0.02574792       0.05168670      -0.03040910 </v>
   <v>       0.05168699      -0.13148288       0.13336240 </v>
   <v>      -0.03040935       0.13336240      -1.13000595 </v>
  </varray>
  <energy>
   <i name="e_fr_energy">   -191.52579365 </i>
   <i name="e_wo_entrp">   -191.43090145 </i>
   <i name="e_0_energy">     -0.18978440 </i>
  </energy>
  <time name="totalsc">  300.95  301.95</time>
 </calculation>
 <calculation>
  <scstep>
   <time name="dav">   22.78   22.84</time>
   <time name="total">   23.29   23.35</time>
   <energy>
    <i name="alphaZ">     90.12294725 </i>
    <i name="ewald">  44622.42031031 </i>
    <i name="hartreedc"> -50633.80175671 </i>
    <i name="XCdc">   -233.40165176 </i>
    <i name="pawpsdc">   4084.23167921 </i>
    <i name="pawaedc">  -3500.15831113 </i>
    <i name="eentropy">     -0.18718592 </i>
    <i name="bandstr">  -1382.29473602 </i>
    <i name="atom">   6761.44252427 </i>
    <i name="e_fr_energy">   -191.62618050 </i>
    <i name="e_wo_entrp">   -191.43899457 </i>
    <i name="e_0_energy">   -191.53258753 </i>
   </energy>
  </scstep>
  <scstep>
   <time name="dav">   33.45   33.53</time>
   <time name="total">   33.95   34.04</time>
   <energy>
    <i name="e_fr_energy">   -191.72753949 </i>
    <i name="e_wo_entrp">   -191.52008827 </i>
    <i name="e_0_energy">   -191.62381388 </i>
   </energy>
  </scstep>
  <scstep>
   <time name="dav">   32.14   32.21</time>
   <time name="total">   32.64   32.73</time>
   <energy>
    <i name="e_fr_energy">   -191.64141339 </i>
    <i name="e_wo_entrp">   -191.45268352 </i>
    <i name="e_0_energy">   -191.54704846 </i>
   </energy>
  </scstep>
  <scstep>
   <time name="dav">   31.08   31.16</time>
   <time name="total">   31.59   31.67</time>
   <energy>
    <i name="e_fr_energy">   -191.64839991 </i>
    <i name="e_wo_entrp">   -191.45647334 </i>
    <i name="e_0_energy">   -191.55243663 </i>
   </energy>
  </scstep>
  <scstep>
   <time name="dav">   30.63   30.70</time>
   <time name="total">   31.13   31.22</time>
   <energy>
    <i name="e_fr_energy">   -191.63684350 </i>
    <i name="e_wo_entrp">   -191.44610801 </i>
    <i name="e_0_energy">   -191.54147576 </i>
   </energy>
  </scstep>
  <scstep>
   <time name="dav">   29.60   29.67</time>
   <time name="total">   30.10   30.18</time>
   <energy>
    <i name="e_fr_energy">   -191.63834382 </i>
    <i name="e_wo_entrp">   -191.44684833 </i>
    <i name="e_0_energy">   -191.54259607 </i>
   </energy>
  </scstep>
  <scstep>
   <time name="dav">   30.23   30.30</time>
   <time name="total">   30.74   30.82</time>
   <energy>
    <i name="e_fr_energy">   -191.63677753 </i>
    <i name="e_wo_entrp">   -191.44531143 </i>
    <i name="e_0_energy">   -191.54104448 </i>
   </energy>
  </scstep>
  <scstep>
   <time name="dav">   27.38   27.45</time>
   <time name="total">   27.89   27.96</time>
   <energy>
    <i name="e_fr_energy">   -191.63584061 </i>
    <i name="e_wo_entrp">   -191.44454916 </i>
    <i name="e_0_energy">   -191.54019488 </i>
   </energy>
  </scstep>
  <scstep>
   <time name="dav">   21.79   21.84</time>
   <time name="total">   21.83   21.89</time>
   <energy>
    <i name="alphaZ">     90.12294725 </i>
    <i name="ewald">  44622.42031031 </i>
    <i name="hartreedc"> -50634.28325928 </i>
    <i name="XCdc">   -233.36596240 </i>
[...]
      <set comment="kpoint 31">
       <r>  -17.4904    1.0000 </r>
       <r>  -17.3051    1.0000 </r>
       <r>  -16.9141    1.0000 </r>
       <r>  -16.6488    1.0000 </r>
       <r>  -16.5007    1.0000 </r>
       <r>  -16.4587    1.0000 </r>
       <r>  -16.2671    1.0000 </r>
       <r>  -16.1975    1.0000 </r>
       <r>  -16.1454    1.0000 </r>
       <r>  -16.0729    1.0000 </r>
       <r>  -15.9201    1.0000 </r>
       <r>  -15.8628    1.0000 </r>
       <r>  -15.7211    1.0000 </r>
       <r>  -15.6821    1.0000 </r>
       <r>  -15.6203    1.0000 </r>
       <r>  -15.5083    1.0000 </r>
       <r>  -15.4216    1.0000 </r>
       <r>  -15.2775    1.0000 </r>
       <r>   -9.7129    1.0000 </r>
       <r>   -9.4614    1.0000 </r>
       <r>   -9.3268    1.0000 </r>
       <r>   -8.8969    1.0000 </r>
       <r>   -8.8561    1.0000 </r>
       <r>   -8.7377    1.0000 </r>
       <r>   -8.6409    1.0000 </r>
       <r>   -8.6148    1.0000 </r>
       <r>   -8.3815    1.0000 </r>
       <r>   -8.2912    1.0000 </r>
       <r>   -8.2358    1.0000 </r>
       <r>   -8.2023    1.0000 </r>
       <r>   -8.0921    1.0000 </r>
       <r>   -8.0627    1.0000 </r>
       <r>   -8.0207    1.0000 </r>
       <r>   -7.9171    1.0000 </r>
       <r>   -7.7690    1.0000 </r>
       <r>   -7.7211    1.0000 </r>
       <r>   -7.5709    1.0000 </r>
       <r>   -7.4901    1.0000 </r>
       <r>   -7.3550    1.0000 </r>
       <r>   -7.2796    1.0000 </r>
       <r>   -7.1343    1.0000 </r>
       <r>   -7.0536    1.0000 </r>
       <r>   -7.0057    1.0000 </r>
       <r>   -6.8901    1.0000 </r>
       <r>   -6.8447    1.0000 </r>
       <r>   -6.7424    1.0000 </r>
       <r>   -6.6743    1.0000 </r>
       <r>   -6.5914    1.0000 </r>
       <r>   -6.5641    1.0000 </r>
       <r>   -6.4943    1.0000 </r>
       <r>   -6.4463    1.0000 </r>
       <r>   -6.3643    1.0000 </r>
       <r>   -6.2843    1.0000 </r>
       <r>   -6.1747    1.0000 </r>
       <r>   -6.1157    1.0000 </r>
       <r>   -6.0296    1.0000 </r>
       <r>   -5.9824    1.0000 </r>
       <r>   -5.9262    1.0000 </r>
       <r>   -5.8437    1.0000 </r>
       <r>   -5.7759    1.0000 </r>
       <r>   -5.7075    1.0000 </r>
       <r>   -5.6621    1.0000 </r>
       <r>   -5.5240    1.0000 </r>
       <r>   -5.3796    1.0000 </r>
       <r>   -5.2110    1.0000 </r>
       <r>   -5.1454    1.0000 </r>
       <r>   -5.0978    1.0000 </r>
       <r>   -4.8927    1.0000 </r>
       <r>   -4.7326    1.0000 </r>
       <r>   -4.7224    1.0000 </r>
       <r>   -4.6073    1.0000 </r>
       <r>   -4.4860    1.0000 </r>
       <r>   -4.3766    1.0000 </r>
       <r>   -4.2342    1.0000 </r>
       <r>   -4.1509    1.0000 </r>
       <r>   -4.0110    1.0000 </r>
       <r>   -3.8878    1.0000 </r>
       <r>   -3.7011    0.9958 </r>
       <r>   -3.5733    0.9581 </r>
       <r>   -3.2338    0.2509 </r>
       <r>   -2.9604    0.0046 </r>
       <r>   -2.7619    0.0000 </r>
       <r>   -2.6935    0.0000 </r>
       <r>   -2.6011    0.0000 </r>
       <r>   -2.3843    0.0000 </r>
       <r>   -2.3455    0.0000 </r>
       <r>   -2.2938    0.0000 </r>
       <r>   -2.0857    0.0000 </r>
       <r>   -1.9945    0.0000 </r>
       <r>   -1.8782    0.0000 </r>
       <r>   -1.8190    0.0000 </r>
       <r>   -1.6150    0.0000 </r>
       <r>   -1.4526    0.0000 </r>
       <r>   -1.3088    0.0000 </r>
       <r>   -1.2293    0.0000 </r>
       <r>   -1.1965    0.0000 </r>
       <r>   -1.1052    0.0000 </r>
       <r>   -1.0442    0.0000 </r>
       <r>   -0.9565    0.0000 </r>
       <r>   -0.8832    0.0000 </r>
       <r>   -0.7921    0.0000 </r>
       <r>   -0.6926    0.0000 </r>
       <r>   -0.6577    0.0000 </r>
       <r>   -0.5759    0.0000 </r>
       <r>   -0.4568    0.0000 </r>
       <r>   -0.2720    0.0000 </r>
       <r>   -0.2554    0.0000 </r>
       <r>   -0.0897    0.0000 </r>
       <r>   -0.0462    0.0000 </r>
       <r>    0.1008    0.0000 </r>
       <r>    0.4030    0.0000 </r>
       <r>    0.4745    0.0000 </r>
       <r>    0.8003    0.0000 </r>
       <r>    0.8597    0.0000 </r>
       <r>    1.0352    0.0000 </r>
       <r>    1.2858    0.0000 </r>
       <r>    1.5160    0.0000 </r>
       <r>    2.1328    0.0000 </r>
       <r>    2.2896    0.0000 </r>
       <r>    2.3923    0.0000 </r>
      </set>
      <set comment="kpoint 32">
       <r>  -17.5182    1.0000 </r>
       <r>  -17.2028    1.0000 </r>
       <r>  -17.0404    1.0000 </r>
       <r>  -16.6449    1.0000 </r>
       <r>  -16.4762    1.0000 </r>
       <r>  -16.3676    1.0000 </r>
       <r>  -16.2869    1.0000 </r>
       <r>  -16.2352    1.0000 </r>
       <r>  -16.1312    1.0000 </r>
       <r>  -16.0443    1.0000 </r>
       <r>  -15.9713    1.0000 </r>
       <r>  -15.8913    1.0000 </r>
       <r>  -15.7225    1.0000 </r>
       <r>  -15.6771    1.0000 </r>
       <r>  -15.5929    1.0000 </r>
       <r>  -15.5102    1.0000 </r>
       <r>  -15.4413    1.0000 </r>
       <r>  -15.2598    1.0000 </r>
       <r>   -9.6376    1.0000 </r>
       <r>   -9.5913    1.0000 </r>
       <r>   -9.3669    1.0000 </r>
       <r>   -8.9306    1.0000 </r>
       <r>   -8.7645    1.0000 </r>
       <r>   -8.6556    1.0000 </r>
       <r>   -8.6330    1.0000 </r>
       <r>   -8.4841    1.0000 </r>
       <r>   -8.3797    1.0000 </r>
       <r>   -8.3516    1.0000 </r>
       <r>   -8.2488    1.0000 </r>
       <r>   -8.1777    1.0000 </r>
       <r>   -8.1705    1.0000 </r>
       <r>   -8.0756    1.0000 </r>
       <r>   -8.0411    1.0000 </r>
       <r>   -7.9889    1.0000 </r>
       <r>   -7.7635    1.0000 </r>
       <r>   -7.6872    1.0000 </r>
       <r>   -7.5926    1.0000 </r>
       <r>   -7.4328    1.0000 </r>
       <r>   -7.3261    1.0000 </r>
       <r>   -7.2958    1.0000 </r>
       <r>   -7.1909    1.0000 </r>
       <r>   -7.0727    1.0000 </r>
       <r>   -6.9967    1.0000 </r>
       <r>   -6.8975    1.0000 </r>
       <r>   -6.8505    1.0000 </r>
       <r>   -6.7233    1.0000 </r>
       <r>   -6.6534    1.0000 </r>
       <r>   -6.6203    1.0000 </r>
       <r>   -6.5354    1.0000 </r>
       <r>   -6.4974    1.0000 </r>
       <r>   -6.4438    1.0000 </r>
       <r>   -6.3940    1.0000 </r>
       <r>   -6.2797    1.0000 </r>
       <r>   -6.1887    1.0000 </r>
       <r>   -6.1066    1.0000 </r>
       <r>   -6.0268    1.0000 </r>
       <r>   -5.9805    1.0000 </r>
       <r>   -5.9007    1.0000 </r>
       <r>   -5.8609    1.0000 </r>
       <r>   -5.7636    1.0000 </r>
       <r>   -5.6685    1.0000 </r>
       <r>   -5.6224    1.0000 </r>
       <r>   -5.4929    1.0000 </r>
       <r>   -5.4222    1.0000 </r>
       <r>   -5.3068    1.0000 </r>
       <r>   -5.0923    1.0000 </r>
       <r>   -5.0123    1.0000 </r>
       <r>   -4.9832    1.0000 </r>
       <r>   -4.8875    1.0000 </r>
       <r>   -4.7155    1.0000 </r>
       <r>   -4.5998    1.0000 </r>
       <r>   -4.4368    1.0000 </r>
       <r>   -4.3221    1.0000 </r>
       <r>   -4.2463    1.0000 </r>
       <r>   -4.1219    1.0000 </r>
       <r>   -4.0097    1.0000 </r>
       <r>   -3.8815    1.0000 </r>
       <r>   -3.6512    0.9887 </r>
       <r>   -3.5726    0.9577 </r>
       <r>   -3.2672    0.3317 </r>
       <r>   -2.9466    0.0034 </r>
       <r>   -2.7612    0.0000 </r>
       <r>   -2.6958    0.0000 </r>
       <r>   -2.5658    0.0000 </r>
       <r>   -2.4348    0.0000 </r>
       <r>   -2.3673    0.0000 </r>
       <r>   -2.2690    0.0000 </r>
       <r>   -2.1201    0.0000 </r>
       <r>   -1.9815    0.0000 </r>
       <r>   -1.8844    0.0000 </r>
       <r>   -1.8335    0.0000 </r>
       <r>   -1.5716    0.0000 </r>
       <r>   -1.4856    0.0000 </r>
       <r>   -1.3269    0.0000 </r>
       <r>   -1.2324    0.0000 </r>
       <r>   -1.2032    0.0000 </r>
       <r>   -1.0934    0.0000 </r>
       <r>   -1.0303    0.0000 </r>
       <r>   -0.9375    0.0000 </r>
       <r>   -0.9238    0.0000 </r>
       <r>   -0.7844    0.0000 </r>
       <r>   -0.7133    0.0000 </r>
       <r>   -0.6658    0.0000 </r>
       <r>   -0.5297    0.0000 </r>
       <r>   -0.4306    0.0000 </r>
       <r>   -0.3328    0.0000 </r>
       <r>   -0.2239    0.0000 </r>
       <r>   -0.1582    0.0000 </r>
       <r>   -0.0344    0.0000 </r>
       <r>    0.0990    0.0000 </r>
       <r>    0.4322    0.0000 </r>
       <r>    0.5468    0.0000 </r>
       <r>    0.7717    0.0000 </r>
       <r>    0.9013    0.0000 </r>
       <r>    1.0592    0.0000 </r>
       <r>    1.2780    0.0000 </r>
       <r>    1.4370    0.0000 </r>
       <r>    2.1037    0.0000 </r>
       <r>    2.2557    0.0000 </r>
       <r>    2.5631    0.0000 </r>
      </set>
      <set comment="kpoint 33">
       <r>  -17.5113    1.0000 </r>
       <r>  -17.2617    1.0000 </r>
       <r>  -16.9362    1.0000 </r>
       <r>  -16.6426    1.0000 </r>
       <r>  -16.5423    1.0000 </r>
       <r>  -16.4118    1.0000 </r>
       <r>  -16.3415    1.0000 </r>
       <r>  -16.2117    1.0000 </r>
       <r>  -16.0485    1.0000 </r>
       <r>  -15.9972    1.0000 </r>
       <r>  -15.9609    1.0000 </r>
       <r>  -15.9063    1.0000 </r>
       <r>  -15.7491    1.0000 </r>
       <r>  -15.6778    1.0000 </r>
       <r>  -15.5841    1.0000 </r>
       <r>  -15.5242    1.0000 </r>
       <r>  -15.4605    1.0000 </r>
       <r>  -15.2465    1.0000 </r>
       <r>   -9.7413    1.0000 </r>
       <r>   -9.4616    1.0000 </r>
       <r>   -9.2905    1.0000 </r>
       <r>   -9.0061    1.0000 </r>
       <r>   -8.8568    1.0000 </r>
       <r>   -8.7235    1.0000 </r>
       <r>   -8.6348    1.0000 </r>
       <r>   -8.4815    1.0000 </r>
       <r>   -8.3994    1.0000 </r>
       <r>   -8.3058    1.0000 </r>
       <r>   -8.2452    1.0000 </r>
       <r>   -8.1501    1.0000 </r>
       <r>   -8.1348    1.0000 </r>
       <r>   -8.0703    1.0000 </r>
       <r>   -8.0173    1.0000 </r>
       <r>   -7.9148    1.0000 </r>
       <r>   -7.7559    1.0000 </r>
       <r>   -7.7034    1.0000 </r>
       <r>   -7.6088    1.0000 </r>
       <r>   -7.4201    1.0000 </r>
       <r>   -7.3502    1.0000 </r>
       <r>   -7.2517    1.0000 </r>
       <r>   -7.1365    1.0000 </r>
       <r>   -7.0866    1.0000 </r>
       <r>   -7.0085    1.0000 </r>
       <r>   -6.8918    1.0000 </r>
       <r>   -6.8539    1.0000 </r>
       <r>   -6.7958    1.0000 </r>
       <r>   -6.6964    1.0000 </r>
       <r>   -6.6044    1.0000 </r>
       <r>   -6.5236    1.0000 </r>
       <r>   -6.5044    1.0000 </r>
       <r>   -6.4302    1.0000 </r>
       <r>   -6.3566    1.0000 </r>
       <r>   -6.2603    1.0000 </r>
       <r>   -6.1421    1.0000 </r>
       <r>   -6.1139    1.0000 </r>
       <r>   -6.0986    1.0000 </r>
       <r>   -5.9858    1.0000 </r>
       <r>   -5.9284    1.0000 </r>
       <r>   -5.8770    1.0000 </r>
       <r>   -5.7973    1.0000 </r>
       <r>   -5.7341    1.0000 </r>
       <r>   -5.6573    1.0000 </r>
       <r>   -5.5028    1.0000 </r>
       <r>   -5.3462    1.0000 </r>
       <r>   -5.3248    1.0000 </r>
       <r>   -5.1527    1.0000 </r>
       <r>   -5.0773    1.0000 </r>
       <r>   -4.9221    1.0000 </r>
       <r>   -4.8056    1.0000 </r>
       <r>   -4.6920    1.0000 </r>
       <r>   -4.5305    1.0000 </r>
       <r>   -4.4025    1.0000 </r>
       <r>   -4.3152    1.0000 </r>
       <r>   -4.2483    1.0000 </r>
       <r>   -4.1196    1.0000 </r>
       <r>   -4.0225    1.0000 </r>
       <r>   -3.9042    1.0000 </r>
       <r>   -3.6173    0.9793 </r>
       <r>   -3.5645    0.9523 </r>
       <r>   -3.3212    0.4788 </r>
       <r>   -2.8960    0.0011 </r>
       <r>   -2.7741    0.0000 </r>
       <r>   -2.7281    0.0000 </r>
       <r>   -2.5364    0.0000 </r>
       <r>   -2.4812    0.0000 </r>
       <r>   -2.4067    0.0000 </r>
       <r>   -2.2265    0.0000 </r>
       <r>   -2.1621    0.0000 </r>
       <r>   -1.9819    0.0000 </r>
       <r>   -1.8775    0.0000 </r>
       <r>   -1.7562    0.0000 </r>
       <r>   -1.5646    0.0000 </r>
       <r>   -1.4945    0.0000 </r>
       <r>   -1.3268    0.0000 </r>
       <r>   -1.2553    0.0000 </r>
       <r>   -1.2148    0.0000 </r>
       <r>   -1.1074    0.0000 </r>
       <r>   -1.0816    0.0000 </r>
       <r>   -0.9446    0.0000 </r>
       <r>   -0.8595    0.0000 </r>
       <r>   -0.7798    0.0000 </r>
       <r>   -0.7443    0.0000 </r>
       <r>   -0.6712    0.0000 </r>
       <r>   -0.5010    0.0000 </r>
       <r>   -0.4389    0.0000 </r>
       <r>   -0.4004    0.0000 </r>
       <r>   -0.2320    0.0000 </r>
       <r>   -0.1493    0.0000 </r>
       <r>   -0.0878    0.0000 </r>
       <r>    0.1418    0.0000 </r>
       <r>    0.4526    0.0000 </r>
       <r>    0.5893    0.0000 </r>
       <r>    0.7732    0.0000 </r>
       <r>    0.9744    0.0000 </r>
       <r>    1.1149    0.0000 </r>
       <r>    1.2526    0.0000 </r>
       <r>    1.3747    0.0000 </r>
       <r>    2.1341    0.0000 </r>
       <r>    2.2881    0.0000 </r>
       <r>    2.3874    0.0000 </r>
      </set>
      <set comment="kpoint 34">
       <r>  -17.4966    1.0000 </r>
       <r>  -17.3128    1.0000 </r>
       <r>  -16.7900    1.0000 </r>
       <r>  -16.6816    1.0000 </r>
       <r>  -16.6396    1.0000 </r>
       <r>  -16.4349    1.0000 </r>
       <r>  -16.3420    1.0000 </r>
       <r>  -16.2059    1.0000 </r>
       <r>  -16.0334    1.0000 </r>
       <r>  -15.9732    1.0000 </r>
       <r>  -15.9523    1.0000 </r>
       <r>  -15.8509    1.0000 </r>
       <r>  -15.7806    1.0000 </r>
       <r>  -15.6912    1.0000 </r>
       <r>  -15.5952    1.0000 </r>
       <r>  -15.5203    1.0000 </r>
       <r>  -15.4722    1.0000 </r>
       <r>  -15.2420    1.0000 </r>
       <r>   -9.7808    1.0000 </r>
       <r>   -9.3744    1.0000 </r>
       <r>   -9.1664    1.0000 </r>
       <r>   -9.1091    1.0000 </r>
       <r>   -8.9545    1.0000 </r>
       <r>   -8.7860    1.0000 </r>
       <r>   -8.6278    1.0000 </r>
       <r>   -8.5083    1.0000 </r>
       <r>   -8.4179    1.0000 </r>
       <r>   -8.2817    1.0000 </r>
       <r>   -8.2502    1.0000 </r>
       <r>   -8.1258    1.0000 </r>
       <r>   -8.1168    1.0000 </r>
       <r>   -8.0647    1.0000 </r>
       <r>   -7.9297    1.0000 </r>
       <r>   -7.8369    1.0000 </r>
       <r>   -7.8232    1.0000 </r>
       <r>   -7.7395    1.0000 </r>
       <r>   -7.5642    1.0000 </r>
       <r>   -7.4137    1.0000 </r>
       <r>   -7.3171    1.0000 </r>
       <r>   -7.2729    1.0000 </r>
       <r>   -7.1644    1.0000 </r>
       <r>   -7.0535    1.0000 </r>
       <r>   -6.9655    1.0000 </r>
       <r>   -6.9333    1.0000 </r>
       <r>   -6.8983    1.0000 </r>
       <r>   -6.7570    1.0000 </r>
       <r>   -6.7158    1.0000 </r>
       <r>   -6.5809    1.0000 </r>
       <r>   -6.5474    1.0000 </r>
       <r>   -6.5127    1.0000 </r>
       <r>   -6.4339    1.0000 </r>
       <r>   -6.3440    1.0000 </r>
       <r>   -6.2622    1.0000 </r>
       <r>   -6.2132    1.0000 </r>
       <r>   -6.1025    1.0000 </r>
       <r>   -6.0527    1.0000 </r>
       <r>   -5.9727    1.0000 </r>
       <r>   -5.9296    1.0000 </r>
       <r>   -5.8818    1.0000 </r>
       <r>   -5.8666    1.0000 </r>
       <r>   -5.7742    1.0000 </r>
       <r>   -5.6375    1.0000 </r>
       <r>   -5.5119    1.0000 </r>
       <r>   -5.4101    1.0000 </r>
       <r>   -5.3264    1.0000 </r>
       <r>   -5.1001    1.0000 </r>
       <r>   -5.0624    1.0000 </r>
       <r>   -4.9714    1.0000 </r>
       <r>   -4.7555    1.0000 </r>
       <r>   -4.6238    1.0000 </r>
       <r>   -4.4692    1.0000 </r>
       <r>   -4.3898    1.0000 </r>
       <r>   -4.3433    1.0000 </r>
       <r>   -4.2453    1.0000 </r>
       <r>   -4.1289    1.0000 </r>
       <r>   -4.0369    1.0000 </r>
       <r>   -3.9209    1.0000 </r>
       <r>   -3.6128    0.9777 </r>
       <r>   -3.5531    0.9436 </r>
       <r>   -3.3469    0.5512 </r>
       <r>   -2.8403    0.0003 </r>
       <r>   -2.8117    0.0001 </r>
       <r>   -2.7514    0.0000 </r>
       <r>   -2.5259    0.0000 </r>
       <r>   -2.4942    0.0000 </r>
       <r>   -2.4275    0.0000 </r>
       <r>   -2.2047    0.0000 </r>
       <r>   -2.1788    0.0000 </r>
       <r>   -1.9859    0.0000 </r>
       <r>   -1.8647    0.0000 </r>
       <r>   -1.7083    0.0000 </r>
       <r>   -1.5698    0.0000 </r>
       <r>   -1.4860    0.0000 </r>
       <r>   -1.3276    0.0000 </r>
       <r>   -1.2708    0.0000 </r>
       <r>   -1.2306    0.0000 </r>
       <r>   -1.1294    0.0000 </r>
       <r>   -1.0896    0.0000 </r>
       <r>   -0.9453    0.0000 </r>
       <r>   -0.8351    0.0000 </r>
       <r>   -0.7862    0.0000 </r>
       <r>   -0.7357    0.0000 </r>
       <r>   -0.6539    0.0000 </r>
       <r>   -0.5741    0.0000 </r>
       <r>   -0.4363    0.0000 </r>
       <r>   -0.3625    0.0000 </r>
       <r>   -0.2627    0.0000 </r>
       <r>   -0.1783    0.0000 </r>
       <r>   -0.0868    0.0000 </r>
       <r>    0.1678    0.0000 </r>
       <r>    0.4750    0.0000 </r>
       <r>    0.5818    0.0000 </r>
       <r>    0.7813    0.0000 </r>
       <r>    1.0142    0.0000 </r>
       <r>    1.1598    0.0000 </r>
       <r>    1.2286    0.0000 </r>
       <r>    1.3521    0.0000 </r>
       <r>    2.2091    0.0000 </r>
       <r>    2.2478    0.0000 </r>
       <r>    2.3799    0.0000 </r>
      </set>
     </set>
    </set>
   </array>
  </eigenvalues>
  <separator name="orbital magnetization" >
   <v name="MAGDIPOLOUT">      0.00000000      0.00000000      0.00000000</v>
  </separator>
 </calculation>
 <structure name="finalpos" >
  <crystal>
   <varray name="basis" >
    <v>       8.36062935       4.84998618       0.00000000 </v>
    <v>      -8.34124818       4.81614380       0.00000000 </v>
    <v>       0.00000000       0.00000000      30.00000000 </v>
   </varray>
   <i name="volume">   2421.62794970 </i>
   <varray name="rec_basis" >
    <v>       0.05966413       0.10333439       0.00000000 </v>
    <v>      -0.06008338       0.10357449       0.00000000 </v>
    <v>       0.00000000       0.00000000       0.03333333 </v>
   </varray>
  </crystal>
  <varray name="positions" >
   <v>       0.63271982      -0.01655383       0.00183333 </v>
   <v>       0.01993084      -0.00314189      -0.00005205 </v>
   <v>       0.70506410       0.68559573      -0.00265698 </v>
   <v>       0.31616865       0.30140148       0.00067220 </v>
   <v>       0.32891610      -0.00020113       0.00045498 </v>
   <v>       0.02858201       0.68484682      -0.00089528 </v>
   <v>       1.03763865       0.36244102      -0.00263483 </v>
   <v>       0.31538142       0.67696565       0.00031075 </v>
   <v>       0.62295848       0.30682248       0.00180128 </v>
   <v>       0.10548805       0.21459821       0.94683416 </v>
   <v>       0.21285893       0.10177442       0.05571401 </v>
   <v>       0.11823959       0.56479917       0.94218858 </v>
   <v>       0.22965058       0.44995967       0.05286877 </v>
   <v>       0.10905466       0.89226052       0.94522497 </v>
   <v>       0.22369994       0.78147047       0.05677269 </v>
   <v>       0.43357134       0.21478819       0.94458652 </v>
   <v>       0.54964908       0.10389161       0.05492983 </v>
   <v>       0.45190672       0.55911658       0.95951910 </v>
   <v>       0.55350262       0.44969709       0.05015561 </v>
   <v>       0.44396112       0.88953505       0.94678157 </v>
   <v>       0.55885142       0.77661093       0.04839947 </v>
   <v>       0.77568669       0.22108715       0.95577660 </v>
   <v>       0.88697151       0.11198838       0.04089457 </v>
   <v>       0.77783225       0.54871342       0.95193376 </v>
   <v>       0.88191347       0.43997705       0.04409466 </v>
   <v>       0.78180151       0.89625658       0.95328170 </v>
   <v>       0.89621489       0.78351363       0.05120992 </v>
  </varray>
 </structure>
</modeling>
