unknown system                          
           1
     8.857262    5.107440    0.000000
    -8.854565    5.102802    0.000000
     0.000000    0.000000   30.000000
   V    Mo   W    S 
   3   3   3  18
Direct configuration=     1
   0.66666669  0.00000000  0.00000000
   0.00000000  0.00000000  0.00000000
   0.66666669  0.66666669  0.00000000
   0.33333334  0.33333334  0.00000000
   0.33333334  0.00000000  0.00000000
   0.00000000  0.66666669  0.00000000
   1.00000000  0.33333334  0.00000000
   0.33333334  0.66666669  0.00000000
   0.66666669  0.33333334  0.00000000
   0.11068511  0.22244981  0.95539999
   0.22244981  0.11068511  0.04460000
   0.11068511  0.55578315  0.95539999
   0.22244981  0.44401845  0.04460000
   0.11068511  0.88911647  0.95539999
   0.22244981  0.77735180  0.04460000
   0.44401845  0.22244981  0.95539999
   0.55578315  0.11068511  0.04460000
   0.44401845  0.55578315  0.95539999
   0.55578315  0.44401845  0.04460000
   0.44401845  0.88911647  0.95539999
   0.55578315  0.77735180  0.04460000
   0.77735180  0.22244981  0.95539999
   0.88911647  0.11068511  0.04460000
   0.77735180  0.55578315  0.95539999
   0.88911647  0.44401845  0.04460000
   0.77735180  0.88911647  0.95539999
   0.88911647  0.77735180  0.04460000
unknown system                          
           1
     8.668570    5.001168    0.000000
    -8.665872    4.996523    0.000000
     0.000000    0.000000   30.000000
   V    Mo   W    S 
   3   3   3  18
Direct configuration=     2
   0.66608694 -0.00042296 -0.00005916
   0.00132422 -0.00060784 -0.00002395
   0.66730933  0.66658193 -0.00006644
   0.33325324  0.33186482  0.00014493
   0.33185597  0.00015423  0.00019477
   0.00124207  0.66808962 -0.00008059
   1.00136976  0.33416944 -0.00012705
   0.33235164  0.66690491 -0.00021621
   0.66487030  0.33334155  0.00023505
   0.10827294  0.21810788  0.95194753
   0.21775444  0.10883979  0.04811811
   0.11147186  0.55503077  0.95061023
   0.22182388  0.44468681  0.04926312
   0.10852087  0.89110473  0.95196350
   0.22270029  0.77744590  0.04925503
   0.44534929  0.22255866  0.95075707
   0.55834580  0.10965126  0.04799151
   0.44832627  0.55816625  0.95200337
   0.55811784  0.44824071  0.04813441
   0.44830710  0.88987210  0.95198232
   0.55902509  0.77920530  0.04687075
   0.77609388  0.21847520  0.95195028
   0.88725458  0.10752510  0.04684413
   0.77495977  0.55700286  0.95200753
   0.88816138  0.44346297  0.04917948
   0.77746567  0.88888557  0.95417638
   0.88660002  0.77987689  0.04694379
unknown system                          
           1
     8.487491    4.901106    0.000000
    -8.486012    4.898570    0.000000
     0.000000    0.000000   30.000000
   V    Mo   W    S 
   3   3   3  18
Direct configuration=     3
   0.66589088 -0.00048459 -0.00006480
   0.00182810 -0.00068562 -0.00001913
   0.66739599  0.66639462 -0.00011083
   0.33336043  0.33135569  0.00012173
   0.33146831  0.00028012  0.00021164
   0.00205819  0.66827122 -0.00006040
   1.00208426  0.33498718 -0.00010006
   0.33142619  0.66666210 -0.00024871
   0.66416066  0.33324497  0.00025767
   0.10806643  0.21809286  0.95196651
   0.21757439  0.10872012  0.04822940
   0.11159505  0.55494997  0.95050430
   0.22174991  0.44480032  0.04925920
   0.10844778  0.89117532  0.95187263
   0.22286739  0.77733806  0.04932692
   0.44558094  0.22266361  0.95070187
   0.55848131  0.10984247  0.04799818
   0.44830300  0.55835444  0.95208324
   0.55830895  0.44822669  0.04818709
   0.44826562  0.88970552  0.95201083
   0.55887339  0.77914677  0.04677863
   0.77616472  0.21866034  0.95204711
   0.88731847  0.10766762  0.04671620
   0.77482191  0.55681878  0.95203035
   0.88806075  0.44320920  0.04911736
   0.77749532  0.88886097  0.95428733
   0.88656611  0.77995570  0.04689567
unknown system                          
           1
     8.278210    4.783701    0.000000
    -8.270416    4.770229    0.000000
     0.000000    0.000000   30.000000
   V    Mo   W    S 
   3   3   3  18
Direct configuration=     4
   0.66504925 -0.00036698 -0.00005434
   0.00402233 -0.00062988  0.00001655
   0.66733298  0.66503384 -0.00024025
   0.33405795  0.32949329 -0.00000390
   0.33036054  0.00101185  0.00018780
   0.00561959  0.66817737  0.00002199
   1.00508498  0.33908656  0.00004078
   0.32683460  0.66512850 -0.00027028
   0.66135801  0.33268794  0.00022424
   0.10729963  0.21686445  0.95059780
   0.21602169  0.10786568  0.05012783
   0.11158441  0.55501891  0.94835299
   0.22202245  0.44492199  0.05085013
   0.10780486  0.89178635  0.95010614
   0.22319344  0.77741156  0.05121942
   0.44566453  0.22256204  0.94888254
   0.55889653  0.10931193  0.04948273
   0.44932504  0.55900737  0.95098137
   0.55893291  0.44949634  0.04989707
   0.44919389  0.89032758  0.95067500
   0.55972983  0.77959393  0.04771639
   0.77575534  0.21802135  0.95099493
   0.88684524  0.10671138  0.04751728
   0.77447916  0.55730070  0.95072735
   0.88798593  0.44299479  0.05045467
   0.77768073  0.88881700  0.95350839
   0.88607861  0.78057861  0.04798526
unknown system                          
           1
     8.292128    4.793715    0.000000
    -8.278927    4.770880    0.000000
     0.000000    0.000000   30.000000
   V    Mo   W    S 
   3   3   3  18
Direct configuration=     5
   0.66347630 -0.00036206  0.00002695
   0.00776074 -0.00053087  0.00011314
   0.66702451  0.66247387 -0.00033204
   0.33618170  0.32548399 -0.00012982
   0.32916121  0.00331004  0.00004754
   0.01353580  0.66722861  0.00011215
   1.01129260  0.34830633  0.00020490
   0.31693471  0.66209887 -0.00016564
   0.65444292  0.33053124  0.00006265
   0.10673680  0.21566973  0.94891592
   0.21444688  0.10698799  0.05287313
   0.11134820  0.55534421  0.94480535
   0.22330134  0.44506473  0.05293580
   0.10720813  0.89210827  0.94773886
   0.22387324  0.77836500  0.05395136
   0.44511909  0.22182519  0.94622567
   0.55860673  0.10868391  0.05156707
   0.44978256  0.55935963  0.94969792
   0.55907725  0.45079379  0.05235849
   0.44937551  0.89071130  0.94898522
   0.55983644  0.77960679  0.04879866
   0.77567687  0.21785682  0.94985465
   0.88696495  0.10633381  0.04839570
   0.77493447  0.55801231  0.94920480
   0.88766009  0.44318278  0.05210905
   0.77821885  0.88879277  0.95222275
   0.88623657  0.78097541  0.04941968
unknown system                          
           1
     8.291395    4.792514    0.000000
    -8.276212    4.766254    0.000000
     0.000000    0.000000   30.000000
   V    Mo   W    S 
   3   3   3  18
Direct configuration=     6
   0.66303788 -0.00096326  0.00000301
   0.00811089 -0.00087690  0.00009663
   0.66703911  0.66229673 -0.00038673
   0.33706396  0.32443186 -0.00005873
   0.32981008  0.00449674  0.00005742
   0.01515582  0.66699376  0.00008118
   1.01251824  0.35053106  0.00012487
   0.31550027  0.66212947 -0.00008368
   0.65173174  0.32898414  0.00003290
   0.10705316  0.21624132  0.94908987
   0.21478391  0.10713339  0.05302699
   0.11126004  0.55549530  0.94420994
   0.22412147  0.44507990  0.05297487
   0.10733643  0.89165299  0.94773035
   0.22432736  0.77922993  0.05419175
   0.44459269  0.22133473  0.94580930
   0.55810369  0.10892049  0.05164975
   0.44875365  0.55906720  0.94997781
   0.55862623  0.45032474  0.05250326
   0.44850501  0.89015313  0.94905517
   0.55861056  0.77891407  0.04864924
   0.77609013  0.21865164  0.95012878
   0.88782933  0.10761639  0.04815891
   0.77564767  0.55785168  0.94946966
   0.88722105  0.44335944  0.05194086
   0.77837559  0.88876405  0.95224185
   0.88700848  0.78040047  0.04932466
unknown system                          
           1
     8.304712    4.801565    0.000000
    -8.286689    4.770383    0.000000
     0.000000    0.000000   30.000000
   V    Mo   W    S 
   3   3   3  18
Direct configuration=     7
   0.66218732 -0.00218313  0.00000858
   0.00864494 -0.00168994  0.00012843
   0.66719485  0.66213803 -0.00049340
   0.33846724  0.32245052 -0.00003248
   0.33072210  0.00651114  0.00003435
   0.01840795  0.66710852  0.00007337
   1.01506913  0.35447426  0.00013311
   0.31240106  0.66189156 -0.00003640
   0.64717616  0.32643010 -0.00004847
   0.10736575  0.21681779  0.94929106
   0.21493362  0.10713202  0.05333477
   0.11149559  0.55594891  0.94344363
   0.22490268  0.44510242  0.05298710
   0.10754156  0.89133493  0.94762881
   0.22484505  0.78027826  0.05456847
   0.44392949  0.22076763  0.94513175
   0.55761007  0.10905003  0.05189529
   0.44771628  0.55877511  0.95037020
   0.55818159  0.44989345  0.05279228
   0.44775910  0.88975810  0.94904271
   0.55746393  0.77827992  0.04852772
   0.77642946  0.21948250  0.95047283
   0.88870345  0.10901589  0.04776166
   0.77627393  0.55752696  0.94982607
   0.88649703  0.44341252  0.05167802
   0.77854231  0.88872056  0.95226542
   0.88775283  0.77978639  0.04921502
unknown system                          
           1
     8.310527    4.805516    0.000000
    -8.289465    4.769075    0.000000
     0.000000    0.000000   30.000000
   V    Mo   W    S 
   3   3   3  18
Direct configuration=     8
   0.66174547 -0.00279376  0.00001561
   0.00866808 -0.00210788  0.00014461
   0.66728387  0.66221825 -0.00053354
   0.33867580  0.32194706 -0.00002125
   0.33104256  0.00702320  0.00003241
   0.01904108  0.66747545  0.00006622
   1.01560807  0.35516957  0.00010889
   0.31223053  0.66219647 -0.00000525
   0.64609018  0.32566988 -0.00004398
   0.10739289  0.21692886  0.94938610
   0.21494197  0.10712696  0.05338267
   0.11157066  0.55611253  0.94328783
   0.22518522  0.44517833  0.05296177
   0.10759574  0.89130883  0.94761642
   0.22503681  0.78062419  0.05465059
   0.44368509  0.22058394  0.94492578
   0.55754805  0.10905154  0.05195135
   0.44747534  0.55870005  0.95052418
   0.55807491  0.44978274  0.05282226
   0.44769512  0.88973452  0.94903762
   0.55725830  0.77817572  0.04849355
   0.77646103  0.21963070  0.95061582
   0.88889401  0.10937211  0.04759512
   0.77637183  0.55735555  0.94997535
   0.88619716  0.44340492  0.05153876
   0.77855120  0.88869624  0.95229800
   0.88789347  0.77964849  0.04917302
unknown system                          
           1
     8.319332    4.811439    0.000000
    -8.296906    4.772633    0.000000
     0.000000    0.000000   30.000000
   V    Mo   W    S 
   3   3   3  18
Direct configuration=     9
   0.66058077 -0.00424130  0.00003289
   0.00879231 -0.00310328  0.00018773
   0.66753525  0.66242122 -0.00063825
   0.33927050  0.32061955 -0.00000386
   0.33180588  0.00827058  0.00002207
   0.02095914  0.66819424  0.00005141
   1.01725363  0.35734692  0.00008475
   0.31112342  0.66266815  0.00002414
   0.64321216  0.32373731 -0.00006712
   0.10748165  0.21722009  0.94961601
   0.21500189  0.10710741  0.05348028
   0.11185417  0.55656984  0.94299471
   0.22572618  0.44533154  0.05285630
   0.10778313  0.89127244  0.94759781
   0.22541776  0.78135923  0.05480633
   0.44320343  0.22022546  0.94453034
   0.55732288  0.10905778  0.05206089
   0.44687806  0.55851055  0.95090066
   0.55777756  0.44945110  0.05287575
   0.44749481  0.88968186  0.94904536
   0.55675847  0.77792328  0.04841409
   0.77658001  0.22002273  0.95097852
   0.88933762  0.11021867  0.04717446
   0.77663058  0.55695671  0.95033948
   0.88560277  0.44341202  0.05117809
   0.77858646  0.88865476  0.95238107
   0.88824396  0.77932555  0.04907599
unknown system                          
           1
     8.329191    4.818880    0.000000
    -8.303907    4.775116    0.000000
     0.000000    0.000000   30.000000
   V    Mo   W    S 
   3   3   3  18
Direct configuration=    10
   0.65995107 -0.00498549  0.00004790
   0.00884731 -0.00361440  0.00021200
   0.66767448  0.66250157 -0.00068816
   0.33940242  0.32012311  0.00000264
   0.33202619  0.00867709  0.00001883
   0.02162583  0.66863469  0.00004426
   1.01790129  0.35809771  0.00006747
   0.31093633  0.66300372  0.00004460
   0.64220646  0.32306626 -0.00006588
   0.10747884  0.21729485  0.94969592
   0.21498944  0.10707300  0.05353564
   0.11198964  0.55680114  0.94286099
   0.22599291  0.44543331  0.05283438
   0.10786477  0.89129431  0.94755984
   0.22559105  0.78169281  0.05489507
   0.44297455  0.22006199  0.94434326
   0.55722560  0.10902155  0.05213623
   0.44666909  0.55844760  0.95104992
   0.55766083  0.44934665  0.05290235
   0.44743770  0.88969645  0.94900239
   0.55659273  0.77779698  0.04841838
   0.77663784  0.22017342  0.95112037
   0.88952203  0.11055312  0.04699516
   0.77672976  0.55679117  0.95048045
   0.88533117  0.44341611  0.05102759
   0.77860860  0.88861602  0.95239735
   0.88834653  0.77919971  0.04906095
unknown system                          
           1
     8.337927    4.824506    0.000000
    -8.311492    4.778749    0.000000
     0.000000    0.000000   30.000000
   V    Mo   W    S 
   3   3   3  18
Direct configuration=    11
   0.65792589 -0.00726372  0.00009797
   0.00906055 -0.00515704  0.00028858
   0.66814748  0.66282445 -0.00084275
   0.33959546  0.31867123  0.00001131
   0.33251564  0.00968400  0.00000958
   0.02353559  0.66997959  0.00002500
   1.01983789  0.36026583  0.00001643
   0.31040428  0.66400788  0.00007892
   0.63944498  0.32114608 -0.00006181
   0.10744078  0.21745421  0.94997606
   0.21496575  0.10699045  0.05360813
   0.11245453  0.55752285  0.94265119
   0.22667231  0.44578222  0.05269749
   0.10810069  0.89141035  0.94750366
   0.22599969  0.78251485  0.05504892
   0.44242564  0.21971015  0.94396858
   0.55696017  0.10896103  0.05226468
   0.44609233  0.55824337  0.95151649
   0.55728692  0.44895995  0.05288924
   0.44734061  0.88978375  0.94892330
   0.55621007  0.77751233  0.04841517
   0.77679364  0.22057200  0.95159639
   0.89001158  0.11145143  0.04640390
   0.77699644  0.55626672  0.95091154
   0.88466487  0.44346462  0.05051513
   0.77868077  0.88852895  0.95249117
   0.88864990  0.77892694  0.04899561
unknown system                          
           1
     8.344378    4.829786    0.000000
    -8.316191    4.780987    0.000000
     0.000000    0.000000   30.000000
   V    Mo   W    S 
   3   3   3  18
Direct configuration=    12
   0.65677000 -0.00836195  0.00013089
   0.00912195 -0.00588283  0.00032863
   0.66838978  0.66301663 -0.00091663
   0.33950905  0.31815157  0.00001499
   0.33274656  0.00992676  0.00000545
   0.02414627  0.67065030  0.00001563
   1.02060906  0.36097230 -0.00000808
   0.31057329  0.66465613  0.00009782
   0.63855796  0.32041397 -0.00004832
   0.10736916  0.21746299  0.95005333
   0.21492167  0.10692815  0.05366631
   0.11268468  0.55788132  0.94255009
   0.22699219  0.44599927  0.05267138
   0.10822671  0.89150005  0.94742360
   0.22618585  0.78288926  0.05514461
   0.44217852  0.21953928  0.94380727
   0.55684063  0.10886523  0.05233558
   0.44589200  0.55818179  0.95169341
   0.55713123  0.44884597  0.05289096
   0.44736519  0.88988777  0.94884210
   0.55612720  0.77741440  0.04845813
   0.77685643  0.22065851  0.95179443
   0.89013293  0.11176372  0.04613758
   0.77710120  0.55604703  0.95106032
   0.88439056  0.44349688  0.05031187
   0.77868616  0.88849649  0.95251800
   0.88870822  0.77881346  0.04902057
unknown system                          
           1
     8.349296    4.833528    0.000000
    -8.320751    4.784102    0.000000
     0.000000    0.000000   30.000000
   V    Mo   W    S 
   3   3   3  18
Direct configuration=    13
   0.65405809 -0.01085289  0.00020573
   0.00920165 -0.00747009  0.00041418
   0.66893428  0.66341314 -0.00108851
   0.33939297  0.31704812  0.00001847
   0.33328231  0.01041814 -0.00000093
   0.02558393  0.67204365 -0.00001027
   1.02242960  0.36267116 -0.00006899
   0.31074138  0.66605001  0.00012188
   0.63654852  0.31885412 -0.00002713
   0.10724051  0.21751221  0.95024960
   0.21490184  0.10682804  0.05372905
   0.11324334  0.55869164  0.94244889
   0.22762812  0.44650259  0.05256319
   0.10852085  0.89167269  0.94729327
   0.22651527  0.78358604  0.05527868
   0.44171857  0.21926227  0.94357087
   0.55659059  0.10868756  0.05244795
   0.44548465  0.55804113  0.95211223
   0.55677990  0.44852566  0.05282498
   0.44743779  0.89012055  0.94868520
   0.55600402  0.77724516  0.04853109
   0.77700004  0.22083051  0.95227588
   0.89033723  0.11242711  0.04551687
   0.77730463  0.55555568  0.95141870
   0.88389369  0.44359954  0.04982023
   0.77863139  0.88840175  0.95261537
   0.88880931  0.77854894  0.04905343
unknown system                          
           1
     8.357206    4.840306    0.000000
    -8.327996    4.789707    0.000000
     0.000000    0.000000   30.000000
   V    Mo   W    S 
   3   3   3  18
Direct configuration=    14
   0.65297155 -0.01169935  0.00024339
   0.00934075 -0.00807450  0.00044756
   0.66921100  0.66357064 -0.00115450
   0.33915787  0.31662926  0.00002058
   0.33328614  0.01043033 -0.00000302
   0.02598643  0.67266547 -0.00002172
   1.02304127  0.36312416 -0.00009458
   0.31100398  0.66666663  0.00013640
   0.63603794  0.31840145 -0.00000987
   0.10715437  0.21745320  0.95029773
   0.21485125  0.10675863  0.05374698
   0.11348281  0.55902658  0.94240957
   0.22789989  0.44676128  0.05254852
   0.10861411  0.89176753  0.94723401
   0.22661443  0.78382134  0.05534167
   0.44156015  0.21917364  0.94349839
   0.55650840  0.10859251  0.05250997
   0.44536522  0.55800034  0.95224758
   0.55666111  0.44844541  0.05280235
   0.44745690  0.89020710  0.94857796
   0.55597870  0.77714788  0.04860005
   0.77706219  0.22085185  0.95244283
   0.89036967  0.11258883  0.04527815
   0.77738922  0.55538163  0.95151410
   0.88374236  0.44363594  0.04965099
   0.77863345  0.88839334  0.95264765
   0.88883331  0.77849334  0.04908718
unknown system                          
           1
     8.360171    4.845343    0.000000
    -8.329124    4.791539    0.000000
     0.000000    0.000000   30.000000
   V    Mo   W    S 
   3   3   3  18
Direct configuration=    15
   0.65002209 -0.01396053  0.00034711
   0.00962418 -0.00959763  0.00053200
   0.66993730  0.66400268 -0.00134214
   0.33864929  0.31564573  0.00001945
   0.33346968  0.01047518 -0.00001126
   0.02707013  0.67411990 -0.00004809
   1.02476478  0.36445982 -0.00016021
   0.31155590  0.66823252  0.00014993
   0.63457746  0.31717600  0.00004008
   0.10696031  0.21733358  0.95043306
   0.21476824  0.10661478  0.05379503
   0.11413095  0.55990500  0.94236942
   0.22856232  0.44742980  0.05247394
   0.10887500  0.89197342  0.94707401
   0.22683718  0.78438917  0.05547181
   0.44118164  0.21897937  0.94336842
   0.55627824  0.10837199  0.05263377
   0.44505930  0.55788115  0.95263784
   0.55632091  0.44816794  0.05270305
   0.44753149  0.89042446  0.94834051
   0.55594689  0.77697130  0.04873354
   0.77722592  0.22088887  0.95291022
   0.89040030  0.11299797  0.04463077
   0.77759274  0.55490093  0.95178440
   0.88340819  0.44375781  0.04917504
   0.77857638  0.88834976  0.95276929
   0.88888765  0.77832347  0.04916891
unknown system                          
           1
     8.367407    4.850595    0.000000
    -8.336579    4.797157    0.000000
     0.000000    0.000000   30.000000
   V    Mo   W    S 
   3   3   3  18
Direct configuration=    16
   0.64554249 -0.01693058  0.00053864
   0.01034651 -0.01194435  0.00066342
   0.67140077  0.66476109 -0.00164285
   0.33748676  0.31391772  0.00002531
   0.33340719  0.01021964 -0.00002837
   0.02866299  0.67658072 -0.00009976
   1.02742344  0.36630875 -0.00027346
   0.31252880  0.67080268  0.00018848
   0.63249690  0.31527190  0.00013777
   0.10659559  0.21703179  0.95060548
   0.21456586  0.10631584  0.05385830
   0.11519752  0.56132795  0.94231256
   0.22966080  0.44866121  0.05238626
   0.10927637  0.89230909  0.94681121
   0.22714412  0.78526117  0.05568150
   0.44059876  0.21863969  0.94321262
   0.55583821  0.10798848  0.05284410
   0.44465714  0.55773952  0.95326136
   0.55580151  0.44780791  0.05252764
   0.44750204  0.89071312  0.94790446
   0.55587279  0.77658686  0.04897254
   0.77747819  0.22090037  0.95364460
   0.89037280  0.11345787  0.04356893
   0.77789685  0.55410794  0.95216509
   0.88297188  0.44392395  0.04841463
   0.77853676  0.88832985  0.95300082
   0.88895141  0.77812430  0.04931862
unknown system                          
           1
     8.369946    4.853838    0.000000
    -8.338983    4.800146    0.000000
     0.000000    0.000000   30.000000
   V    Mo   W    S 
   3   3   3  18
Direct configuration=    17
   0.64489097 -0.01701272  0.00059599
   0.01060984 -0.01216143  0.00067400
   0.67188671  0.66496219 -0.00170110
   0.33708886  0.31367304  0.00002029
   0.33326283  0.00987471 -0.00004419
   0.02873768  0.67698114 -0.00012208
   1.02784832  0.36647843 -0.00031351
   0.31286193  0.67138024  0.00017483
   0.63228673  0.31500122  0.00017957
   0.10650438  0.21687939  0.95057019
   0.21445797  0.10619312  0.05393133
   0.11543523  0.56165593  0.94228908
   0.22993743  0.44894104  0.05241974
   0.10934051  0.89234766  0.94669706
   0.22716232  0.78543339  0.05576938
   0.44046370  0.21855520  0.94318394
   0.55568499  0.10782534  0.05293674
   0.44463767  0.55772928  0.95338527
   0.55569038  0.44776928  0.05250056
   0.44744471  0.89073646  0.94778531
   0.55586048  0.77649253  0.04902901
   0.77751069  0.22083765  0.95374487
   0.89025695  0.11334310  0.04337448
   0.77797635  0.55392543  0.95217855
   0.88289866  0.44391979  0.04828133
   0.77854668  0.88839823  0.95305383
   0.88893150  0.77805480  0.04940546
unknown system                          
           1
     8.364851    4.852625    0.000000
    -8.333321    4.797938    0.000000
     0.000000    0.000000   30.000000
   V    Mo   W    S 
   3   3   3  18
Direct configuration=    18
   0.64325059 -0.01770089  0.00071066
   0.01105531 -0.01281992  0.00071121
   0.67288352  0.66546918 -0.00182515
   0.33642615  0.31299220  0.00003122
   0.33316023  0.00951028 -0.00005107
   0.02913921  0.67790021 -0.00014138
   1.02892132  0.36703809 -0.00036991
   0.31332410  0.67249872  0.00019251
   0.63153756  0.31427181  0.00024422
   0.10637048  0.21669844  0.95058440
   0.21432823  0.10601944  0.05396089
   0.11587108  0.56221242  0.94230694
   0.23033535  0.44946144  0.05237576
   0.10945121  0.89242702  0.94657289
   0.22718037  0.78566723  0.05583307
   0.44024163  0.21842699  0.94319768
   0.55541624  0.10759224  0.05302702
   0.44456727  0.55771036  0.95367681
   0.55545206  0.44760281  0.05238792
   0.44743494  0.89082309  0.94762859
   0.55587019  0.77644055  0.04905887
   0.77757318  0.22076657  0.95401483
   0.89010566  0.11328838  0.04294278
   0.77805156  0.55353245  0.95228476
   0.88279565  0.44392296  0.04796121
   0.77852309  0.88846173  0.95320039
   0.88894828  0.77800064  0.04948277
unknown system                          
           1
     8.369231    4.855903    0.000000
    -8.337611    4.801051    0.000000
     0.000000    0.000000   30.000000
   V    Mo   W    S 
   3   3   3  18
Direct configuration=    19
   0.64175377 -0.01806273  0.00082892
   0.01161518 -0.01332557  0.00073713
   0.67416456  0.66604356 -0.00195425
   0.33563838  0.31223347  0.00003689
   0.33296071  0.00903348 -0.00007287
   0.02952399  0.67874255 -0.00018082
   1.03001395  0.36759975 -0.00045712
   0.31363643  0.67354200  0.00017952
   0.63079088  0.31351845  0.00032085
   0.10624068  0.21651301  0.95056750
   0.21419854  0.10581004  0.05402201
   0.11635162  0.56282530  0.94232784
   0.23079827  0.45004885  0.05235966
   0.10958810  0.89247182  0.94642674
   0.22714481  0.78591133  0.05593019
   0.43997587  0.21824810  0.94320942
   0.55505704  0.10736556  0.05316300
   0.44451506  0.55771131  0.95400527
   0.55519538  0.44743527  0.05227899
   0.44731833  0.89087785  0.94744041
   0.55582972  0.77629312  0.04911238
   0.77764085  0.22075340  0.95428202
   0.88997294  0.11322025  0.04251563
   0.77812175  0.55304621  0.95236968
   0.88267511  0.44386973  0.04761527
   0.77853993  0.88856422  0.95333952
   0.88895261  0.77792412  0.04959612
unknown system                          
           1
     8.368425    4.857163    0.000000
    -8.336875    4.802412    0.000000
     0.000000    0.000000   30.000000
   V    Mo   W    S 
   3   3   3  18
Direct configuration=    20
   0.64126506 -0.01812593  0.00087413
   0.01178687 -0.01339283  0.00074002
   0.67467733  0.66629285 -0.00198451
   0.33534939  0.31203846  0.00004346
   0.33295815  0.00882885 -0.00007634
   0.02951820  0.67895545 -0.00018745
   1.03031583  0.36768012 -0.00048572
   0.31385183  0.67392864  0.00018740
   0.63060009  0.31329519  0.00035051
   0.10620075  0.21643896  0.95052870
   0.21414083  0.10572405  0.05406659
   0.11648545  0.56301003  0.94229672
   0.23094836  0.45021823  0.05237260
   0.10962080  0.89247153  0.94635630
   0.22711153  0.78598131  0.05597837
   0.43987518  0.21817827  0.94319389
   0.55492400  0.10725230  0.05322878
   0.44453218  0.55773307  0.95410538
   0.55511353  0.44740788  0.05225878
   0.44731674  0.89091810  0.94737160
   0.55583506  0.77628344  0.04911903
   0.77765701  0.22072034  0.95434563
   0.88988707  0.11316096  0.04240021
   0.77814389  0.55287085  0.95236689
   0.88261385  0.44382589  0.04752414
   0.77854467  0.88863373  0.95337339
   0.88894081  0.77788469  0.04965141
unknown system                          
           1
     8.368394    4.860056    0.000000
    -8.336235    4.804224    0.000000
     0.000000    0.000000   30.000000
   V    Mo   W    S 
   3   3   3  18
Direct configuration=    21
   0.64018901 -0.01821179  0.00098132
   0.01232321 -0.01357008  0.00074636
   0.67604908  0.66691889 -0.00207342
   0.33460810  0.31140273  0.00005590
   0.33276347  0.00838847 -0.00008911
   0.02966756  0.67955881 -0.00021630
   1.03115381  0.36800528 -0.00056402
   0.31409787  0.67472699  0.00018912
   0.63000323  0.31271832  0.00041809
   0.10613177  0.21628743  0.95047142
   0.21403402  0.10553061  0.05412318
   0.11683846  0.56345846  0.94229614
   0.23127552  0.45064393  0.05236456
   0.10969641  0.89246599  0.94624294
   0.22699749  0.78608333  0.05604679
   0.43964482  0.21803197  0.94321697
   0.55457656  0.10703908  0.05336118
   0.44455873  0.55777129  0.95438832
   0.55489521  0.44728075  0.05217350
   0.44723536  0.89096340  0.94723183
   0.55580639  0.77621008  0.04912760
   0.77769463  0.22070646  0.95452332
   0.88975006  0.11304529  0.04210471
   0.77817000  0.55242838  0.95238616
   0.88251015  0.44370336  0.04726584
   0.77858717  0.88878102  0.95347534
   0.88895638  0.77784601  0.04975217
unknown system                          
           1
     8.367278    4.860879    0.000000
    -8.336899    4.808095    0.000000
     0.000000    0.000000   30.000000
   V    Mo   W    S 
   3   3   3  18
Direct configuration=    22
   0.63785112 -0.01816118  0.00124224
   0.01364080 -0.01383347  0.00074060
   0.67999757  0.66878230 -0.00228345
   0.33258570  0.30984196  0.00009107
   0.33225521  0.00718522 -0.00011383
   0.02964374  0.68091168 -0.00028346
   1.03297175  0.36851695 -0.00076464
   0.31475666  0.67655238  0.00017289
   0.62875613  0.31139127  0.00061935
   0.10595018  0.21587968  0.95026503
   0.21364490  0.10494138  0.05430687
   0.11762051  0.56443287  0.94226622
   0.23198510  0.45160819  0.05237033
   0.10981225  0.89246031  0.94595852
   0.22661471  0.78628553  0.05624260
   0.43903320  0.21760601  0.94325896
   0.55364029  0.10653802  0.05369247
   0.44484540  0.55799874  0.95513374
   0.55439504  0.44704419  0.05195685
   0.44705944  0.89108714  0.94691769
   0.55577663  0.77607392  0.04909853
   0.77775020  0.22069484  0.95491474
   0.88944507  0.11272543  0.04144194
   0.77812701  0.55127910  0.95237102
   0.88223579  0.44326624  0.04665152
   0.77879200  0.88921929  0.95372378
   0.88902806  0.77788649  0.05000830
unknown system                          
           1
     8.366111    4.860263    0.000000
    -8.336747    4.809225    0.000000
     0.000000    0.000000   30.000000
   V    Mo   W    S 
   3   3   3  18
Direct configuration=    23
   0.63717572 -0.01798010  0.00133185
   0.01417871 -0.01356098  0.00070513
   0.68207171  0.66981119 -0.00233226
   0.33159861  0.30913729  0.00010322
   0.33205501  0.00666572 -0.00010894
   0.02944817  0.68122940 -0.00032094
   1.03353265  0.36854753 -0.00086426
   0.31490286  0.67713858  0.00017246
   0.62820961  0.31091100  0.00067975
   0.10592524  0.21573679  0.95012989
   0.21351772  0.10469859  0.05439753
   0.11780643  0.56470341  0.94226943
   0.23212300  0.45183466  0.05238021
   0.10983099  0.89240934  0.94585186
   0.22632973  0.78616330  0.05627899
   0.43880098  0.21746230  0.94332042
   0.55320330  0.10630498  0.05382830
   0.44515265  0.55815206  0.95546158
   0.55422167  0.44702191  0.05186314
   0.44702594  0.89116509  0.94685137
   0.55581672  0.77608977  0.04904070
   0.77771537  0.22068276  0.95500979
   0.88931131  0.11256371  0.04128597
   0.77807359  0.55082891  0.95228821
   0.88215228  0.44300763  0.04646651
   0.77894165  0.88953995  0.95376599
   0.88909285  0.77794967  0.05014399
unknown system                          
           1
     8.367280    4.860078    0.000000
    -8.334924    4.803897    0.000000
     0.000000    0.000000   30.000000
   V    Mo   W    S 
   3   3   3  18
Direct configuration=    24
   0.63714803 -0.01780511  0.00135986
   0.01431360 -0.01330556  0.00067906
   0.68319777  0.67040872 -0.00233769
   0.33114322  0.30886032  0.00011933
   0.33200946  0.00651494 -0.00009774
   0.02917724  0.68119847 -0.00033851
   1.03362025  0.36843193 -0.00090015
   0.31487777  0.67715335  0.00016325
   0.62808125  0.31081661  0.00072089
   0.10592760  0.21570203  0.95004775
   0.21346271  0.10458731  0.05443934
   0.11781035  0.56472062  0.94227323
   0.23205938  0.45182807  0.05237617
   0.10980707  0.89235443  0.94582921
   0.22613064  0.78601218  0.05627945
   0.43868753  0.21738357  0.94335426
   0.55302336  0.10625398  0.05386456
   0.44540741  0.55825468  0.95562019
   0.55417134  0.44703976  0.05180437
   0.44699743  0.89117844  0.94685561