   27   27  100    1
  0.9710400E+02  0.1002848E-08  0.1002848E-08  0.3000000E-08  0.5000000E-15
  1.000000000000000E-004
  CAR 
 unknown system                          
    159     34    120
 
  0.0000000E+00  0.0000000E+00  0.0000000E+00  0.1562500E-01
    1      -17.834292   1.000000
    2      -16.738177   1.000000
    3      -16.645984   1.000000
    4      -16.610510   1.000000
    5      -16.535206   1.000000
    6      -16.425056   1.000000
    7      -16.371446   1.000000
    8      -16.345725   1.000000
    9      -16.187651   1.000000
   10      -16.142043   1.000000
   11      -16.081708   1.000000
   12      -15.958689   1.000000
   13      -15.940987   1.000000
   14      -15.742707   1.000000
   15      -15.561148   1.000000
   16      -15.499624   1.000000
   17      -15.253778   1.000000
   18      -15.122010   1.000000
   19       -9.311952   1.000000
   20       -9.068500   1.000000
   21       -8.844362   1.000000
   22       -8.823550   1.000000
   23       -8.766792   1.000000
   24       -8.744495   1.000000
   25       -8.741743   1.000000
   26       -8.604229   1.000000
   27       -8.583274   1.000000
   28       -8.424180   1.000000
   29       -8.409067   1.000000
   30       -8.365248   1.000000
   31       -8.297235   1.000000
   32       -8.267617   1.000000
   33       -8.173753   1.000000
   34       -8.164262   1.000000
   35       -7.762008   1.000000
   36       -7.689539   1.000000
   37       -7.684175   1.000000
   38       -7.588001   1.000000
   39       -7.515133   1.000000
   40       -7.381266   1.000000
   41       -7.212347   1.000000
   42       -7.181282   1.000000
   43       -7.121789   1.000000
   44       -6.894595   1.000000
   45       -6.804739   1.000000
   46       -6.767381   1.000000
   47       -6.756554   1.000000
   48       -6.700428   1.000000
   49       -6.630174   1.000000
   50       -6.545047   1.000000
   51       -6.532745   1.000000
   52       -6.247144   1.000000
   53       -6.203378   1.000000
   54       -6.118676   1.000000
   55       -6.051114   1.000000
   56       -6.027405   1.000000
   57       -5.929898   1.000000
   58       -5.915557   1.000000
   59       -5.834102   1.000000
   60       -5.824860   1.000000
   61       -5.641442   1.000000
   62       -5.366495   1.000000
   63       -5.322916   1.000000
   64       -5.045777   1.000000
   65       -4.985459   1.000000
   66       -4.913585   1.000000
   67       -4.802840   1.000000
   68       -4.777385   1.000000
   69       -4.760873   1.000000
   70       -4.656121   1.000000
   71       -4.620886   1.000000
   72       -4.614122   1.000000
   73       -4.522400   1.000000
   74       -4.376184   1.000000
   75       -4.312993   1.000000
   76       -3.980850   1.000000
   77       -3.764364   0.999884
   78       -3.635612   0.997199
   79       -3.514537   0.972193
   80       -3.147351   0.247510
   81       -3.122764   0.195943
   82       -2.726327   0.000126
   83       -2.710708   0.000082
   84       -2.610264   0.000004
   85       -2.493563   0.000000
   86       -2.430241   0.000000
   87       -2.253653   0.000000
   88       -2.166431   0.000000
   89       -2.146751   0.000000
   90       -1.981445   0.000000
   91       -1.969890   0.000000
   92       -1.636711   0.000000
   93       -1.391450   0.000000
   94       -1.284133   0.000000
   95       -1.224633   0.000000
   96       -0.962078   0.000000
   97       -0.899362   0.000000
   98       -0.835368   0.000000
   99       -0.832562   0.000000
  100       -0.639503   0.000000
  101       -0.636051   0.000000
  102       -0.543563   0.000000
  103       -0.252445   0.000000
  104       -0.176967   0.000000
  105       -0.132076   0.000000
  106       -0.018200   0.000000
  107       -0.003465   0.000000
  108        0.057743   0.000000
  109        0.129742   0.000000
  110        0.143526   0.000000
  111        0.194438   0.000000
  112        0.311763   0.000000
  113        0.526945   0.000000
  114        0.919120   0.000000
  115        0.955319   0.000000
  116        1.239928   0.000000
  117        1.285484   0.000000
  118        1.662163   0.000000
  119        1.850455   0.000000
  120        2.181020   0.000000
 
  0.1250000E+00  0.2775558E-16  0.0000000E+00  0.3125000E-01
    1      -17.808854   1.000000
    2      -16.798727   1.000000
    3      -16.703923   1.000000
    4      -16.634640   1.000000
    5      -16.572699   1.000000
    6      -16.385802   1.000000
    7      -16.344899   1.000000
    8      -16.319861   1.000000
    9      -16.180340   1.000000
   10      -16.127080   1.000000
   11      -16.043649   1.000000
   12      -15.932830   1.000000
   13      -15.927240   1.000000
   14      -15.733572   1.000000
   15      -15.576679   1.000000
   16      -15.512677   1.000000
   17      -15.256217   1.000000
   18      -15.125404   1.000000
   19       -9.310831   1.000000
   20       -9.256009   1.000000
   21       -8.979977   1.000000
   22       -8.923993   1.000000
   23       -8.814866   1.000000
   24       -8.776256   1.000000
   25       -8.702941   1.000000
   26       -8.522813   1.000000
   27       -8.486622   1.000000
   28       -8.407182   1.000000
   29       -8.402099   1.000000
   30       -8.290390   1.000000
   31       -8.239183   1.000000
   32       -8.219617   1.000000
   33       -8.084179   1.000000
   34       -8.073195   1.000000
   35       -7.734874   1.000000
   36       -7.650160   1.000000
   37       -7.640952   1.000000
   38       -7.596328   1.000000
   39       -7.548521   1.000000
   40       -7.409625   1.000000
   41       -7.209960   1.000000
   42       -7.205371   1.000000
   43       -7.160588   1.000000
   44       -6.984639   1.000000
   45       -6.838128   1.000000
   46       -6.759037   1.000000
   47       -6.719716   1.000000
   48       -6.679183   1.000000
   49       -6.563009   1.000000
   50       -6.482409   1.000000
   51       -6.477766   1.000000
   52       -6.303191   1.000000
   53       -6.222654   1.000000
   54       -6.200952   1.000000
   55       -6.047882   1.000000
   56       -6.040428   1.000000
   57       -5.995954   1.000000
   58       -5.868790   1.000000
   59       -5.772318   1.000000
   60       -5.746193   1.000000
   61       -5.603600   1.000000
   62       -5.465257   1.000000
   63       -5.436798   1.000000
   64       -5.133758   1.000000
   65       -5.065508   1.000000
   66       -4.914755   1.000000
   67       -4.829872   1.000000
   68       -4.791045   1.000000
   69       -4.695350   1.000000
   70       -4.637500   1.000000
   71       -4.573052   1.000000
   72       -4.533071   1.000000
   73       -4.489708   1.000000
   74       -4.334682   1.000000
   75       -4.300919   1.000000
   76       -4.045074   1.000000
   77       -3.770081   0.999901
   78       -3.704323   0.999435
   79       -3.560453   0.987413
   80       -3.117386   0.185600
   81       -3.087792   0.134908
   82       -2.693688   0.000050
   83       -2.678263   0.000032
   84       -2.605468   0.000003
   85       -2.484173   0.000000
   86       -2.420559   0.000000
   87       -2.234801   0.000000
   88       -2.132731   0.000000
   89       -2.121741   0.000000
   90       -1.974550   0.000000
   91       -1.964154   0.000000
   92       -1.626493   0.000000
   93       -1.390240   0.000000
   94       -1.289543   0.000000
   95       -1.242263   0.000000
   96       -0.975478   0.000000
   97       -0.918703   0.000000
   98       -0.822542   0.000000
   99       -0.800694   0.000000
  100       -0.704397   0.000000
  101       -0.698424   0.000000
  102       -0.635091   0.000000
  103       -0.376882   0.000000
  104       -0.328660   0.000000
  105       -0.163174   0.000000
  106       -0.075382   0.000000
  107       -0.044675   0.000000
  108        0.065954   0.000000
  109        0.136625   0.000000
  110        0.239820   0.000000
  111        0.310400   0.000000
  112        0.379599   0.000000
  113        0.642871   0.000000
  114        0.908125   0.000000
  115        0.963280   0.000000
  116        1.198511   0.000000
  117        1.219111   0.000000
  118        1.705172   0.000000
  119        1.892711   0.000000
  120        2.216035   0.000000
 
  0.2500000E+00  0.5551115E-16  0.0000000E+00  0.3125000E-01
    1      -17.733707   1.000000
    2      -17.006724   1.000000
    3      -16.720345   1.000000
    4      -16.679041   1.000000
    5      -16.600708   1.000000
    6      -16.399595   1.000000
    7      -16.286638   1.000000
    8      -16.274955   1.000000
    9      -16.143173   1.000000
   10      -16.136442   1.000000
   11      -15.948463   1.000000
   12      -15.910280   1.000000
   13      -15.850210   1.000000
   14      -15.707423   1.000000
   15      -15.617328   1.000000
   16      -15.543590   1.000000
   17      -15.263144   1.000000
   18      -15.134933   1.000000
   19       -9.589686   1.000000
   20       -9.221751   1.000000
   21       -9.162724   1.000000
   22       -9.070432   1.000000
   23       -8.857817   1.000000
   24       -8.852382   1.000000
   25       -8.650696   1.000000
   26       -8.476223   1.000000
   27       -8.460979   1.000000
   28       -8.354890   1.000000
   29       -8.339934   1.000000
   30       -8.200519   1.000000
   31       -8.195147   1.000000
   32       -8.125216   1.000000
   33       -7.897531   1.000000
   34       -7.841569   1.000000
   35       -7.812790   1.000000
   36       -7.677087   1.000000
   37       -7.600059   1.000000
   38       -7.539231   1.000000
   39       -7.443386   1.000000
   40       -7.375686   1.000000
   41       -7.274264   1.000000
   42       -7.248735   1.000000
   43       -7.118549   1.000000
   44       -7.047023   1.000000
   45       -6.829281   1.000000
   46       -6.777958   1.000000
   47       -6.737179   1.000000
   48       -6.611902   1.000000
   49       -6.523165   1.000000
   50       -6.454526   1.000000
   51       -6.367261   1.000000
   52       -6.310931   1.000000
   53       -6.250039   1.000000
   54       -6.229135   1.000000
   55       -6.092460   1.000000
   56       -6.073179   1.000000
   57       -6.039811   1.000000
   58       -5.823368   1.000000
   59       -5.738050   1.000000
   60       -5.717545   1.000000
   61       -5.635286   1.000000
   62       -5.612369   1.000000
   63       -5.477902   1.000000
   64       -5.338538   1.000000
   65       -5.286380   1.000000
   66       -4.948124   1.000000
   67       -4.780160   1.000000
   68       -4.774392   1.000000
   69       -4.691266   1.000000
   70       -4.523778   1.000000
   71       -4.519050   1.000000
   72       -4.430483   1.000000
   73       -4.390441   1.000000
   74       -4.373892   1.000000
   75       -4.262506   1.000000
   76       -4.165317   1.000000
   77       -3.846079   0.999990
   78       -3.763212   0.999880
   79       -3.596631   0.993694
   80       -3.076601   0.118479
   81       -3.023930   0.059965
   82       -2.664143   0.000021
   83       -2.644415   0.000011
   84       -2.547556   0.000000
   85       -2.445193   0.000000
   86       -2.384932   0.000000
   87       -2.195405   0.000000
   88       -2.058969   0.000000
   89       -2.047513   0.000000
   90       -1.956092   0.000000
   91       -1.889436   0.000000
   92       -1.613606   0.000000
   93       -1.402676   0.000000
   94       -1.314036   0.000000
   95       -1.309920   0.000000
   96       -1.035122   0.000000
   97       -0.948231   0.000000
   98       -0.878374   0.000000
   99       -0.833509   0.000000
  100       -0.788536   0.000000
  101       -0.751520   0.000000
  102       -0.745217   0.000000
  103       -0.568862   0.000000
  104       -0.560248   0.000000
  105       -0.216781   0.000000
  106       -0.162638   0.000000
  107       -0.141069   0.000000
  108        0.102926   0.000000
  109        0.118981   0.000000
  110        0.309040   0.000000
  111        0.375744   0.000000
  112        0.586269   0.000000
  113        0.793044   0.000000
  114        0.922332   0.000000
  115        0.977686   0.000000
  116        1.117638   0.000000
  117        1.127769   0.000000
  118        1.825086   0.000000
  119        2.012018   0.000000
  120        2.319500   0.000000
 
  0.3750000E+00  0.0000000E+00  0.0000000E+00  0.3125000E-01
    1      -17.613616   1.000000
    2      -17.226304   1.000000
    3      -16.732461   1.000000
    4      -16.713289   1.000000
    5      -16.608810   1.000000
    6      -16.415382   1.000000
    7      -16.276949   1.000000
    8      -16.246456   1.000000
    9      -16.132023   1.000000
   10      -16.081423   1.000000
   11      -15.890427   1.000000
   12      -15.869981   1.000000
   13      -15.790989   1.000000
   14      -15.689978   1.000000
   15      -15.665048   1.000000
   16      -15.556112   1.000000
   17      -15.271523   1.000000
   18      -15.146949   1.000000
   19       -9.802558   1.000000
   20       -9.286555   1.000000
   21       -9.249653   1.000000
   22       -9.069310   1.000000
   23       -8.920172   1.000000
   24       -8.885116   1.000000
   25       -8.555456   1.000000
   26       -8.471190   1.000000
   27       -8.439914   1.000000
   28       -8.327809   1.000000
   29       -8.277001   1.000000
   30       -8.217098   1.000000
   31       -8.152079   1.000000
   32       -8.110632   1.000000
   33       -7.914323   1.000000
   34       -7.842264   1.000000
   35       -7.759748   1.000000
   36       -7.668024   1.000000
   37       -7.537816   1.000000
   38       -7.500401   1.000000
   39       -7.334548   1.000000
   40       -7.249877   1.000000
   41       -7.246487   1.000000
   42       -7.188339   1.000000
   43       -7.074317   1.000000
   44       -7.033336   1.000000
   45       -6.795858   1.000000
   46       -6.736799   1.000000
   47       -6.720668   1.000000
   48       -6.609823   1.000000
   49       -6.514389   1.000000
   50       -6.455449   1.000000
   51       -6.351687   1.000000
   52       -6.322468   1.000000
   53       -6.232161   1.000000
   54       -6.224463   1.000000
   55       -6.119357   1.000000
   56       -6.070218   1.000000
   57       -6.057851   1.000000
   58       -5.888418   1.000000
   59       -5.863017   1.000000
   60       -5.746906   1.000000
   61       -5.673212   1.000000
   62       -5.627096   1.000000
   63       -5.506935   1.000000
   64       -5.471985   1.000000
   65       -5.333689   1.000000
   66       -4.995174   1.000000
   67       -4.806519   1.000000
   68       -4.787697   1.000000
   69       -4.695172   1.000000
   70       -4.652265   1.000000
   71       -4.485220   1.000000
   72       -4.402474   1.000000
   73       -4.372389   1.000000
   74       -4.314161   1.000000
   75       -4.219292   1.000000
   76       -4.101386   1.000000
   77       -3.964583   1.000000
   78       -3.734982   0.999743
   79       -3.583369   0.991820
   80       -3.058136   0.094559
   81       -2.974577   0.028452
   82       -2.665305   0.000021
   83       -2.637275   0.000009
   84       -2.507624   0.000000
   85       -2.403076   0.000000
   86       -2.301638   0.000000
   87       -2.128745   0.000000
   88       -2.011266   0.000000
   89       -1.951541   0.000000
   90       -1.897929   0.000000
   91       -1.743230   0.000000
   92       -1.617586   0.000000
   93       -1.462333   0.000000
   94       -1.442557   0.000000
   95       -1.355331   0.000000
   96       -1.126955   0.000000
   97       -1.005866   0.000000
   98       -0.990026   0.000000
   99       -0.920235   0.000000
  100       -0.864380   0.000000
  101       -0.806642   0.000000
  102       -0.745485   0.000000
  103       -0.661281   0.000000
  104       -0.626394   0.000000
  105       -0.277624   0.000000
  106       -0.246585   0.000000
  107       -0.191931   0.000000
  108        0.066796   0.000000
  109        0.074055   0.000000
  110        0.344436   0.000000
  111        0.402949   0.000000
  112        0.718418   0.000000
  113        0.818920   0.000000
  114        0.899846   0.000000
  115        0.978707   0.000000
  116        1.127081   0.000000
  117        1.161932   0.000000
  118        2.004750   0.000000
  119        2.193259   0.000000
  120        2.391487   0.000000
 
  0.5000000E+00  0.1110223E-15  0.0000000E+00  0.1562500E-01
    1      -17.495410   1.000000
    2      -17.379568   1.000000
    3      -16.738489   1.000000
    4      -16.725661   1.000000
    5      -16.608383   1.000000
    6      -16.422520   1.000000
    7      -16.276261   1.000000
    8      -16.242797   1.000000
    9      -16.124679   1.000000
   10      -16.049306   1.000000
   11      -15.883341   1.000000
   12      -15.824773   1.000000
   13      -15.779502   1.000000
   14      -15.704738   1.000000
   15      -15.688243   1.000000
   16      -15.543490   1.000000
   17      -15.275426   1.000000
   18      -15.152959   1.000000
   19       -9.878461   1.000000
   20       -9.329490   1.000000
   21       -9.285902   1.000000
   22       -9.027351   1.000000
   23       -8.944921   1.000000
   24       -8.888885   1.000000
   25       -8.531545   1.000000
   26       -8.465137   1.000000
   27       -8.425082   1.000000
   28       -8.325460   1.000000
   29       -8.253523   1.000000
   30       -8.233616   1.000000
   31       -8.119304   1.000000
   32       -8.089779   1.000000
   33       -7.951629   1.000000
   34       -7.891388   1.000000
   35       -7.813028   1.000000
   36       -7.709704   1.000000
   37       -7.490573   1.000000
   38       -7.361653   1.000000
   39       -7.325254   1.000000
   40       -7.234901   1.000000
   41       -7.129239   1.000000
   42       -7.124331   1.000000
   43       -7.063927   1.000000
   44       -7.050788   1.000000
   45       -6.801642   1.000000
   46       -6.746243   1.000000
   47       -6.659318   1.000000
   48       -6.562341   1.000000
   49       -6.558570   1.000000
   50       -6.444513   1.000000
   51       -6.321392   1.000000
   52       -6.314187   1.000000
   53       -6.246183   1.000000
   54       -6.237327   1.000000
   55       -6.158538   1.000000
   56       -6.140910   1.000000
   57       -6.088626   1.000000
   58       -5.900226   1.000000
   59       -5.879788   1.000000
   60       -5.788418   1.000000
   61       -5.688288   1.000000
   62       -5.565148   1.000000
   63       -5.540165   1.000000
   64       -5.405976   1.000000
   65       -5.274449   1.000000
   66       -5.220573   1.000000
   67       -4.909356   1.000000
   68       -4.789640   1.000000
   69       -4.717037   1.000000
   70       -4.638067   1.000000
   71       -4.470089   1.000000
   72       -4.350294   1.000000
   73       -4.336736   1.000000
   74       -4.323836   1.000000
   75       -4.212483   1.000000
   76       -4.064191   1.000000
   77       -4.003830   1.000000
   78       -3.720141   0.999621
   79       -3.565042   0.988432
   80       -3.055343   0.091276
   81       -2.956639   0.021134
   82       -2.667017   0.000023
   83       -2.637966   0.000009
   84       -2.499370   0.000000
   85       -2.390608   0.000000
   86       -2.252907   0.000000
   87       -2.083528   0.000000
   88       -1.999578   0.000000
   89       -1.925860   0.000000
   90       -1.812498   0.000000
   91       -1.652188   0.000000
   92       -1.628110   0.000000
   93       -1.569220   0.000000
   94       -1.475229   0.000000
   95       -1.394817   0.000000
   96       -1.175093   0.000000
   97       -1.055654   0.000000
   98       -1.004876   0.000000
   99       -0.966383   0.000000
  100       -0.897098   0.000000
  101       -0.849001   0.000000
  102       -0.741501   0.000000
  103       -0.668421   0.000000
  104       -0.616523   0.000000
  105       -0.329670   0.000000
  106       -0.237275   0.000000
  107       -0.225931   0.000000
  108        0.037484   0.000000
  109        0.050980   0.000000
  110        0.352690   0.000000
  111        0.409100   0.000000
  112        0.744868   0.000000
  113        0.823901   0.000000
  114        0.874276   0.000000
  115        0.976809   0.000000
  116        1.159833   0.000000
  117        1.196903   0.000000
  118        2.201857   0.000000
  119        2.253147   0.000000
  120        2.379310   0.000000
 
  0.0000000E+00  0.1250000E+00  0.0000000E+00  0.3125000E-01
    1      -17.808639   1.000000
    2      -16.779194   1.000000
    3      -16.735923   1.000000
    4      -16.603265   1.000000
    5      -16.558065   1.000000
    6      -16.439890   1.000000
    7      -16.374381   1.000000
    8      -16.284838   1.000000
    9      -16.206669   1.000000
   10      -16.086949   1.000000
   11      -16.038989   1.000000
   12      -15.988784   1.000000
   13      -15.873445   1.000000
   14      -15.737811   1.000000
   15      -15.565874   1.000000
   16      -15.503283   1.000000
   17      -15.268768   1.000000
   18      -15.129971   1.000000
   19       -9.289280   1.000000
   20       -9.185011   1.000000
   21       -9.047396   1.000000
   22       -8.969830   1.000000
   23       -8.820778   1.000000
   24       -8.720235   1.000000
   25       -8.676939   1.000000
   26       -8.580305   1.000000
   27       -8.518880   1.000000
   28       -8.472666   1.000000
   29       -8.413559   1.000000
   30       -8.347139   1.000000
   31       -8.280214   1.000000
   32       -8.086925   1.000000
   33       -8.023154   1.000000
   34       -7.988017   1.000000
   35       -7.829555   1.000000
   36       -7.717842   1.000000
   37       -7.685730   1.000000
   38       -7.525098   1.000000
   39       -7.445442   1.000000
   40       -7.364409   1.000000
   41       -7.256905   1.000000
   42       -7.196257   1.000000
   43       -7.156380   1.000000
   44       -6.924311   1.000000
   45       -6.883349   1.000000
   46       -6.829952   1.000000
   47       -6.751387   1.000000
   48       -6.654797   1.000000
   49       -6.606142   1.000000
   50       -6.544846   1.000000
   51       -6.497208   1.000000
   52       -6.260190   1.000000
   53       -6.224601   1.000000
   54       -6.124273   1.000000
   55       -6.085947   1.000000
   56       -6.037077   1.000000
   57       -5.930394   1.000000
   58       -5.861608   1.000000
   59       -5.835040   1.000000
   60       -5.699475   1.000000
   61       -5.585300   1.000000
   62       -5.396852   1.000000
   63       -5.340815   1.000000
   64       -5.125766   1.000000
   65       -5.068909   1.000000
   66       -4.979841   1.000000
   67       -4.967877   1.000000
   68       -4.870813   1.000000
   69       -4.777908   1.000000
   70       -4.689502   1.000000
   71       -4.539123   1.000000
   72       -4.425378   1.000000
   73       -4.385042   1.000000
   74       -4.357109   1.000000
   75       -4.284977   1.000000
   76       -3.900220   0.999998
   77       -3.812752   0.999971
   78       -3.714998   0.999568
   79       -3.496340   0.962900
   80       -3.388006   0.845980
   81       -2.901991   0.007818
   82       -2.788497   0.000641
   83       -2.706496   0.000072
   84       -2.631193   0.000007
   85       -2.501358   0.000000
   86       -2.451538   0.000000
   87       -2.222492   0.000000
   88       -2.113306   0.000000
   89       -2.075424   0.000000
   90       -1.993419   0.000000
   91       -1.935061   0.000000
   92       -1.640330   0.000000
   93       -1.389684   0.000000
   94       -1.295122   0.000000
   95       -1.212934   0.000000
   96       -0.971379   0.000000
   97       -0.910070   0.000000
   98       -0.830760   0.000000
   99       -0.806821   0.000000
  100       -0.704692   0.000000
  101       -0.665856   0.000000
  102       -0.599706   0.000000
  103       -0.343569   0.000000
  104       -0.291192   0.000000
  105       -0.216145   0.000000
  106       -0.119348   0.000000
  107       -0.029092   0.000000
  108       -0.004796   0.000000
  109        0.108165   0.000000
  110        0.195516   0.000000
  111        0.262911   0.000000
  112        0.464153   0.000000
  113        0.620902   0.000000
  114        0.771432   0.000000
  115        1.059560   0.000000
  116        1.239236   0.000000
  117        1.321511   0.000000
  118        1.707187   0.000000
  119        1.889991   0.000000
  120        2.216611   0.000000
 
  0.1250000E+00  0.1250000E+00  0.0000000E+00  0.3125000E-01
    1      -17.758355   1.000000
    2      -16.910330   1.000000
    3      -16.803151   1.000000
    4      -16.657324   1.000000
    5      -16.530104   1.000000
    6      -16.395799   1.000000
    7      -16.358764   1.000000
    8      -16.262600   1.000000
    9      -16.195038   1.000000
   10      -16.061173   1.000000
   11      -16.003337   1.000000
   12      -15.944347   1.000000
   13      -15.838697   1.000000
   14      -15.720011   1.000000
   15      -15.596331   1.000000
   16      -15.521024   1.000000
   17      -15.273297   1.000000
   18      -15.134930   1.000000
   19       -9.452577   1.000000
   20       -9.303529   1.000000
   21       -9.160596   1.000000
   22       -9.032018   1.000000
   23       -8.843204   1.000000
   24       -8.766462   1.000000
   25       -8.657656   1.000000
   26       -8.507535   1.000000
   27       -8.446417   1.000000
   28       -8.404153   1.000000
   29       -8.363782   1.000000
   30       -8.287851   1.000000
   31       -8.151648   1.000000
   32       -8.121540   1.000000
   33       -7.974678   1.000000
   34       -7.890267   1.000000
   35       -7.804517   1.000000
   36       -7.685470   1.000000
   37       -7.617076   1.000000
   38       -7.547588   1.000000
   39       -7.426361   1.000000
   40       -7.372125   1.000000
   41       -7.269997   1.000000
   42       -7.206199   1.000000
   43       -7.152246   1.000000
   44       -7.000697   1.000000
   45       -6.845957   1.000000
   46       -6.812577   1.000000
   47       -6.778632   1.000000
   48       -6.647867   1.000000
   49       -6.564258   1.000000
   50       -6.435467   1.000000
   51       -6.394426   1.000000
   52       -6.334722   1.000000
   53       -6.256737   1.000000
   54       -6.185484   1.000000
   55       -6.096287   1.000000
   56       -6.040382   1.000000
   57       -5.983246   1.000000
   58       -5.839768   1.000000
   59       -5.797476   1.000000
   60       -5.640748   1.000000
   61       -5.564480   1.000000
   62       -5.528784   1.000000
   63       -5.488046   1.000000
   64       -5.249101   1.000000
   65       -5.145909   1.000000
   66       -5.084451   1.000000
   67       -4.870298   1.000000
   68       -4.859613   1.000000
   69       -4.730504   1.000000
   70       -4.607907   1.000000
   71       -4.505630   1.000000
   72       -4.386962   1.000000
   73       -4.343397   1.000000
   74       -4.286736   1.000000
   75       -4.263486   1.000000
   76       -4.082493   1.000000
   77       -3.913469   0.999999
   78       -3.711779   0.999531
   79       -3.540487   0.982028
   80       -3.277256   0.593369
   81       -2.887875   0.005916
   82       -2.769771   0.000401
   83       -2.665868   0.000022
   84       -2.580271   0.000001
   85       -2.488423   0.000000
   86       -2.428936   0.000000
   87       -2.161330   0.000000
   88       -2.074260   0.000000
   89       -2.024766   0.000000
   90       -1.978006   0.000000
   91       -1.927369   0.000000
   92       -1.623142   0.000000
   93       -1.389588   0.000000
   94       -1.321203   0.000000
   95       -1.242936   0.000000
   96       -0.998012   0.000000
   97       -0.933803   0.000000
   98       -0.854391   0.000000
   99       -0.801626   0.000000
  100       -0.769618   0.000000
  101       -0.743962   0.000000
  102       -0.714964   0.000000
  103       -0.552584   0.000000
  104       -0.437111   0.000000
  105       -0.263976   0.000000
  106       -0.151146   0.000000
  107       -0.076446   0.000000
  108        0.033215   0.000000
  109        0.119486   0.000000
  110        0.228289   0.000000
  111        0.411692   0.000000
  112        0.486593   0.000000
  113        0.770139   0.000000
  114        0.822062   0.000000
  115        1.025619   0.000000
  116        1.183518   0.000000
  117        1.242255   0.000000
  118        1.789020   0.000000
  119        1.970860   0.000000
  120        2.286165   0.000000
 
  0.2500000E+00  0.1250000E+00  0.0000000E+00  0.3125000E-01
    1      -17.660399   1.000000
    2      -17.112233   1.000000
    3      -16.877584   1.000000
    4      -16.663393   1.000000
    5      -16.520726   1.000000
    6      -16.392651   1.000000
    7      -16.280282   1.000000
    8      -16.266040   1.000000
    9      -16.172380   1.000000
   10      -16.069546   1.000000
   11      -15.969338   1.000000
   12      -15.844385   1.000000
   13      -15.810525   1.000000
   14      -15.695903   1.000000
   15      -15.645140   1.000000
   16      -15.530827   1.000000
   17      -15.280514   1.000000
   18      -15.143640   1.000000
   19       -9.701358   1.000000
   20       -9.404059   1.000000
   21       -9.215381   1.000000
   22       -9.086183   1.000000
   23       -8.885251   1.000000
   24       -8.735334   1.000000
   25       -8.564363   1.000000
   26       -8.493269   1.000000
   27       -8.417950   1.000000
   28       -8.334632   1.000000
   29       -8.290539   1.000000
   30       -8.228694   1.000000
   31       -8.187364   1.000000
   32       -8.130461   1.000000
   33       -7.961874   1.000000
   34       -7.841820   1.000000
   35       -7.761056   1.000000
   36       -7.681631   1.000000
   37       -7.571133   1.000000
   38       -7.523631   1.000000
   39       -7.397065   1.000000
   40       -7.322093   1.000000
   41       -7.201456   1.000000
   42       -7.166455   1.000000
   43       -7.137537   1.000000
   44       -6.939079   1.000000
   45       -6.843996   1.000000
   46       -6.800543   1.000000
   47       -6.732411   1.000000