       N       E                     dE             d eps       ncg     rms          rms(c)
DAV:   1     0.112559069588E+04    0.11256E+04   -0.35982E+04  8160   0.577E+02
DAV:   2    -0.196360577432E+01   -0.11276E+04   -0.10864E+04 11280   0.173E+02
DAV:   3    -0.199669487574E+03   -0.19771E+03   -0.18995E+03 10880   0.821E+01
DAV:   4    -0.208997941826E+03   -0.93285E+01   -0.90421E+01 12280   0.263E+01
DAV:   5    -0.209304059070E+03   -0.30612E+00   -0.30518E+00 11120   0.347E+00    0.275E+01
DAV:   6    -0.237865842152E+03   -0.28562E+02   -0.10802E+02 12720   0.601E+01    0.595E+01
DAV:   7    -0.196572342876E+03    0.41293E+02   -0.17502E+02 13560   0.152E+02    0.200E+01
DAV:   8    -0.189472623068E+03    0.70997E+01   -0.17642E+01 12080   0.127E+01    0.125E+01
DAV:   9    -0.188128155674E+03    0.13445E+01   -0.30293E+00 13560   0.635E+00    0.912E+00
DAV:  10    -0.186935845824E+03    0.11923E+01   -0.17246E+00 13400   0.761E+00    0.215E+00
DAV:  11    -0.187023418861E+03   -0.87573E-01   -0.58573E-01 13600   0.253E+00    0.367E+00
DAV:  12    -0.186945251521E+03    0.78167E-01   -0.68748E-01 12840   0.378E+00    0.323E+00
DAV:  13    -0.186865763803E+03    0.79488E-01   -0.24380E-01 13160   0.296E+00    0.184E+00
DAV:  14    -0.186827165685E+03    0.38598E-01   -0.91622E-02 13040   0.165E+00    0.609E-01
DAV:  15    -0.186823364312E+03    0.38014E-02   -0.10571E-02 11720   0.356E-01    0.328E-01
DAV:  16    -0.186824911960E+03   -0.15476E-02   -0.11113E-02 12800   0.572E-01    0.639E-01
DAV:  17    -0.186821489609E+03    0.34224E-02   -0.82847E-03 13000   0.492E-01    0.203E-01
DAV:  18    -0.186821093730E+03    0.39588E-03   -0.13347E-03 11720   0.176E-01    0.658E-02
DAV:  19    -0.186821663035E+03   -0.56930E-03   -0.80950E-04 10960   0.812E-02    0.850E-02
DAV:  20    -0.186821963833E+03   -0.30080E-03   -0.35238E-04  8200   0.525E-02    0.563E-02
DAV:  21    -0.186823163114E+03   -0.11993E-02   -0.30022E-04  8520   0.588E-02    0.252E-02
DAV:  22    -0.186823948194E+03   -0.78508E-03   -0.78769E-05  6640   0.245E-02    0.244E-02
DAV:  23    -0.186824775336E+03   -0.82714E-03   -0.86144E-05  7520   0.233E-02    0.860E-03
DAV:  24    -0.186825392718E+03   -0.61738E-03   -0.25152E-05  6240   0.130E-02    0.596E-03
DAV:  25    -0.186825841665E+03   -0.44895E-03   -0.17535E-05  6080   0.115E-02    0.317E-03
DAV:  26    -0.186826013336E+03   -0.17167E-03   -0.68704E-06  6960   0.639E-03    0.181E-03
DAV:  27    -0.186826117779E+03   -0.10444E-03   -0.39118E-06  6640   0.409E-03    0.131E-03
DAV:  28    -0.186826168207E+03   -0.50427E-04   -0.21706E-06  7160   0.290E-03
   1 F= -.18682617E+03 E0= -.18665559E+03  d E =-.186826E+03
       N       E                     dE             d eps       ncg     rms          rms(c)
DAV:   1    -0.187491778542E+03   -0.66566E+00   -0.27406E+02  8160   0.351E+01    0.461E+00
DAV:   2    -0.189351210262E+03   -0.18594E+01   -0.20007E+01 12280   0.151E+01    0.845E+00
DAV:   3    -0.189347672181E+03    0.35381E-02   -0.35686E+00 12480   0.119E+01    0.660E+00
DAV:   4    -0.188742909511E+03    0.60476E+00   -0.63170E-01 12760   0.472E+00    0.170E+00
DAV:   5    -0.188726201271E+03    0.16708E-01   -0.28809E-01 10480   0.144E+00    0.194E+00
DAV:   6    -0.188692672184E+03    0.33529E-01   -0.26300E-01 12200   0.181E+00    0.174E+00
DAV:   7    -0.188700704166E+03   -0.80320E-02   -0.18855E-01 12960   0.237E+00    0.220E+00
DAV:   8    -0.188657972912E+03    0.42731E-01   -0.65328E-02 13280   0.149E+00    0.361E-01
DAV:   9    -0.188656466580E+03    0.15063E-02   -0.65094E-03 10560   0.297E-01    0.248E-01
DAV:  10    -0.188657310754E+03   -0.84417E-03   -0.49842E-03 13400   0.385E-01    0.443E-01
DAV:  11    -0.188655912151E+03    0.13986E-02   -0.41532E-03 12960   0.349E-01    0.147E-01
DAV:  12    -0.188655849745E+03    0.62406E-04   -0.82850E-04 11800   0.102E-01
   2 F= -.18865585E+03 E0= -.18851778E+03  d E =-.182968E+01
       N       E                     dE             d eps       ncg     rms          rms(c)
DAV:   1    -0.190583836260E+03   -0.19279E+01   -0.31275E+01  9240   0.142E+01    0.444E+00
DAV:   2    -0.190519548210E+03    0.64288E-01   -0.27400E+00 11640   0.937E+00    0.711E+00
DAV:   3    -0.190071430953E+03    0.44812E+00   -0.12939E+00 12480   0.859E+00    0.426E+00
DAV:   4    -0.189855929726E+03    0.21550E+00   -0.67493E-01 12920   0.431E+00    0.247E+00
DAV:   5    -0.189765905189E+03    0.90025E-01   -0.28762E-01 11520   0.197E+00    0.935E-01
DAV:   6    -0.189755365990E+03    0.10539E-01   -0.48886E-02 11960   0.113E+00    0.719E-01
DAV:   7    -0.189751727318E+03    0.36387E-02   -0.12774E-02 12320   0.649E-01    0.251E-01
DAV:   8    -0.189751288413E+03    0.43890E-03   -0.19404E-03 11640   0.171E-01    0.122E-01
DAV:   9    -0.189752200915E+03   -0.91250E-03   -0.15935E-03 10840   0.234E-01    0.290E-01
DAV:  10    -0.189751534523E+03    0.66639E-03   -0.14713E-03 10680   0.248E-01    0.818E-02
DAV:  11    -0.189751492405E+03    0.42118E-04   -0.19608E-04  6600   0.677E-02
   3 F= -.18975149E+03 E0= -.18963572E+03  d E =-.109564E+01
       N       E                     dE             d eps       ncg     rms          rms(c)
DAV:   1    -0.191343612608E+03   -0.15921E+01   -0.77984E+01  8160   0.201E+01    0.458E+00
DAV:   2    -0.191129039977E+03    0.21457E+00   -0.53326E+00 13400   0.729E+00    0.415E+00
DAV:   3    -0.191324469652E+03   -0.19543E+00   -0.14783E+00 12240   0.896E+00    0.678E+00
DAV:   4    -0.190907726531E+03    0.41674E+00   -0.13027E+00 13000   0.788E+00    0.276E+00
DAV:   5    -0.190807242456E+03    0.10048E+00   -0.30117E-01 11000   0.253E+00    0.160E+00
DAV:   6    -0.190796255104E+03    0.10987E-01   -0.13763E-01 12720   0.249E+00    0.155E+00
DAV:   7    -0.190776571867E+03    0.19683E-01   -0.50702E-02 12080   0.148E+00    0.491E-01
DAV:   8    -0.190772469016E+03    0.41029E-02   -0.70031E-03 10200   0.370E-01    0.152E-01
DAV:   9    -0.190772905310E+03   -0.43629E-03   -0.19052E-03 10680   0.137E-01    0.139E-01
DAV:  10    -0.190772625595E+03    0.27971E-03   -0.93985E-04 10640   0.112E-01    0.469E-02
DAV:  11    -0.190772640924E+03   -0.15329E-04   -0.11749E-04  7240   0.512E-02
   4 F= -.19077264E+03 E0= -.19067625E+03  d E =-.102115E+01
       N       E                     dE             d eps       ncg     rms          rms(c)
DAV:   1    -0.192227226838E+03   -0.14546E+01   -0.18697E+02  8160   0.303E+01    0.571E+00
DAV:   2    -0.191947106597E+03    0.28012E+00   -0.97263E+00 10160   0.759E+00    0.311E+00
DAV:   3    -0.191760689980E+03    0.18642E+00   -0.12546E+00 10880   0.399E+00    0.256E+00
DAV:   4    -0.191800232779E+03   -0.39543E-01   -0.60391E-01 11640   0.521E+00    0.457E+00
DAV:   5    -0.191627965091E+03    0.17227E+00   -0.64107E-01 11800   0.563E+00    0.189E+00
DAV:   6    -0.191604858706E+03    0.23106E-01   -0.14697E-01 12320   0.256E+00    0.147E+00
DAV:   7    -0.191586797032E+03    0.18062E-01   -0.65690E-02 12400   0.196E+00    0.704E-01
DAV:   8    -0.191579901628E+03    0.68954E-02   -0.13458E-02 12440   0.745E-01    0.233E-01
DAV:   9    -0.191580722412E+03   -0.82078E-03   -0.41847E-03 12320   0.454E-01    0.346E-01
DAV:  10    -0.191579709277E+03    0.10131E-02   -0.25739E-03 11640   0.336E-01    0.575E-02
DAV:  11    -0.191579735842E+03   -0.26565E-04   -0.16766E-04  6760   0.565E-02
   5 F= -.19157974E+03 E0= -.19149355E+03  d E =-.807095E+00
       N       E                     dE             d eps       ncg     rms          rms(c)
DAV:   1    -0.191689758987E+03   -0.11005E+00   -0.91137E+00  8160   0.638E+00    0.765E-01
DAV:   2    -0.191760427035E+03   -0.70668E-01   -0.39152E-01 13080   0.327E+00    0.216E+00
DAV:   3    -0.191708726115E+03    0.51701E-01   -0.10304E-01 12560   0.247E+00    0.421E-01
DAV:   4    -0.191709439648E+03   -0.71353E-03   -0.10992E-02 11560   0.714E-01    0.632E-01
DAV:   5    -0.191706057640E+03    0.33820E-02   -0.87198E-03 11720   0.712E-01    0.273E-01
DAV:   6    -0.191705542461E+03    0.51518E-03   -0.32734E-03 11560   0.271E-01    0.108E-01
DAV:   7    -0.191705261530E+03    0.28093E-03   -0.73383E-04 11080   0.109E-01    0.380E-02
DAV:   8    -0.191705310861E+03   -0.49331E-04   -0.17697E-04  6440   0.861E-02
   6 F= -.19170531E+03 E0= -.19162003E+03  d E =-.125575E+00
       N       E                     dE             d eps       ncg     rms          rms(c)
DAV:   1    -0.191834412856E+03   -0.12915E+00   -0.17283E+01  8160   0.876E+00    0.886E-01
DAV:   2    -0.191902994742E+03   -0.68582E-01   -0.51798E-01 12400   0.306E+00    0.192E+00
DAV:   3    -0.191864967604E+03    0.38027E-01   -0.11246E-01 12520   0.254E+00    0.704E-01
DAV:   4    -0.191863829221E+03    0.11384E-02   -0.19558E-02 12400   0.993E-01    0.781E-01
DAV:   5    -0.191858468916E+03    0.53603E-02   -0.14015E-02 12400   0.932E-01    0.357E-01
DAV:   6    -0.191857800722E+03    0.66819E-03   -0.54487E-03 12480   0.359E-01    0.170E-01
DAV:   7    -0.191857191118E+03    0.60960E-03   -0.17946E-03 10600   0.187E-01    0.890E-02
DAV:   8    -0.191857232538E+03   -0.41420E-04   -0.54677E-04  9600   0.167E-01
   7 F= -.19185723E+03 E0= -.19177556E+03  d E =-.151922E+00
       N       E                     dE             d eps       ncg     rms          rms(c)
DAV:   1    -0.191976675965E+03   -0.11948E+00   -0.24317E+01  8160   0.105E+01    0.109E+00
DAV:   2    -0.192058198623E+03   -0.81523E-01   -0.82665E-01 12480   0.348E+00    0.179E+00
DAV:   3    -0.192032111635E+03    0.26087E-01   -0.12397E-01 12320   0.273E+00    0.973E-01
DAV:   4    -0.192021778851E+03    0.10333E-01   -0.27857E-02 11360   0.121E+00    0.745E-01
DAV:   5    -0.192019654526E+03    0.21243E-02   -0.21179E-02 12400   0.113E+00    0.633E-01
DAV:   6    -0.192016691819E+03    0.29627E-02   -0.13032E-02 12400   0.685E-01    0.254E-01
DAV:   7    -0.192015302365E+03    0.13895E-02   -0.33681E-03 10560   0.262E-01    0.115E-01
DAV:   8    -0.192015354327E+03   -0.51962E-04   -0.85088E-04 11040   0.209E-01
   8 F= -.19201535E+03 E0= -.19193518E+03  d E =-.158122E+00
       N       E                     dE             d eps       ncg     rms          rms(c)
DAV:   1    -0.192074465461E+03   -0.59163E-01   -0.71008E+00  8160   0.563E+00    0.641E-01
DAV:   2    -0.192104339169E+03   -0.29874E-01   -0.30063E-01 11960   0.192E+00    0.964E-01
DAV:   3    -0.192097339262E+03    0.69999E-02   -0.43380E-02 12280   0.160E+00    0.685E-01
DAV:   4    -0.192094199073E+03    0.31402E-02   -0.14400E-02 11760   0.878E-01    0.498E-01
DAV:   5    -0.192092231537E+03    0.19675E-02   -0.69006E-03 11680   0.666E-01    0.306E-01
DAV:   6    -0.192091644418E+03    0.58712E-03   -0.33762E-03 12680   0.370E-01    0.157E-01
DAV:   7    -0.192091225029E+03    0.41939E-03   -0.13290E-03 10720   0.146E-01    0.341E-02
DAV:   8    -0.192091220728E+03    0.43008E-05   -0.12001E-04  7600   0.464E-02
   9 F= -.19209122E+03 E0= -.19201147E+03  d E =-.758664E-01
       N       E                     dE             d eps       ncg     rms          rms(c)
DAV:   1    -0.192147961049E+03   -0.56736E-01   -0.21385E+01  8160   0.989E+00    0.103E+00
DAV:   2    -0.192196665887E+03   -0.48705E-01   -0.73004E-01 12000   0.239E+00    0.821E-01
DAV:   3    -0.192210729694E+03   -0.14064E-01   -0.78775E-02 12400   0.209E+00    0.146E+00
DAV:   4    -0.192186958212E+03    0.23771E-01   -0.40584E-02 12160   0.168E+00    0.557E-01
DAV:   5    -0.192186465291E+03    0.49292E-03   -0.14785E-02 10440   0.884E-01    0.593E-01
DAV:   6    -0.192184628070E+03    0.18372E-02   -0.14135E-02 12520   0.909E-01    0.388E-01
DAV:   7    -0.192182537254E+03    0.20908E-02   -0.47280E-03 11480   0.457E-01    0.189E-01
DAV:   8    -0.192182251613E+03    0.28564E-03   -0.11310E-03 10800   0.256E-01    0.897E-02
DAV:   9    -0.192182156204E+03    0.95409E-04   -0.22421E-04  7560   0.923E-02
  10 F= -.19218216E+03 E0= -.19209932E+03  d E =-.909355E-01
       N       E                     dE             d eps       ncg     rms          rms(c)
DAV:   1    -0.192209807440E+03   -0.27556E-01   -0.43246E+00  8160   0.441E+00    0.551E-01
DAV:   2    -0.192233785389E+03   -0.23978E-01   -0.20389E-01 12240   0.166E+00    0.104E+00
DAV:   3    -0.192223459475E+03    0.10326E-01   -0.37730E-02 11240   0.149E+00    0.577E-01
DAV:   4    -0.192221391785E+03    0.20677E-02   -0.96312E-03 12640   0.723E-01    0.405E-01
DAV:   5    -0.192219791476E+03    0.16003E-02   -0.46730E-03 11440   0.568E-01    0.216E-01
DAV:   6    -0.192219536856E+03    0.25462E-03   -0.20789E-03 12560   0.271E-01    0.126E-01
DAV:   7    -0.192219264240E+03    0.27262E-03   -0.98644E-04 10440   0.134E-01    0.521E-02
DAV:   8    -0.192219270646E+03   -0.64064E-05   -0.17027E-04  8600   0.106E-01
  11 F= -.19221927E+03 E0= -.19213649E+03  d E =-.371144E-01
       N       E                     dE             d eps       ncg     rms          rms(c)
DAV:   1    -0.192238779465E+03   -0.19515E-01   -0.20636E+00  8160   0.305E+00    0.426E-01
DAV:   2    -0.192254424380E+03   -0.15645E-01   -0.10644E-01 11600   0.149E+00    0.962E-01
DAV:   3    -0.192243942918E+03    0.10481E-01   -0.23638E-02 11560   0.122E+00    0.328E-01
DAV:   4    -0.192244040503E+03   -0.97585E-04   -0.50309E-03 12520   0.540E-01    0.353E-01
DAV:   5    -0.192242797317E+03    0.12432E-02   -0.30606E-03 11400   0.475E-01    0.165E-01
DAV:   6    -0.192242608730E+03    0.18859E-03   -0.11324E-03 11440   0.182E-01    0.808E-02
DAV:   7    -0.192242492090E+03    0.11664E-03   -0.45320E-04  9800   0.819E-02    0.326E-02
DAV:   8    -0.192242496118E+03   -0.40281E-05   -0.64515E-05  7960   0.634E-02
  12 F= -.19224250E+03 E0= -.19216073E+03  d E =-.232255E-01
       N       E                     dE             d eps       ncg     rms          rms(c)
DAV:   1    -0.192253474088E+03   -0.10982E-01   -0.61023E-01  8160   0.168E+00    0.227E-01
DAV:   2    -0.192256721571E+03   -0.32475E-02   -0.25592E-02 11240   0.661E-01    0.458E-01
DAV:   3    -0.192254615157E+03    0.21064E-02   -0.64422E-03 11920   0.627E-01    0.214E-01
DAV:   4    -0.192254386881E+03    0.22828E-03   -0.14481E-03 10960   0.286E-01    0.168E-01
DAV:   5    -0.192254119130E+03    0.26775E-03   -0.82629E-04 10680   0.248E-01    0.927E-02
DAV:   6    -0.192254039743E+03    0.79387E-04   -0.29195E-04  8240   0.105E-01
  13 F= -.19225404E+03 E0= -.19217325E+03  d E =-.115436E-01
       N       E                     dE             d eps       ncg     rms          rms(c)
DAV:   1    -0.192263266155E+03   -0.91470E-02   -0.41112E-01  8160   0.137E+00    0.209E-01
DAV:   2    -0.192266533279E+03   -0.32671E-02   -0.22130E-02 10600   0.745E-01    0.469E-01
DAV:   3    -0.192264024891E+03    0.25084E-02   -0.53506E-03 12200   0.591E-01    0.144E-01
DAV:   4    -0.192264109551E+03   -0.84660E-04   -0.11531E-03 10240   0.259E-01    0.176E-01
DAV:   5    -0.192263825151E+03    0.28440E-03   -0.77572E-04 10080   0.243E-01    0.911E-02
DAV:   6    -0.192263754402E+03    0.70748E-04   -0.30005E-04  8000   0.101E-01
  14 F= -.19226375E+03 E0= -.19218404E+03  d E =-.971466E-02
       N       E                     dE             d eps       ncg     rms          rms(c)
DAV:   1    -0.192280764823E+03   -0.16940E-01   -0.20089E+00  8160   0.302E+00    0.412E-01
DAV:   2    -0.192292304791E+03   -0.11540E-01   -0.86687E-02 11400   0.130E+00    0.827E-01
DAV:   3    -0.192284507035E+03    0.77978E-02   -0.18668E-02 12120   0.111E+00    0.303E-01
DAV:   4    -0.192284452825E+03    0.54209E-04   -0.41155E-03 12560   0.485E-01    0.321E-01
DAV:   5    -0.192283453129E+03    0.99970E-03   -0.26662E-03 11800   0.449E-01    0.159E-01
DAV:   6    -0.192283299739E+03    0.15339E-03   -0.10886E-03 10640   0.184E-01    0.792E-02
DAV:   7    -0.192283159528E+03    0.14021E-03   -0.37096E-04  9400   0.770E-02    0.221E-02
DAV:   8    -0.192283173055E+03   -0.13527E-04   -0.58529E-05  8160   0.603E-02
  15 F= -.19228317E+03 E0= -.19220605E+03  d E =-.194187E-01
       N       E                     dE             d eps       ncg     rms          rms(c)
DAV:   1    -0.192288564609E+03   -0.54051E-02   -0.23165E+01  8160   0.103E+01    0.130E+00
DAV:   2    -0.192385813865E+03   -0.97249E-01   -0.95612E-01 12080   0.359E+00    0.201E+00
DAV:   3    -0.192344036908E+03    0.41777E-01   -0.13957E-01 12160   0.315E+00    0.106E+00
DAV:   4    -0.192331474447E+03    0.12562E-01   -0.36482E-02 11800   0.140E+00    0.644E-01
DAV:   5    -0.192330420798E+03    0.10536E-02   -0.20173E-02 12760   0.122E+00    0.660E-01
DAV:   6    -0.192326825836E+03    0.35950E-02   -0.13905E-02 12760   0.880E-01    0.306E-01
DAV:   7    -0.192324844005E+03    0.19818E-02   -0.41814E-03 11840   0.303E-01    0.551E-02
DAV:   8    -0.192324847078E+03   -0.30728E-05   -0.50056E-04 11680   0.821E-02
  16 F= -.19232485E+03 E0= -.19225593E+03  d E =-.416740E-01
       N       E                     dE             d eps       ncg     rms          rms(c)
DAV:   1    -0.192325444383E+03   -0.60038E-03   -0.21661E-01  8160   0.101E+00    0.149E-01
DAV:   2    -0.192327672811E+03   -0.22284E-02   -0.86758E-03 12600   0.583E-01    0.422E-01
DAV:   3    -0.192325538221E+03    0.21346E-02   -0.31518E-03 12200   0.504E-01    0.866E-02
DAV:   4    -0.192325554831E+03   -0.16610E-04   -0.40821E-04  9080   0.153E-01
  17 F= -.19232555E+03 E0= -.19225624E+03  d E =-.707754E-03
       N       E                     dE             d eps       ncg     rms          rms(c)
DAV:   1    -0.192328261013E+03   -0.27228E-02   -0.66417E-01  8160   0.172E+00    0.215E-01
DAV:   2    -0.192331727951E+03   -0.34669E-02   -0.33126E-02 11400   0.675E-01    0.346E-01
DAV:   3    -0.192330472438E+03    0.12555E-02   -0.40769E-03 12680   0.540E-01    0.172E-01
DAV:   4    -0.192330048352E+03    0.42409E-03   -0.74733E-04 10440   0.207E-01    0.693E-02
DAV:   5    -0.192330095710E+03   -0.47359E-04   -0.45245E-04  9600   0.138E-01
  18 F= -.19233010E+03 E0= -.19226192E+03  d E =-.454088E-02
       N       E                     dE             d eps       ncg     rms          rms(c)
DAV:   1    -0.192332062919E+03   -0.20146E-02   -0.84123E-01  8160   0.195E+00    0.254E-01
DAV:   2    -0.192336175638E+03   -0.41127E-02   -0.39692E-02 11480   0.723E-01    0.403E-01
DAV:   3    -0.192334667035E+03    0.15086E-02   -0.57495E-03 12520   0.665E-01    0.237E-01
DAV:   4    -0.192334117176E+03    0.54986E-03   -0.13452E-03 11120   0.300E-01    0.131E-01
DAV:   5    -0.192334037149E+03    0.80027E-04   -0.72084E-04 11280   0.241E-01
  19 F= -.19233404E+03 E0= -.19226713E+03  d E =-.394144E-02
       N       E                     dE             d eps       ncg     rms          rms(c)
DAV:   1    -0.192335309546E+03   -0.11924E-02   -0.26068E-01  8160   0.109E+00    0.154E-01
DAV:   2    -0.192336739817E+03   -0.14303E-02   -0.13560E-02 12640   0.433E-01    0.242E-01
DAV:   3    -0.192336108788E+03    0.63103E-03   -0.22770E-03 12000   0.388E-01    0.142E-01
DAV:   4    -0.192335931097E+03    0.17769E-03   -0.59943E-04  9680   0.195E-01    0.835E-02
DAV:   5    -0.192335887917E+03    0.43180E-04   -0.29272E-04  9280   0.135E-01
  20 F= -.19233589E+03 E0= -.19226950E+03  d E =-.185077E-02
       N       E                     dE             d eps       ncg     rms          rms(c)
DAV:   1    -0.192336657367E+03   -0.72627E-03   -0.49508E-01  8160   0.150E+00    0.180E-01
DAV:   2    -0.192338539283E+03   -0.18819E-02   -0.22650E-02 11800   0.483E-01    0.206E-01
DAV:   3    -0.192338446973E+03    0.92310E-04   -0.24184E-03 12320   0.421E-01    0.199E-01
DAV:   4    -0.192337943231E+03    0.50374E-03   -0.77854E-04 10320   0.237E-01    0.749E-02
DAV:   5    -0.192338015845E+03   -0.72614E-04   -0.39664E-04  9280   0.167E-01
  21 F= -.19233802E+03 E0= -.19227228E+03  d E =-.212793E-02
       N       E                     dE             d eps       ncg     rms          rms(c)
DAV:   1    -0.192338166548E+03   -0.22332E-03   -0.45970E-01  8160   0.144E+00    0.171E-01
DAV:   2    -0.192340047451E+03   -0.18809E-02   -0.21819E-02 12160   0.488E-01    0.209E-01
DAV:   3    -0.192339924355E+03    0.12310E-03   -0.25385E-03 12280   0.413E-01    0.199E-01
DAV:   4    -0.192339463839E+03    0.46052E-03   -0.82398E-04 10520   0.248E-01    0.796E-02
DAV:   5    -0.192339455798E+03    0.80404E-05   -0.30681E-04  8520   0.136E-01
  22 F= -.19233946E+03 E0= -.19227427E+03  d E =-.143995E-02
       N       E                     dE             d eps       ncg     rms          rms(c)
DAV:   1    -0.192339700695E+03   -0.23686E-03   -0.26544E-01  8160   0.110E+00    0.135E-01
DAV:   2    -0.192340784792E+03   -0.10841E-02   -0.11421E-02 12240   0.377E-01    0.191E-01
DAV:   3    -0.192340464900E+03    0.31989E-03   -0.14368E-03 11720   0.333E-01    0.128E-01
DAV:   4    -0.192340284861E+03    0.18004E-03   -0.37251E-04  8840   0.155E-01    0.590E-02
DAV:   5    -0.192340283482E+03    0.13788E-05   -0.18871E-04  7280   0.116E-01
  23 F= -.19234028E+03 E0= -.19227542E+03  d E =-.827684E-03
