 vasp.5.4.1 05Feb16 (build Jul 05 2020 17:13:04) complex                        
  
 executed on           IFC91_ompi date 2024.04.20  09:42:49
 running on   40 total cores
 distrk:  each k-point on   40 cores,    1 groups
 distr:  one band on NCORES_PER_BAND=   1 cores,   40 groups


--------------------------------------------------------------------------------------------------------


 INCAR:
 POTCAR:   PAW_PBE V 08Apr2002                    
 POTCAR:   PAW_PBE Mo 08Apr2002                   
 POTCAR:   PAW_PBE W 08Apr2002                    
 POTCAR:    PAW_PBE S 17Jan2003                   

 ----------------------------------------------------------------------------- 
|                                                                             |
|           W    W    AA    RRRRR   N    N  II  N    N   GGGG   !!!           |
|           W    W   A  A   R    R  NN   N  II  NN   N  G    G  !!!           |
|           W    W  A    A  R    R  N N  N  II  N N  N  G       !!!           |
|           W WW W  AAAAAA  RRRRR   N  N N  II  N  N N  G  GGG   !            |
|           WW  WW  A    A  R   R   N   NN  II  N   NN  G    G                |
|           W    W  A    A  R    R  N    N  II  N    N   GGGG   !!!           |
|                                                                             |
|      For optimal performance we recommend to set                            |
|        NCORE= 4 - approx SQRT( number of cores)                             |
|      NCORE specifies how many cores store one orbital (NPAR=cpu/NCORE).     |
|      This setting can  greatly improve the performance of VASP for DFT.     |
|      The default, NPAR=number of cores might be grossly inefficient         |
|      on modern multi-core architectures or massively parallel machines.     |
|      Do your own testing !!!!                                               |
|      Unfortunately you need to use the default for GW and RPA calculations. |
|      (for HF NCORE is supported but not extensively tested yet)             |
|                                                                             |
 ----------------------------------------------------------------------------- 

 POTCAR:   PAW_PBE V 08Apr2002                    
   VRHFIN =V: p6 d4 s1                                                          
   LEXCH  = PE                                                                  
   EATOM  =   170.8679 eV,   12.5584 Ry                                         
                                                                                
   TITEL  = PAW_PBE V 08Apr2002                                                 
   LULTRA =        F    use ultrasoft PP ?                                      
   IUNSCR =        1    unscreen: 0-lin 1-nonlin 2-no                           
   RPACOR =    2.000    partial core radius                                     
   POMASS =   50.941; ZVAL   =    5.000    mass and valenz                      
   RCORE  =    2.700    outmost cutoff radius                                   
   RWIGS  =    2.500; RWIGS  =    1.323    wigner-seitz radius (au A)           
   ENMAX  =  192.543; ENMIN  =  144.408 eV                                      
   RCLOC  =    1.779    cutoff for local pot                                    
   LCOR   =        T    correct aug charges                                     
   LPAW   =        T    paw PP                                                  
   EAUG   =  358.662                                                            
   DEXC   =    -.034                                                            
   RMAX   =    3.323    core radius for proj-oper                               
   RAUG   =    1.300    factor for augmentation sphere                          
   RDEP   =    2.762    radius for radial grids                                 
   QCUT   =   -3.762; QGAM   =    7.524    optimization parameters              
                                                                                
   Description                                                                  
     l     E      TYP  RCUT    TYP  RCUT                                        
     2   .000     23  2.700                                                     
     2   .000     23  2.700                                                     
     0   .000     23  2.700                                                     
     0  2.000     23  2.700                                                     
     1   .000     23  2.700                                                     
     1  2.000     23  2.700                                                     
     3   .000      7   .000                                                     
  local pseudopotential read in
  partial core-charges read in
  atomic valenz-charges read in
  non local Contribution for L=           2  read in
    real space projection operators read in
  non local Contribution for L=           2  read in
    real space projection operators read in
  non local Contribution for L=           0  read in
    real space projection operators read in
  non local Contribution for L=           0  read in
    real space projection operators read in
  non local Contribution for L=           1  read in
    real space projection operators read in
  non local Contribution for L=           1  read in
    real space projection operators read in
    PAW grid and wavefunctions read in
 
   number of l-projection  operators is LMAX  =           6
   number of lm-projection operators is LMMAX =          18
 
 POTCAR:   PAW_PBE Mo 08Apr2002                   
   VRHFIN =Mo: 4p5s4d                                                           
   LEXCH  = PE                                                                  
   EATOM  =   217.5180 eV,   15.9871 Ry                                         
                                                                                
   TITEL  = PAW_PBE Mo 08Apr2002                                                
   LULTRA =        F    use ultrasoft PP ?                                      
   IUNSCR =        1    unscreen: 0-lin 1-nonlin 2-no                           
   RPACOR =    2.200    partial core radius                                     
   POMASS =   95.940; ZVAL   =    6.000    mass and valenz                      
   RCORE  =    2.750    outmost cutoff radius                                   
   RWIGS  =    2.750; RWIGS  =    1.455    wigner-seitz radius (au A)           
   ENMAX  =  224.584; ENMIN  =  168.438 eV                                      
   RCLOC  =    2.111    cutoff for local pot                                    
   LCOR   =        T    correct aug charges                                     
   LPAW   =        T    paw PP                                                  
   EAUG   =  345.278                                                            
   DEXC   =    -.088                                                            
   RMAX   =    3.077    core radius for proj-oper                               
   RAUG   =    1.300    factor for augmentation sphere                          
   RDEP   =    2.815    radius for radial grids                                 
   QCUT   =   -4.063; QGAM   =    8.126    optimization parameters              
                                                                                
   Description                                                                  
     l     E      TYP  RCUT    TYP  RCUT                                        
     2   .000     23  2.500                                                     
     2   .000     23  2.500                                                     
     0   .000     23  2.600                                                     
     0  1.000     23  2.600                                                     
     1   .400     23  2.750                                                     
     1  2.000     23  2.750                                                     
     3   .000      7   .000                                                     
  local pseudopotential read in
  partial core-charges read in
  atomic valenz-charges read in
  non local Contribution for L=           2  read in
    real space projection operators read in
  non local Contribution for L=           2  read in
    real space projection operators read in
  non local Contribution for L=           0  read in
    real space projection operators read in
  non local Contribution for L=           0  read in
    real space projection operators read in
  non local Contribution for L=           1  read in
    real space projection operators read in
  non local Contribution for L=           1  read in
    real space projection operators read in
    PAW grid and wavefunctions read in
 
   number of l-projection  operators is LMAX  =           6
   number of lm-projection operators is LMMAX =          18
 
 POTCAR:   PAW_PBE W 08Apr2002                    
   VRHFIN =W : 6s5d                                                             
   LEXCH  = PE                                                                  
   EATOM  =   204.6100 eV,   15.0384 Ry                                         
                                                                                
   TITEL  = PAW_PBE W 08Apr2002                                                 
   LULTRA =        F    use ultrasoft PP ?                                      
   IUNSCR =        1    unscreen: 0-lin 1-nonlin 2-no                           
   RPACOR =    2.330    partial core radius                                     
   POMASS =  183.850; ZVAL   =    6.000    mass and valenz                      
   RCORE  =    2.750    outmost cutoff radius                                   
   RWIGS  =    2.750; RWIGS  =    1.455    wigner-seitz radius (au A)           
   ENMAX  =  223.057; ENMIN  =  167.293 eV                                      
   RCLOC  =    2.147    cutoff for local pot                                    
   LCOR   =        T    correct aug charges                                     
   LPAW   =        T    paw PP                                                  
   EAUG   =  373.438                                                            
   DEXC   =    -.060                                                            
   RMAX   =    3.087    core radius for proj-oper                               
   RAUG   =    1.300    factor for augmentation sphere                          
   RDEP   =    2.886    radius for radial grids                                 
   QCUT   =   -4.049; QGAM   =    8.098    optimization parameters              
                                                                                
   Description                                                                  
     l     E      TYP  RCUT    TYP  RCUT                                        
     2   .000     23  2.500                                                     
     2   .000     23  2.500                                                     
     0   .000     23  2.500                                                     
     0   .000     23  2.500                                                     
     1   .200     23  2.750                                                     
     1  2.000     23  2.750                                                     
     3   .000      7   .000                                                     
  local pseudopotential read in
  partial core-charges read in
  atomic valenz-charges read in
  non local Contribution for L=           2  read in
    real space projection operators read in
  non local Contribution for L=           2  read in
    real space projection operators read in
  non local Contribution for L=           0  read in
    real space projection operators read in
  non local Contribution for L=           0  read in
    real space projection operators read in
  non local Contribution for L=           1  read in
    real space projection operators read in
  non local Contribution for L=           1  read in
    real space projection operators read in
    PAW grid and wavefunctions read in
 
   number of l-projection  operators is LMAX  =           6
   number of lm-projection operators is LMMAX =          18
 
 POTCAR:    PAW_PBE S 17Jan2003                   
   VRHFIN =S : s2p4                                                             
   LEXCH  = PE                                                                  
   EATOM  =   276.8230 eV,   20.3459 Ry                                         
                                                                                
   TITEL  = PAW_PBE S 17Jan2003                                                 
   LULTRA =        F    use ultrasoft PP ?                                      
   IUNSCR =        1    unscreen: 0-lin 1-nonlin 2-no                           
   RPACOR =    1.500    partial core radius                                     
   POMASS =   32.066; ZVAL   =    6.000    mass and valenz                      
   RCORE  =    1.900    outmost cutoff radius                                   
   RWIGS  =    2.200; RWIGS  =    1.164    wigner-seitz radius (au A)           
   ENMAX  =  280.000; ENMIN  =  194.016 eV                                      
   ICORE  =        2    local potential                                         
   LCOR   =        T    correct aug charges                                     
   LPAW   =        T    paw PP                                                  
   EAUG   =  335.092                                                            
   DEXC   =     .000                                                            
   RMAX   =    2.867    core radius for proj-oper                               
   RAUG   =    1.300    factor for augmentation sphere                          
   RDEP   =    1.954    radius for radial grids                                 
   QCUT   =   -4.360; QGAM   =    8.721    optimization parameters              
                                                                                
   Description                                                                  
     l     E      TYP  RCUT    TYP  RCUT                                        
     0   .000     23  1.900                                                     
     0   .000     23  1.900                                                     
     1   .000     23  1.900                                                     
     1   .000     23  1.900                                                     
     2   .000     23  1.900                                                     
  local pseudopotential read in
  partial core-charges read in
  atomic valenz-charges read in
  non local Contribution for L=           0  read in
    real space projection operators read in
  non local Contribution for L=           0  read in
    real space projection operators read in
  non local Contribution for L=           1  read in
    real space projection operators read in
  non local Contribution for L=           1  read in
    real space projection operators read in
    PAW grid and wavefunctions read in
 
   number of l-projection  operators is LMAX  =           4
   number of lm-projection operators is LMMAX =           8
 

 ----------------------------------------------------------------------------- 
|                                                                             |
|  ADVICE TO THIS USER RUNNING 'VASP/VAMP'   (HEAR YOUR MASTER'S VOICE ...):  |
|                                                                             |
|      You have a (more or less) 'large supercell' and for larger cells       |
|      it might be more efficient to use real space projection operators      |
|      So try LREAL= Auto  in the INCAR   file.                               |
|      Mind: If you want to do a very accurate calculations keep the          |
|      reciprocal projection scheme          (i.e. LREAL=.FALSE.)             |
|                                                                             |
 ----------------------------------------------------------------------------- 

 PAW_PBE V 08Apr2002                    :
 energy of atom  1       EATOM= -170.8679
 kinetic energy error for atom=    0.0047 (will be added to EATOM!!)
 PAW_PBE Mo 08Apr2002                   :
 energy of atom  2       EATOM= -217.5180
 kinetic energy error for atom=    0.0215 (will be added to EATOM!!)
 PAW_PBE W 08Apr2002                    :
 energy of atom  3       EATOM= -204.6100
 kinetic energy error for atom=    0.0205 (will be added to EATOM!!)
  PAW_PBE S 17Jan2003                   :
 energy of atom  4       EATOM= -276.8230
 kinetic energy error for atom=    0.0122 (will be added to EATOM!!)
 
 
 POSCAR: crystal structure from VMoWS2 with Hexag
  positions in cartesian coordinates
  No initial velocities read in
 exchange correlation table for  LEXCH =        8
   RHO(1)=    0.500       N(1)  =     2000
   RHO(2)=  100.500       N(2)  =     4000
 


--------------------------------------------------------------------------------------------------------


 ion  position               nearest neighbor table
   1  0.667  0.667  0.000-  21 2.34  24 2.34  27 2.36  26 2.36  19 2.36  18 2.36
   2  0.000  0.667  0.000-  27 2.34  12 2.34  14 2.36  15 2.36  24 2.36  25 2.36
   3  0.000  0.000  0.000-  23 2.34  14 2.34  11 2.36  10 2.36  27 2.36  26 2.36
   4  0.333  0.333  0.000-  13 2.34  16 2.34  19 2.36  18 2.36  11 2.36  10 2.36   6 3.34   5 3.34
                             7 3.34   9 3.34
   5  0.333  0.000  0.000-  11 2.34  20 2.34  17 2.36  16 2.36  15 2.36  14 2.36   6 3.34   4 3.34
                             8 3.34   9 3.36
   6  0.333  0.667  0.000-  15 2.34  18 2.34  20 2.36  21 2.36  13 2.36  12 2.36   5 3.34   4 3.34
                             8 3.36   7 3.36
   7  1.000  0.333  0.000-  25 2.34  10 2.34  13 2.36  12 2.36  22 2.36  23 2.36   9 3.34   4 3.34
                             8 3.36   6 3.36
   8  0.667  0.000  0.000-  17 2.34  26 2.34  23 2.36  22 2.36  21 2.36  20 2.36   9 3.34   5 3.34
                             7 3.36   6 3.36
   9  0.667  0.333  0.000-  19 2.34  22 2.34  25 2.36  24 2.36  17 2.36  16 2.36   7 3.34   8 3.34
                             4 3.34   5 3.36
  10  0.111  0.222  0.955-   7 2.34   3 2.36   4 2.36
  11  0.222  0.111  0.045-   5 2.34   3 2.36   4 2.36
  12  0.111  0.556  0.955-   2 2.34   7 2.36   6 2.36
  13  0.222  0.444  0.045-   4 2.34   7 2.36   6 2.36
  14  0.111  0.889  0.955-   3 2.34   2 2.36   5 2.36
  15  0.222  0.777  0.045-   6 2.34   2 2.36   5 2.36
  16  0.444  0.222  0.955-   4 2.34   5 2.36   9 2.36
  17  0.556  0.111  0.045-   8 2.34   5 2.36   9 2.36
  18  0.444  0.556  0.955-   6 2.34   4 2.36   1 2.36
  19  0.556  0.444  0.045-   9 2.34   4 2.36   1 2.36
  20  0.444  0.889  0.955-   5 2.34   6 2.36   8 2.36
  21  0.556  0.777  0.045-   1 2.34   6 2.36   8 2.36
  22  0.777  0.222  0.955-   9 2.34   8 2.36   7 2.36
  23  0.889  0.111  0.045-   3 2.34   8 2.36   7 2.36
  24  0.777  0.556  0.955-   1 2.34   9 2.36   2 2.36
  25  0.889  0.444  0.045-   7 2.34   9 2.36   2 2.36
  26  0.777  0.889  0.955-   8 2.34   1 2.36   3 2.36
  27  0.889  0.777  0.045-   2 2.34   1 2.36   3 2.36
 

IMPORTANT INFORMATION: All symmetrisations will be switched off!
NOSYMM: (Re-)initialisation of all symmetry stuff for point group C_1.

 
 
 KPOINTS: K-POINTS 	#supercell of CrS2 in hexagona

Automatic generation of k-mesh.
Space group operators:
 irot       det(A)        alpha          n_x          n_y          n_z        tau_x        tau_y        tau_z
    1     1.000000     0.000000     1.000000     0.000000     0.000000     0.000000     0.000000     0.000000
 
 Subroutine IBZKPT returns following result:
 ===========================================
 
 Found     34 irreducible k-points:
 
 Following reciprocal coordinates:
            Coordinates               Weight
  0.000000  0.000000  0.000000      1.000000
  0.125000  0.000000  0.000000      2.000000
  0.250000  0.000000  0.000000      2.000000
  0.375000  0.000000  0.000000      2.000000
  0.500000  0.000000  0.000000      1.000000
  0.000000  0.125000  0.000000      2.000000
  0.125000  0.125000  0.000000      2.000000
  0.250000  0.125000  0.000000      2.000000
  0.375000  0.125000  0.000000      2.000000
  0.500000  0.125000  0.000000      2.000000
 -0.375000  0.125000  0.000000      2.000000
 -0.250000  0.125000  0.000000      2.000000
 -0.125000  0.125000  0.000000      2.000000
  0.000000  0.250000  0.000000      2.000000
  0.125000  0.250000  0.000000      2.000000
  0.250000  0.250000  0.000000      2.000000
  0.375000  0.250000  0.000000      2.000000
  0.500000  0.250000  0.000000      2.000000
 -0.375000  0.250000  0.000000      2.000000
 -0.250000  0.250000  0.000000      2.000000
 -0.125000  0.250000  0.000000      2.000000
 -0.000000  0.375000  0.000000      2.000000
  0.125000  0.375000  0.000000      2.000000
  0.250000  0.375000  0.000000      2.000000
  0.375000  0.375000  0.000000      2.000000
  0.500000  0.375000  0.000000      2.000000
 -0.375000  0.375000  0.000000      2.000000
 -0.250000  0.375000  0.000000      2.000000
 -0.125000  0.375000  0.000000      2.000000
  0.000000  0.500000  0.000000      1.000000
  0.125000  0.500000  0.000000      2.000000
  0.250000  0.500000  0.000000      2.000000
  0.375000  0.500000  0.000000      2.000000
  0.500000  0.500000  0.000000      1.000000
 
 Following cartesian coordinates:
            Coordinates               Weight
  0.000000  0.000000  0.000000      1.000000
  0.007209  0.012401  0.000000      2.000000
  0.014418  0.024802  0.000000      2.000000
  0.021626  0.037202  0.000000      2.000000
  0.028835  0.049603  0.000000      1.000000
 -0.007209  0.012401  0.000000      2.000000
  0.000000  0.024802  0.000000      2.000000
  0.007209  0.037202  0.000000      2.000000
  0.014418  0.049603  0.000000      2.000000
  0.021626  0.062004  0.000000      2.000000
 -0.028835 -0.024802  0.000000      2.000000
 -0.021626 -0.012401  0.000000      2.000000
 -0.014418  0.000000  0.000000      2.000000
 -0.014418  0.024802  0.000000      2.000000
 -0.007209  0.037202  0.000000      2.000000
  0.000000  0.049603  0.000000      2.000000
  0.007209  0.062004  0.000000      2.000000
  0.014418  0.074405  0.000000      2.000000
 -0.036044 -0.012401  0.000000      2.000000
 -0.028835  0.000000  0.000000      2.000000
 -0.021626  0.012401  0.000000      2.000000
 -0.021626  0.037202  0.000000      2.000000
 -0.014418  0.049603  0.000000      2.000000
 -0.007209  0.062004  0.000000      2.000000
  0.000000  0.074405  0.000000      2.000000
  0.007209  0.086806  0.000000      2.000000
 -0.043253  0.000000  0.000000      2.000000
 -0.036044  0.012401  0.000000      2.000000
 -0.028835  0.024802  0.000000      2.000000
 -0.028835  0.049603  0.000000      1.000000
 -0.021626  0.062004  0.000000      2.000000
 -0.014418  0.074405  0.000000      2.000000
 -0.007209  0.086806  0.000000      2.000000
  0.000000  0.099206  0.000000      1.000000
 


--------------------------------------------------------------------------------------------------------




 Dimension of arrays:
   k-points           NKPTS =     34   k-points in BZ     NKDIM =     34   number of bands    NBANDS=    120
   number of dos      NEDOS =    301   number of ions     NIONS =     27
   non local maximal  LDIM  =      6   non local SUM 2l+1 LMDIM =     18
   total plane-waves  NPLWV = 222264
   max r-space proj   IRMAX =      1   max aug-charges    IRDMAX=   5642
   dimension x,y,z NGX =    42 NGY =   42 NGZ =  126
   dimension x,y,z NGXF=    84 NGYF=   84 NGZF=  252
   support grid    NGXF=    84 NGYF=   84 NGZF=  252
   ions per type =               3   3   3  18
 NGX,Y,Z   is equivalent  to a cutoff of   6.96,  6.96,  6.98 a.u.
 NGXF,Y,Z  is equivalent  to a cutoff of  13.92, 13.92, 13.96 a.u.


 I would recommend the setting:
   dimension x,y,z NGX =    41 NGY =   41 NGZ =  123
 SYSTEM =  unknown system                          
 POSCAR =  crystal structure from VMoWS2 with Hexag

 Startparameter for this run:
   NWRITE =      2    write-flag & timer
   PREC   = normal    normal or accurate (medium, high low for compatibility)
   ISTART =      0    job   : 0-new  1-cont  2-samecut
   ICHARG =      2    charge: 1-file 2-atom 10-const
   ISPIN  =      1    spin polarized calculation?
   LNONCOLLINEAR =      F non collinear calculations
   LSORBIT =      F    spin-orbit coupling
   INIWAV =      1    electr: 0-lowe 1-rand  2-diag
   LASPH  =      F    aspherical Exc in radial PAW
   METAGGA=      F    non-selfconsistent MetaGGA calc.

 Electronic Relaxation 1
   ENCUT  =  280.0 eV  20.58 Ry    4.54 a.u.  13.68 13.68 40.93*2*pi/ulx,y,z
   ENINI  =  280.0     initial cutoff
   ENAUG  =  373.4 eV  augmentation charge cutoff
   NELM   =     60;   NELMIN=  2; NELMDL= -5     # of ELM steps 
   EDIFF  = 0.1E-03   stopping-criterion for ELM
   LREAL  =      F    real-space projection
   NLSPLINE    = F    spline interpolate recip. space projectors
   LCOMPAT=      F    compatible to vasp.4.4
   GGA_COMPAT  = T    GGA compatible to vasp.4.4-vasp.4.6
   LMAXPAW     = -100 max onsite density
   LMAXMIX     =    2 max onsite mixed and CHGCAR
   VOSKOWN=      0    Vosko Wilk Nusair interpolation
   ROPT   =    0.00000   0.00000   0.00000   0.00000
 Ionic relaxation
   EDIFFG = 0.1E-02   stopping-criterion for IOM
   NSW    =    100    number of steps for IOM
   NBLOCK =      1;   KBLOCK =    100    inner block; outer block 
   IBRION =      1    ionic relax: 0-MD 1-quasi-New 2-CG
   NFREE  =      0    steps in history (QN), initial steepest desc. (CG)
   ISIF   =      3    stress and relaxation
   IWAVPR =     11    prediction:  0-non 1-charg 2-wave 3-comb
   ISYM   =      0    0-nonsym 1-usesym 2-fastsym
   LCORR  =      T    Harris-Foulkes like correction to forces

   POTIM  = 0.5000    time-step for ionic-motion
   TEIN   =    0.0    initial temperature
   TEBEG  =    0.0;   TEEND  =   0.0 temperature during run
   SMASS  =  -3.00    Nose mass-parameter (am)
   estimated Nose-frequenzy (Omega)   =  0.10E-29 period in steps =****** mass=  -0.230E-26a.u.
   SCALEE = 1.0000    scale energy and forces
   NPACO  =    256;   APACO  = 16.0  distance and # of slots for P.C.
   PSTRESS=    0.0 pullay stress

  Mass of Ions in am
   POMASS =  50.94 95.94183.85 32.07
  Ionic Valenz
   ZVAL   =   5.00  6.00  6.00  6.00
  Atomic Wigner-Seitz radii
   RWIGS  =  -1.00 -1.00 -1.00 -1.00
  virtual crystal weights 
   VCA    =   1.00  1.00  1.00  1.00
   NELECT =     159.0000    total number of electrons
   NUPDOWN=      -1.0000    fix difference up-down

 DOS related values:
   EMIN   =  10.00;   EMAX   =-10.00  energy-range for DOS
   EFERMI =   0.00
   ISMEAR =     0;   SIGMA  =   0.20  broadening in eV -4-tet -1-fermi 0-gaus

 Electronic relaxation 2 (details)
   IALGO  =     38    algorithm
   LDIAG  =      T    sub-space diagonalisation (order eigenvalues)
   LSUBROT=      F    optimize rotation matrix (better conditioning)
   TURBO    =      0    0=normal 1=particle mesh
   IRESTART =      0    0=no restart 2=restart with 2 vectors
   NREBOOT  =      0    no. of reboots
   NMIN     =      0    reboot dimension
   EREF     =   0.00    reference energy to select bands
   IMIX   =      4    mixing-type and parameters
     AMIX     =   0.40;   BMIX     =  1.00
     AMIX_MAG =   1.60;   BMIX_MAG =  1.00
     AMIN     =   0.10
     WC   =   100.;   INIMIX=   1;  MIXPRE=   1;  MAXMIX= -45

 Intra band minimization:
   WEIMIN = 0.0010     energy-eigenvalue tresh-hold
   EBREAK =  0.21E-06  absolut break condition
   DEPER  =   0.30     relativ break condition  

   TIME   =   0.40     timestep for ELM

  volume/ion in A,a.u.               =      97.10       655.29
  Fermi-wavevector in a.u.,A,eV,Ry     =   0.643191  1.215456  5.628665  0.413695
  Thomas-Fermi vector in A             =   1.710110
 
 Write flags
   LWAVE  =      F    write WAVECAR
   LCHARG =      F    write CHGCAR
   LVTOT  =      F    write LOCPOT, total local potential
   LVHAR  =      F    write LOCPOT, Hartree potential only
   LELF   =      F    write electronic localiz. function (ELF)
   LORBIT =      0    0 simple, 1 ext, 2 COOP (PROOUT)


 Dipole corrections
   LMONO  =      F    monopole corrections only (constant potential shift)
   LDIPOL =      F    correct potential (dipole corrections)
   IDIPOL =      0    1-x, 2-y, 3-z, 4-all directions 
   EPSILON=  1.0000000 bulk dielectric constant

 Exchange correlation treatment:
   GGA     =    --    GGA type
   LEXCH   =     8    internal setting for exchange type
   VOSKOWN=      0    Vosko Wilk Nusair interpolation
   LHFCALC =     F    Hartree Fock is set to
   LHFONE  =     F    Hartree Fock one center treatment
   AEXX    =    0.0000 exact exchange contribution

 Linear response parameters
   LEPSILON=     F    determine dielectric tensor
   LRPA    =     F    only Hartree local field effects (RPA)
   LNABLA  =     F    use nabla operator in PAW spheres
   LVEL    =     F    velocity operator in full k-point grid
   LINTERFAST=   F  fast interpolation
   KINTER  =     0    interpolate to denser k-point grid
   CSHIFT  =0.1000    complex shift for real part using Kramers Kronig
   OMEGAMAX=  -1.0    maximum frequency
   DEG_THRESHOLD= 0.2000000E-02 threshold for treating states as degnerate
   RTIME   =    0.100 relaxation time in fs

 Orbital magnetization related:
   ORBITALMAG=     F  switch on orbital magnetization
   LCHIMAG   =     F  perturbation theory with respect to B field
   DQ        =  0.001000  dq finite difference perturbation B field



--------------------------------------------------------------------------------------------------------


 quasi-Newton-method for relaxation of ions
 charge density and potential will be updated during run
 non-spin polarized calculation
 Variant of blocked Davidson
 Davidson routine will perform the subspace rotation
 perform sub-space diagonalisation
    after iterative eigenvector-optimisation
 modified Broyden-mixing scheme, WC =      100.0
 initial mixing is a Kerker type mixing with AMIX =  0.4000 and BMIX =      1.0000
 Hartree-type preconditioning will be used
 using additional bands           40
 reciprocal scheme for non local part
 use partial core corrections
 calculate Harris-corrections to forces 
   (improved forces if not selfconsistent)
 use gradient corrections 
 use of overlap-Matrix (Vanderbilt PP)
 Gauss-broadening in eV      SIGMA  =   0.20


--------------------------------------------------------------------------------------------------------


  energy-cutoff  :      280.00
  volume of cell :     2621.81
      direct lattice vectors                 reciprocal lattice vectors
     8.669999960  5.039999894  0.000000000     0.057670129  0.099206348  0.000000000
    -8.669999821  5.040000133  0.000000000    -0.057670126  0.099206350  0.000000000
     0.000000000  0.000000000 30.000000000     0.000000000  0.000000000  0.033333333

  length of vectors
    10.028484344 10.028484344 30.000000000     0.114750788  0.114750788  0.033333333


 
 k-points in units of 2pi/SCALE and weight: K-POINTS 	#supercell of CrS2 in hexagona
   0.00000000  0.00000000  0.00000000       0.016
   0.00720877  0.01240079  0.00000000       0.031
   0.01441753  0.02480159  0.00000000       0.031
   0.02162630  0.03720238  0.00000000       0.031
   0.02883506  0.04960317  0.00000000       0.016
  -0.00720877  0.01240079  0.00000000       0.031
   0.00000000  0.02480159  0.00000000       0.031
   0.00720877  0.03720238  0.00000000       0.031
   0.01441753  0.04960317  0.00000000       0.031
   0.02162630  0.06200397  0.00000000       0.031
  -0.02883506 -0.02480159  0.00000000       0.031
  -0.02162630 -0.01240079  0.00000000       0.031
  -0.01441753  0.00000000  0.00000000       0.031
  -0.01441753  0.02480159  0.00000000       0.031
  -0.00720877  0.03720238  0.00000000       0.031
   0.00000000  0.04960317  0.00000000       0.031
   0.00720877  0.06200397  0.00000000       0.031
   0.01441753  0.07440476  0.00000000       0.031
  -0.03604383 -0.01240079  0.00000000       0.031
  -0.02883506  0.00000000  0.00000000       0.031
  -0.02162630  0.01240079  0.00000000       0.031
  -0.02162630  0.03720238  0.00000000       0.031
  -0.01441753  0.04960317  0.00000000       0.031
  -0.00720877  0.06200397  0.00000000       0.031
   0.00000000  0.07440476  0.00000000       0.031
   0.00720877  0.08680556  0.00000000       0.031
  -0.04325260  0.00000000  0.00000000       0.031
  -0.03604383  0.01240079  0.00000000       0.031
  -0.02883506  0.02480159  0.00000000       0.031
  -0.02883506  0.04960317  0.00000000       0.016
  -0.02162630  0.06200397  0.00000000       0.031
  -0.01441753  0.07440476  0.00000000       0.031
  -0.00720876  0.08680556  0.00000000       0.031
   0.00000000  0.09920635  0.00000000       0.016
 
 k-points in reciprocal lattice and weights: K-POINTS 	#supercell of CrS2 in hexagona
   0.00000000  0.00000000  0.00000000       0.016
   0.12500000  0.00000000  0.00000000       0.031
   0.25000000  0.00000000  0.00000000       0.031
   0.37500000  0.00000000  0.00000000       0.031
   0.50000000  0.00000000  0.00000000       0.016
   0.00000000  0.12500000  0.00000000       0.031
   0.12500000  0.12500000  0.00000000       0.031
   0.25000000  0.12500000  0.00000000       0.031
   0.37500000  0.12500000  0.00000000       0.031
   0.50000000  0.12500000  0.00000000       0.031
  -0.37500000  0.12500000  0.00000000       0.031
  -0.25000000  0.12500000  0.00000000       0.031
  -0.12500000  0.12500000  0.00000000       0.031
   0.00000000  0.25000000  0.00000000       0.031
   0.12500000  0.25000000  0.00000000       0.031
   0.25000000  0.25000000  0.00000000       0.031
   0.37500000  0.25000000  0.00000000       0.031
   0.50000000  0.25000000  0.00000000       0.031
  -0.37500000  0.25000000  0.00000000       0.031
  -0.25000000  0.25000000  0.00000000       0.031
  -0.12500000  0.25000000  0.00000000       0.031
  -0.00000000  0.37500000  0.00000000       0.031
   0.12500000  0.37500000  0.00000000       0.031
   0.25000000  0.37500000  0.00000000       0.031
   0.37500000  0.37500000  0.00000000       0.031
   0.50000000  0.37500000  0.00000000       0.031
  -0.37500000  0.37500000  0.00000000       0.031
  -0.25000000  0.37500000  0.00000000       0.031
  -0.12500000  0.37500000  0.00000000       0.031
   0.00000000  0.50000000  0.00000000       0.016
   0.12500000  0.50000000  0.00000000       0.031
   0.25000000  0.50000000  0.00000000       0.031
   0.37500000  0.50000000  0.00000000       0.031
   0.50000000  0.50000000  0.00000000       0.016
 
 position of ions in fractional coordinates (direct lattice) 
   0.66666669  0.66666669  0.00000000
   0.00000000  0.66666669  0.00000000
   0.00000000  0.00000000  0.00000000
   0.33333334  0.33333334  0.00000000
   0.33333334  0.00000000  0.00000000
   0.33333334  0.66666669  0.00000000
   1.00000000  0.33333334  0.00000000
   0.66666669  0.00000000  0.00000000
   0.66666669  0.33333334  0.00000000
   0.11068511  0.22244981  0.95539999
   0.22244981  0.11068511  0.04460000
   0.11068511  0.55578315  0.95539999
   0.22244981  0.44401845  0.04460000
   0.11068511  0.88911647  0.95539999
   0.22244981  0.77735180  0.04460000
   0.44401845  0.22244981  0.95539999
   0.55578315  0.11068511  0.04460000
   0.44401845  0.55578315  0.95539999
   0.55578315  0.44401845  0.04460000
   0.44401845  0.88911647  0.95539999
   0.55578315  0.77735180  0.04460000
   0.77735180  0.22244981  0.95539999
   0.88911647  0.11068511  0.04460000
   0.77735180  0.55578315  0.95539999
   0.88911647  0.44401845  0.04460000
   0.77735180  0.88911647  0.95539999
   0.88911647  0.77735180  0.04460000
 
 position of ions in cartesian coordinates  (Angst):
   0.00000009  6.72000022  0.00000000
  -5.78000005  3.36000019  0.00000000
   0.00000000  0.00000000  0.00000000
   0.00000005  3.36000011  0.00000000
   2.89000007  1.68000002  0.00000000
  -2.88999998  5.04000020  0.00000000
   5.77999993  6.71999999  0.00000000
   5.78000015  3.36000003  0.00000000
   2.89000012  5.04000012  0.00000000
  -0.96899991  1.67900001 28.66199970
   0.96899995  1.67899998  1.33799996
  -3.85899993  3.35900011 28.66199970
  -1.92100007  3.35900008  1.33799996
  -6.74899970  5.03900005 28.66199970
  -4.81100010  5.03900017  1.33799996
   1.92100017  3.35900003 28.66199970
   3.85900003  3.35900000  1.33799996
  -0.96899986  5.03900012 28.66199970
   0.96900000  5.03900009  1.33799996
  -3.85899963  6.71900006 28.66199970
  -1.92100003  6.71900019  1.33799996
   4.81100024  5.03900004 28.66199970
   6.74899984  5.03899987  1.33799996
   1.92100021  6.71900014 28.66199970
   3.85899981  6.71899996  1.33799996
  -0.96899956  8.39900008 28.66199970
   0.96899979  8.39900005  1.33799996
 


--------------------------------------------------------------------------------------------------------


 k-point  1 :   0.0000 0.0000 0.0000  plane waves:   27959
 k-point  2 :   0.1250 0.0000 0.0000  plane waves:   27889
 k-point  3 :   0.2500 0.0000 0.0000  plane waves:   27875
 k-point  4 :   0.3750 0.0000 0.0000  plane waves:   27893
 k-point  5 :   0.5000 0.0000 0.0000  plane waves:   27932
 k-point  6 :   0.0000 0.1250 0.0000  plane waves:   27889
 k-point  7 :   0.1250 0.1250 0.0000  plane waves:   27906
 k-point  8 :   0.2500 0.1250 0.0000  plane waves:   27898
 k-point  9 :   0.3750 0.1250 0.0000  plane waves:   27888
 k-point 10 :   0.5000 0.1250 0.0000  plane waves:   27873
 k-point 11 :  -0.3750 0.1250 0.0000  plane waves:   27874
 k-point 12 :  -0.2500 0.1250 0.0000  plane waves:   27895
 k-point 13 :  -0.1250 0.1250 0.0000  plane waves:   27879
 k-point 14 :   0.0000 0.2500 0.0000  plane waves:   27875
 k-point 15 :   0.1250 0.2500 0.0000  plane waves:   27898
 k-point 16 :   0.2500 0.2500 0.0000  plane waves:   27920
 k-point 17 :   0.3750 0.2500 0.0000  plane waves:   27901
 k-point 18 :   0.5000 0.2500 0.0000  plane waves:   27875
 k-point 19 :  -0.3750 0.2500 0.0000  plane waves:   27894
 k-point 20 :  -0.2500 0.2500 0.0000  plane waves:   27870
 k-point 21 :  -0.1250 0.2500 0.0000  plane waves:   27895
 k-point 22 :  -0.0000 0.3750 0.0000  plane waves:   27893
 k-point 23 :   0.1250 0.3750 0.0000  plane waves:   27888
 k-point 24 :   0.2500 0.3750 0.0000  plane waves:   27901
 k-point 25 :   0.3750 0.3750 0.0000  plane waves:   27860
 k-point 26 :   0.5000 0.3750 0.0000  plane waves:   27895
 k-point 27 :  -0.3750 0.3750 0.0000  plane waves:   27858
 k-point 28 :  -0.2500 0.3750 0.0000  plane waves:   27894
 k-point 29 :  -0.1250 0.3750 0.0000  plane waves:   27874
 k-point 30 :   0.0000 0.5000 0.0000  plane waves:   27932
 k-point 31 :   0.1250 0.5000 0.0000  plane waves:   27873
 k-point 32 :   0.2500 0.5000 0.0000  plane waves:   27875
 k-point 33 :   0.3750 0.5000 0.0000  plane waves:   27895
 k-point 34 :   0.5000 0.5000 0.0000  plane waves:   27910

 maximum and minimum number of plane-waves per node :     27959    27858

 maximum number of plane-waves:     27959
 maximum index in each direction: 
   IXMAX=   14   IYMAX=   13   IZMAX=   40
   IXMIN=  -14   IYMIN=  -14   IZMIN=  -40

 WARNING: aliasing errors must be expected set NGX to  58 to avoid them
 WARNING: aliasing errors must be expected set NGY to  56 to avoid them
 WARNING: aliasing errors must be expected set NGZ to 162 to avoid them
 aliasing errors are usually negligible using standard VASP settings
 and one can safely disregard these warnings

 serial   3D FFT for wavefunctions

 total amount of memory used by VASP on root node   650782. kBytes
========================================================================

   base      :      30000. kBytes
   nonl-proj :     559647. kBytes
   fftplans  :       2414. kBytes
   grid      :      12150. kBytes
   one-center:        419. kBytes
   wavefun   :      46152. kBytes
 
     INWAV:  cpu time    0.0000: real time    0.0000
 Broyden mixing: mesh for mixing (old mesh)
   NGX = 27   NGY = 27   NGZ = 81
  (NGX  = 84   NGY  = 84   NGZ  =252)
  gives a total of  59049 points

 initial charge density was supplied:
 charge density of overlapping atoms calculated
 number of electron     159.0000000 magnetization 
 keeping initial charge density in first step


--------------------------------------------------------------------------------------------------------


 Maximum index for augmentation-charges          146 (set IRDMAX)


--------------------------------------------------------------------------------------------------------


 First call to EWALD:  gamma=   0.129
 Maximum number of real-space cells 4x 4x 2
 Maximum number of reciprocal cells 2x 2x 5

 FEWALD executed in parallel
    FEWALD:  cpu time    0.0016: real time    0.0016


----------------------------------------- Iteration    1(   1)  ---------------------------------------


    POTLOK:  cpu time    0.0400: real time    0.0402
    SETDIJ:  cpu time    0.0042: real time    0.0042
     EDDAV:  cpu time   22.8898: real time   22.9507
       DOS:  cpu time    0.0014: real time    0.0015
    --------------------------------------------
      LOOP:  cpu time   22.9412: real time   23.0037

 eigenvalue-minimisations  :  8160
 total energy-change (2. order) : 0.1125591E+04  (-0.3598244E+04)
 number of electron     159.0000000 magnetization 
 augmentation part      159.0000000 magnetization 

 Free energy of the ion-electron system (eV)
  ---------------------------------------------------
  alpha Z        PSCENC =        81.65567618
  Ewald energy   TEWEN  =     41891.17176702
  -Hartree energ DENC   =    -47723.81766623
  -exchange      EXHF   =         0.00000000
  -V(xc)+E(xc)   XCENC  =      -242.92468730
  PAW double counting   =      3467.42045192    -2871.19716117
  entropy T*S    EENTRO =        -0.55010383
  eigenvalues    EBANDS =      -237.61010497
  atomic energy  EATOM  =      6761.44252427
  Solvation  Ediel_sol  =         0.00000000
  ---------------------------------------------------
  free energy    TOTEN  =      1125.59069588 eV

  energy without entropy =     1126.14079971  energy(sigma->0) =     1125.86574780


--------------------------------------------------------------------------------------------------------




----------------------------------------- Iteration    1(   2)  ---------------------------------------


     EDDAV:  cpu time   29.7874: real time   29.8593
       DOS:  cpu time    0.0010: real time    0.0010
    --------------------------------------------
      LOOP:  cpu time   29.7894: real time   29.8677

 eigenvalue-minimisations  : 11280
 total energy-change (2. order) :-0.1127554E+04  (-0.1086436E+04)
 number of electron     159.0000000 magnetization 
 augmentation part      159.0000000 magnetization 

 Free energy of the ion-electron system (eV)
  ---------------------------------------------------
  alpha Z        PSCENC =        81.65567618
  Ewald energy   TEWEN  =     41891.17176702
  -Hartree energ DENC   =    -47723.81766623
  -exchange      EXHF   =         0.00000000
  -V(xc)+E(xc)   XCENC  =      -242.92468730
  PAW double counting   =      3467.42045192    -2871.19716117
  entropy T*S    EENTRO =        -0.21179081
  eigenvalues    EBANDS =     -1365.50271965
  atomic energy  EATOM  =      6761.44252427
  Solvation  Ediel_sol  =         0.00000000
  ---------------------------------------------------
  free energy    TOTEN  =        -1.96360577 eV

  energy without entropy =       -1.75181496  energy(sigma->0) =       -1.85771037


--------------------------------------------------------------------------------------------------------




----------------------------------------- Iteration    1(   3)  ---------------------------------------


     EDDAV:  cpu time   28.9227: real time   28.9933
       DOS:  cpu time    0.0010: real time    0.0010
    --------------------------------------------
      LOOP:  cpu time   28.9258: real time   29.0007

 eigenvalue-minimisations  : 10880
 total energy-change (2. order) :-0.1977059E+03  (-0.1899528E+03)
 number of electron     159.0000000 magnetization 
 augmentation part      159.0000000 magnetization 

 Free energy of the ion-electron system (eV)
  ---------------------------------------------------
  alpha Z        PSCENC =        81.65567618
  Ewald energy   TEWEN  =     41891.17176702
  -Hartree energ DENC   =    -47723.81766623
  -exchange      EXHF   =         0.00000000
  -V(xc)+E(xc)   XCENC  =      -242.92468730
  PAW double counting   =      3467.42045192    -2871.19716117
  entropy T*S    EENTRO =        -0.24861039
  eigenvalues    EBANDS =     -1563.17178187
  atomic energy  EATOM  =      6761.44252427
  Solvation  Ediel_sol  =         0.00000000
  ---------------------------------------------------
  free energy    TOTEN  =      -199.66948757 eV

  energy without entropy =     -199.42087719  energy(sigma->0) =     -199.54518238


--------------------------------------------------------------------------------------------------------




----------------------------------------- Iteration    1(   4)  ---------------------------------------


     EDDAV:  cpu time   31.8882: real time   31.9650
       DOS:  cpu time    0.0010: real time    0.0010
    --------------------------------------------
      LOOP:  cpu time   31.8904: real time   31.9716

 eigenvalue-minimisations  : 12280
 total energy-change (2. order) :-0.9328454E+01  (-0.9042076E+01)
 number of electron     159.0000000 magnetization 
 augmentation part      159.0000000 magnetization 

 Free energy of the ion-electron system (eV)
  ---------------------------------------------------
  alpha Z        PSCENC =        81.65567618
  Ewald energy   TEWEN  =     41891.17176702
  -Hartree energ DENC   =    -47723.81766623
  -exchange      EXHF   =         0.00000000
  -V(xc)+E(xc)   XCENC  =      -242.92468730
  PAW double counting   =      3467.42045192    -2871.19716117
  entropy T*S    EENTRO =        -0.29090919
  eigenvalues    EBANDS =     -1572.45793732
  atomic energy  EATOM  =      6761.44252427
  Solvation  Ediel_sol  =         0.00000000
  ---------------------------------------------------
  free energy    TOTEN  =      -208.99794183 eV

  energy without entropy =     -208.70703263  energy(sigma->0) =     -208.85248723


--------------------------------------------------------------------------------------------------------




----------------------------------------- Iteration    1(   5)  ---------------------------------------


     EDDAV:  cpu time   29.3533: real time   29.4236
       DOS:  cpu time    0.0010: real time    0.0010
    CHARGE:  cpu time    0.4613: real time    0.4626
    MIXING:  cpu time    0.0018: real time    0.0020
    --------------------------------------------
      LOOP:  cpu time   29.8183: real time   29.8953

 eigenvalue-minimisations  : 11120
 total energy-change (2. order) :-0.3061172E+00  (-0.3051792E+00)
 number of electron     159.0000110 magnetization 
 augmentation part       -9.8041583 magnetization 

 Broyden mixing:
  rms(total) = 0.27507E+01    rms(broyden)= 0.27503E+01
  rms(prec ) = 0.29366E+01
  weight for this iteration     100.00

 Free energy of the ion-electron system (eV)
  ---------------------------------------------------
  alpha Z        PSCENC =        81.65567618
  Ewald energy   TEWEN  =     41891.17176702
  -Hartree energ DENC   =    -47723.81766623
  -exchange      EXHF   =         0.00000000
  -V(xc)+E(xc)   XCENC  =      -242.92468730
  PAW double counting   =      3467.42045192    -2871.19716117
  entropy T*S    EENTRO =        -0.28820136
  eigenvalues    EBANDS =     -1572.76676240
  atomic energy  EATOM  =      6761.44252427
  Solvation  Ediel_sol  =         0.00000000
  ---------------------------------------------------
  free energy    TOTEN  =      -209.30405907 eV

  energy without entropy =     -209.01585771  energy(sigma->0) =     -209.15995839


--------------------------------------------------------------------------------------------------------




----------------------------------------- Iteration    1(   6)  ---------------------------------------


    POTLOK:  cpu time    0.0359: real time    0.0360
    SETDIJ:  cpu time    0.0036: real time    0.0036
     EDDAV:  cpu time   32.7415: real time   32.8205
       DOS:  cpu time    0.0011: real time    0.0011
    CHARGE:  cpu time    0.4609: real time    0.4620
    MIXING:  cpu time    0.0022: real time    0.0031
    --------------------------------------------
      LOOP:  cpu time   33.2461: real time   33.3339

 eigenvalue-minimisations  : 12720
 total energy-change (2. order) :-0.2856178E+02  (-0.1080170E+02)
 number of electron     159.0000107 magnetization 
 augmentation part        7.0784788 magnetization 

 Broyden mixing:
  rms(total) = 0.59485E+01    rms(broyden)= 0.59479E+01
  rms(prec ) = 0.65598E+01
  weight for this iteration     100.00

 eigenvalues of (default mixing * dielectric matrix)
  average eigenvalue GAMMA=   0.2937
  0.2937

 Free energy of the ion-electron system (eV)
  ---------------------------------------------------
  alpha Z        PSCENC =        81.65567618
  Ewald energy   TEWEN  =     41891.17176702
  -Hartree energ DENC   =    -47702.18946494
  -exchange      EXHF   =         0.00000000
  -V(xc)+E(xc)   XCENC  =      -233.61870351
  PAW double counting   =      3676.48491304    -3082.57624352
  entropy T*S    EENTRO =        -0.25236719
  eigenvalues    EBANDS =     -1629.98394350
  atomic energy  EATOM  =      6761.44252427
  Solvation  Ediel_sol  =         0.00000000
  ---------------------------------------------------
  free energy    TOTEN  =      -237.86584215 eV

  energy without entropy =     -237.61347496  energy(sigma->0) =     -237.73965856


--------------------------------------------------------------------------------------------------------




----------------------------------------- Iteration    1(   7)  ---------------------------------------


    POTLOK:  cpu time    0.0336: real time    0.0337
    SETDIJ:  cpu time    0.0035: real time    0.0035
     EDDAV:  cpu time   34.7057: real time   34.7895
       DOS:  cpu time    0.0011: real time    0.0011
    CHARGE:  cpu time    0.5527: real time    0.5540
    MIXING:  cpu time    0.0013: real time    0.0013
    --------------------------------------------
      LOOP:  cpu time   35.2988: real time   35.3918

 eigenvalue-minimisations  : 13560
 total energy-change (2. order) : 0.4129350E+02  (-0.1750218E+02)
 number of electron     159.0000088 magnetization 
 augmentation part       -6.2611661 magnetization 

 Broyden mixing:
  rms(total) = 0.20022E+01    rms(broyden)= 0.20003E+01
  rms(prec ) = 0.22239E+01
  weight for this iteration     100.00

 eigenvalues of (default mixing * dielectric matrix)
  average eigenvalue GAMMA=   0.5520
  0.8929  0.2112

 Free energy of the ion-electron system (eV)
  ---------------------------------------------------
  alpha Z        PSCENC =        81.65567618
  Ewald energy   TEWEN  =     41891.17176702
  -Hartree energ DENC   =    -47739.19339152
  -exchange      EXHF   =         0.00000000
  -V(xc)+E(xc)   XCENC  =      -234.98978692
  PAW double counting   =      3763.75010077    -3177.78437214
  entropy T*S    EENTRO =        -0.35590119
  eigenvalues    EBANDS =     -1542.26895934
  atomic energy  EATOM  =      6761.44252427
  Solvation  Ediel_sol  =         0.00000000
  ---------------------------------------------------
  free energy    TOTEN  =      -196.57234288 eV

  energy without entropy =     -196.21644169  energy(sigma->0) =     -196.39439228


--------------------------------------------------------------------------------------------------------




----------------------------------------- Iteration    1(   8)  ---------------------------------------


    POTLOK:  cpu time    0.0322: real time    0.0326
    SETDIJ:  cpu time    0.0034: real time    0.0035
     EDDAV:  cpu time   31.4169: real time   31.4920
       DOS:  cpu time    0.0012: real time    0.0012
    CHARGE:  cpu time    0.5597: real time    0.5610
    MIXING:  cpu time    0.0015: real time    0.0019
    --------------------------------------------
      LOOP:  cpu time   32.0161: real time   32.0999

 eigenvalue-minimisations  : 12080
 total energy-change (2. order) : 0.7099720E+01  (-0.1764212E+01)
 number of electron     159.0000095 magnetization 
 augmentation part       -6.3738820 magnetization 

 Broyden mixing:
  rms(total) = 0.12525E+01    rms(broyden)= 0.12522E+01
  rms(prec ) = 0.13529E+01
  weight for this iteration     100.00

 eigenvalues of (default mixing * dielectric matrix)
  average eigenvalue GAMMA=   0.5860
  1.1353  0.2312  0.3915

 Free energy of the ion-electron system (eV)
  ---------------------------------------------------
  alpha Z        PSCENC =        81.65567618
  Ewald energy   TEWEN  =     41891.17176702
  -Hartree energ DENC   =    -47762.31435711
  -exchange      EXHF   =         0.00000000
  -V(xc)+E(xc)   XCENC  =      -235.00640747
  PAW double counting   =      3907.06458271    -3322.72877755
  entropy T*S    EENTRO =        -0.31146789
  eigenvalues    EBANDS =     -1510.44616324
  atomic energy  EATOM  =      6761.44252427
  Solvation  Ediel_sol  =         0.00000000
  ---------------------------------------------------
  free energy    TOTEN  =      -189.47262307 eV

  energy without entropy =     -189.16115518  energy(sigma->0) =     -189.31688912


--------------------------------------------------------------------------------------------------------




----------------------------------------- Iteration    1(   9)  ---------------------------------------


    POTLOK:  cpu time    0.0311: real time    0.0324
    SETDIJ:  cpu time    0.0033: real time    0.0033
     EDDAV:  cpu time   34.6944: real time   34.7781
       DOS:  cpu time    0.0010: real time    0.0010
    CHARGE:  cpu time    0.5651: real time    0.5665
    MIXING:  cpu time    0.0014: real time    0.0014
    --------------------------------------------
      LOOP:  cpu time   35.2984: real time   35.3897

 eigenvalue-minimisations  : 13560
 total energy-change (2. order) : 0.1344467E+01  (-0.3029317E+00)
 number of electron     159.0000091 magnetization 
 augmentation part       -5.5508683 magnetization 

 Broyden mixing:
  rms(total) = 0.91186E+00    rms(broyden)= 0.91163E+00
  rms(prec ) = 0.98911E+00
  weight for this iteration     100.00

 eigenvalues of (default mixing * dielectric matrix)
  average eigenvalue GAMMA=   0.7415
  1.8140  0.6216  0.2201  0.3103

 Free energy of the ion-electron system (eV)
  ---------------------------------------------------
  alpha Z        PSCENC =        81.65567618
  Ewald energy   TEWEN  =     41891.17176702
  -Hartree energ DENC   =    -47766.95971257
  -exchange      EXHF   =         0.00000000
  -V(xc)+E(xc)   XCENC  =      -234.11187094
  PAW double counting   =      3977.08840383    -3393.62442449
  entropy T*S    EENTRO =        -0.32133233
  eigenvalues    EBANDS =     -1504.46918666
  atomic energy  EATOM  =      6761.44252427
  Solvation  Ediel_sol  =         0.00000000
  ---------------------------------------------------
  free energy    TOTEN  =      -188.12815567 eV

  energy without entropy =     -187.80682335  energy(sigma->0) =     -187.96748951


--------------------------------------------------------------------------------------------------------




----------------------------------------- Iteration    1(  10)  ---------------------------------------


    POTLOK:  cpu time    0.0335: real time    0.0340
    SETDIJ:  cpu time    0.0034: real time    0.0034
     EDDAV:  cpu time   34.2906: real time   34.3726
       DOS:  cpu time    0.0011: real time    0.0011
    CHARGE:  cpu time    0.5750: real time    0.5763
    MIXING:  cpu time    0.0014: real time    0.0014
    --------------------------------------------
      LOOP:  cpu time   34.9064: real time   34.9979

 eigenvalue-minimisations  : 13400
 total energy-change (2. order) : 0.1192310E+01  (-0.1724581E+00)
 number of electron     159.0000092 magnetization 
 augmentation part       -4.2545035 magnetization 

 Broyden mixing:
  rms(total) = 0.21490E+00    rms(broyden)= 0.21432E+00
  rms(prec ) = 0.22677E+00
  weight for this iteration     100.00

 eigenvalues of (default mixing * dielectric matrix)
  average eigenvalue GAMMA=   0.8396
  1.8535  1.1942  0.6409  0.2205  0.2890

 Free energy of the ion-electron system (eV)
  ---------------------------------------------------
  alpha Z        PSCENC =        81.65567618
  Ewald energy   TEWEN  =     41891.17176702
  -Hartree energ DENC   =    -47780.18954057
  -exchange      EXHF   =         0.00000000
  -V(xc)+E(xc)   XCENC  =      -232.57346675
  PAW double counting   =      4105.42661598    -3523.56960827
  entropy T*S    EENTRO =        -0.35108762
  eigenvalues    EBANDS =     -1489.94872605
  atomic energy  EATOM  =      6761.44252427
  Solvation  Ediel_sol  =         0.00000000
  ---------------------------------------------------
  free energy    TOTEN  =      -186.93584582 eV

  energy without entropy =     -186.58475820  energy(sigma->0) =     -186.76030201


--------------------------------------------------------------------------------------------------------




----------------------------------------- Iteration    1(  11)  ---------------------------------------


    POTLOK:  cpu time    0.0323: real time    0.0324
    SETDIJ:  cpu time    0.0033: real time    0.0033
     EDDAV:  cpu time   34.7618: real time   34.8457
       DOS:  cpu time    0.0011: real time    0.0011
    CHARGE:  cpu time    0.5773: real time    0.5787
    MIXING:  cpu time    0.0015: real time    0.0015
    --------------------------------------------
      LOOP:  cpu time   35.3784: real time   35.4706

 eigenvalue-minimisations  : 13600
 total energy-change (2. order) :-0.8757304E-01  (-0.5857283E-01)
 number of electron     159.0000090 magnetization 
 augmentation part       -4.4503487 magnetization 

 Broyden mixing:
  rms(total) = 0.36694E+00    rms(broyden)= 0.36672E+00
  rms(prec ) = 0.40636E+00
  weight for this iteration     100.00

 eigenvalues of (default mixing * dielectric matrix)
  average eigenvalue GAMMA=   0.8550
  1.8637  1.8637  0.6387  0.2187  0.2831  0.2622

 Free energy of the ion-electron system (eV)
  ---------------------------------------------------
  alpha Z        PSCENC =        81.65567618
  Ewald energy   TEWEN  =     41891.17176702
  -Hartree energ DENC   =    -47790.13600458
  -exchange      EXHF   =         0.00000000
  -V(xc)+E(xc)   XCENC  =      -232.24286934
  PAW double counting   =      4151.83556150    -3570.09547592
  entropy T*S    EENTRO =        -0.33816754
  eigenvalues    EBANDS =     -1480.31643045
  atomic energy  EATOM  =      6761.44252427
  Solvation  Ediel_sol  =         0.00000000
  ---------------------------------------------------
  free energy    TOTEN  =      -187.02341886 eV

  energy without entropy =     -186.68525132  energy(sigma->0) =     -186.85433509


--------------------------------------------------------------------------------------------------------




----------------------------------------- Iteration    1(  12)  ---------------------------------------


    POTLOK:  cpu time    0.0335: real time    0.0336
    SETDIJ:  cpu time    0.0036: real time    0.0036
     EDDAV:  cpu time   33.0889: real time   33.1687
       DOS:  cpu time    0.0003: real time    0.0011
    CHARGE:  cpu time    0.5767: real time    0.5781
    MIXING:  cpu time    0.0015: real time    0.0015
    --------------------------------------------
      LOOP:  cpu time   33.7063: real time   33.7945

 eigenvalue-minimisations  : 12840
 total energy-change (2. order) : 0.7816734E-01  (-0.6874817E-01)
 number of electron     159.0000088 magnetization 
 augmentation part       -4.4527042 magnetization 

 Broyden mixing:
  rms(total) = 0.32298E+00    rms(broyden)= 0.32276E+00
  rms(prec ) = 0.35783E+00
  weight for this iteration     100.00

 eigenvalues of (default mixing * dielectric matrix)
  average eigenvalue GAMMA=   0.8074
  1.9641  1.9641  0.6384  0.4004  0.2984  0.2197  0.1665

 Free energy of the ion-electron system (eV)
  ---------------------------------------------------
  alpha Z        PSCENC =        81.65567618
  Ewald energy   TEWEN  =     41891.17176702
  -Hartree energ DENC   =    -47797.38188539
  -exchange      EXHF   =         0.00000000
  -V(xc)+E(xc)   XCENC  =      -232.04001965
  PAW double counting   =      4179.70686658    -3597.94776892
  entropy T*S    EENTRO =        -0.33225550
  eigenvalues    EBANDS =     -1473.22015611
  atomic energy  EATOM  =      6761.44252427
  Solvation  Ediel_sol  =         0.00000000
  ---------------------------------------------------
  free energy    TOTEN  =      -186.94525152 eV

  energy without entropy =     -186.61299602  energy(sigma->0) =     -186.77912377


--------------------------------------------------------------------------------------------------------




----------------------------------------- Iteration    1(  13)  ---------------------------------------


    POTLOK:  cpu time    0.0322: real time    0.0323
    SETDIJ:  cpu time    0.0033: real time    0.0033
     EDDAV:  cpu time   33.7710: real time   33.8518
       DOS:  cpu time    0.0010: real time    0.0010
    CHARGE:  cpu time    0.5781: real time    0.5795
    MIXING:  cpu time    0.0015: real time    0.0015
    --------------------------------------------
      LOOP:  cpu time   34.3882: real time   34.4782

 eigenvalue-minimisations  : 13160
 total energy-change (2. order) : 0.7948772E-01  (-0.2438033E-01)
 number of electron     159.0000088 magnetization 
 augmentation part       -4.3695104 magnetization 

 Broyden mixing:
  rms(total) = 0.18390E+00    rms(broyden)= 0.18376E+00
  rms(prec ) = 0.20625E+00
  weight for this iteration     100.00

 eigenvalues of (default mixing * dielectric matrix)
  average eigenvalue GAMMA=   0.7915
  2.2283  1.7372  0.8125  0.6353  0.2993  0.2200  0.2564  0.1428

 Free energy of the ion-electron system (eV)
  ---------------------------------------------------
  alpha Z        PSCENC =        81.65567618
  Ewald energy   TEWEN  =     41891.17176702
  -Hartree energ DENC   =    -47800.44551092
  -exchange      EXHF   =         0.00000000
  -V(xc)+E(xc)   XCENC  =      -231.95902928
  PAW double counting   =      4187.94774608    -3606.15819918
  entropy T*S    EENTRO =        -0.33559874
  eigenvalues    EBANDS =     -1470.18513924
  atomic energy  EATOM  =      6761.44252427
  Solvation  Ediel_sol  =         0.00000000
  ---------------------------------------------------
  free energy    TOTEN  =      -186.86576380 eV

  energy without entropy =     -186.53016507  energy(sigma->0) =     -186.69796444


--------------------------------------------------------------------------------------------------------




----------------------------------------- Iteration    1(  14)  ---------------------------------------


    POTLOK:  cpu time    0.0314: real time    0.0328
    SETDIJ:  cpu time    0.0035: real time    0.0035
     EDDAV:  cpu time   33.4962: real time   33.5769
       DOS:  cpu time    0.0011: real time    0.0011
    CHARGE:  cpu time    0.5769: real time    0.5783
    MIXING:  cpu time    0.0016: real time    0.0016
    --------------------------------------------
      LOOP:  cpu time   34.1130: real time   34.2026

 eigenvalue-minimisations  : 13040
 total energy-change (2. order) : 0.3859812E-01  (-0.9162226E-02)
 number of electron     159.0000089 magnetization 
 augmentation part       -4.1397762 magnetization 

 Broyden mixing:
  rms(total) = 0.60893E-01    rms(broyden)= 0.60699E-01
  rms(prec ) = 0.68698E-01
  weight for this iteration     100.00

 eigenvalues of (default mixing * dielectric matrix)
  average eigenvalue GAMMA=   0.7791
  2.2353  1.7974  0.9569  0.5878  0.5232  0.2981  0.2203  0.2521  0.1409

 Free energy of the ion-electron system (eV)
  ---------------------------------------------------
  alpha Z        PSCENC =        81.65567618
  Ewald energy   TEWEN  =     41891.17176702
  -Hartree energ DENC   =    -47804.04921701
  -exchange      EXHF   =         0.00000000
  -V(xc)+E(xc)   XCENC  =      -231.87473426
  PAW double counting   =      4191.90796243    -3610.06127864
  entropy T*S    EENTRO =        -0.34339900
  eigenvalues    EBANDS =     -1466.67646667
  atomic energy  EATOM  =      6761.44252427
  Solvation  Ediel_sol  =         0.00000000
  ---------------------------------------------------
  free energy    TOTEN  =      -186.82716568 eV

  energy without entropy =     -186.48376669  energy(sigma->0) =     -186.65546619


--------------------------------------------------------------------------------------------------------




----------------------------------------- Iteration    1(  15)  ---------------------------------------


    POTLOK:  cpu time    0.0324: real time    0.0325
    SETDIJ:  cpu time    0.0035: real time    0.0035
     EDDAV:  cpu time   30.6383: real time   30.7116
       DOS:  cpu time    0.0012: real time    0.0012
    CHARGE:  cpu time    0.5778: real time    0.5792
    MIXING:  cpu time    0.0018: real time    0.0018
    --------------------------------------------
      LOOP:  cpu time   31.2562: real time   31.3388

 eigenvalue-minimisations  : 11720
 total energy-change (2. order) : 0.3801372E-02  (-0.1057073E-02)
 number of electron     159.0000089 magnetization 
 augmentation part       -4.1623064 magnetization 

 Broyden mixing:
  rms(total) = 0.32780E-01    rms(broyden)= 0.32760E-01
  rms(prec ) = 0.37778E-01
  weight for this iteration     100.00

 eigenvalues of (default mixing * dielectric matrix)
  average eigenvalue GAMMA=   0.8080
  2.2759  1.9758  1.2179  0.6740  0.6740  0.3530  0.2982  0.2202  0.2497  0.1410

 Free energy of the ion-electron system (eV)
  ---------------------------------------------------
  alpha Z        PSCENC =        81.65567618
  Ewald energy   TEWEN  =     41891.17176702
  -Hartree energ DENC   =    -47806.89496910
  -exchange      EXHF   =         0.00000000
  -V(xc)+E(xc)   XCENC  =      -231.83256428
  PAW double counting   =      4193.03281031    -3611.14577545
  entropy T*S    EENTRO =        -0.34229356
  eigenvalues    EBANDS =     -1463.91053970
  atomic energy  EATOM  =      6761.44252427
  Solvation  Ediel_sol  =         0.00000000
  ---------------------------------------------------
  free energy    TOTEN  =      -186.82336431 eV

  energy without entropy =     -186.48107076  energy(sigma->0) =     -186.65221753


--------------------------------------------------------------------------------------------------------




----------------------------------------- Iteration    1(  16)  ---------------------------------------


    POTLOK:  cpu time    0.0309: real time    0.0323
    SETDIJ:  cpu time    0.0034: real time    0.0034
     EDDAV:  cpu time   32.9729: real time   33.0525
       DOS:  cpu time    0.0011: real time    0.0011
    CHARGE:  cpu time    0.5778: real time    0.5792
    MIXING:  cpu time    0.0018: real time    0.0018
    --------------------------------------------
      LOOP:  cpu time   33.5901: real time   33.6777

 eigenvalue-minimisations  : 12800
 total energy-change (2. order) :-0.1547648E-02  (-0.1111292E-02)
 number of electron     159.0000089 magnetization 
 augmentation part       -4.1986263 magnetization 

 Broyden mixing:
  rms(total) = 0.63865E-01    rms(broyden)= 0.63841E-01
  rms(prec ) = 0.70959E-01
  weight for this iteration     100.00

 eigenvalues of (default mixing * dielectric matrix)
  average eigenvalue GAMMA=   0.8003
  2.4111  2.1339  1.3931  0.7644  0.6548  0.4008  0.2985  0.2202  0.2506  0.1410
  0.1348

 Free energy of the ion-electron system (eV)
  ---------------------------------------------------
  alpha Z        PSCENC =        81.65567618
  Ewald energy   TEWEN  =     41891.17176702
  -Hartree energ DENC   =    -47811.13286284
  -exchange      EXHF   =         0.00000000
  -V(xc)+E(xc)   XCENC  =      -231.77676758
  PAW double counting   =      4194.39077745    -3612.45779142
  entropy T*S    EENTRO =        -0.34128409
  eigenvalues    EBANDS =     -1459.77695094
  atomic energy  EATOM  =      6761.44252427
  Solvation  Ediel_sol  =         0.00000000
  ---------------------------------------------------
  free energy    TOTEN  =      -186.82491196 eV

  energy without entropy =     -186.48362787  energy(sigma->0) =     -186.65426991


--------------------------------------------------------------------------------------------------------




----------------------------------------- Iteration    1(  17)  ---------------------------------------


    POTLOK:  cpu time    0.0329: real time    0.0332
    SETDIJ:  cpu time    0.0035: real time    0.0035
     EDDAV:  cpu time   33.4135: real time   33.4934
       DOS:  cpu time    0.0011: real time    0.0011
    CHARGE:  cpu time    0.5780: real time    0.5794
    MIXING:  cpu time    0.0019: real time    0.0019
    --------------------------------------------
      LOOP:  cpu time   34.0321: real time   34.1201

 eigenvalue-minimisations  : 13000
 total energy-change (2. order) : 0.3422351E-02  (-0.8284748E-03)
 number of electron     159.0000089 magnetization 
 augmentation part       -4.2155105 magnetization 

 Broyden mixing:
  rms(total) = 0.20272E-01    rms(broyden)= 0.20222E-01
  rms(prec ) = 0.23642E-01
  weight for this iteration     100.00

 eigenvalues of (default mixing * dielectric matrix)
  average eigenvalue GAMMA=   0.8204
  2.3051  2.3051  1.3566  1.1493  0.6591  0.6591  0.3771  0.2975  0.2202  0.2505
  0.1410  0.1243

 Free energy of the ion-electron system (eV)
  ---------------------------------------------------
  alpha Z        PSCENC =        81.65567618
  Ewald energy   TEWEN  =     41891.17176702
  -Hartree energ DENC   =    -47813.87018586
  -exchange      EXHF   =         0.00000000
  -V(xc)+E(xc)   XCENC  =      -231.74235514
  PAW double counting   =      4195.05741644    -3613.09775646
  entropy T*S    EENTRO =        -0.34092910
  eigenvalues    EBANDS =     -1457.09764696
  atomic energy  EATOM  =      6761.44252427
  Solvation  Ediel_sol  =         0.00000000
  ---------------------------------------------------
  free energy    TOTEN  =      -186.82148961 eV

  energy without entropy =     -186.48056051  energy(sigma->0) =     -186.65102506


--------------------------------------------------------------------------------------------------------




----------------------------------------- Iteration    1(  18)  ---------------------------------------


    POTLOK:  cpu time    0.0323: real time    0.0326
    SETDIJ:  cpu time    0.0033: real time    0.0033
     EDDAV:  cpu time   30.6049: real time   30.6784
       DOS:  cpu time    0.0011: real time    0.0011
    CHARGE:  cpu time    0.5781: real time    0.5795
    MIXING:  cpu time    0.0022: real time    0.0022
    --------------------------------------------
      LOOP:  cpu time   31.2232: real time   31.3064

 eigenvalue-minimisations  : 11720
 total energy-change (2. order) : 0.3958788E-03  (-0.1334685E-03)
 number of electron     159.0000089 magnetization 
 augmentation part       -4.1860611 magnetization 

 Broyden mixing:
  rms(total) = 0.65754E-02    rms(broyden)= 0.65621E-02
  rms(prec ) = 0.94530E-02
  weight for this iteration     100.00

 eigenvalues of (default mixing * dielectric matrix)
  average eigenvalue GAMMA=   0.8824
  2.4973  2.4973  1.5497  1.2625  0.9748  0.6404  0.6404  0.3751  0.2976  0.2202
  0.2505  0.1410  0.1241

 Free energy of the ion-electron system (eV)
  ---------------------------------------------------
  alpha Z        PSCENC =        81.65567618
  Ewald energy   TEWEN  =     41891.17176702
  -Hartree energ DENC   =    -47817.23396940
  -exchange      EXHF   =         0.00000000
  -V(xc)+E(xc)   XCENC  =      -231.71014524
  PAW double counting   =      4194.68807603    -3612.70804007
  entropy T*S    EENTRO =        -0.34159215
  eigenvalues    EBANDS =     -1453.78539038
  atomic energy  EATOM  =      6761.44252427
  Solvation  Ediel_sol  =         0.00000000
  ---------------------------------------------------
  free energy    TOTEN  =      -186.82109373 eV

  energy without entropy =     -186.47950158  energy(sigma->0) =     -186.65029766


--------------------------------------------------------------------------------------------------------




----------------------------------------- Iteration    1(  19)  ---------------------------------------


    POTLOK:  cpu time    0.0334: real time    0.0335
    SETDIJ:  cpu time    0.0034: real time    0.0034
     EDDAV:  cpu time   28.9008: real time   28.9699
       DOS:  cpu time    0.0012: real time    0.0012
    CHARGE:  cpu time    0.5769: real time    0.5784
    MIXING:  cpu time    0.0020: real time    0.0020
    --------------------------------------------
      LOOP:  cpu time   29.5187: real time   29.5961

 eigenvalue-minimisations  : 10960
 total energy-change (2. order) :-0.5693042E-03  (-0.8094973E-04)
 number of electron     159.0000089 magnetization 
 augmentation part       -4.1965186 magnetization 

 Broyden mixing:
  rms(total) = 0.84955E-02    rms(broyden)= 0.84892E-02
  rms(prec ) = 0.10506E-01
  weight for this iteration     100.00

 eigenvalues of (default mixing * dielectric matrix)
  average eigenvalue GAMMA=   0.8747
  2.6269  2.6269  1.6425  1.3368  1.0087  0.6457  0.6457  0.3753  0.2202  0.2505
  0.2975  0.3045  0.1410  0.1241

 Free energy of the ion-electron system (eV)
  ---------------------------------------------------
  alpha Z        PSCENC =        81.65567618
  Ewald energy   TEWEN  =     41891.17176702
  -Hartree energ DENC   =    -47822.21193692
  -exchange      EXHF   =         0.00000000
  -V(xc)+E(xc)   XCENC  =      -231.66904675
  PAW double counting   =      4193.54053615    -3611.54128715
  entropy T*S    EENTRO =        -0.34117665
  eigenvalues    EBANDS =     -1448.86871919
  atomic energy  EATOM  =      6761.44252427
  Solvation  Ediel_sol  =         0.00000000
  ---------------------------------------------------
  free energy    TOTEN  =      -186.82166303 eV

  energy without entropy =     -186.48048639  energy(sigma->0) =     -186.65107471


--------------------------------------------------------------------------------------------------------




----------------------------------------- Iteration    1(  20)  ---------------------------------------


    POTLOK:  cpu time    0.0340: real time    0.0341
    SETDIJ:  cpu time    0.0032: real time    0.0032
     EDDAV:  cpu time   23.0761: real time   23.1312
       DOS:  cpu time    0.0011: real time    0.0011
    CHARGE:  cpu time    0.5768: real time    0.5782
    MIXING:  cpu time    0.0022: real time    0.0022
    --------------------------------------------
      LOOP:  cpu time   23.6944: real time   23.7579

 eigenvalue-minimisations  :  8200
 total energy-change (2. order) :-0.3007986E-03  (-0.3523761E-04)
 number of electron     159.0000089 magnetization 
 augmentation part       -4.1977530 magnetization 

 Broyden mixing:
  rms(total) = 0.56332E-02    rms(broyden)= 0.56260E-02
  rms(prec ) = 0.70988E-02
  weight for this iteration     100.00

 eigenvalues of (default mixing * dielectric matrix)
  average eigenvalue GAMMA=   0.9533
  3.2862  2.5245  1.7665  1.7665  1.0037  1.0037  0.6432  0.6432  0.3754  0.2976
  0.2202  0.1410  0.2505  0.2535  0.1241

 Free energy of the ion-electron system (eV)
  ---------------------------------------------------
  alpha Z        PSCENC =        81.65567618
  Ewald energy   TEWEN  =     41891.17176702
  -Hartree energ DENC   =    -47824.36128304
  -exchange      EXHF   =         0.00000000
  -V(xc)+E(xc)   XCENC  =      -231.65240188
  PAW double counting   =      4193.09265070    -3611.08767772
  entropy T*S    EENTRO =        -0.34107739
  eigenvalues    EBANDS =     -1446.74214197
  atomic energy  EATOM  =      6761.44252427
  Solvation  Ediel_sol  =         0.00000000
  ---------------------------------------------------
  free energy    TOTEN  =      -186.82196383 eV

  energy without entropy =     -186.48088645  energy(sigma->0) =     -186.65142514


--------------------------------------------------------------------------------------------------------




----------------------------------------- Iteration    1(  21)  ---------------------------------------


    POTLOK:  cpu time    0.0322: real time    0.0325
    SETDIJ:  cpu time    0.0033: real time    0.0033
     EDDAV:  cpu time   23.6563: real time   23.7131
       DOS:  cpu time    0.0003: real time    0.0012
    CHARGE:  cpu time    0.5778: real time    0.5792
    MIXING:  cpu time    0.0022: real time    0.0022
    --------------------------------------------
      LOOP:  cpu time   24.2741: real time   24.3392

 eigenvalue-minimisations  :  8520
 total energy-change (2. order) :-0.1199280E-02  (-0.3002248E-04)
 number of electron     159.0000089 magnetization 
 augmentation part       -4.1893346 magnetization 

 Broyden mixing:
  rms(total) = 0.25219E-02    rms(broyden)= 0.25176E-02
  rms(prec ) = 0.33798E-02
  weight for this iteration     100.00

 eigenvalues of (default mixing * dielectric matrix)
  average eigenvalue GAMMA=   0.9928
  3.7511  2.4817  2.1363  1.6684  1.0811  1.0811  0.7548  0.6348  0.6348  0.3753
  0.2976  0.2202  0.1410  0.2505  0.2528  0.1241

 Free energy of the ion-electron system (eV)
  ---------------------------------------------------
  alpha Z        PSCENC =        81.65567618
  Ewald energy   TEWEN  =     41891.17176702
  -Hartree energ DENC   =    -47828.41644352
  -exchange      EXHF   =         0.00000000
  -V(xc)+E(xc)   XCENC  =      -231.62474289
  PAW double counting   =      4192.46030818    -3610.45288123
  entropy T*S    EENTRO =        -0.34118888
  eigenvalues    EBANDS =     -1442.71818225
  atomic energy  EATOM  =      6761.44252427
  Solvation  Ediel_sol  =         0.00000000
  ---------------------------------------------------
  free energy    TOTEN  =      -186.82316311 eV

  energy without entropy =     -186.48197423  energy(sigma->0) =     -186.65256867


--------------------------------------------------------------------------------------------------------




----------------------------------------- Iteration    1(  22)  ---------------------------------------


    POTLOK:  cpu time    0.0332: real time    0.0335
    SETDIJ:  cpu time    0.0035: real time    0.0035
     EDDAV:  cpu time   19.7599: real time   19.8072
       DOS:  cpu time    0.0011: real time    0.0011
    CHARGE:  cpu time    0.5784: real time    0.5798
    MIXING:  cpu time    0.0023: real time    0.0023
    --------------------------------------------
      LOOP:  cpu time   20.3796: real time   20.4342

 eigenvalue-minimisations  :  6640
 total energy-change (2. order) :-0.7850807E-03  (-0.7876858E-05)
 number of electron     159.0000089 magnetization 
 augmentation part       -4.1896958 magnetization 

 Broyden mixing:
  rms(total) = 0.24439E-02    rms(broyden)= 0.24420E-02
  rms(prec ) = 0.30501E-02
  weight for this iteration     100.00

 eigenvalues of (default mixing * dielectric matrix)
  average eigenvalue GAMMA=   1.0674
  4.7577  2.4922  2.4922  1.6244  1.4198  1.0151  1.0151  0.6398  0.6398  0.3754
  0.3889  0.2976  0.2202  0.2505  0.2526  0.1410  0.1241

 Free energy of the ion-electron system (eV)
  ---------------------------------------------------
  alpha Z        PSCENC =        81.65567618
  Ewald energy   TEWEN  =     41891.17176702
  -Hartree energ DENC   =    -47830.20623467
[...]
    104      -0.5536      0.00000
    105      -0.4836      0.00000
    106      -0.4027      0.00000
    107      -0.3419      0.00000
    108      -0.1034      0.00000
    109       0.0139      0.00000
    110       0.1406      0.00000
    111       0.3542      0.00000
    112       0.5887      0.00000
    113       0.7541      0.00000
    114       0.9939      0.00000
    115       1.1842      0.00000
    116       1.3055      0.00000
    117       1.5753      0.00000
    118       2.1629      0.00000
    119       2.3118      0.00000
    120       2.4210      0.00000

 k-point    34 :       0.5000    0.5000    0.0000
  band No.  band energies     occupation 
      1     -17.5082      2.00000
      2     -17.3483      2.00000
      3     -16.7411      2.00000
      4     -16.7163      2.00000
      5     -16.5889      2.00000
      6     -16.5490      2.00000
      7     -16.2779      2.00000
      8     -16.1981      2.00000
      9     -16.1138      2.00000
     10     -16.0798      2.00000
     11     -15.8760      2.00000
     12     -15.8387      2.00000
     13     -15.7688      2.00000
     14     -15.6971      2.00000
     15     -15.6392      2.00000
     16     -15.4301      2.00000
     17     -15.3389      2.00000
     18     -15.2022      2.00000
     19      -9.8162      2.00000
     20      -9.3529      2.00000
     21      -9.3022      2.00000
     22      -9.0103      2.00000
     23      -8.9355      2.00000
     24      -8.8365      2.00000
     25      -8.6790      2.00000
     26      -8.6587      2.00000
     27      -8.4430      2.00000
     28      -8.2923      2.00000
     29      -8.2270      2.00000
     30      -8.1316      2.00000
     31      -8.0786      2.00000
     32      -8.0192      2.00000
     33      -7.9213      2.00000
     34      -7.8419      2.00000
     35      -7.7465      2.00000
     36      -7.6827      2.00000
     37      -7.6391      2.00000
     38      -7.5934      2.00000
     39      -7.4646      2.00000
     40      -7.3314      2.00000
     41      -7.0980      2.00000
     42      -7.0702      2.00000
     43      -6.9960      2.00000
     44      -6.8602      2.00000
     45      -6.8338      2.00000
     46      -6.7087      2.00000
     47      -6.6468      2.00000
     48      -6.5894      2.00000
     49      -6.5251      2.00000
     50      -6.4513      2.00000
     51      -6.4146      2.00000
     52      -6.3394      2.00000
     53      -6.2669      2.00000
     54      -6.1865      2.00000
     55      -6.1107      2.00000
     56      -6.1017      2.00000
     57      -6.0122      2.00000
     58      -5.8402      2.00000
     59      -5.8075      2.00000
     60      -5.7820      2.00000
     61      -5.6343      2.00000
     62      -5.5909      2.00000
     63      -5.5284      2.00000
     64      -5.4034      2.00000
     65      -5.2155      2.00000
     66      -5.0626      2.00000
     67      -4.9914      2.00000
     68      -4.9583      2.00000
     69      -4.8288      2.00000
     70      -4.6346      2.00000
     71      -4.5832      2.00000
     72      -4.4412      2.00000
     73      -4.3277      2.00000
     74      -4.1630      2.00000
     75      -4.0301      2.00000
     76      -4.0146      2.00000
     77      -3.8669      1.99999
     78      -3.6990      1.99871
     79      -3.4469      1.84885
     80      -3.3555      1.57000
     81      -2.9803      0.06241
     82      -2.9484      0.03666
     83      -2.6512      0.00003
     84      -2.6040      0.00001
     85      -2.4583      0.00000
     86      -2.3286      0.00000
     87      -2.1898      0.00000
     88      -2.0991      0.00000
     89      -1.9296      0.00000
     90      -1.8427      0.00000
     91      -1.6482      0.00000
     92      -1.5589      0.00000
     93      -1.3767      0.00000
     94      -1.3622      0.00000
     95      -1.1911      0.00000
     96      -1.0784      0.00000
     97      -1.0750      0.00000
     98      -0.9956      0.00000
     99      -0.9289      0.00000
    100      -0.8925      0.00000
    101      -0.8171      0.00000
    102      -0.7115      0.00000
    103      -0.6208      0.00000
    104      -0.5989      0.00000
    105      -0.4752      0.00000
    106      -0.4069      0.00000
    107      -0.3048      0.00000
    108      -0.1091      0.00000
    109       0.0248      0.00000
    110       0.1999      0.00000
    111       0.2737      0.00000
    112       0.5865      0.00000
    113       0.7733      0.00000
    114       1.0579      0.00000
    115       1.1401      0.00000
    116       1.3259      0.00000
    117       1.5719      0.00000
    118       2.2520      0.00000
    119       2.2662      0.00000
    120       2.4076      0.00000


--------------------------------------------------------------------------------------------------------


 soft charge-density along one line, spin component           1
         0         1         2         3         4         5         6         7         8         9
 total charge-density along one line
 
 pseudopotential strength for first ion, spin component:           1
 -7.168   0.007  -0.025   0.023   0.002   0.658  -0.003   0.008
  0.007  -7.058   0.011   0.019  -0.023  -0.003   0.625  -0.004
 -0.025   0.011  -7.024   0.008   0.017   0.008  -0.004   0.616
  0.023   0.019   0.008  -7.083   0.023  -0.007  -0.006  -0.002
  0.002  -0.023   0.017   0.023  -7.166  -0.001   0.007  -0.005
  0.658  -0.003   0.008  -0.007  -0.001   0.338   0.001  -0.002
 -0.003   0.625  -0.004  -0.006   0.007   0.001   0.348   0.001
  0.008  -0.004   0.616  -0.002  -0.005  -0.002   0.001   0.350
 -0.007  -0.006  -0.002   0.632  -0.006   0.002   0.002   0.001
 -0.001   0.007  -0.005  -0.006   0.657   0.000  -0.002   0.001
 -0.007  -0.008  -0.021  -0.005   0.005   0.002   0.002   0.005
 -0.002  -0.002  -0.007  -0.001   0.002   0.001   0.001   0.002
 -0.004  -0.003   0.002  -0.002   0.007  -0.000   0.001   0.000
 -0.002  -0.010  -0.001  -0.006   0.001   0.000   0.001   0.000
 -0.007  -0.002   0.001  -0.000  -0.004   0.000   0.000   0.000
 -0.002  -0.002   0.001  -0.002   0.005   0.000   0.000  -0.000
 -0.002  -0.007  -0.000  -0.004   0.001   0.000   0.001   0.000
 -0.005  -0.002   0.001   0.001  -0.003   0.001   0.000  -0.000
 total augmentation occupancy for first ion, spin component:           1
  0.792   0.154  -0.059   0.022   0.058   0.443   0.210  -0.006  -0.003   0.007   0.041  -0.001   0.010  -0.039   0.010   0.002
  0.154   1.042   0.028  -0.022  -0.021   0.208   0.638   0.026  -0.009   0.004  -0.003   0.004  -0.039  -0.056  -0.044  -0.002
 -0.059   0.028   0.890   0.019   0.039  -0.004   0.025   0.357   0.015   0.003   0.131   0.005  -0.053  -0.001  -0.033  -0.003
  0.022  -0.022   0.019   1.070  -0.127  -0.003  -0.009   0.015   0.649  -0.212  -0.002   0.002  -0.043  -0.033   0.012  -0.002
  0.058  -0.021   0.039  -0.127   0.864   0.007   0.004   0.004  -0.214   0.451  -0.024   0.000  -0.008   0.022   0.002  -0.003
  0.443   0.208  -0.004  -0.003   0.007   0.382   0.217   0.003   0.001  -0.005  -0.007  -0.001  -0.010  -0.056  -0.019   0.001
  0.210   0.638   0.025  -0.009   0.004   0.217   0.576   0.018  -0.003  -0.000   0.012   0.003  -0.039  -0.079  -0.053  -0.003
 -0.006   0.026   0.357   0.015   0.004   0.003   0.018   0.282   0.010  -0.002   0.035   0.009  -0.023  -0.000  -0.014  -0.005
 -0.003  -0.009   0.015   0.649  -0.214   0.001  -0.003   0.010   0.578  -0.217   0.007   0.002  -0.053  -0.046   0.022  -0.004
  0.007   0.004   0.003  -0.212   0.451  -0.005  -0.000  -0.002  -0.217   0.375   0.004   0.001   0.020   0.032  -0.012  -0.001
  0.041  -0.003   0.131  -0.002  -0.024  -0.007   0.012   0.035   0.007   0.004   1.370   0.141  -0.023  -0.016  -0.013  -0.001
 -0.001   0.004   0.005   0.002   0.000  -0.001   0.003   0.009   0.002   0.001   0.141   0.026  -0.008  -0.001  -0.005  -0.001
  0.010  -0.039  -0.053  -0.043  -0.008  -0.010  -0.039  -0.023  -0.053   0.020  -0.023  -0.008   0.361   0.002   0.009   0.027
 -0.039  -0.056  -0.001  -0.033   0.022  -0.056  -0.079  -0.000  -0.046   0.032  -0.016  -0.001   0.002   0.415   0.001  -0.000
  0.010  -0.044  -0.033   0.012   0.002  -0.019  -0.053  -0.014   0.022  -0.012  -0.013  -0.005   0.009   0.001   0.350  -0.000
  0.002  -0.002  -0.003  -0.002  -0.003   0.001  -0.003  -0.005  -0.004  -0.001  -0.001  -0.001   0.027  -0.000  -0.000   0.003
 -0.002   0.001  -0.000   0.001   0.001  -0.004  -0.005   0.000  -0.003   0.002  -0.001  -0.000  -0.000   0.029  -0.000   0.000
  0.003  -0.002  -0.002   0.000   0.002   0.001  -0.004  -0.003   0.002   0.001  -0.001  -0.000  -0.000  -0.000   0.027  -0.000


------------------------ aborting loop because EDIFF is reached ----------------------------------------


    CHARGE:  cpu time    0.4560: real time    0.4572
    FORLOC:  cpu time    0.0091: real time    0.0091
    FORNL :  cpu time    6.5236: real time    6.5392
    STRESS:  cpu time   32.8403: real time   32.9187
    FORCOR:  cpu time    0.0388: real time    0.0388
    FORHAR:  cpu time    0.0148: real time    0.0149
    MIXING:  cpu time    0.0013: real time    0.0013
    OFIELD:  cpu time    0.0000: real time    0.0000

  FORCE on cell =-STRESS in cart. coord.  units (eV):
  Direction    XX          YY          ZZ          XY          YZ          ZX
  --------------------------------------------------------------------------------------
  Alpha Z    89.56573    89.56573    89.56573
  Ewald   49378.84050 49333.20500-54295.22862   -40.31659    22.33166    13.14748
  Hartree 50084.79022 50055.19197-49715.49191   -25.97690    12.62077     7.34048
  E(xc)    -609.61512  -610.69959  -617.90938    -0.93899    -0.95850    -0.56257
  Local  ************************101448.03190    59.44572   -42.97746   -25.17091
  n-local  1213.62507  1215.50792  1248.84225     1.69848    -2.45817    -1.35190
  augment  -213.40769  -212.80346  -214.66379     0.46063     1.01024     0.60594
  Kinetic  2008.57699  2014.99761  2054.79606     5.65456    10.28001     5.89892
  Fock        0.00000     0.00000     0.00000     0.00000     0.00000     0.00000
  -------------------------------------------------------------------------------------
  Total       0.08477     0.08280    -2.05778     0.02690    -0.15144    -0.09254
  in kB       0.05682     0.05550    -1.37932     0.01803    -0.10151    -0.06203
  external pressure =       -0.42 kB  Pullay stress =        0.00 kB


 VOLUME and BASIS-vectors are now :
 -----------------------------------------------------------------------------
  energy-cutoff  :      280.00
  volume of cell :     2390.26
      direct lattice vectors                 reciprocal lattice vectors
     8.307972242  4.818480499  0.000000000     0.060037199  0.104018813  0.000000000
    -8.287738629  4.783486720  0.000000000    -0.060476403  0.104272763  0.000000000
     0.000000000  0.000000000 30.000000000     0.000000000  0.000000000  0.033333333

  length of vectors
     9.604173942  9.569135634 30.000000000     0.120101535  0.120541298  0.033333333


 FORCES acting on ions
    electron-ion (+dipol)            ewald-force                    non-local-force                 convergence-correction
 -----------------------------------------------------------------------------------------------
   -.133E+02 -.229E+02 -.174E+02   0.141E+02 0.242E+02 0.171E+02   -.780E+00 -.134E+01 0.237E+00   0.493E-02 0.315E-01 0.370E-01
   0.136E+02 0.208E+02 0.194E+02   -.146E+02 -.220E+02 -.192E+02   0.103E+01 0.117E+01 -.184E+00   -.307E-01 0.399E-01 -.332E-01
   0.112E+02 0.215E+02 0.191E+02   -.117E+02 -.231E+02 -.189E+02   0.506E+00 0.148E+01 -.195E+00   0.193E-01 0.149E-01 -.372E-01
   -.655E+01 0.303E+01 0.205E+01   0.632E+01 -.281E+01 -.207E+01   0.221E+00 -.689E-01 0.284E-01   0.310E-02 -.124E+00 -.242E-02
   0.814E+01 0.104E+02 0.279E+01   -.793E+01 -.102E+02 -.277E+01   -.112E+00 -.183E+00 -.278E-01   -.598E-01 -.629E-01 -.299E-02
   0.424E+01 -.332E+01 0.193E+01   -.402E+01 0.323E+01 -.196E+01   -.159E+00 0.159E+00 0.234E-01   -.657E-01 -.308E-01 0.389E-02
   0.170E+02 0.301E+02 0.217E+02   -.174E+02 -.307E+02 -.215E+02   0.382E+00 0.678E+00 -.159E+00   0.390E-01 -.228E-01 -.120E-01
   -.190E+02 -.278E+02 -.259E+02   0.195E+02 0.285E+02 0.257E+02   -.564E+00 -.694E+00 0.201E+00   0.473E-02 0.319E-01 0.980E-02
   -.141E+02 -.296E+02 -.263E+02   0.144E+02 0.305E+02 0.261E+02   -.327E+00 -.871E+00 0.211E+00   0.210E-01 -.134E-01 0.886E-02
   0.679E+01 0.240E+02 0.612E+03   -.716E+01 -.247E+02 -.616E+03   0.311E+00 0.767E+00 0.367E+01   0.621E-01 -.888E-01 0.865E-01
   0.514E+01 0.148E+02 -.588E+03   -.600E+01 -.164E+02 0.591E+03   0.906E+00 0.171E+01 -.306E+01   -.402E-01 -.944E-01 -.953E-01
   0.168E+02 0.184E+02 0.613E+03   -.173E+02 -.191E+02 -.617E+03   0.514E+00 0.656E+00 0.365E+01   -.318E-01 -.257E-02 0.240E-01
   0.727E+01 0.130E+02 -.620E+03   -.792E+01 -.142E+02 0.623E+03   0.644E+00 0.122E+01 -.345E+01   -.334E-03 -.340E-01 0.535E-02
   0.125E+02 0.200E+02 0.589E+03   -.130E+02 -.210E+02 -.592E+03   0.580E+00 0.101E+01 0.325E+01   -.857E-01 0.340E-02 0.113E+00
   0.109E+02 0.126E+02 -.591E+03   -.119E+02 -.142E+02 0.594E+03   0.103E+01 0.156E+01 -.308E+01   -.420E-01 -.133E-01 -.297E-01
   -.260E+01 -.961E+01 0.611E+03   0.350E+01 0.108E+02 -.615E+03   -.890E+00 -.110E+01 0.349E+01   -.124E-01 -.587E-01 -.683E-02
   -.104E+02 -.191E+02 -.635E+03   0.106E+02 0.195E+02 0.639E+03   -.205E+00 -.357E+00 -.404E+01   -.777E-02 -.151E-01 0.446E-02
   -.882E+01 -.150E+02 0.605E+03   0.961E+01 0.163E+02 -.608E+03   -.758E+00 -.122E+01 0.318E+01   -.242E-01 -.513E-01 -.649E-01
   -.108E+02 -.213E+02 -.609E+03   0.111E+02 0.221E+02 0.612E+03   -.279E+00 -.808E+00 -.369E+01   0.240E-01 -.286E-01 0.426E-01
   -.733E+01 -.798E+01 0.614E+03   0.781E+01 0.931E+01 -.618E+03   -.432E+00 -.130E+01 0.348E+01   -.376E-01 -.157E-01 -.101E-01
   -.136E+02 -.200E+02 -.609E+03   0.142E+02 0.206E+02 0.612E+03   -.565E+00 -.657E+00 -.368E+01   -.311E-01 0.197E-01 0.404E-01
   -.602E+01 -.107E+02 0.504E+03   0.582E+01 0.104E+02 -.509E+03   0.165E+00 0.312E+00 0.525E+01   0.286E-01 0.166E-01 -.133E-01
   0.907E+00 0.934E+01 -.496E+03   -.535E+00 -.894E+01 0.501E+03   -.472E+00 -.417E+00 -.505E+01   0.101E+00 0.266E-01 -.522E-01
   -.531E+01 -.124E+02 0.487E+03   0.499E+01 0.125E+02 -.491E+03   0.244E+00 -.243E+00 0.488E+01   0.580E-01 0.636E-01 -.296E-01
   0.766E+01 0.612E+01 -.496E+03   -.756E+01 -.552E+01 0.501E+03   -.113E+00 -.623E+00 -.506E+01   0.630E-02 0.319E-01 -.454E-02
   -.849E+01 -.113E+02 0.487E+03   0.877E+01 0.111E+02 -.492E+03   -.320E+00 0.703E-01 0.489E+01   0.451E-01 0.151E+00 0.978E-02
   0.387E+01 0.624E+01 -.478E+03   -.375E+01 -.618E+01 0.482E+03   -.131E+00 -.210E+00 -.458E+01   0.969E-02 0.148E+00 -.424E-01
 -----------------------------------------------------------------------------------------------
   -.373E+00 -.625E+00 -.102E+00   -.222E-13 -.195E-13 -.568E-13   0.419E+00 0.705E+00 0.157E+00   -.423E-01 -.767E-01 -.507E-01
 
 
 POSITION                                       TOTAL-FORCE (eV/Angst)
 -----------------------------------------------------------------------------------
     -0.12427      6.16269      0.06385        -0.007661     -0.008062      0.009275
     -5.37126      3.43603     -0.06945        -0.016540     -0.007173     -0.010155
      0.13958      0.25561     -0.06767         0.003811     -0.019853     -0.011355
     -0.04423      3.22506     -0.00560        -0.006516      0.029339      0.005171
      2.82030      1.66437     -0.00842         0.039900     -0.014070     -0.007120
     -2.72192      4.76986     -0.00540        -0.009397      0.029172      0.003963
      5.71042      6.70151     -0.06825        -0.006184      0.000593     -0.011222
      5.36134      2.93923      0.07833         0.009030      0.002146      0.000478
      2.62815      4.51390      0.07948        -0.002386     -0.000967      0.002516
     -0.88174      1.60816     28.32335         0.002431      0.009979     -0.009498
      0.91323      1.58283      1.56942         0.003278     -0.013073     -0.012652
     -3.69222      3.22982     28.32135        -0.000185      0.006998     -0.004877
     -1.81932      3.23030      1.66178        -0.008482     -0.005070     -0.000054
     -6.44450      4.78294     28.39387         0.011856      0.010741     -0.021351
     -4.61128      4.76803      1.57662        -0.017726     -0.015019      0.003444
      1.82271      3.17284     28.35955         0.004623      0.003419      0.015659
      3.66288      3.14987      1.74918        -0.000004     -0.012092      0.012378
     -0.89240      4.83454     28.38180         0.005927      0.016957      0.029887
      0.89155      4.80704      1.66623        -0.010657     -0.004847      0.002002
     -3.68325      6.35629     28.35141         0.012200      0.013378     -0.008158
     -1.80587      6.36580      1.66622         0.002320     -0.006444      0.004209
      4.62190      4.81464     28.67407        -0.000102      0.001807      0.000239
      6.48089      4.81625      1.30555         0.000912      0.003008     -0.003504
      1.84533      6.40756     28.72514        -0.012270     -0.008100      0.005675
      3.69364      6.42426      1.30658        -0.000191      0.001771     -0.002016
     -0.89567      7.99017     28.72338         0.003031     -0.012339      0.000160
      0.94676      8.01534      1.24764        -0.001019     -0.002198      0.006906
 -----------------------------------------------------------------------------------
    total drift:                                0.003605      0.003319      0.003902


--------------------------------------------------------------------------------------------------------



  FREE ENERGIE OF THE ION-ELECTRON SYSTEM (eV)
  ---------------------------------------------------
  free  energy   TOTEN  =      -192.34028348 eV

  energy  without entropy=     -192.21055339  energy(sigma->0) =     -192.27541844
 
 d Force = 0.1095307E-02[ 0.923E-03, 0.127E-02]  d Energy = 0.8276840E-03 0.268E-03
 d Force = 0.1136608E+01[ 0.115E+01, 0.112E+01]  d Ewald  =-0.2184047E+01 0.332E+01


--------------------------------------------------------------------------------------------------------


    POTLOK:  cpu time    0.0395: real time    0.0396


--------------------------------------------------------------------------------------------------------


 Quasi-Newton relaxation of ions (Broydens 2nd method)
  g(Force)  = 0.484E-03   g(Stress)= 0.277E-04

 retain information from N=  3 steps
 eigenvalues of (default step * inverse Hessian matrix)
  average eigenvalue of G=   1.2910
 eigenvalue spectrum of G is  1.2693  0.7425  1.8612


--------------------------------------------------------------------------------------------------------


  
 reached required accuracy - stopping structural energy minimisation
     LOOP+:  cpu time  172.6213: real time  173.0484
    4ORBIT:  cpu time    0.0000: real time    0.0000

 total amount of memory used by VASP on root node   650782. kBytes
========================================================================

   base      :      30000. kBytes
   nonl-proj :     559647. kBytes
   fftplans  :       2414. kBytes
   grid      :      12150. kBytes
   one-center:        419. kBytes
   wavefun   :      46152. kBytes
 
  
  
 General timing and accounting informations for this job:
 ========================================================
  
                  Total CPU time used (sec):     6605.576
                            User time (sec):     6549.098
                          System time (sec):       56.477
                         Elapsed time (sec):     6623.467
  
                   Maximum memory used (kb):      739892.
                   Average memory used (kb):           0.
  
                          Minor page faults:       991227
                          Major page faults:            3
                 Voluntary context switches:         5516
