<?xml version="1.0" encoding="ISO-8859-1"?>
<modeling>
 <generator>
  <i name="program" type="string">vasp </i>
  <i name="version" type="string">5.4.1  </i>
  <i name="subversion" type="string">05Feb16 (build Jul 05 2020 17:13:04) complex                          parallel </i>
  <i name="platform" type="string">IFC91_ompi </i>
  <i name="date" type="string">2024 04 20 </i>
  <i name="time" type="string">09:42:49 </i>
 </generator>
 <incar>
  <i type="int" name="ISTART">     0</i>
  <i type="string" name="PREC">normal</i>
  <i type="string" name="ALGO"> Normal</i>
  <i type="int" name="ISPIN">     1</i>
  <i type="int" name="ICHARG">     2</i>
  <i type="int" name="IBRION">     1</i>
  <i type="int" name="NSW">   100</i>
  <i type="int" name="ISIF">     3</i>
  <i type="int" name="ISYM">     0</i>
  <i name="SYMPREC">      0.00000001</i>
  <i name="POTIM">      0.50000000</i>
  <i type="logical" name="LREAL"> F  </i>
  <i type="logical" name="LPLANE"> F  </i>
  <i type="int" name="ISMEAR">     0</i>
  <i type="logical" name="LWAVE"> F  </i>
  <i type="logical" name="LCHARG"> F  </i>
  <v type="int" name="KPOINT_BSE">    -1     0     0     0</v>
 </incar>
 <kpoints>
  <generation param="Gamma">
   <v type="int" name="divisions">       8        8        1 </v>
   <v name="usershift">      0.00000000       0.00000000       0.00000000 </v>
   <v name="genvec1">      0.12500000       0.00000000       0.00000000 </v>
   <v name="genvec2">     -0.00000000       0.12500000       0.00000000 </v>
   <v name="genvec3">      0.00000000       0.00000000       1.00000000 </v>
   <v name="shift">      0.00000000       0.00000000       0.00000000 </v>
  </generation>
  <varray name="kpointlist" >
   <v>       0.00000000       0.00000000       0.00000000 </v>
   <v>       0.12500000       0.00000000       0.00000000 </v>
   <v>       0.25000000       0.00000000       0.00000000 </v>
   <v>       0.37500000       0.00000000       0.00000000 </v>
   <v>       0.50000000       0.00000000       0.00000000 </v>
   <v>       0.00000000       0.12500000       0.00000000 </v>
   <v>       0.12500000       0.12500000       0.00000000 </v>
   <v>       0.25000000       0.12500000       0.00000000 </v>
   <v>       0.37500000       0.12500000       0.00000000 </v>
   <v>       0.50000000       0.12500000       0.00000000 </v>
   <v>      -0.37500000       0.12500000       0.00000000 </v>
   <v>      -0.25000000       0.12500000       0.00000000 </v>
   <v>      -0.12500000       0.12500000       0.00000000 </v>
   <v>       0.00000000       0.25000000       0.00000000 </v>
   <v>       0.12500000       0.25000000       0.00000000 </v>
   <v>       0.25000000       0.25000000       0.00000000 </v>
   <v>       0.37500000       0.25000000       0.00000000 </v>
   <v>       0.50000000       0.25000000       0.00000000 </v>
   <v>      -0.37500000       0.25000000       0.00000000 </v>
   <v>      -0.25000000       0.25000000       0.00000000 </v>
   <v>      -0.12500000       0.25000000       0.00000000 </v>
   <v>      -0.00000000       0.37500000       0.00000000 </v>
   <v>       0.12500000       0.37500000       0.00000000 </v>
   <v>       0.25000000       0.37500000       0.00000000 </v>
   <v>       0.37500000       0.37500000       0.00000000 </v>
   <v>       0.50000000       0.37500000       0.00000000 </v>
   <v>      -0.37500000       0.37500000       0.00000000 </v>
   <v>      -0.25000000       0.37500000       0.00000000 </v>
   <v>      -0.12500000       0.37500000       0.00000000 </v>
   <v>       0.00000000       0.50000000       0.00000000 </v>
   <v>       0.12500000       0.50000000       0.00000000 </v>
   <v>       0.25000000       0.50000000       0.00000000 </v>
   <v>       0.37500000       0.50000000       0.00000000 </v>
   <v>       0.50000000       0.50000000       0.00000000 </v>
  </varray>
  <varray name="weights" >
   <v>       0.01562500 </v>
   <v>       0.03125000 </v>
   <v>       0.03125000 </v>
   <v>       0.03125000 </v>
   <v>       0.01562500 </v>
   <v>       0.03125000 </v>
   <v>       0.03125000 </v>
   <v>       0.03125000 </v>
   <v>       0.03125000 </v>
   <v>       0.03125000 </v>
   <v>       0.03125000 </v>
   <v>       0.03125000 </v>
   <v>       0.03125000 </v>
   <v>       0.03125000 </v>
   <v>       0.03125000 </v>
   <v>       0.03125000 </v>
   <v>       0.03125000 </v>
   <v>       0.03125000 </v>
   <v>       0.03125000 </v>
   <v>       0.03125000 </v>
   <v>       0.03125000 </v>
   <v>       0.03125000 </v>
   <v>       0.03125000 </v>
   <v>       0.03125000 </v>
   <v>       0.03125000 </v>
   <v>       0.03125000 </v>
   <v>       0.03125000 </v>
   <v>       0.03125000 </v>
   <v>       0.03125000 </v>
   <v>       0.01562500 </v>
   <v>       0.03125000 </v>
   <v>       0.03125000 </v>
   <v>       0.03125000 </v>
   <v>       0.01562500 </v>
  </varray>
 </kpoints>
 <parameters>
  <separator name="general" >
   <i type="string" name="SYSTEM">unknown system</i>
   <i type="logical" name="LCOMPAT"> F  </i>
  </separator>
  <separator name="electronic" >
   <i type="string" name="PREC">normal</i>
   <i name="ENMAX">    280.00000000</i>
   <i name="ENAUG">    373.43800000</i>
   <i name="EDIFF">      0.00010000</i>
   <i type="int" name="IALGO">    38</i>
   <i type="int" name="IWAVPR">    11</i>
   <i type="int" name="NBANDS">   120</i>
   <i name="NELECT">    159.00000000</i>
   <i type="int" name="TURBO">     0</i>
   <i type="int" name="IRESTART">     0</i>
   <i type="int" name="NREBOOT">     0</i>
   <i type="int" name="NMIN">     0</i>
   <i name="EREF">      0.00000000</i>
   <separator name="electronic smearing" >
    <i type="int" name="ISMEAR">     0</i>
    <i name="SIGMA">      0.20000000</i>
    <i name="KSPACING">      0.50000000</i>
    <i type="logical" name="KGAMMA"> T  </i>
   </separator>
   <separator name="electronic projectors" >
    <i type="logical" name="LREAL"> F  </i>
    <v name="ROPT">      0.00000000      0.00000000      0.00000000      0.00000000</v>
    <i type="int" name="LMAXPAW">  -100</i>
    <i type="int" name="LMAXMIX">     2</i>
    <i type="logical" name="NLSPLINE"> F  </i>
   </separator>
   <separator name="electronic startup" >
    <i type="int" name="ISTART">     0</i>
    <i type="int" name="ICHARG">     2</i>
    <i type="int" name="INIWAV">     1</i>
   </separator>
   <separator name="electronic spin" >
    <i type="int" name="ISPIN">     1</i>
    <i type="logical" name="LNONCOLLINEAR"> F  </i>
    <v name="MAGMOM">      1.00000000      1.00000000      1.00000000      1.00000000      1.00000000      1.00000000      1.00000000      1.00000000      1.00000000      1.00000000      1.00000000      1.00000000      1.00000000      1.00000000      1.00000000      1.00000000      1.00000000      1.00000000      1.00000000      1.00000000
      1.00000000      1.00000000      1.00000000      1.00000000      1.00000000      1.00000000      1.00000000</v>
    <i name="NUPDOWN">     -1.00000000</i>
    <i type="logical" name="LSORBIT"> F  </i>
    <v name="SAXIS">      0.00000000      0.00000000      1.00000000</v>
    <i type="logical" name="LSPIRAL"> F  </i>
    <v name="QSPIRAL">      0.00000000      0.00000000      0.00000000</v>
    <i type="logical" name="LZEROZ"> F  </i>
   </separator>
   <separator name="electronic exchange-correlation" >
    <i type="logical" name="LASPH"> F  </i>
    <i type="logical" name="LMETAGGA"> F  </i>
   </separator>
   <separator name="electronic convergence" >
    <i type="int" name="NELM">    60</i>
    <i type="int" name="NELMDL">    -5</i>
    <i type="int" name="NELMIN">     2</i>
    <i name="ENINI">    280.00000000</i>
    <separator name="electronic convergence detail" >
     <i type="logical" name="LDIAG"> T  </i>
     <i type="logical" name="LSUBROT"> F  </i>
     <i name="WEIMIN">      0.00100000</i>
     <i name="EBREAK">      0.00000021</i>
     <i name="DEPER">      0.30000000</i>
     <i type="int" name="NRMM">     4</i>
     <i name="TIME">      0.40000000</i>
    </separator>
   </separator>
   <separator name="electronic mixer" >
    <i name="AMIX">      0.40000000</i>
    <i name="BMIX">      1.00000000</i>
    <i name="AMIN">      0.10000000</i>
    <i name="AMIX_MAG">      1.60000000</i>
    <i name="BMIX_MAG">      1.00000000</i>
    <separator name="electronic mixer details" >
     <i type="int" name="IMIX">     4</i>
     <i type="logical" name="MIXFIRST"> F  </i>
     <i type="int" name="MAXMIX">   -45</i>
     <i name="WC">    100.00000000</i>
     <i type="int" name="INIMIX">     1</i>
     <i type="int" name="MIXPRE">     1</i>
     <i type="int" name="MREMOVE">     5</i>
    </separator>
   </separator>
   <separator name="electronic dipolcorrection" >
    <i type="logical" name="LDIPOL"> F  </i>
    <i type="logical" name="LMONO"> F  </i>
    <i type="int" name="IDIPOL">     0</i>
    <i name="EPSILON">      1.00000000</i>
    <v name="DIPOL">   -100.00000000   -100.00000000   -100.00000000</v>
    <i name="EFIELD">      0.00000000</i>
   </separator>
  </separator>
  <separator name="grids" >
   <i type="int" name="NGX">    42</i>
   <i type="int" name="NGY">    42</i>
   <i type="int" name="NGZ">   126</i>
   <i type="int" name="NGXF">    84</i>
   <i type="int" name="NGYF">    84</i>
   <i type="int" name="NGZF">   252</i>
   <i type="logical" name="ADDGRID"> F  </i>
  </separator>
  <separator name="ionic" >
   <i type="int" name="NSW">   100</i>
   <i type="int" name="IBRION">     1</i>
   <i type="int" name="ISIF">     3</i>
   <i name="PSTRESS">      0.00000000</i>
   <i name="EDIFFG">      0.00100000</i>
   <i type="int" name="NFREE">     0</i>
   <i name="POTIM">      0.50000000</i>
   <i name="SMASS">     -3.00000000</i>
   <i name="SCALEE">      1.00000000</i>
  </separator>
  <separator name="ionic md" >
   <i name="TEBEG">      0.00010000</i>
   <i name="TEEND">      0.00010000</i>
   <i type="int" name="NBLOCK">     1</i>
   <i type="int" name="KBLOCK">   100</i>
   <i type="int" name="NPACO">   256</i>
   <i name="APACO">     16.00000000</i>
  </separator>
  <separator name="symmetry" >
   <i type="int" name="ISYM">     0</i>
   <i name="SYMPREC">      0.00000001</i>
  </separator>
  <separator name="dos" >
   <i type="logical" name="LORBIT"> F  </i>
   <v name="RWIGS">     -1.00000000     -1.00000000     -1.00000000     -1.00000000</v>
   <i type="int" name="NEDOS">   301</i>
   <i name="EMIN">     10.00000000</i>
   <i name="EMAX">    -10.00000000</i>
   <i name="EFERMI">      0.00000000</i>
  </separator>
  <separator name="writing" >
   <i type="int" name="NWRITE">     2</i>
   <i type="logical" name="LWAVE"> F  </i>
   <i type="logical" name="LCHARG"> F  </i>
   <i type="logical" name="LPARD"> F  </i>
   <i type="logical" name="LVTOT"> F  </i>
   <i type="logical" name="LVHAR"> F  </i>
   <i type="logical" name="LELF"> F  </i>
   <i type="logical" name="LOPTICS"> F  </i>
   <v name="STM">      0.00000000      0.00000000      0.00000000      0.00000000      0.00000000      0.00000000      0.00000000</v>
  </separator>
  <separator name="performance" >
   <i type="int" name="NPAR">    40</i>
   <i type="int" name="NSIM">     4</i>
   <i type="int" name="NBLK">    -1</i>
   <i type="logical" name="LPLANE"> F  </i>
   <i type="logical" name="LSCALAPACK"> T  </i>
   <i type="logical" name="LSCAAWARE"> F  </i>
   <i type="logical" name="LSCALU"> F  </i>
   <i type="logical" name="LASYNC"> F  </i>
   <i type="logical" name="LORBITALREAL"> F  </i>
  </separator>
  <separator name="miscellaneous" >
   <i type="int" name="IDIOT">     3</i>
   <i type="logical" name="LMUSIC"> F  </i>
   <v name="POMASS">     50.94100000     95.94000000    183.85000000     32.06600000</v>
   <v name="DARWINR">      0.00000000      0.00000000      0.00000000      0.00000000</v>
   <v name="DARWINV">      1.00000000      1.00000000      1.00000000      1.00000000</v>
   <i type="logical" name="LCORR"> T  </i>
  </separator>
  <i type="logical" name="GGA_COMPAT"> T  </i>
  <i type="logical" name="LBERRY"> F  </i>
  <i type="int" name="ICORELEVEL">     0</i>
  <i type="logical" name="LDAU"> F  </i>
  <i type="int" name="I_CONSTRAINED_M">     0</i>
  <separator name="electronic exchange-correlation" >
   <i type="string" name="GGA">--</i>
   <i type="int" name="VOSKOWN">     0</i>
   <i type="logical" name="LHFCALC"> F  </i>
   <i type="string" name="PRECFOCK"></i>
   <i type="logical" name="LSYMGRAD"> F  </i>
   <i type="logical" name="LHFONE"> F  </i>
   <i type="logical" name="LRHFCALC"> F  </i>
   <i type="logical" name="LTHOMAS"> F  </i>
   <i type="logical" name="LMODELHF"> F  </i>
   <i name="ENCUT4O">     -1.00000000</i>
   <i type="int" name="EXXOEP">     0</i>
   <i type="int" name="FOURORBIT">     0</i>
   <i name="AEXX">      0.00000000</i>
   <i name="HFALPHA">      0.00000000</i>
   <i name="MCALPHA">      0.00000000</i>
   <i name="ALDAX">      1.00000000</i>
   <i name="AGGAX">      1.00000000</i>
   <i name="ALDAC">      1.00000000</i>
   <i name="AGGAC">      1.00000000</i>
   <i type="int" name="NKREDX">     1</i>
   <i type="int" name="NKREDY">     1</i>
   <i type="int" name="NKREDZ">     1</i>
   <i type="logical" name="SHIFTRED"> F  </i>
   <i type="logical" name="ODDONLY"> F  </i>
   <i type="logical" name="EVENONLY"> F  </i>
   <i type="int" name="LMAXFOCK">     0</i>
   <i type="int" name="NMAXFOCKAE">     0</i>
   <i type="logical" name="LFOCKAEDFT"> F  </i>
   <i name="HFSCREEN">      0.00000000</i>
   <i name="HFSCREENC">      0.00000000</i>
   <i type="int" name="NBANDSGWLOW">     0</i>
  </separator>
  <separator name="vdW DFT" >
   <i type="logical" name="LUSE_VDW"> F  </i>
   <i name="Zab_VDW">     -0.84910000</i>
   <i name="PARAM1">      0.12340000</i>
   <i name="PARAM2">      1.00000000</i>
   <i name="PARAM3">      0.00000000</i>
  </separator>
  <separator name="model GW" >
   <i type="int" name="MODEL_GW">     0</i>
   <i name="MODEL_EPS0">     58.26239943</i>
   <i name="MODEL_ALPHA">      1.00000000</i>
  </separator>
  <separator name="linear response parameters" >
   <i type="logical" name="LEPSILON"> F  </i>
   <i type="logical" name="LRPA"> F  </i>
   <i type="logical" name="LNABLA"> F  </i>
   <i type="logical" name="LVEL"> F  </i>
   <i type="int" name="KINTER">     0</i>
   <i name="CSHIFT">      0.10000000</i>
   <i name="OMEGAMAX">     -1.00000000</i>
   <i name="DEG_THRESHOLD">      0.00200000</i>
  </separator>
  <separator name="orbital magnetization" >
   <i type="logical" name="NUCIND"> F  </i>
   <v name="MAGPOS">      0.00000000      0.00000000      0.00000000</v>
   <i type="logical" name="LNICSALL"> T  </i>
   <i type="logical" name="ORBITALMAG"> F  </i>
   <i type="logical" name="LMAGBLOCH"> F  </i>
   <i type="logical" name="LCHIMAG"> F  </i>
   <i type="logical" name="LGAUGE"> T  </i>
   <i type="int" name="MAGATOM">     0</i>
   <v name="MAGDIPOL">      0.00000000      0.00000000      0.00000000</v>
   <v name="AVECCONST">      0.00000000      0.00000000      0.00000000</v>
  </separator>
  <separator name="response functions" >
   <i type="logical" name="LADDER"> F  </i>
   <i type="logical" name="LFXC"> F  </i>
   <i type="logical" name="LHARTREE"> T  </i>
   <i type="int" name="IBSE">     0</i>
   <v type="int" name="KPOINT">    -1     0     0     0</v>
   <i type="logical" name="LTCTE"> F  </i>
   <i type="logical" name="LTETE"> F  </i>
   <i type="logical" name="LTRIPLET"> F  </i>
   <i type="logical" name="LFXCEPS"> F  </i>
   <i type="logical" name="LFXHEG"> F  </i>
   <i type="int" name="NATURALO">     0</i>
   <i type="logical" name="L2ORDER"> F  </i>
   <i type="logical" name="LUSEW"> F  </i>
   <i name="ENCUTGW">     -2.00000000</i>
   <i name="ENCUTGWSOFT">     -2.00000000</i>
   <i name="ENCUTLF">     -1.00000000</i>
   <i type="int" name="LMAXMP2">    -1</i>
   <i name="SCISSOR">      0.00000000</i>
   <i type="int" name="NOMEGA">     0</i>
   <i type="int" name="NOMEGAR">     0</i>
   <i type="int" name="NBANDSGW">    -1</i>
   <i type="int" name="NBANDSO">    -1</i>
   <i type="int" name="NBANDSV">    -1</i>
   <i type="int" name="NELM">     1</i>
   <i type="int" name="NELMHF">     1</i>
   <i type="int" name="DIM">     3</i>
   <i type="int" name="ANTIRES">     0</i>
   <i name="OMEGAMAX">    -30.00000000</i>
   <i name="OMEGAMIN">    -30.00000000</i>
   <i name="OMEGATL">   -200.00000000</i>
   <i type="int" name="OMEGAGRID">     0</i>
   <i name="CSHIFT">     -0.10000000</i>
   <i type="logical" name="SELFENERGY"> F  </i>
   <i type="logical" name="LSPECTRAL"> F  </i>
   <i type="logical" name="LSPECTRALGW"> F  </i>
   <i type="logical" name="LSINGLES"> F  </i>
   <i type="logical" name="LFERMIGW"> F  </i>
   <i type="logical" name="ODDONLYGW"> F  </i>
   <i type="logical" name="EVENONLYGW"> F  </i>
   <i type="int" name="NKREDLFX">     1</i>
   <i type="int" name="NKREDLFY">     1</i>
   <i type="int" name="NKREDLFZ">     1</i>
   <i type="int" name="MAXMEM">  1800</i>
   <i type="int" name="TELESCOPE">     0</i>
   <i type="int" name="TAUPAR">     1</i>
   <i type="int" name="OMEGAPAR">    -1</i>
   <i name="LAMBDA">      1.00000000</i>
  </separator>
  <separator name="External order field" >
   <i name="OFIELD_KAPPA">      0.00000000</i>
   <v name="OFIELD_K">      0.00000000      0.00000000      0.00000000</v>
   <i name="OFIELD_Q6_NEAR">      0.00000000</i>
   <i name="OFIELD_Q6_FAR">      0.00000000</i>
   <i name="OFIELD_A">      0.00000000</i>
  </separator>
 </parameters>
 <atominfo>
  <atoms>      27 </atoms>
  <types>       4 </types>
  <array name="atoms" >
   <dimension dim="1">ion</dimension>
   <field type="string">element</field>
   <field type="int">atomtype</field>
   <set>
    <rc><c>V </c><c>   1</c></rc>
    <rc><c>V </c><c>   1</c></rc>
    <rc><c>V </c><c>   1</c></rc>
    <rc><c>Mo</c><c>   2</c></rc>
    <rc><c>Mo</c><c>   2</c></rc>
    <rc><c>Mo</c><c>   2</c></rc>
    <rc><c>W </c><c>   3</c></rc>
    <rc><c>W </c><c>   3</c></rc>
    <rc><c>W </c><c>   3</c></rc>
    <rc><c>S </c><c>   4</c></rc>
    <rc><c>S </c><c>   4</c></rc>
    <rc><c>S </c><c>   4</c></rc>
    <rc><c>S </c><c>   4</c></rc>
    <rc><c>S </c><c>   4</c></rc>
    <rc><c>S </c><c>   4</c></rc>
    <rc><c>S </c><c>   4</c></rc>
    <rc><c>S </c><c>   4</c></rc>
    <rc><c>S </c><c>   4</c></rc>
    <rc><c>S </c><c>   4</c></rc>
    <rc><c>S </c><c>   4</c></rc>
    <rc><c>S </c><c>   4</c></rc>
    <rc><c>S </c><c>   4</c></rc>
    <rc><c>S </c><c>   4</c></rc>
    <rc><c>S </c><c>   4</c></rc>
    <rc><c>S </c><c>   4</c></rc>
    <rc><c>S </c><c>   4</c></rc>
    <rc><c>S </c><c>   4</c></rc>
   </set>
  </array>
  <array name="atomtypes" >
   <dimension dim="1">type</dimension>
   <field type="int">atomspertype</field>
   <field type="string">element</field>
   <field>mass</field>
   <field>valence</field>
   <field type="string">pseudopotential</field>
   <set>
    <rc><c>   3</c><c>V </c><c>     50.94100000</c><c>      5.00000000</c><c> PAW_PBE V 08Apr2002                    </c></rc>
    <rc><c>   3</c><c>Mo</c><c>     95.94000000</c><c>      6.00000000</c><c> PAW_PBE Mo 08Apr2002                   </c></rc>
    <rc><c>   3</c><c>W </c><c>    183.85000000</c><c>      6.00000000</c><c> PAW_PBE W 08Apr2002                    </c></rc>
    <rc><c>  18</c><c>S </c><c>     32.06600000</c><c>      6.00000000</c><c>  PAW_PBE S 17Jan2003                   </c></rc>
   </set>
  </array>
 </atominfo>
 <structure name="initialpos" >
  <crystal>
   <varray name="basis" >
    <v>       8.66999996       5.03999989       0.00000000 </v>
    <v>      -8.66999982       5.04000013       0.00000000 </v>
    <v>       0.00000000       0.00000000      30.00000000 </v>
   </varray>
   <i name="volume">   2621.80797419 </i>
   <varray name="rec_basis" >
    <v>       0.05767013       0.09920635       0.00000000 </v>
    <v>      -0.05767013       0.09920635       0.00000000 </v>
    <v>       0.00000000       0.00000000       0.03333333 </v>
   </varray>
  </crystal>
  <varray name="positions" >
   <v>       0.66666669       0.66666669       0.00000000 </v>
   <v>       0.00000000       0.66666669       0.00000000 </v>
   <v>       0.00000000       0.00000000       0.00000000 </v>
   <v>       0.33333334       0.33333334       0.00000000 </v>
   <v>       0.33333334       0.00000000       0.00000000 </v>
   <v>       0.33333334       0.66666669       0.00000000 </v>
   <v>       1.00000000       0.33333334       0.00000000 </v>
   <v>       0.66666669       0.00000000       0.00000000 </v>
   <v>       0.66666669       0.33333334       0.00000000 </v>
   <v>       0.11068511       0.22244981       0.95539999 </v>
   <v>       0.22244981       0.11068511       0.04460000 </v>
   <v>       0.11068511       0.55578315       0.95539999 </v>
   <v>       0.22244981       0.44401845       0.04460000 </v>
   <v>       0.11068511       0.88911647       0.95539999 </v>
   <v>       0.22244981       0.77735180       0.04460000 </v>
   <v>       0.44401845       0.22244981       0.95539999 </v>
   <v>       0.55578315       0.11068511       0.04460000 </v>
   <v>       0.44401845       0.55578315       0.95539999 </v>
   <v>       0.55578315       0.44401845       0.04460000 </v>
   <v>       0.44401845       0.88911647       0.95539999 </v>
   <v>       0.55578315       0.77735180       0.04460000 </v>
   <v>       0.77735180       0.22244981       0.95539999 </v>
   <v>       0.88911647       0.11068511       0.04460000 </v>
   <v>       0.77735180       0.55578315       0.95539999 </v>
   <v>       0.88911647       0.44401845       0.04460000 </v>
   <v>       0.77735180       0.88911647       0.95539999 </v>
   <v>       0.88911647       0.77735180       0.04460000 </v>
  </varray>
 </structure>
 <calculation>
  <scstep>
   <time name="dav">   22.89   22.95</time>
   <time name="total">   22.94   23.00</time>
   <energy>
    <i name="alphaZ">     81.65567618 </i>
    <i name="ewald">  41891.17176702 </i>
    <i name="hartreedc"> -47723.81766623 </i>
    <i name="XCdc">   -242.92468730 </i>
    <i name="pawpsdc">   3467.42045192 </i>
    <i name="pawaedc">  -2871.19716117 </i>
    <i name="eentropy">     -0.55010383 </i>
    <i name="bandstr">   -237.61010497 </i>
    <i name="atom">   6761.44252427 </i>
    <i name="e_fr_energy">   1125.59069588 </i>
    <i name="e_wo_entrp">   1126.14079971 </i>
    <i name="e_0_energy">   1125.86574780 </i>
   </energy>
  </scstep>
  <scstep>
   <time name="dav">   29.79   29.86</time>
   <time name="total">   29.79   29.87</time>
   <energy>
    <i name="e_fr_energy">     -1.96360577 </i>
    <i name="e_wo_entrp">     -1.75181496 </i>
    <i name="e_0_energy">     -1.85771037 </i>
   </energy>
  </scstep>
  <scstep>
   <time name="dav">   28.92   28.99</time>
   <time name="total">   28.93   29.00</time>
   <energy>
    <i name="e_fr_energy">   -199.66948757 </i>
    <i name="e_wo_entrp">   -199.42087719 </i>
    <i name="e_0_energy">   -199.54518238 </i>
   </energy>
  </scstep>
  <scstep>
   <time name="dav">   31.89   31.96</time>
   <time name="total">   31.89   31.97</time>
   <energy>
    <i name="e_fr_energy">   -208.99794183 </i>
    <i name="e_wo_entrp">   -208.70703263 </i>
    <i name="e_0_energy">   -208.85248723 </i>
   </energy>
  </scstep>
  <scstep>
   <time name="dav">   29.35   29.42</time>
   <time name="total">   29.82   29.90</time>
   <energy>
    <i name="e_fr_energy">   -209.30405907 </i>
    <i name="e_wo_entrp">   -209.01585771 </i>
    <i name="e_0_energy">   -209.15995839 </i>
   </energy>
  </scstep>
  <scstep>
   <time name="dav">   32.74   32.82</time>
   <time name="total">   33.25   33.33</time>
   <energy>
    <i name="e_fr_energy">   -237.86584215 </i>
    <i name="e_wo_entrp">   -237.61347496 </i>
    <i name="e_0_energy">   -237.73965856 </i>
   </energy>
  </scstep>
  <scstep>
   <time name="dav">   34.71   34.79</time>
   <time name="total">   35.30   35.39</time>
   <energy>
    <i name="e_fr_energy">   -196.57234288 </i>
    <i name="e_wo_entrp">   -196.21644169 </i>
    <i name="e_0_energy">   -196.39439228 </i>
   </energy>
  </scstep>
  <scstep>
   <time name="dav">   31.42   31.49</time>
   <time name="total">   32.02   32.10</time>
   <energy>
    <i name="e_fr_energy">   -189.47262307 </i>
    <i name="e_wo_entrp">   -189.16115518 </i>
    <i name="e_0_energy">   -189.31688912 </i>
   </energy>
  </scstep>
  <scstep>
   <time name="dav">   34.69   34.78</time>
   <time name="total">   35.30   35.39</time>
   <energy>
    <i name="e_fr_energy">   -188.12815567 </i>
    <i name="e_wo_entrp">   -187.80682335 </i>
    <i name="e_0_energy">   -187.96748951 </i>
   </energy>
  </scstep>
  <scstep>
   <time name="dav">   34.29   34.37</time>
   <time name="total">   34.91   35.00</time>
   <energy>
    <i name="e_fr_energy">   -186.93584582 </i>
    <i name="e_wo_entrp">   -186.58475820 </i>
    <i name="e_0_energy">   -186.76030201 </i>
   </energy>
  </scstep>
  <scstep>
   <time name="dav">   34.76   34.85</time>
   <time name="total">   35.38   35.47</time>
   <energy>
    <i name="e_fr_energy">   -187.02341886 </i>
    <i name="e_wo_entrp">   -186.68525132 </i>
    <i name="e_0_energy">   -186.85433509 </i>
   </energy>
  </scstep>
  <scstep>
   <time name="dav">   33.09   33.17</time>
   <time name="total">   33.71   33.79</time>
   <energy>
    <i name="e_fr_energy">   -186.94525152 </i>
    <i name="e_wo_entrp">   -186.61299602 </i>
    <i name="e_0_energy">   -186.77912377 </i>
   </energy>
  </scstep>
  <scstep>
   <time name="dav">   33.77   33.85</time>
   <time name="total">   34.39   34.48</time>
   <energy>
    <i name="e_fr_energy">   -186.86576380 </i>
    <i name="e_wo_entrp">   -186.53016507 </i>
    <i name="e_0_energy">   -186.69796444 </i>
   </energy>
  </scstep>
  <scstep>
   <time name="dav">   33.50   33.58</time>
   <time name="total">   34.11   34.20</time>
   <energy>
    <i name="e_fr_energy">   -186.82716568 </i>
    <i name="e_wo_entrp">   -186.48376669 </i>
    <i name="e_0_energy">   -186.65546619 </i>
   </energy>
  </scstep>
  <scstep>
   <time name="dav">   30.64   30.71</time>
   <time name="total">   31.26   31.34</time>
   <energy>
    <i name="e_fr_energy">   -186.82336431 </i>
    <i name="e_wo_entrp">   -186.48107076 </i>
    <i name="e_0_energy">   -186.65221753 </i>
   </energy>
  </scstep>
  <scstep>
   <time name="dav">   32.97   33.05</time>
   <time name="total">   33.59   33.68</time>
   <energy>
    <i name="e_fr_energy">   -186.82491196 </i>
    <i name="e_wo_entrp">   -186.48362787 </i>
    <i name="e_0_energy">   -186.65426991 </i>
   </energy>
  </scstep>
  <scstep>
   <time name="dav">   33.41   33.49</time>
   <time name="total">   34.03   34.12</time>
   <energy>
    <i name="e_fr_energy">   -186.82148961 </i>
    <i name="e_wo_entrp">   -186.48056051 </i>
    <i name="e_0_energy">   -186.65102506 </i>
   </energy>
  </scstep>
  <scstep>
   <time name="dav">   30.60   30.68</time>
   <time name="total">   31.22   31.31</time>
   <energy>
    <i name="e_fr_energy">   -186.82109373 </i>
    <i name="e_wo_entrp">   -186.47950158 </i>
    <i name="e_0_energy">   -186.65029766 </i>
   </energy>
  </scstep>
  <scstep>
   <time name="dav">   28.90   28.97</time>
   <time name="total">   29.52   29.60</time>
   <energy>
    <i name="e_fr_energy">   -186.82166303 </i>
    <i name="e_wo_entrp">   -186.48048639 </i>
    <i name="e_0_energy">   -186.65107471 </i>
   </energy>
  </scstep>
  <scstep>
   <time name="dav">   23.08   23.13</time>
   <time name="total">   23.69   23.76</time>
   <energy>
    <i name="e_fr_energy">   -186.82196383 </i>
    <i name="e_wo_entrp">   -186.48088645 </i>
    <i name="e_0_energy">   -186.65142514 </i>
   </energy>
  </scstep>
  <scstep>
   <time name="dav">   23.66   23.71</time>
   <time name="total">   24.27   24.34</time>
   <energy>
    <i name="e_fr_energy">   -186.82316311 </i>
    <i name="e_wo_entrp">   -186.48197423 </i>
    <i name="e_0_energy">   -186.65256867 </i>
   </energy>
  </scstep>
  <scstep>
   <time name="dav">   19.76   19.81</time>
   <time name="total">   20.38   20.43</time>
   <energy>
    <i name="e_fr_energy">   -186.82394819 </i>
    <i name="e_wo_entrp">   -186.48277119 </i>
    <i name="e_0_energy">   -186.65335969 </i>
   </energy>
  </scstep>
  <scstep>
   <time name="dav">   21.53   21.59</time>
   <time name="total">   22.15   22.21</time>
   <energy>
    <i name="e_fr_energy">   -186.82477534 </i>
    <i name="e_wo_entrp">   -186.48365402 </i>
    <i name="e_0_energy">   -186.65421468 </i>
   </energy>
  </scstep>
  <scstep>
   <time name="dav">   18.87   18.91</time>
   <time name="total">   19.49   19.54</time>
   <energy>
    <i name="e_fr_energy">   -186.82539272 </i>
    <i name="e_wo_entrp">   -186.48423939 </i>
    <i name="e_0_energy">   -186.65481606 </i>
   </energy>
  </scstep>
  <scstep>
   <time name="dav">   18.53   18.57</time>
   <time name="total">   19.15   19.20</time>
   <energy>
    <i name="e_fr_energy">   -186.82584166 </i>
    <i name="e_wo_entrp">   -186.48467664 </i>
    <i name="e_0_energy">   -186.65525915 </i>
   </energy>
  </scstep>
  <scstep>
   <time name="dav">   20.42   20.47</time>
   <time name="total">   21.04   21.10</time>
   <energy>
    <i name="e_fr_energy">   -186.82601334 </i>
    <i name="e_wo_entrp">   -186.48485347 </i>
    <i name="e_0_energy">   -186.65543340 </i>
   </energy>
  </scstep>
  <scstep>
   <time name="dav">   19.74   19.79</time>
   <time name="total">   20.36   20.42</time>
   <energy>
    <i name="e_fr_energy">   -186.82611778 </i>
    <i name="e_wo_entrp">   -186.48496154 </i>
    <i name="e_0_energy">   -186.65553966 </i>
   </energy>
  </scstep>
  <scstep>
   <time name="dav">   20.89   20.94</time>
   <time name="total">   20.93   20.98</time>
   <energy>
    <i name="alphaZ">     81.65567618 </i>
    <i name="ewald">  41891.17176702 </i>
    <i name="hartreedc"> -47833.71148573 </i>
    <i name="XCdc">   -231.60908678 </i>
    <i name="pawpsdc">   4192.06949342 </i>
    <i name="pawaedc">  -3610.06566599 </i>
    <i name="eentropy">     -0.34115741 </i>
    <i name="bandstr">  -1437.43823319 </i>
    <i name="atom">   6761.44252427 </i>
    <i name="e_fr_energy">   -186.82616821 </i>
    <i name="e_wo_entrp">   -186.48501080 </i>
    <i name="e_0_energy">   -186.65558950 </i>
   </energy>
  </scstep>
  <structure>
   <crystal>
    <varray name="basis" >
     <v>       8.66999996       5.03999989       0.00000000 </v>
     <v>      -8.66999982       5.04000013       0.00000000 </v>
     <v>       0.00000000       0.00000000      30.00000000 </v>
    </varray>
    <i name="volume">   2621.80797419 </i>
    <varray name="rec_basis" >
     <v>       0.05767013       0.09920635       0.00000000 </v>
     <v>      -0.05767013       0.09920635       0.00000000 </v>
     <v>       0.00000000       0.00000000       0.03333333 </v>
    </varray>
   </crystal>
   <varray name="positions" >
    <v>       0.66666669       0.66666669       0.00000000 </v>
    <v>       0.00000000       0.66666669       0.00000000 </v>
    <v>       0.00000000       0.00000000       0.00000000 </v>
    <v>       0.33333334       0.33333334       0.00000000 </v>
    <v>       0.33333334       0.00000000       0.00000000 </v>
    <v>       0.33333334       0.66666669       0.00000000 </v>
    <v>       1.00000000       0.33333334       0.00000000 </v>
    <v>       0.66666669       0.00000000       0.00000000 </v>
    <v>       0.66666669       0.33333334       0.00000000 </v>
    <v>       0.11068511       0.22244981       0.95539999 </v>
    <v>       0.22244981       0.11068511       0.04460000 </v>
    <v>       0.11068511       0.55578315       0.95539999 </v>
    <v>       0.22244981       0.44401845       0.04460000 </v>
    <v>       0.11068511       0.88911647       0.95539999 </v>
    <v>       0.22244981       0.77735180       0.04460000 </v>
    <v>       0.44401845       0.22244981       0.95539999 </v>
    <v>       0.55578315       0.11068511       0.04460000 </v>
    <v>       0.44401845       0.55578315       0.95539999 </v>
    <v>       0.55578315       0.44401845       0.04460000 </v>
    <v>       0.44401845       0.88911647       0.95539999 </v>
    <v>       0.55578315       0.77735180       0.04460000 </v>
    <v>       0.77735180       0.22244981       0.95539999 </v>
    <v>       0.88911647       0.11068511       0.04460000 </v>
    <v>       0.77735180       0.55578315       0.95539999 </v>
    <v>       0.88911647       0.44401845       0.04460000 </v>
    <v>       0.77735180       0.88911647       0.95539999 </v>
    <v>       0.88911647       0.77735180       0.04460000 </v>
   </varray>
  </structure>
  <varray name="forces" >
   <v>      -0.11899843      -0.20276296       0.00904472 </v>
   <v>       0.01992039       0.35210849       0.04449593 </v>
   <v>       0.30599779       0.20095494       0.03384060 </v>
   <v>      -0.00497588      -0.00692495      -0.11826459 </v>
   <v>      -0.01645579      -0.01189798       0.13090731 </v>
   <v>       0.00440837      -0.01437521      -0.11691171 </v>
   <v>       0.29273582       0.47940824      -0.13188633 </v>
   <v>      -0.15468472      -0.48508537       0.06928392 </v>
   <v>      -0.36051912      -0.38801531       0.08260728 </v>
   <v>       0.35220211      -0.68447480      -2.18773413 </v>
   <v>      -0.50191353      -0.70103695       2.13709555 </v>
   <v>      -0.64594319      -0.15187516      -2.14406927 </v>
   <v>      -0.20439676      -0.13874104       2.88943270 </v>
   <v>      -0.32784719      -0.67692136      -1.42607702 </v>
   <v>      -0.54427582      -0.67765186       2.13296843 </v>
   <v>       0.17478100       0.14964964      -2.89773709 </v>
   <v>      -0.04452253       0.14515846       2.97870810 </v>
   <v>       0.51308012       0.68028633      -2.15103987 </v>
   <v>      -0.34132340       0.71119416       2.16776700 </v>
   <v>       0.22016473       0.12426803      -2.89261821 </v>
   <v>       0.66223824       0.17927829       2.12008258 </v>
   <v>       0.15751479       0.04056398      -2.86291688 </v>
   <v>       0.58235979      -0.01300864       2.08499861 </v>
   <v>      -0.23597582       0.52842817      -1.40072150 </v>
   <v>      -0.47196472       0.54850700       2.12849043 </v>
   <v>       0.74752819       0.00303459      -1.44413920 </v>
   <v>      -0.05913441       0.00993128       0.76439266 </v>
  </varray>
  <varray name="stress" >
   <v>       7.25590649       0.12904740      -1.53279796 </v>
   <v>       0.12904737       4.49067777       0.04155364 </v>
   <v>      -1.53279787       0.04155368      30.31845817 </v>
  </varray>
  <energy>
   <i name="e_fr_energy">   -186.82616821 </i>
   <i name="e_wo_entrp">   -186.65558950 </i>
   <i name="e_0_energy">     -0.34115741 </i>
  </energy>
  <time name="totalsc">  846.67  848.89</time>
 </calculation>
 <calculation>
  <scstep>
   <time name="dav">   22.88   22.93</time>
   <time name="total">   23.50   23.56</time>
   <energy>
    <i name="alphaZ">     78.92305413 </i>
    <i name="ewald">  39379.95348603 </i>
    <i name="hartreedc"> -45337.29602345 </i>
    <i name="XCdc">   -239.07354145 </i>
    <i name="pawpsdc">   4192.05565163 </i>
    <i name="pawaedc">  -3610.05180143 </i>
    <i name="eentropy">     -0.27823469 </i>
    <i name="bandstr">  -1413.16689359 </i>
    <i name="atom">   6761.44252427 </i>
    <i name="e_fr_energy">   -187.49177854 </i>
    <i name="e_wo_entrp">   -187.21354385 </i>
    <i name="e_0_energy">   -187.35266120 </i>
   </energy>
  </scstep>
  <scstep>
   <time name="dav">   31.91   31.98</time>
   <time name="total">   32.52   32.60</time>
   <energy>
    <i name="e_fr_energy">   -189.35121026 </i>
    <i name="e_wo_entrp">   -189.03481526 </i>
    <i name="e_0_energy">   -189.19301276 </i>
   </energy>
  </scstep>
  <scstep>
   <time name="dav">   32.16   32.24</time>
   <time name="total">   32.79   32.88</time>
   <energy>
    <i name="e_fr_energy">   -189.34767218 </i>
    <i name="e_wo_entrp">   -189.08849944 </i>
    <i name="e_0_energy">   -189.21808581 </i>
   </energy>
  </scstep>
  <scstep>
   <time name="dav">   32.82   32.90</time>
   <time name="total">   33.44   33.53</time>
   <energy>
    <i name="e_fr_energy">   -188.74290951 </i>
    <i name="e_wo_entrp">   -188.46233794 </i>
    <i name="e_0_energy">   -188.60262372 </i>
   </energy>
  </scstep>
  <scstep>
   <time name="dav">   27.86   27.93</time>
   <time name="total">   28.48   28.56</time>
   <energy>
    <i name="e_fr_energy">   -188.72620127 </i>
    <i name="e_wo_entrp">   -188.44984181 </i>
    <i name="e_0_energy">   -188.58802154 </i>
   </energy>
  </scstep>
  <scstep>
   <time name="dav">   31.67   31.75</time>
   <time name="total">   32.30   32.38</time>
   <energy>
    <i name="e_fr_energy">   -188.69267218 </i>
    <i name="e_wo_entrp">   -188.41269754 </i>
    <i name="e_0_energy">   -188.55268486 </i>
   </energy>
  </scstep>
  <scstep>
   <time name="dav">   33.30   33.38</time>
   <time name="total">   33.92   34.01</time>
   <energy>
    <i name="e_fr_energy">   -188.70070417 </i>
    <i name="e_wo_entrp">   -188.42011456 </i>
    <i name="e_0_energy">   -188.56040936 </i>
   </energy>
  </scstep>
  <scstep>
   <time name="dav">   34.04   34.12</time>
   <time name="total">   34.66   34.75</time>
   <energy>
    <i name="e_fr_energy">   -188.65797291 </i>
    <i name="e_wo_entrp">   -188.38038491 </i>
    <i name="e_0_energy">   -188.51917891 </i>
   </energy>
  </scstep>
  <scstep>
   <time name="dav">   28.04   28.10</time>
   <time name="total">   28.66   28.74</time>
   <energy>
    <i name="e_fr_energy">   -188.65646658 </i>
    <i name="e_wo_entrp">   -188.37952890 </i>
    <i name="e_0_energy">   -188.51799774 </i>
   </energy>
  </scstep>
  <scstep>
   <time name="dav">   34.31   34.39</time>
   <time name="total">   34.93   35.02</time>
   <energy>
    <i name="e_fr_energy">   -188.65731075 </i>
    <i name="e_wo_entrp">   -188.38095407 </i>
    <i name="e_0_energy">   -188.51913241 </i>
   </energy>
  </scstep>
  <scstep>
   <time name="dav">   33.29   33.37</time>
   <time name="total">   33.91   34.00</time>
   <energy>
    <i name="e_fr_energy">   -188.65591215 </i>
    <i name="e_wo_entrp">   -188.37967991 </i>
    <i name="e_0_energy">   -188.51779603 </i>
   </energy>
  </scstep>
  <scstep>
   <time name="dav">   30.82   30.89</time>
   <time name="total">   30.86   30.94</time>
   <energy>
    <i name="alphaZ">     78.92305413 </i>
    <i name="ewald">  39379.95348603 </i>
    <i name="hartreedc"> -45348.36081236 </i>
    <i name="XCdc">   -237.97532297 </i>
    <i name="pawpsdc">   3952.64890659 </i>
    <i name="pawaedc">  -3367.17460044 </i>
    <i name="eentropy">     -0.27613879 </i>
    <i name="bandstr">  -1407.83694621 </i>
    <i name="atom">   6761.44252427 </i>
    <i name="e_fr_energy">   -188.65584974 </i>
    <i name="e_wo_entrp">   -188.37971096 </i>
    <i name="e_0_energy">   -188.51778035 </i>
   </energy>
  </scstep>
  <structure>
   <crystal>
    <varray name="basis" >
     <v>       8.85583838       5.10944718       0.00000000 </v>
     <v>      -8.85203488       5.10290474       0.00000000 </v>
     <v>       0.00000000       0.00000000      30.00000000 </v>
    </varray>
    <i name="volume">   2712.58512853 </i>
    <varray name="rec_basis" >
     <v>       0.05643588       0.09789962       0.00000000 </v>
     <v>      -0.05650824       0.09794168       0.00000000 </v>
     <v>       0.00000000       0.00000000       0.03333333 </v>
    </varray>
   </crystal>
   <varray name="positions" >
    <v>       0.66536519       0.66602734       0.00001454 </v>
    <v>       0.00174061       0.66829645       0.00007155 </v>
    <v>       0.00181310       0.00011043       0.00005442 </v>
    <v>       0.33328636       0.33331404      -0.00019018 </v>
    <v>       0.33323062      -0.00001116       0.00021051 </v>
    <v>       0.33327681       0.66658562      -0.00018800 </v>
    <v>       1.00310887       0.33481334      -0.00021208 </v>
    <v>       0.66391472      -0.00189125       0.00011141 </v>
    <v>       0.66380663       0.33247933       0.00013284 </v>
    <v>       0.10838911       0.21819405       0.95188192 </v>
    <v>       0.21769826       0.10872637       0.04803664 </v>
    <v>       0.10816112       0.55685340       0.95195214 </v>
    <v>       0.22121713       0.44392311       0.04924646 </v>
    <v>       0.10653326       0.88678886       0.95310673 </v>
    <v>       0.21769232       0.77562283       0.04803000 </v>
    <v>       0.44522094       0.22267976       0.95074017 </v>
    <v>       0.55635401       0.11150370       0.04939002 </v>
    <v>       0.44870176       0.55761152       0.95194093 </v>
    <v>       0.55823730       0.44837183       0.04808596 </v>
    <v>       0.44522573       0.88909868       0.95074840 </v>
    <v>       0.55848363       0.77636737       0.04800928 </v>
    <v>       0.77798417       0.22220572       0.95079617 </v>
    <v>       0.89067443       0.10900263       0.04795286 </v>
    <v>       0.77922432       0.55896872       0.95314751 </v>
    <v>       0.89042853       0.44795668       0.04802280 </v>
    <v>       0.77944606       0.88705125       0.95307769 </v>
    <v>       0.88899948       0.77756385       0.04582921 </v>
   </varray>
  </structure>
  <varray name="forces" >
   <v>      -0.11677026      -0.20348289      -0.09814098 </v>
   <v>       0.09966128       0.28286138       0.09323117 </v>
   <v>       0.19039097       0.22962274       0.08640799 </v>
   <v>      -0.06040183      -0.01971819      -0.03077049 </v>
   <v>       0.19490591       0.33572634       0.05875926 </v>
   <v>       0.01193396      -0.06179394      -0.03120610 </v>
   <v>       0.31864040       0.55493307       0.05551184 </v>
   <v>      -0.42157172      -0.45777544      -0.05874208 </v>
   <v>      -0.18059181      -0.59780740      -0.05467022 </v>
   <v>      -0.09390777      -0.04807155      -0.10041377 </v>
   <v>      -0.02861324      -0.07423397       0.05741527 </v>
   <v>       0.01476242      -0.09142863      -0.11597040 </v>
   <v>      -0.05386429      -0.10239624       0.09491926 </v>
   <v>      -0.01011863      -0.05320029       0.00715877 </v>
   <v>      -0.03297734      -0.07001233       0.05449565 </v>
   <v>       0.05305287       0.10261684      -0.14031802 </v>
   <v>       0.06737014       0.08916188       0.18793683 </v>
   <v>       0.03257843       0.07662487      -0.09450687 </v>
   <v>       0.10051666       0.05174377       0.05198209 </v>
   <v>       0.05195760       0.10253322      -0.13687149 </v>
   <v>      -0.02081730       0.10363062       0.06993724 </v>
   <v>      -0.01434039       0.00305889       0.26418783 </v>
   <v>      -0.10334279      -0.00960160      -0.24095359 </v>
   <v>       0.04605583      -0.06293663       0.23385194 </v>
   <v>       0.05631119      -0.07672051      -0.26493809 </v>
   <v>      -0.08942697      -0.00797551       0.25335115 </v>
   <v>      -0.01139331       0.00464151      -0.20164420 </v>
  </varray>
  <varray name="stress" >
   <v>     -19.99844662      -0.01388792      -0.01434519 </v>
   <v>      -0.01388791     -19.59498551      -0.10001158 </v>
   <v>      -0.01434537      -0.10001169      -1.84782389 </v>
  </varray>
  <energy>
   <i name="e_fr_energy">   -188.65584974 </i>
   <i name="e_wo_entrp">   -188.51778035 </i>
   <i name="e_0_energy">     -0.27613879 </i>
  </energy>
  <time name="totalsc">  423.56  424.66</time>
 </calculation>
 <calculation>
  <scstep>
   <time name="dav">   25.20   25.26</time>
   <time name="total">   25.81   25.87</time>
   <energy>
    <i name="alphaZ">     82.34929964 </i>
    <i name="ewald">  41304.27628511 </i>
    <i name="hartreedc"> -47303.23210066 </i>
    <i name="XCdc">   -233.85426487 </i>
    <i name="pawpsdc">   3950.51284211 </i>
    <i name="pawaedc">  -3365.01442609 </i>
    <i name="eentropy">     -0.23139217 </i>
    <i name="bandstr">  -1386.83260360 </i>
    <i name="atom">   6761.44252427 </i>
    <i name="e_fr_energy">   -190.58383626 </i>
    <i name="e_wo_entrp">   -190.35244409 </i>
    <i name="e_0_energy">   -190.46814018 </i>
   </energy>
  </scstep>
  <scstep>
   <time name="dav">   30.42   30.49</time>
   <time name="total">   31.02   31.11</time>
   <energy>
    <i name="e_fr_energy">   -190.51954821 </i>
    <i name="e_wo_entrp">   -190.30314109 </i>
    <i name="e_0_energy">   -190.41134465 </i>
   </energy>
  </scstep>
  <scstep>
   <time name="dav">   32.18   32.26</time>
   <time name="total">   32.79   32.87</time>
   <energy>
    <i name="e_fr_energy">   -190.07143095 </i>
    <i name="e_wo_entrp">   -189.82371735 </i>
    <i name="e_0_energy">   -189.94757415 </i>
   </energy>
  </scstep>
  <scstep>
   <time name="dav">   33.20   33.28</time>
   <time name="total">   33.82   33.90</time>
   <energy>
    <i name="e_fr_energy">   -189.85592973 </i>
    <i name="e_wo_entrp">   -189.63326563 </i>
    <i name="e_0_energy">   -189.74459768 </i>
   </energy>
  </scstep>
  <scstep>
   <time name="dav">   30.09   30.16</time>
   <time name="total">   30.70   30.78</time>
   <energy>
    <i name="e_fr_energy">   -189.76590519 </i>
    <i name="e_wo_entrp">   -189.53349099 </i>
    <i name="e_0_energy">   -189.64969809 </i>
   </energy>
  </scstep>
  <scstep>
   <time name="dav">   31.12   31.19</time>
   <time name="total">   31.73   31.81</time>
   <energy>
    <i name="e_fr_energy">   -189.75536599 </i>
    <i name="e_wo_entrp">   -189.52354691 </i>
    <i name="e_0_energy">   -189.63945645 </i>
   </energy>
  </scstep>
  <scstep>
   <time name="dav">   31.83   31.91</time>
   <time name="total">   32.44   32.53</time>
   <energy>
    <i name="e_fr_energy">   -189.75172732 </i>
    <i name="e_wo_entrp">   -189.52039179 </i>
    <i name="e_0_energy">   -189.63605955 </i>
   </energy>
  </scstep>
  <scstep>
   <time name="dav">   30.40   30.47</time>
   <time name="total">   31.01   31.09</time>
   <energy>
    <i name="e_fr_energy">   -189.75128841 </i>
    <i name="e_wo_entrp">   -189.51996838 </i>
    <i name="e_0_energy">   -189.63562840 </i>
   </energy>
  </scstep>
  <scstep>
   <time name="dav">   28.63   28.70</time>
   <time name="total">   29.25   29.32</time>
   <energy>
    <i name="e_fr_energy">   -189.75220091 </i>
    <i name="e_wo_entrp">   -189.52059723 </i>
    <i name="e_0_energy">   -189.63639907 </i>
   </energy>
  </scstep>
  <scstep>
   <time name="dav">   28.38   28.45</time>
   <time name="total">   28.99   29.07</time>
   <energy>
    <i name="e_fr_energy">   -189.75153452 </i>
    <i name="e_wo_entrp">   -189.51994654 </i>
    <i name="e_0_energy">   -189.63574053 </i>
   </energy>
  </scstep>
  <scstep>
   <time name="dav">   19.66   19.71</time>
   <time name="total">   19.70   19.75</time>
   <energy>
    <i name="alphaZ">     82.34929964 </i>
    <i name="ewald">  41304.27628511 </i>
    <i name="hartreedc"> -47276.34113440 </i>
    <i name="XCdc">   -235.24657985 </i>
    <i name="pawpsdc">   4038.45568172 </i>
    <i name="pawaedc">  -3454.15208017 </i>
    <i name="eentropy">     -0.23154493 </i>
    <i name="bandstr">  -1410.30394379 </i>
    <i name="atom">   6761.44252427 </i>
    <i name="e_fr_energy">   -189.75149241 </i>
    <i name="e_wo_entrp">   -189.51994747 </i>
    <i name="e_0_energy">   -189.63571994 </i>
   </energy>
  </scstep>
  <structure>
   <crystal>
    <varray name="basis" >
     <v>       8.66767966       5.00298963       0.00000000 </v>
     <v>      -8.66410756       4.99684451       0.00000000 </v>
     <v>       0.00000000       0.00000000      30.00000000 </v>
    </varray>
    <i name="volume">   2599.72463488 </i>
    <varray name="rec_basis" >
     <v>       0.05766201       0.09998106       0.00000000 </v>
     <v>      -0.05773292       0.10002228       0.00000000 </v>
     <v>       0.00000000       0.00000000       0.03333333 </v>
    </varray>
   </crystal>
   <varray name="positions" >
    <v>       0.66491620       0.66580156      -0.00004086 </v>
    <v>       0.00230486       0.66867027       0.00012419 </v>
    <v>       0.00237580       0.00030911       0.00010320 </v>
    <v>       0.33319593       0.33333914      -0.00020755 </v>
    <v>       0.33397356       0.00035920       0.00024368 </v>
    <v>       0.33318576       0.66647170      -0.00020562 </v>
    <v>       1.00433354       0.33542889      -0.00018075 </v>
    <v>       0.66275277      -0.00224713       0.00007825 </v>
    <v>       0.66264283       0.33166055       0.00010198 </v>
    <v>       0.10821965       0.21820418       0.95182523 </v>
    <v>       0.21754783       0.10863061       0.04806905 </v>
    <v>       0.10802364       0.55668761       0.95188667 </v>
    <v>       0.22099587       0.44380481       0.04930005 </v>
    <v>       0.10643538       0.88671030       0.95311077 </v>
    <v>       0.21754472       0.77553826       0.04806077 </v>
    <v>       0.44544179       0.22279920       0.95066096 </v>
    <v>       0.55656624       0.11158713       0.04949612 </v>
    <v>       0.44885995       0.55770744       0.95188757 </v>
    <v>       0.55841916       0.44836146       0.04811531 </v>
    <v>       0.44544540       0.88921903       0.95067113 </v>
    <v>       0.55863555       0.77655919       0.04804876 </v>
    <v>       0.77797553       0.22222451       0.95094531 </v>
    <v>       0.89055973       0.10908561       0.04781683 </v>
    <v>       0.77916399       0.55882025       0.95327952 </v>
    <v>       0.89035514       0.44777552       0.04787323 </v>
    <v>       0.77934736       0.88712360       0.95322071 </v>
    <v>       0.88899628       0.77758245       0.04571537 </v>
   </varray>
  </structure>
  <varray name="forces" >
   <v>      -0.12875216      -0.23057373      -0.10105284 </v>
   <v>       0.16408273       0.25341927       0.08048554 </v>
   <v>       0.13516709       0.26828993       0.07773693 </v>
   <v>      -0.08921358      -0.03301498      -0.00410038 </v>
   <v>       0.26035004       0.44711673       0.02766722 </v>
   <v>       0.01431199      -0.09656104      -0.00483456 </v>
   <v>       0.32630121       0.57337690       0.08381779 </v>
   <v>      -0.51384861      -0.43927778      -0.06795809 </v>
   <v>      -0.11765558      -0.66873611      -0.06793673 </v>
   <v>       0.03951960      -0.11697161      -0.62306035 </v>
   <v>      -0.06308725      -0.12884384       0.54005486 </v>
   <v>      -0.11169987      -0.01376488      -0.63896811 </v>
   <v>      -0.00340057      -0.01548853       0.65888827 </v>
   <v>      -0.03869423      -0.10121635      -0.42943398 </v>
   <v>      -0.06785465      -0.12517538       0.53931773 </v>
   <v>       0.00596614       0.01396444      -0.70099292 </v>
   <v>       0.02483141       0.02215871       0.79293605 </v>
   <v>       0.07293875       0.14237795      -0.58898499 </v>
   <v>      -0.02965930       0.10870480       0.55916786 </v>
   <v>      -0.00146818       0.01610781      -0.70015808 </v>
   <v>       0.09405121       0.02105915       0.57654650 </v>
   <v>      -0.00715523       0.01612852      -0.25460291 </v>
   <v>       0.03091308      -0.01588306       0.22483022 </v>
   <v>      -0.02270392       0.07125275      -0.20061333 </v>
   <v>      -0.02058088       0.03368769       0.20424055 </v>
   <v>       0.06507723       0.00108457      -0.18368657 </v>
   <v>      -0.01773646      -0.00322194       0.20069431 </v>
  </varray>
  <varray name="stress" >
   <v>     -10.15791867      -0.03052556      -0.04742375 </v>
   <v>      -0.03052557      -9.87408625      -0.11957569 </v>
   <v>      -0.04742369      -0.11957573       6.51018224 </v>
  </varray>
  <energy>
   <i name="e_fr_energy">   -189.75149241 </i>
   <i name="e_wo_entrp">   -189.63571994 </i>
   <i name="e_0_energy">     -0.23154493 </i>
  </energy>
  <time name="totalsc">  371.01  371.98</time>
 </calculation>
 <calculation>
  <scstep>
   <time name="dav">   22.89   22.95</time>
   <time name="total">   23.50   23.56</time>
   <energy>
    <i name="alphaZ">     85.81583192 </i>
    <i name="ewald">  42831.35060344 </i>
    <i name="hartreedc"> -48847.76151190 </i>
    <i name="XCdc">   -232.96822276 </i>
    <i name="pawpsdc">   4038.94414211 </i>
    <i name="pawaedc">  -3454.64160801 </i>
    <i name="eentropy">     -0.18914657 </i>
    <i name="bandstr">  -1373.33622510 </i>
    <i name="atom">   6761.44252427 </i>
    <i name="e_fr_energy">   -191.34361261 </i>
    <i name="e_wo_entrp">   -191.15446604 </i>
    <i name="e_0_energy">   -191.24903932 </i>
   </energy>
  </scstep>
  <scstep>
   <time name="dav">   34.28   34.36</time>
   <time name="total">   34.88   34.97</time>
   <energy>
    <i name="e_fr_energy">   -191.12903998 </i>
    <i name="e_wo_entrp">   -190.94582012 </i>
    <i name="e_0_energy">   -191.03743005 </i>
   </energy>
  </scstep>
  <scstep>
   <time name="dav">   31.65   31.73</time>
   <time name="total">   32.25   32.34</time>
   <energy>
    <i name="e_fr_energy">   -191.32446965 </i>
    <i name="e_wo_entrp">   -191.10621448 </i>
    <i name="e_0_energy">   -191.21534207 </i>
   </energy>
  </scstep>
  <scstep>
   <time name="dav">   33.37   33.45</time>
   <time name="total">   33.97   34.06</time>
   <energy>
    <i name="e_fr_energy">   -190.90772653 </i>
    <i name="e_wo_entrp">   -190.72462811 </i>
    <i name="e_0_energy">   -190.81617732 </i>
   </energy>
  </scstep>
  <scstep>
   <time name="dav">   28.96   29.03</time>
   <time name="total">   29.56   29.64</time>
   <energy>
    <i name="e_fr_energy">   -190.80724246 </i>
    <i name="e_wo_entrp">   -190.61429471 </i>
    <i name="e_0_energy">   -190.71076858 </i>
   </energy>
  </scstep>
  <scstep>
   <time name="dav">   32.72   32.80</time>
   <time name="total">   33.33   33.42</time>
   <energy>
    <i name="e_fr_energy">   -190.79625510 </i>
    <i name="e_wo_entrp">   -190.60167012 </i>
    <i name="e_0_energy">   -190.69896261 </i>
   </energy>
  </scstep>
  <scstep>
   <time name="dav">   31.32   31.39</time>
   <time name="total">   31.92   32.01</time>
   <energy>
    <i name="e_fr_energy">   -190.77657187 </i>
    <i name="e_wo_entrp">   -190.58499560 </i>
    <i name="e_0_energy">   -190.68078374 </i>
   </energy>
  </scstep>
  <scstep>
   <time name="dav">   27.26   27.32</time>
   <time name="total">   27.86   27.94</time>
   <energy>
    <i name="e_fr_energy">   -190.77246902 </i>
    <i name="e_wo_entrp">   -190.57988956 </i>
    <i name="e_0_energy">   -190.67617929 </i>
   </energy>
  </scstep>
  <scstep>
   <time name="dav">   28.30   28.37</time>
   <time name="total">   28.90   28.98</time>
   <energy>
    <i name="e_fr_energy">   -190.77290531 </i>
    <i name="e_wo_entrp">   -190.58000867 </i>
    <i name="e_0_energy">   -190.67645699 </i>
   </energy>
  </scstep>
  <scstep>
   <time name="dav">   28.22   28.29</time>
   <time name="total">   28.82   28.90</time>
   <energy>
    <i name="e_fr_energy">   -190.77262560 </i>
    <i name="e_wo_entrp">   -190.57987906 </i>
    <i name="e_0_energy">   -190.67625233 </i>
   </energy>
  </scstep>
  <scstep>
   <time name="dav">   21.09   21.14</time>
   <time name="total">   21.13   21.19</time>
   <energy>
    <i name="alphaZ">     85.81583192 </i>
    <i name="ewald">  42831.35060344 </i>
    <i name="hartreedc"> -48819.30352327 </i>
    <i name="XCdc">   -234.28980609 </i>
    <i name="pawpsdc">   4064.25535177 </i>
    <i name="pawaedc">  -3480.13083018 </i>
    <i name="eentropy">     -0.19278824 </i>
    <i name="bandstr">  -1399.72000454 </i>
    <i name="atom">   6761.44252427 </i>
    <i name="e_fr_energy">   -190.77264092 </i>
    <i name="e_wo_entrp">   -190.57985268 </i>
    <i name="e_0_energy">   -190.67624680 </i>
   </energy>
  </scstep>
  <structure>
   <crystal>
    <varray name="basis" >
     <v>       8.48657030       4.90176321       0.00000000 </v>
     <v>      -8.48444395       4.89811787       0.00000000 </v>
     <v>       0.00000000       0.00000000      30.00000000 </v>
    </varray>
    <i name="volume">   2494.70870525 </i>
    <varray name="rec_basis" >
     <v>       0.05890208       0.10202927       0.00000000 </v>
     <v>      -0.05894592       0.10205484       0.00000000 </v>
     <v>       0.00000000       0.00000000       0.03333333 </v>
    </varray>
   </crystal>
   <varray name="positions" >
    <v>       0.66292727       0.66477490      -0.00025203 </v>
    <v>       0.00449855       0.66949671       0.00027964 </v>
    <v>       0.00455606       0.00167341       0.00025642 </v>
    <v>       0.33259392       0.33346296      -0.00019348 </v>
    <v>       0.33807540       0.00239721       0.00027454 </v>
    <v>       0.33255116       0.66572679      -0.00019332 </v>
    <v>       1.00914846       0.33787005       0.00001629 </v>
    <v>       0.65807037      -0.00296046      -0.00006989 </v>
    <v>       0.65795480       0.32763904      -0.00004955 </v>
    <v>       0.10765118       0.21696820       0.95009665 </v>
    <v>       0.21633061       0.10796673       0.04959238 </v>
    <v>       0.10754692       0.55737869       0.95012493 </v>
    <v>       0.22117481       0.44386380       0.05113755 </v>
    <v>       0.10550348       0.88613899       0.95185483 </v>
    <v>       0.21633128       0.77491371       0.04958442 </v>
    <v>       0.44526309       0.22271226       0.94873928 </v>
    <v>       0.55656696       0.11153058       0.05164516 </v>
    <v>       0.45023331       0.55843961       0.95025318 </v>
    <v>       0.55894654       0.44947588       0.04969886 </v>
    <v>       0.44524974       0.88918692       0.94874897 </v>
    <v>       0.55906547       0.77598180       0.04966772 </v>
    <v>       0.77809324       0.22237330       0.94998098 </v>
    <v>       0.89074843       0.10866683       0.04867487 </v>
    <v>       0.77976204       0.55977929       0.95249797 </v>
    <v>       0.89065548       0.44844471       0.04869162 </v>
    <v>       0.77983226       0.88669669       0.95247194 </v>
    <v>       0.88888364       0.77761587       0.04646994 </v>
   </varray>
  </structure>
  <varray name="forces" >
   <v>      -0.11155614      -0.20006831      -0.07004677 </v>
   <v>       0.18208510       0.25126604       0.02462790 </v>
   <v>       0.12854922       0.27900307       0.02604280 </v>
   <v>      -0.14585338      -0.04598450       0.02531629 </v>
   <v>       0.32081209       0.55479499      -0.03414836 </v>
   <v>       0.03232634      -0.15572362       0.02618382 </v>
   <v>       0.40342418       0.70513528       0.03553848 </v>
   <v>      -0.61444149      -0.49445991      -0.02519393 </v>
   <v>      -0.11983106      -0.78173777      -0.02602596 </v>
   <v>       0.04727965      -0.01744605      -0.47410978 </v>
   <v>       0.02296676      -0.01500270       0.37945995 </v>
   <v>      -0.02920636       0.03260571      -0.47976538 </v>
   <v>       0.04872630       0.08649148       0.53602620 </v>
   <v>       0.02730719       0.02485930      -0.29384144 </v>
   <v>      -0.02689651       0.01334401       0.37929263 </v>
   <v>      -0.06548305      -0.07359012      -0.54397108 </v>
   <v>      -0.01443200      -0.02358125       0.71327772 </v>
   <v>       0.01525220       0.02580262      -0.44659621 </v>
   <v>      -0.02321221       0.00428282       0.36422681 </v>
   <v>      -0.03012629      -0.09340977      -0.54226289 </v>
   <v>       0.00129265      -0.01694288       0.36671046 </v>
   <v>       0.02124913       0.03902228      -0.04103993 </v>
   <v>      -0.03485854      -0.03385191       0.02931152 </v>
   <v>       0.01901303      -0.01965831      -0.07933376 </v>
   <v>      -0.01814828      -0.03674926       0.02383315 </v>
   <v>      -0.02309643      -0.00344774      -0.07439514 </v>
   <v>      -0.01314210      -0.00495348       0.20088290 </v>
  </varray>
  <varray name="stress" >
   <v>      -5.84806202       0.15703309      -0.02788268 </v>
   <v>       0.15703306      -5.66529538       0.07297124 </v>
   <v>      -0.02788278       0.07297123       4.55331858 </v>
  </varray>
  <energy>
   <i name="e_fr_energy">   -190.77264092 </i>
   <i name="e_wo_entrp">   -190.67624680 </i>
   <i name="e_0_energy">     -0.19278824 </i>
  </energy>
  <time name="totalsc">  369.98  370.94</time>
 </calculation>
 <calculation>
  <scstep>
   <time name="dav">   22.85   22.91</time>
   <time name="total">   23.45   23.51</time>
   <energy>
    <i name="alphaZ">     90.13239869 </i>
    <i name="ewald">  44648.51886260 </i>
    <i name="hartreedc"> -50690.97427352 </i>
    <i name="XCdc">   -231.86326415 </i>
    <i name="pawpsdc">   4064.24956025 </i>
    <i name="pawaedc">  -3480.12348406 </i>
    <i name="eentropy">     -0.16452809 </i>
    <i name="bandstr">  -1353.44502284 </i>
    <i name="atom">   6761.44252427 </i>
    <i name="e_fr_energy">   -192.22722684 </i>
    <i name="e_wo_entrp">   -192.06269875 </i>
    <i name="e_0_energy">   -192.14496279 </i>
   </energy>
  </scstep>
  <scstep>
   <time name="dav">   27.21   27.27</time>
   <time name="total">   27.80   27.88</time>
   <energy>
    <i name="e_fr_energy">   -191.94710660 </i>
    <i name="e_wo_entrp">   -191.77087239 </i>
    <i name="e_0_energy">   -191.85898949 </i>
   </energy>
  </scstep>
  <scstep>
   <time name="dav">   28.68   28.75</time>
   <time name="total">   29.28   29.35</time>
   <energy>
    <i name="e_fr_energy">   -191.76068998 </i>
    <i name="e_wo_entrp">   -191.59955568 </i>
    <i name="e_0_energy">   -191.68012283 </i>
   </energy>
  </scstep>
  <scstep>
   <time name="dav">   30.43   30.50</time>
   <time name="total">   31.02   31.11</time>
   <energy>
    <i name="e_fr_energy">   -191.80023278 </i>
    <i name="e_wo_entrp">   -191.60901792 </i>
    <i name="e_0_energy">   -191.70462535 </i>
   </energy>
  </scstep>
  <scstep>
   <time name="dav">   30.70   30.77</time>
   <time name="total">   31.29   31.38</time>
   <energy>
    <i name="e_fr_energy">   -191.62796509 </i>
    <i name="e_wo_entrp">   -191.45225322 </i>
    <i name="e_0_energy">   -191.54010916 </i>
   </energy>
  </scstep>
  <scstep>
   <time name="dav">   31.87   31.94</time>
   <time name="total">   32.46   32.56</time>
   <energy>
    <i name="e_fr_energy">   -191.60485871 </i>
    <i name="e_wo_entrp">   -191.43915231 </i>
    <i name="e_0_energy">   -191.52200551 </i>
   </energy>
  </scstep>
  <scstep>
   <time name="dav">   32.00   32.07</time>
   <time name="total">   32.59   32.67</time>
   <energy>
    <i name="e_fr_energy">   -191.58679703 </i>
    <i name="e_wo_entrp">   -191.41261918 </i>
    <i name="e_0_energy">   -191.49970811 </i>
   </energy>
  </scstep>
  <scstep>
   <time name="dav">   32.11   32.18</time>
   <time name="total">   32.70   32.79</time>
   <energy>
    <i name="e_fr_energy">   -191.57990163 </i>
    <i name="e_wo_entrp">   -191.40783830 </i>
    <i name="e_0_energy">   -191.49386997 </i>
   </energy>
  </scstep>
  <scstep>
   <time name="dav">   31.91   31.99</time>
   <time name="total">   32.50   32.59</time>
   <energy>
    <i name="e_fr_energy">   -191.58072241 </i>
    <i name="e_wo_entrp">   -191.40854884 </i>
    <i name="e_0_energy">   -191.49463562 </i>
   </energy>
  </scstep>
  <scstep>
   <time name="dav">   30.40   30.47</time>
   <time name="total">   31.00   31.08</time>
   <energy>
    <i name="e_fr_energy">   -191.57970928 </i>
    <i name="e_wo_entrp">   -191.40716118 </i>
    <i name="e_0_energy">   -191.49343523 </i>
   </energy>
  </scstep>
  <scstep>
   <time name="dav">   20.06   20.10</time>
   <time name="total">   20.09   20.15</time>
   <energy>
    <i name="alphaZ">     90.13239869 </i>
    <i name="ewald">  44648.51886260 </i>
    <i name="hartreedc"> -50657.66670810 </i>
    <i name="XCdc">   -233.34296191 </i>
    <i name="pawpsdc">   4088.73505953 </i>
    <i name="pawaedc">  -3504.71778759 </i>
    <i name="eentropy">     -0.17236392 </i>
    <i name="bandstr">  -1384.50875943 </i>
    <i name="atom">   6761.44252427 </i>
    <i name="e_fr_energy">   -191.57973584 </i>
    <i name="e_wo_entrp">   -191.40737192 </i>
    <i name="e_0_energy">   -191.49355388 </i>
   </energy>
  </scstep>
  <structure>
   <crystal>
    <varray name="basis" >
     <v>       8.28060940       4.79306112       0.00000000 </v>
     <v>      -8.26990787       4.77456162       0.00000000 </v>
     <v>       0.00000000       0.00000000      30.00000000 </v>
    </varray>
    <i name="volume">   2375.23361237 </i>
    <varray name="rec_basis" >
     <v>       0.06030432       0.10445172       0.00000000 </v>
     <v>      -0.06053798       0.10458688       0.00000000 </v>
     <v>       0.00000000       0.00000000       0.03333333 </v>
    </varray>
   </crystal>
   <varray name="positions" >
    <v>       0.65954722       0.66303344      -0.00054883 </v>
    <v>       0.00884329       0.67110637       0.00039418 </v>
    <v>       0.00886198       0.00434177       0.00037833 </v>
    <v>       0.33099938       0.33390592      -0.00008269 </v>
    <v>       0.34727017       0.00698472       0.00014138 </v>
    <v>       0.33086808       0.66361494      -0.00008022 </v>
    <v>       1.02034019       0.34351407       0.00020975 </v>
    <v>       0.64782378      -0.00446040      -0.00020103 </v>
    <v>       0.64768878       0.31884471      -0.00018745 </v>
    <v>       0.10762461       0.21585528       0.94763424 </v>
    <v>       0.21583242       0.10741991       0.05164688 </v>
    <v>       0.10759917       0.55841000       0.94763441 </v>
    <v>       0.22268347       0.44462089       0.05387178 </v>
    <v>       0.10554806       0.88601713       0.95019738 </v>
    <v>       0.21582773       0.77497900       0.05164007 </v>
    <v>       0.44378895       0.22217790       0.94595889 </v>
    <v>       0.55603049       0.11126215       0.05509940 </v>
    <v>       0.45115038       0.55890226       0.94793050 </v>
    <v>       0.55894810       0.45024155       0.05173456 </v>
    <v>       0.44377431       0.88825540       0.94597238 </v>
    <v>       0.55897090       0.77531914       0.05172049 </v>
    <v>       0.77870220       0.22271361       0.94920612 </v>
    <v>       0.89038417       0.10822987       0.04934265 </v>
    <v>       0.78003304       0.56008639       0.95170078 </v>
    <v>       0.89038039       0.44868070       0.04933305 </v>
    <v>       0.77999629       0.88651456       0.95169812 </v>
    <v>       0.88869690       0.77764318       0.04765478 </v>
   </varray>
  </structure>
  <varray name="forces" >
   <v>      -0.09089642      -0.15751726      -0.01753877 </v>
   <v>       0.11648093       0.34603890       0.01866507 </v>
   <v>       0.24271134       0.27113392       0.01974777 </v>
   <v>      -0.16508774       0.02286174       0.01138081 </v>
   <v>       0.08027260       0.13794632      -0.13332258 </v>
   <v>       0.10623709      -0.12991268       0.01273378 </v>
   <v>       0.31166479       0.53376185      -0.11101241 </v>
   <v>      -0.37907301      -0.37965476       0.11839747 </v>
   <v>      -0.13821493      -0.51137778       0.11953345 </v>
   <v>       0.00898641       0.09605833      -0.15343277 </v>
   <v>       0.14322989       0.09506803       0.04789823 </v>
   <v>       0.08045882       0.05564852      -0.15449076 </v>
   <v>       0.12170672       0.21208598       0.36584652 </v>
   <v>       0.08540190       0.15370709      -0.04501948 </v>
   <v>       0.00737725       0.17308897       0.04997835 </v>
   <v>      -0.15923855      -0.15499199      -0.25515315 </v>
   <v>      -0.02204313      -0.03146153       0.40697854 </v>
   <v>      -0.04540327      -0.08046158      -0.12951139 </v>
   <v>       0.02928190      -0.09380224       0.05416887 </v>
   <v>      -0.05115559      -0.21465247      -0.25283535 </v>
   <v>      -0.09644902      -0.02311446       0.05040810 </v>
   <v>       0.06016257       0.10017594       0.34088955 </v>
   <v>      -0.19973509      -0.03481378      -0.34489301 </v>
   <v>       0.11787495      -0.21549573       0.17720770 </v>
   <v>       0.06248291      -0.19123822      -0.34127708 </v>
   <v>      -0.24336605      -0.00386095       0.17547435 </v>
   <v>       0.01633273       0.02477985      -0.03082185 </v>
  </varray>
  <varray name="stress" >
   <v>      -0.02080110       0.38645250       0.24344856 </v>
   <v>       0.38645247       0.45138375       0.45786778 </v>
   <v>       0.24344835       0.45786781      -0.39932711 </v>
  </varray>
  <energy>
   <i name="e_fr_energy">   -191.57973584 </i>
   <i name="e_wo_entrp">   -191.49355388 </i>
   <i name="e_0_energy">     -0.17236392 </i>
  </energy>
  <time name="totalsc">  368.09  369.07</time>
 </calculation>
 <calculation>
  <scstep>
   <time name="dav">   22.87   22.93</time>
   <time name="total">   23.47   23.53</time>
   <energy>
    <i name="alphaZ">     90.00503106 </i>
    <i name="ewald">  44568.91255371 </i>
    <i name="hartreedc"> -50577.45761629 </i>
    <i name="XCdc">   -233.52601894 </i>
    <i name="pawpsdc">   4088.68867050 </i>
    <i name="pawaedc">  -3504.66651486 </i>
    <i name="eentropy">     -0.16702540 </i>
    <i name="bandstr">  -1384.92136305 </i>
    <i name="atom">   6761.44252427 </i>
    <i name="e_fr_energy">   -191.68975899 </i>
    <i name="e_wo_entrp">   -191.52273358 </i>
    <i name="e_0_energy">   -191.60624629 </i>
   </energy>
  </scstep>
  <scstep>
   <time name="dav">   33.55   33.63</time>
   <time name="total">   34.14   34.23</time>
   <energy>
    <i name="e_fr_energy">   -191.76042703 </i>
    <i name="e_wo_entrp">   -191.57444275 </i>
    <i name="e_0_energy">   -191.66743489 </i>
   </energy>
  </scstep>
  <scstep>
   <time name="dav">   32.36   32.44</time>
   <time name="total">   32.96   33.04</time>
   <energy>
    <i name="e_fr_energy">   -191.70872612 </i>
    <i name="e_wo_entrp">   -191.53995554 </i>
    <i name="e_0_energy">   -191.62434083 </i>
   </energy>
  </scstep>
  <scstep>
   <time name="dav">   30.21   30.28</time>
   <time name="total">   30.81   30.89</time>
   <energy>
    <i name="e_fr_energy">   -191.70943965 </i>
    <i name="e_wo_entrp">   -191.53992683 </i>
    <i name="e_0_energy">   -191.62468324 </i>
   </energy>
  </scstep>
  <scstep>
   <time name="dav">   30.59   30.67</time>
   <time name="total">   31.19   31.27</time>
   <energy>
    <i name="e_fr_energy">   -191.70605764 </i>
    <i name="e_wo_entrp">   -191.53463994 </i>
    <i name="e_0_energy">   -191.62034879 </i>
   </energy>
  </scstep>
  <scstep>
   <time name="dav">   30.22   30.29</time>
   <time name="total">   30.81   30.90</time>
   <energy>
    <i name="e_fr_energy">   -191.70554246 </i>
    <i name="e_wo_entrp">   -191.53466216 </i>
    <i name="e_0_energy">   -191.62010231 </i>
   </energy>
  </scstep>
  <scstep>
   <time name="dav">   29.25   29.32</time>
   <time name="total">   29.84   29.92</time>
   <energy>
    <i name="e_fr_energy">   -191.70526153 </i>
    <i name="e_wo_entrp">   -191.53478018 </i>
    <i name="e_0_energy">   -191.62002086 </i>
   </energy>
  </scstep>
  <scstep>
   <time name="dav">   19.34   19.39</time>
   <time name="total">   19.38   19.44</time>
   <energy>
    <i name="alphaZ">     90.00503106 </i>
    <i name="ewald">  44568.91255371 </i>
    <i name="hartreedc"> -50579.58642903 </i>
    <i name="XCdc">   -233.45224574 </i>
    <i name="pawpsdc">   4085.63543721 </i>
    <i name="pawaedc">  -3501.56215343 </i>
    <i name="eentropy">     -0.17057004 </i>
    <i name="bandstr">  -1382.92945889 </i>
    <i name="atom">   6761.44252427 </i>
    <i name="e_fr_energy">   -191.70531086 </i>
    <i name="e_wo_entrp">   -191.53474082 </i>
    <i name="e_0_energy">   -191.62002584 </i>
   </energy>
  </scstep>
  <structure>
   <crystal>
    <varray name="basis" >
     <v>       8.28620888       4.80763564       0.00000000 </v>
     <v>      -8.26596136       4.77260048       0.00000000 </v>
     <v>       0.00000000       0.00000000      30.00000000 </v>
    </varray>
    <i name="volume">   2378.59484524 </i>
    <varray name="rec_basis" >
     <v>       0.06019437       0.10425434       0.00000000 </v>
     <v>      -0.06063625       0.10450971       0.00000000 </v>
     <v>       0.00000000       0.00000000       0.03333333 </v>
    </varray>
   </crystal>
   <varray name="positions" >
    <v>       0.65854401       0.66253223      -0.00057331 </v>
    <v>       0.01084396       0.67247190       0.00042235 </v>
    <v>       0.01085302       0.00496030       0.00040812 </v>
    <v>       0.33065741       0.33448848      -0.00006594 </v>
    <v>       0.34808524       0.00738970      -0.00006789 </v>
    <v>       0.33054625       0.66268808      -0.00006134 </v>
    <v>       1.02375829       0.34520755       0.00003197 </v>
    <v>       0.64496706      -0.00524047      -0.00001238 </v>
    <v>       0.64486855       0.31679897       0.00000309 </v>
    <v>       0.10812717       0.21632131       0.94742163 </v>
    <v>       0.21672104       0.10748735       0.05169725 </v>
    <v>       0.10810509       0.55844119       0.94742045 </v>
    <v>       0.22406476       0.44531477       0.05441697 </v>
    <v>       0.10655584       0.88653695       0.95014702 </v>
    <v>       0.21671437       0.77581721       0.05169369 </v>
    <v>       0.44258271       0.22187277       0.94558917 </v>
    <v>       0.55581838       0.11117283       0.05570196 </v>
    <v>       0.45060918       0.55862704       0.94775400 </v>
    <v>       0.55856659       0.44968065       0.05179473 </v>
    <v>       0.44258171       0.88734789       0.94560630 </v>
    <v>       0.55858105       0.77549139       0.05177449 </v>
    <v>       0.77936385       0.22303391       0.94975711 </v>
    <v>       0.88964265       0.10863687       0.04878688 </v>
    <v>       0.77929760       0.55867190       0.95199249 </v>
    <v>       0.88961296       0.44754702       0.04878330 </v>
    <v>       0.77927725       0.88719776       0.95198682 </v>
    <v>       0.88886846       0.77771891       0.04759098 </v>
   </varray>
  </structure>
  <varray name="forces" >
   <v>      -0.08628131      -0.15513065      -0.07047388 </v>
   <v>       0.10829947       0.38030293       0.04145182 </v>
   <v>       0.27892340       0.26641208       0.04264342 </v>
   <v>      -0.16259428       0.06185999       0.01078407 </v>
   <v>       0.07480641       0.12246081      -0.06074683 </v>
   <v>       0.12458074      -0.11662405       0.01143334 </v>
   <v>       0.29880574       0.53362088      -0.00322568 </v>
   <v>      -0.36016406      -0.42059749       0.02432207 </v>
   <v>      -0.18437548      -0.51932907       0.02247995 </v>
   <v>       0.03552732       0.07829522      -0.14467424 </v>
   <v>       0.07792520       0.06526295       0.02957397 </v>
   <v>       0.04846959       0.06970818      -0.14306169 </v>
   <v>       0.07080248       0.12347457       0.23797025 </v>
   <v>       0.04706391       0.07618289      -0.09306395 </v>
   <v>       0.01265988       0.09617752       0.02576317 </v>
   <v>      -0.10360241      -0.07994385      -0.14815815 </v>
   <v>      -0.06097113      -0.09995475       0.28996677 </v>
   <v>      -0.02379331      -0.04413970      -0.09610462 </v>
   <v>      -0.00311231      -0.06296643       0.08073370 </v>
   <v>      -0.01662905      -0.13125085      -0.15033834 </v>
   <v>      -0.05341364      -0.03313660       0.07908184 </v>
   <v>       0.04907626       0.08156736       0.37136576 </v>
   <v>      -0.15794616      -0.02237687      -0.36458651 </v>
   <v>       0.09417392      -0.15157762       0.23538243 </v>
   <v>       0.05397906      -0.14369920      -0.36562240 </v>
   <v>      -0.17886625       0.00271081       0.23133639 </v>
   <v>       0.01665600       0.02269095      -0.09423266 </v>
  </varray>
  <varray name="stress" >
   <v>      -0.05027598       0.02531597       0.01426011 </v>
   <v>       0.02531595      -0.01587204       0.06419112 </v>
   <v>       0.01425983       0.06419120      -1.29798719 </v>
  </varray>
  <energy>
   <i name="e_fr_energy">   -191.70531086 </i>
   <i name="e_wo_entrp">   -191.62002584 </i>
   <i name="e_0_energy">     -0.17057004 </i>
  </energy>
  <time name="totalsc">  276.25  276.97</time>
 </calculation>
 <calculation>
  <scstep>
   <time name="dav">   22.90   22.96</time>
   <time name="total">   23.50   23.56</time>
   <energy>
    <i name="alphaZ">     90.03466835 </i>
    <i name="ewald">  44586.33384073 </i>
    <i name="hartreedc"> -50596.89545738 </i>
    <i name="XCdc">   -233.43066718 </i>
    <i name="pawpsdc">   4085.56901947 </i>
    <i name="pawaedc">  -3501.49500959 </i>
    <i name="eentropy">     -0.16056715 </i>
    <i name="bandstr">  -1383.23276437 </i>
    <i name="atom">   6761.44252427 </i>
    <i name="e_fr_energy">   -191.83441286 </i>
    <i name="e_wo_entrp">   -191.67384571 </i>
    <i name="e_0_energy">   -191.75412928 </i>
   </energy>
  </scstep>
  <scstep>
   <time name="dav">   32.03   32.11</time>
   <time name="total">   32.61   32.70</time>
   <energy>
    <i name="e_fr_energy">   -191.90299474 </i>
    <i name="e_wo_entrp">   -191.72470631 </i>
    <i name="e_0_energy">   -191.81385053 </i>
   </energy>
  </scstep>
  <scstep>
   <time name="dav">   32.29   32.37</time>
   <time name="total">   32.88   32.97</time>
   <energy>
    <i name="e_fr_energy">   -191.86496760 </i>
    <i name="e_wo_entrp">   -191.70470268 </i>
    <i name="e_0_energy">   -191.78483514 </i>
   </energy>
  </scstep>
  <scstep>
   <time name="dav">   32.06   32.14</time>
   <time name="total">   32.65   32.74</time>
   <energy>
    <i name="e_fr_energy">   -191.86382922 </i>
    <i name="e_wo_entrp">   -191.70205175 </i>
    <i name="e_0_energy">   -191.78294049 </i>
   </energy>
  </scstep>
  <scstep>
   <time name="dav">   32.03   32.10</time>
   <time name="total">   32.62   32.71</time>
   <energy>
    <i name="e_fr_energy">   -191.85846892 </i>
    <i name="e_wo_entrp">   -191.69439037 </i>
    <i name="e_0_energy">   -191.77642964 </i>
   </energy>
  </scstep>
  <scstep>
   <time name="dav">   32.22   32.29</time>
   <time name="total">   32.81   32.89</time>
   <energy>
    <i name="e_fr_energy">   -191.85780072 </i>
    <i name="e_wo_entrp">   -191.69400678 </i>
    <i name="e_0_energy">   -191.77590375 </i>
   </energy>
  </scstep>
  <scstep>
   <time name="dav">   28.16   28.22</time>
   <time name="total">   28.75   28.83</time>
   <energy>
    <i name="e_fr_energy">   -191.85719112 </i>
    <i name="e_wo_entrp">   -191.69380329 </i>
    <i name="e_0_energy">   -191.77549720 </i>
   </energy>
  </scstep>
  <scstep>
   <time name="dav">   26.13   26.20</time>
   <time name="total">   26.17   26.24</time>
   <energy>
    <i name="alphaZ">     90.03466835 </i>
    <i name="ewald">  44586.33384073 </i>
    <i name="hartreedc"> -50597.47778907 </i>
    <i name="XCdc">   -233.40374746 </i>
    <i name="pawpsdc">   4090.20925210 </i>
    <i name="pawaedc">  -3506.18611663 </i>
    <i name="eentropy">     -0.16334141 </i>
    <i name="bandstr">  -1382.64652342 </i>
    <i name="atom">   6761.44252427 </i>
    <i name="e_fr_energy">   -191.85723254 </i>
    <i name="e_wo_entrp">   -191.69389112 </i>
    <i name="e_0_energy">   -191.77556183 </i>
   </energy>
  </scstep>
  <structure>
   <crystal>
    <varray name="basis" >
     <v>       8.28476628       4.80800518       0.00000000 </v>
     <v>      -8.26355886       4.77130681       0.00000000 </v>
     <v>       0.00000000       0.00000000      30.00000000 </v>
    </varray>
    <i name="volume">   2377.81186789 </i>
    <varray name="rec_basis" >
     <v>       0.06019787       0.10425836       0.00000000 </v>
     <v>      -0.06066088       0.10452593       0.00000000 </v>
[...]
      <set comment="kpoint 31">
       <r>  -17.5283    1.0000 </r>
       <r>  -17.2913    1.0000 </r>
       <r>  -16.9220    1.0000 </r>
       <r>  -16.6118    1.0000 </r>
       <r>  -16.5786    1.0000 </r>
       <r>  -16.4694    1.0000 </r>
       <r>  -16.2767    1.0000 </r>
       <r>  -16.2012    1.0000 </r>
       <r>  -16.1249    1.0000 </r>
       <r>  -16.0756    1.0000 </r>
       <r>  -15.9664    1.0000 </r>
       <r>  -15.8496    1.0000 </r>
       <r>  -15.7466    1.0000 </r>
       <r>  -15.6904    1.0000 </r>
       <r>  -15.6069    1.0000 </r>
       <r>  -15.4304    1.0000 </r>
       <r>  -15.3392    1.0000 </r>
       <r>  -15.2024    1.0000 </r>
       <r>   -9.7769    1.0000 </r>
       <r>   -9.4779    1.0000 </r>
       <r>   -9.3636    1.0000 </r>
       <r>   -8.9248    1.0000 </r>
       <r>   -8.8477    1.0000 </r>
       <r>   -8.7772    1.0000 </r>
       <r>   -8.6677    1.0000 </r>
       <r>   -8.6182    1.0000 </r>
       <r>   -8.4234    1.0000 </r>
       <r>   -8.2905    1.0000 </r>
       <r>   -8.2353    1.0000 </r>
       <r>   -8.1773    1.0000 </r>
       <r>   -8.1097    1.0000 </r>
       <r>   -8.0586    1.0000 </r>
       <r>   -7.9893    1.0000 </r>
       <r>   -7.9022    1.0000 </r>
       <r>   -7.8085    1.0000 </r>
       <r>   -7.6743    1.0000 </r>
       <r>   -7.6202    1.0000 </r>
       <r>   -7.5523    1.0000 </r>
       <r>   -7.4020    1.0000 </r>
       <r>   -7.2881    1.0000 </r>
       <r>   -7.1867    1.0000 </r>
       <r>   -7.0117    1.0000 </r>
       <r>   -6.9589    1.0000 </r>
       <r>   -6.8981    1.0000 </r>
       <r>   -6.8355    1.0000 </r>
       <r>   -6.7797    1.0000 </r>
       <r>   -6.6299    1.0000 </r>
       <r>   -6.5630    1.0000 </r>
       <r>   -6.5159    1.0000 </r>
       <r>   -6.4783    1.0000 </r>
       <r>   -6.3880    1.0000 </r>
       <r>   -6.3287    1.0000 </r>
       <r>   -6.2610    1.0000 </r>
       <r>   -6.1909    1.0000 </r>
       <r>   -6.1093    1.0000 </r>
       <r>   -6.0195    1.0000 </r>
       <r>   -6.0104    1.0000 </r>
       <r>   -5.9101    1.0000 </r>
       <r>   -5.8388    1.0000 </r>
       <r>   -5.7202    1.0000 </r>
       <r>   -5.6539    1.0000 </r>
       <r>   -5.5338    1.0000 </r>
       <r>   -5.4706    1.0000 </r>
       <r>   -5.4585    1.0000 </r>
       <r>   -5.1957    1.0000 </r>
       <r>   -5.0734    1.0000 </r>
       <r>   -5.0522    1.0000 </r>
       <r>   -4.8803    1.0000 </r>
       <r>   -4.8202    1.0000 </r>
       <r>   -4.7235    1.0000 </r>
       <r>   -4.6487    1.0000 </r>
       <r>   -4.4850    1.0000 </r>
       <r>   -4.3009    1.0000 </r>
       <r>   -4.1266    1.0000 </r>
       <r>   -4.0268    1.0000 </r>
       <r>   -4.0182    1.0000 </r>
       <r>   -3.8404    1.0000 </r>
       <r>   -3.6796    0.9990 </r>
       <r>   -3.4754    0.9492 </r>
       <r>   -3.3282    0.7246 </r>
       <r>   -3.0196    0.0564 </r>
       <r>   -2.8954    0.0069 </r>
       <r>   -2.6703    0.0000 </r>
       <r>   -2.5842    0.0000 </r>
       <r>   -2.4481    0.0000 </r>
       <r>   -2.3492    0.0000 </r>
       <r>   -2.2158    0.0000 </r>
       <r>   -2.1134    0.0000 </r>
       <r>   -1.9243    0.0000 </r>
       <r>   -1.8360    0.0000 </r>
       <r>   -1.6549    0.0000 </r>
       <r>   -1.5608    0.0000 </r>
       <r>   -1.3910    0.0000 </r>
       <r>   -1.3706    0.0000 </r>
       <r>   -1.1797    0.0000 </r>
       <r>   -1.1140    0.0000 </r>
       <r>   -1.0390    0.0000 </r>
       <r>   -0.9630    0.0000 </r>
       <r>   -0.9345    0.0000 </r>
       <r>   -0.8678    0.0000 </r>
       <r>   -0.8242    0.0000 </r>
       <r>   -0.7145    0.0000 </r>
       <r>   -0.6139    0.0000 </r>
       <r>   -0.5581    0.0000 </r>
       <r>   -0.4781    0.0000 </r>
       <r>   -0.4023    0.0000 </r>
       <r>   -0.3412    0.0000 </r>
       <r>   -0.1087    0.0000 </r>
       <r>    0.0158    0.0000 </r>
       <r>    0.1422    0.0000 </r>
       <r>    0.3568    0.0000 </r>
       <r>    0.5911    0.0000 </r>
       <r>    0.7552    0.0000 </r>
       <r>    0.9891    0.0000 </r>
       <r>    1.1828    0.0000 </r>
       <r>    1.3093    0.0000 </r>
       <r>    1.5734    0.0000 </r>
       <r>    2.1634    0.0000 </r>
       <r>    2.3116    0.0000 </r>
       <r>    2.4221    0.0000 </r>
      </set>
      <set comment="kpoint 32">
       <r>  -17.5440    1.0000 </r>
       <r>  -17.2120    1.0000 </r>
       <r>  -17.0408    1.0000 </r>
       <r>  -16.6052    1.0000 </r>
       <r>  -16.5749    1.0000 </r>
       <r>  -16.3219    1.0000 </r>
       <r>  -16.2909    1.0000 </r>
       <r>  -16.2127    1.0000 </r>
       <r>  -16.1601    1.0000 </r>
       <r>  -16.0692    1.0000 </r>
       <r>  -16.0453    1.0000 </r>
       <r>  -15.8545    1.0000 </r>
       <r>  -15.7406    1.0000 </r>
       <r>  -15.6865    1.0000 </r>
       <r>  -15.5811    1.0000 </r>
       <r>  -15.4296    1.0000 </r>
       <r>  -15.3398    1.0000 </r>
       <r>  -15.2026    1.0000 </r>
       <r>   -9.6952    1.0000 </r>
       <r>   -9.6077    1.0000 </r>
       <r>   -9.4172    1.0000 </r>
       <r>   -8.9084    1.0000 </r>
       <r>   -8.7645    1.0000 </r>
       <r>   -8.7012    1.0000 </r>
       <r>   -8.6240    1.0000 </r>
       <r>   -8.4954    1.0000 </r>
       <r>   -8.3804    1.0000 </r>
       <r>   -8.3634    1.0000 </r>
       <r>   -8.3127    1.0000 </r>
       <r>   -8.2159    1.0000 </r>
       <r>   -8.1690    1.0000 </r>
       <r>   -8.1204    1.0000 </r>
       <r>   -8.0048    1.0000 </r>
       <r>   -7.9575    1.0000 </r>
       <r>   -7.8470    1.0000 </r>
       <r>   -7.6291    1.0000 </r>
       <r>   -7.5749    1.0000 </r>
       <r>   -7.5313    1.0000 </r>
       <r>   -7.3709    1.0000 </r>
       <r>   -7.3421    1.0000 </r>
       <r>   -7.1184    1.0000 </r>
       <r>   -7.0720    1.0000 </r>
       <r>   -6.9693    1.0000 </r>
       <r>   -6.9084    1.0000 </r>
       <r>   -6.8338    1.0000 </r>
       <r>   -6.6869    1.0000 </r>
       <r>   -6.6425    1.0000 </r>
       <r>   -6.5677    1.0000 </r>
       <r>   -6.5367    1.0000 </r>
       <r>   -6.4695    1.0000 </r>
       <r>   -6.4203    1.0000 </r>
       <r>   -6.3343    1.0000 </r>
       <r>   -6.3233    1.0000 </r>
       <r>   -6.2134    1.0000 </r>
       <r>   -6.0280    1.0000 </r>
       <r>   -5.9924    1.0000 </r>
       <r>   -5.9556    1.0000 </r>
       <r>   -5.9041    1.0000 </r>
       <r>   -5.7981    1.0000 </r>
       <r>   -5.7416    1.0000 </r>
       <r>   -5.6479    1.0000 </r>
       <r>   -5.5743    1.0000 </r>
       <r>   -5.5203    1.0000 </r>
       <r>   -5.4065    1.0000 </r>
       <r>   -5.1731    1.0000 </r>
       <r>   -5.0868    1.0000 </r>
       <r>   -4.9822    1.0000 </r>
       <r>   -4.8814    1.0000 </r>
       <r>   -4.8386    1.0000 </r>
       <r>   -4.8053    1.0000 </r>
       <r>   -4.7433    1.0000 </r>
       <r>   -4.4749    1.0000 </r>
       <r>   -4.2861    1.0000 </r>
       <r>   -4.1002    1.0000 </r>
       <r>   -4.0280    1.0000 </r>
       <r>   -4.0186    1.0000 </r>
       <r>   -3.8263    1.0000 </r>
       <r>   -3.6690    0.9987 </r>
       <r>   -3.4574    0.9345 </r>
       <r>   -3.3366    0.7440 </r>
       <r>   -3.0361    0.0709 </r>
       <r>   -2.8558    0.0030 </r>
       <r>   -2.6848    0.0000 </r>
       <r>   -2.5676    0.0000 </r>
       <r>   -2.4325    0.0000 </r>
       <r>   -2.3781    0.0000 </r>
       <r>   -2.2416    0.0000 </r>
       <r>   -2.1278    0.0000 </r>
       <r>   -1.9256    0.0000 </r>
       <r>   -1.8381    0.0000 </r>
       <r>   -1.6530    0.0000 </r>
       <r>   -1.5518    0.0000 </r>
       <r>   -1.4071    0.0000 </r>
       <r>   -1.3832    0.0000 </r>
       <r>   -1.1636    0.0000 </r>
       <r>   -1.1413    0.0000 </r>
       <r>   -0.9799    0.0000 </r>
       <r>   -0.9614    0.0000 </r>
       <r>   -0.9470    0.0000 </r>
       <r>   -0.8512    0.0000 </r>
       <r>   -0.8254    0.0000 </r>
       <r>   -0.7099    0.0000 </r>
       <r>   -0.6161    0.0000 </r>
       <r>   -0.5226    0.0000 </r>
       <r>   -0.4646    0.0000 </r>
       <r>   -0.4288    0.0000 </r>
       <r>   -0.3432    0.0000 </r>
       <r>   -0.1181    0.0000 </r>
       <r>   -0.0002    0.0000 </r>
       <r>    0.1144    0.0000 </r>
       <r>    0.4147    0.0000 </r>
       <r>    0.5973    0.0000 </r>
       <r>    0.7220    0.0000 </r>
       <r>    0.9503    0.0000 </r>
       <r>    1.2122    0.0000 </r>
       <r>    1.2825    0.0000 </r>
       <r>    1.5778    0.0000 </r>
       <r>    2.1317    0.0000 </r>
       <r>    2.2774    0.0000 </r>
       <r>    2.6000    0.0000 </r>
      </set>
      <set comment="kpoint 33">
       <r>  -17.5290    1.0000 </r>
       <r>  -17.2905    1.0000 </r>
       <r>  -16.9220    1.0000 </r>
       <r>  -16.6101    1.0000 </r>
       <r>  -16.5820    1.0000 </r>
       <r>  -16.4659    1.0000 </r>
       <r>  -16.2795    1.0000 </r>
       <r>  -16.2026    1.0000 </r>
       <r>  -16.1206    1.0000 </r>
       <r>  -16.0759    1.0000 </r>
       <r>  -15.9672    1.0000 </r>
       <r>  -15.8508    1.0000 </r>
       <r>  -15.7447    1.0000 </r>
       <r>  -15.6918    1.0000 </r>
       <r>  -15.6079    1.0000 </r>
       <r>  -15.4298    1.0000 </r>
       <r>  -15.3393    1.0000 </r>
       <r>  -15.2024    1.0000 </r>
       <r>   -9.7763    1.0000 </r>
       <r>   -9.4779    1.0000 </r>
       <r>   -9.3623    1.0000 </r>
       <r>   -8.9257    1.0000 </r>
       <r>   -8.8488    1.0000 </r>
       <r>   -8.7767    1.0000 </r>
       <r>   -8.6671    1.0000 </r>
       <r>   -8.6148    1.0000 </r>
       <r>   -8.4246    1.0000 </r>
       <r>   -8.2912    1.0000 </r>
       <r>   -8.2376    1.0000 </r>
       <r>   -8.1760    1.0000 </r>
       <r>   -8.1108    1.0000 </r>
       <r>   -8.0624    1.0000 </r>
       <r>   -7.9915    1.0000 </r>
       <r>   -7.9015    1.0000 </r>
       <r>   -7.8075    1.0000 </r>
       <r>   -7.6813    1.0000 </r>
       <r>   -7.6096    1.0000 </r>
       <r>   -7.5505    1.0000 </r>
       <r>   -7.3994    1.0000 </r>
       <r>   -7.2844    1.0000 </r>
       <r>   -7.1842    1.0000 </r>
       <r>   -7.0151    1.0000 </r>
       <r>   -6.9592    1.0000 </r>
       <r>   -6.9025    1.0000 </r>
       <r>   -6.8368    1.0000 </r>
       <r>   -6.7852    1.0000 </r>
       <r>   -6.6262    1.0000 </r>
       <r>   -6.5650    1.0000 </r>
       <r>   -6.5121    1.0000 </r>
       <r>   -6.4716    1.0000 </r>
       <r>   -6.3927    1.0000 </r>
       <r>   -6.3265    1.0000 </r>
       <r>   -6.2623    1.0000 </r>
       <r>   -6.1955    1.0000 </r>
       <r>   -6.1154    1.0000 </r>
       <r>   -6.0219    1.0000 </r>
       <r>   -6.0115    1.0000 </r>
       <r>   -5.9053    1.0000 </r>
       <r>   -5.8351    1.0000 </r>
       <r>   -5.7192    1.0000 </r>
       <r>   -5.6568    1.0000 </r>
       <r>   -5.5338    1.0000 </r>
       <r>   -5.4713    1.0000 </r>
       <r>   -5.4575    1.0000 </r>
       <r>   -5.1962    1.0000 </r>
       <r>   -5.0728    1.0000 </r>
       <r>   -5.0529    1.0000 </r>
       <r>   -4.8837    1.0000 </r>
       <r>   -4.8200    1.0000 </r>
       <r>   -4.7243    1.0000 </r>
       <r>   -4.6447    1.0000 </r>
       <r>   -4.4828    1.0000 </r>
       <r>   -4.2978    1.0000 </r>
       <r>   -4.1232    1.0000 </r>
       <r>   -4.0253    1.0000 </r>
       <r>   -4.0195    1.0000 </r>
       <r>   -3.8463    1.0000 </r>
       <r>   -3.6868    0.9991 </r>
       <r>   -3.4474    0.9249 </r>
       <r>   -3.3499    0.7733 </r>
       <r>   -3.0177    0.0549 </r>
       <r>   -2.8929    0.0065 </r>
       <r>   -2.6704    0.0000 </r>
       <r>   -2.5823    0.0000 </r>
       <r>   -2.4474    0.0000 </r>
       <r>   -2.3529    0.0000 </r>
       <r>   -2.2157    0.0000 </r>
       <r>   -2.1134    0.0000 </r>
       <r>   -1.9291    0.0000 </r>
       <r>   -1.8380    0.0000 </r>
       <r>   -1.6492    0.0000 </r>
       <r>   -1.5545    0.0000 </r>
       <r>   -1.3909    0.0000 </r>
       <r>   -1.3770    0.0000 </r>
       <r>   -1.1782    0.0000 </r>
       <r>   -1.1132    0.0000 </r>
       <r>   -1.0422    0.0000 </r>
       <r>   -0.9638    0.0000 </r>
       <r>   -0.9372    0.0000 </r>
       <r>   -0.8692    0.0000 </r>
       <r>   -0.8204    0.0000 </r>
       <r>   -0.7130    0.0000 </r>
       <r>   -0.6139    0.0000 </r>
       <r>   -0.5536    0.0000 </r>
       <r>   -0.4836    0.0000 </r>
       <r>   -0.4027    0.0000 </r>
       <r>   -0.3419    0.0000 </r>
       <r>   -0.1034    0.0000 </r>
       <r>    0.0139    0.0000 </r>
       <r>    0.1406    0.0000 </r>
       <r>    0.3542    0.0000 </r>
       <r>    0.5887    0.0000 </r>
       <r>    0.7541    0.0000 </r>
       <r>    0.9939    0.0000 </r>
       <r>    1.1842    0.0000 </r>
       <r>    1.3055    0.0000 </r>
       <r>    1.5753    0.0000 </r>
       <r>    2.1629    0.0000 </r>
       <r>    2.3118    0.0000 </r>
       <r>    2.4210    0.0000 </r>
      </set>
      <set comment="kpoint 34">
       <r>  -17.5082    1.0000 </r>
       <r>  -17.3483    1.0000 </r>
       <r>  -16.7411    1.0000 </r>
       <r>  -16.7163    1.0000 </r>
       <r>  -16.5889    1.0000 </r>
       <r>  -16.5490    1.0000 </r>
       <r>  -16.2779    1.0000 </r>
       <r>  -16.1981    1.0000 </r>
       <r>  -16.1138    1.0000 </r>
       <r>  -16.0798    1.0000 </r>
       <r>  -15.8760    1.0000 </r>
       <r>  -15.8387    1.0000 </r>
       <r>  -15.7688    1.0000 </r>
       <r>  -15.6971    1.0000 </r>
       <r>  -15.6392    1.0000 </r>
       <r>  -15.4301    1.0000 </r>
       <r>  -15.3389    1.0000 </r>
       <r>  -15.2022    1.0000 </r>
       <r>   -9.8162    1.0000 </r>
       <r>   -9.3529    1.0000 </r>
       <r>   -9.3022    1.0000 </r>
       <r>   -9.0103    1.0000 </r>
       <r>   -8.9355    1.0000 </r>
       <r>   -8.8365    1.0000 </r>
       <r>   -8.6790    1.0000 </r>
       <r>   -8.6587    1.0000 </r>
       <r>   -8.4430    1.0000 </r>
       <r>   -8.2923    1.0000 </r>
       <r>   -8.2270    1.0000 </r>
       <r>   -8.1316    1.0000 </r>
       <r>   -8.0786    1.0000 </r>
       <r>   -8.0192    1.0000 </r>
       <r>   -7.9213    1.0000 </r>
       <r>   -7.8419    1.0000 </r>
       <r>   -7.7465    1.0000 </r>
       <r>   -7.6827    1.0000 </r>
       <r>   -7.6391    1.0000 </r>
       <r>   -7.5934    1.0000 </r>
       <r>   -7.4646    1.0000 </r>
       <r>   -7.3314    1.0000 </r>
       <r>   -7.0980    1.0000 </r>
       <r>   -7.0702    1.0000 </r>
       <r>   -6.9960    1.0000 </r>
       <r>   -6.8602    1.0000 </r>
       <r>   -6.8338    1.0000 </r>
       <r>   -6.7087    1.0000 </r>
       <r>   -6.6468    1.0000 </r>
       <r>   -6.5894    1.0000 </r>
       <r>   -6.5251    1.0000 </r>
       <r>   -6.4513    1.0000 </r>
       <r>   -6.4146    1.0000 </r>
       <r>   -6.3394    1.0000 </r>
       <r>   -6.2669    1.0000 </r>
       <r>   -6.1865    1.0000 </r>
       <r>   -6.1107    1.0000 </r>
       <r>   -6.1017    1.0000 </r>
       <r>   -6.0122    1.0000 </r>
       <r>   -5.8402    1.0000 </r>
       <r>   -5.8075    1.0000 </r>
       <r>   -5.7820    1.0000 </r>
       <r>   -5.6343    1.0000 </r>
       <r>   -5.5909    1.0000 </r>
       <r>   -5.5284    1.0000 </r>
       <r>   -5.4034    1.0000 </r>
       <r>   -5.2155    1.0000 </r>
       <r>   -5.0626    1.0000 </r>
       <r>   -4.9914    1.0000 </r>
       <r>   -4.9583    1.0000 </r>
       <r>   -4.8288    1.0000 </r>
       <r>   -4.6346    1.0000 </r>
       <r>   -4.5832    1.0000 </r>
       <r>   -4.4412    1.0000 </r>
       <r>   -4.3277    1.0000 </r>
       <r>   -4.1630    1.0000 </r>
       <r>   -4.0301    1.0000 </r>
       <r>   -4.0146    1.0000 </r>
       <r>   -3.8669    1.0000 </r>
       <r>   -3.6990    0.9994 </r>
       <r>   -3.4469    0.9244 </r>
       <r>   -3.3555    0.7850 </r>
       <r>   -2.9803    0.0312 </r>
       <r>   -2.9484    0.0183 </r>
       <r>   -2.6512    0.0000 </r>
       <r>   -2.6040    0.0000 </r>
       <r>   -2.4583    0.0000 </r>
       <r>   -2.3286    0.0000 </r>
       <r>   -2.1898    0.0000 </r>
       <r>   -2.0991    0.0000 </r>
       <r>   -1.9296    0.0000 </r>
       <r>   -1.8427    0.0000 </r>
       <r>   -1.6482    0.0000 </r>
       <r>   -1.5589    0.0000 </r>
       <r>   -1.3767    0.0000 </r>
       <r>   -1.3622    0.0000 </r>
       <r>   -1.1911    0.0000 </r>
       <r>   -1.0784    0.0000 </r>
       <r>   -1.0750    0.0000 </r>
       <r>   -0.9956    0.0000 </r>
       <r>   -0.9289    0.0000 </r>
       <r>   -0.8925    0.0000 </r>
       <r>   -0.8171    0.0000 </r>
       <r>   -0.7115    0.0000 </r>
       <r>   -0.6208    0.0000 </r>
       <r>   -0.5989    0.0000 </r>
       <r>   -0.4752    0.0000 </r>
       <r>   -0.4069    0.0000 </r>
       <r>   -0.3048    0.0000 </r>
       <r>   -0.1091    0.0000 </r>
       <r>    0.0248    0.0000 </r>
       <r>    0.1999    0.0000 </r>
       <r>    0.2737    0.0000 </r>
       <r>    0.5865    0.0000 </r>
       <r>    0.7733    0.0000 </r>
       <r>    1.0579    0.0000 </r>
       <r>    1.1401    0.0000 </r>
       <r>    1.3259    0.0000 </r>
       <r>    1.5719    0.0000 </r>
       <r>    2.2520    0.0000 </r>
       <r>    2.2662    0.0000 </r>
       <r>    2.4076    0.0000 </r>
      </set>
     </set>
    </set>
   </array>
  </eigenvalues>
  <separator name="orbital magnetization" >
   <v name="MAGDIPOLOUT">      0.00000000      0.00000000      0.00000000</v>
  </separator>
 </calculation>
 <structure name="finalpos" >
  <crystal>
   <varray name="basis" >
    <v>       8.30797224       4.81848050       0.00000000 </v>
    <v>      -8.28773863       4.78348672       0.00000000 </v>
    <v>       0.00000000       0.00000000      30.00000000 </v>
   </varray>
   <i name="volume">   2390.26145586 </i>
   <varray name="rec_basis" >
    <v>       0.06003720       0.10401881       0.00000000 </v>
    <v>      -0.06047640       0.10427276       0.00000000 </v>
    <v>       0.00000000       0.00000000       0.03333333 </v>
   </varray>
  </crystal>
  <varray name="positions" >
   <v>       0.63357499       0.65011580       0.00212826 </v>
   <v>       0.03493656       0.68311915      -0.00231506 </v>
   <v>       0.03496839       0.01821243      -0.00225577 </v>
   <v>       0.33281198       0.33896089      -0.00018675 </v>
   <v>       0.34244854       0.00298613      -0.00028072 </v>
   <v>       0.33273940       0.66197862      -0.00017987 </v>
   <v>       1.03992096       0.35343933      -0.00227505 </v>
   <v>       0.62761538      -0.01775268       0.00261115 </v>
   <v>       0.62731764       0.31173582       0.00264928 </v>
   <v>       0.11434105       0.22101138       0.94411161 </v>
   <v>       0.21947175       0.10981715       0.05231407 </v>
   <v>       0.11429128       0.56007445       0.94404493 </v>
   <v>       0.22678481       0.44685840       0.05539251 </v>
   <v>       0.11060546       0.88847057       0.94646219 </v>
   <v>       0.21911627       0.77604949       0.05255389 </v>
   <v>       0.43946482       0.22060953       0.94531843 </v>
   <v>       0.54755499       0.10692819       0.05830597 </v>
   <v>       0.44930577       0.55807988       0.94605988 </v>
   <v>       0.55354844       0.44732504       0.05554103 </v>
   <v>       0.44004165       0.88553816       0.94504688 </v>
   <v>       0.55374311       0.77299162       0.05554058 </v>
   <v>       0.77829884       0.22251981       0.95580250 </v>
   <v>       0.89007553       0.11026336       0.04351840 </v>
   <v>       0.77729530       0.55653496       0.95750478 </v>
   <v>       0.88999972       0.44649787       0.04355268 </v>
   <v>       0.77735478       0.88732403       0.95744598 </v>
   <v>       0.89058707       0.77852509       0.04158813 </v>
  </varray>
 </structure>
</modeling>
