unknown system                          
           1
     8.855838    5.109447    0.000000
    -8.852035    5.102905    0.000000
     0.000000    0.000000   30.000000
   V    Mo   W    S 
   3   3   3  18
Direct configuration=     1
   0.66666669  0.66666669  0.00000000
   0.00000000  0.66666669  0.00000000
   0.00000000  0.00000000  0.00000000
   0.33333334  0.33333334  0.00000000
   0.33333334  0.00000000  0.00000000
   0.33333334  0.66666669  0.00000000
   1.00000000  0.33333334  0.00000000
   0.66666669  0.00000000  0.00000000
   0.66666669  0.33333334  0.00000000
   0.11068511  0.22244981  0.95539999
   0.22244981  0.11068511  0.04460000
   0.11068511  0.55578315  0.95539999
   0.22244981  0.44401845  0.04460000
   0.11068511  0.88911647  0.95539999
   0.22244981  0.77735180  0.04460000
   0.44401845  0.22244981  0.95539999
   0.55578315  0.11068511  0.04460000
   0.44401845  0.55578315  0.95539999
   0.55578315  0.44401845  0.04460000
   0.44401845  0.88911647  0.95539999
   0.55578315  0.77735180  0.04460000
   0.77735180  0.22244981  0.95539999
   0.88911647  0.11068511  0.04460000
   0.77735180  0.55578315  0.95539999
   0.88911647  0.44401845  0.04460000
   0.77735180  0.88911647  0.95539999
   0.88911647  0.77735180  0.04460000
unknown system                          
           1
     8.667680    5.002990    0.000000
    -8.664108    4.996845    0.000000
     0.000000    0.000000   30.000000
   V    Mo   W    S 
   3   3   3  18
Direct configuration=     2
   0.66536519  0.66602734  0.00001454
   0.00174061  0.66829645  0.00007155
   0.00181310  0.00011043  0.00005442
   0.33328636  0.33331404 -0.00019018
   0.33323062 -0.00001116  0.00021051
   0.33327681  0.66658562 -0.00018800
   1.00310887  0.33481334 -0.00021208
   0.66391472 -0.00189125  0.00011141
   0.66380663  0.33247933  0.00013284
   0.10838911  0.21819405  0.95188192
   0.21769826  0.10872637  0.04803664
   0.10816112  0.55685340  0.95195214
   0.22121713  0.44392311  0.04924646
   0.10653326  0.88678886  0.95310673
   0.21769232  0.77562283  0.04803000
   0.44522094  0.22267976  0.95074017
   0.55635401  0.11150370  0.04939002
   0.44870176  0.55761152  0.95194093
   0.55823730  0.44837183  0.04808596
   0.44522573  0.88909868  0.95074840
   0.55848363  0.77636737  0.04800928
   0.77798417  0.22220572  0.95079617
   0.89067443  0.10900263  0.04795286
   0.77922432  0.55896872  0.95314751
   0.89042853  0.44795668  0.04802280
   0.77944606  0.88705125  0.95307769
   0.88899948  0.77756385  0.04582921
unknown system                          
           1
     8.486570    4.901763    0.000000
    -8.484444    4.898118    0.000000
     0.000000    0.000000   30.000000
   V    Mo   W    S 
   3   3   3  18
Direct configuration=     3
   0.66491620  0.66580156 -0.00004086
   0.00230486  0.66867027  0.00012419
   0.00237580  0.00030911  0.00010320
   0.33319593  0.33333914 -0.00020755
   0.33397356  0.00035920  0.00024368
   0.33318576  0.66647170 -0.00020562
   1.00433354  0.33542889 -0.00018075
   0.66275277 -0.00224713  0.00007825
   0.66264283  0.33166055  0.00010198
   0.10821965  0.21820418  0.95182523
   0.21754783  0.10863061  0.04806905
   0.10802364  0.55668761  0.95188667
   0.22099587  0.44380481  0.04930005
   0.10643538  0.88671030  0.95311077
   0.21754472  0.77553826  0.04806077
   0.44544179  0.22279920  0.95066096
   0.55656624  0.11158713  0.04949612
   0.44885995  0.55770744  0.95188757
   0.55841916  0.44836146  0.04811531
   0.44544540  0.88921903  0.95067113
   0.55863555  0.77655919  0.04804876
   0.77797553  0.22222451  0.95094531
   0.89055973  0.10908561  0.04781683
   0.77916399  0.55882025  0.95327952
   0.89035514  0.44777552  0.04787323
   0.77934736  0.88712360  0.95322071
   0.88899628  0.77758245  0.04571537
unknown system                          
           1
     8.280609    4.793061    0.000000
    -8.269908    4.774562    0.000000
     0.000000    0.000000   30.000000
   V    Mo   W    S 
   3   3   3  18
Direct configuration=     4
   0.66292727  0.66477490 -0.00025203
   0.00449855  0.66949671  0.00027964
   0.00455606  0.00167341  0.00025642
   0.33259392  0.33346296 -0.00019348
   0.33807540  0.00239721  0.00027454
   0.33255116  0.66572679 -0.00019332
   1.00914846  0.33787005  0.00001629
   0.65807037 -0.00296046 -0.00006989
   0.65795480  0.32763904 -0.00004955
   0.10765118  0.21696820  0.95009665
   0.21633061  0.10796673  0.04959238
   0.10754692  0.55737869  0.95012493
   0.22117481  0.44386380  0.05113755
   0.10550348  0.88613899  0.95185483
   0.21633128  0.77491371  0.04958442
   0.44526309  0.22271226  0.94873928
   0.55656696  0.11153058  0.05164516
   0.45023331  0.55843961  0.95025318
   0.55894654  0.44947588  0.04969886
   0.44524974  0.88918692  0.94874897
   0.55906547  0.77598180  0.04966772
   0.77809324  0.22237330  0.94998098
   0.89074843  0.10866683  0.04867487
   0.77976204  0.55977929  0.95249797
   0.89065548  0.44844471  0.04869162
   0.77983226  0.88669669  0.95247194
   0.88888364  0.77761587  0.04646994
unknown system                          
           1
     8.286209    4.807636    0.000000
    -8.265961    4.772600    0.000000
     0.000000    0.000000   30.000000
   V    Mo   W    S 
   3   3   3  18
Direct configuration=     5
   0.65954722  0.66303344 -0.00054883
   0.00884329  0.67110637  0.00039418
   0.00886198  0.00434177  0.00037833
   0.33099938  0.33390592 -0.00008269
   0.34727017  0.00698472  0.00014138
   0.33086808  0.66361494 -0.00008022
   1.02034019  0.34351407  0.00020975
   0.64782378 -0.00446040 -0.00020103
   0.64768878  0.31884471 -0.00018745
   0.10762461  0.21585528  0.94763424
   0.21583242  0.10741991  0.05164688
   0.10759917  0.55841000  0.94763441
   0.22268347  0.44462089  0.05387178
   0.10554806  0.88601713  0.95019738
   0.21582773  0.77497900  0.05164007
   0.44378895  0.22217790  0.94595889
   0.55603049  0.11126215  0.05509940
   0.45115038  0.55890226  0.94793050
   0.55894810  0.45024155  0.05173456
   0.44377431  0.88825540  0.94597238
   0.55897090  0.77531914  0.05172049
   0.77870220  0.22271361  0.94920612
   0.89038417  0.10822987  0.04934265
   0.78003304  0.56008639  0.95170078
   0.89038039  0.44868070  0.04933305
   0.77999629  0.88651456  0.95169812
   0.88869690  0.77764318  0.04765478
unknown system                          
           1
     8.284766    4.808005    0.000000
    -8.263559    4.771307    0.000000
     0.000000    0.000000   30.000000
   V    Mo   W    S 
   3   3   3  18
Direct configuration=     6
   0.65854401  0.66253223 -0.00057331
   0.01084396  0.67247190  0.00042235
   0.01085302  0.00496030  0.00040812
   0.33065741  0.33448848 -0.00006594
   0.34808524  0.00738970 -0.00006789
   0.33054625  0.66268808 -0.00006134
   1.02375829  0.34520755  0.00003197
   0.64496706 -0.00524047 -0.00001238
   0.64486855  0.31679897  0.00000309
   0.10812717  0.21632131  0.94742163
   0.21672104  0.10748735  0.05169725
   0.10810509  0.55844119  0.94742045
   0.22406476  0.44531477  0.05441697
   0.10655584  0.88653695  0.95014702
   0.21671437  0.77581721  0.05169369
   0.44258271  0.22187277  0.94558917
   0.55581838  0.11117283  0.05570196
   0.45060918  0.55862704  0.94775400
   0.55856659  0.44968065  0.05179473
   0.44258171  0.88734789  0.94560630
   0.55858105  0.77549139  0.05177449
   0.77936385  0.22303391  0.94975711
   0.88964265  0.10863687  0.04878688
   0.77929760  0.55867190  0.95199249
   0.88961296  0.44754702  0.04878330
   0.77927725  0.88719776  0.95198682
   0.88886846  0.77771891  0.04759098
unknown system                          
           1
     8.299269    4.827068    0.000000
    -8.268948    4.774584    0.000000
     0.000000    0.000000   30.000000
   V    Mo   W    S 
   3   3   3  18
Direct configuration=     7
   0.65710919  0.66179489 -0.00073032
   0.01393241  0.67468549  0.00051459
   0.01383496  0.00569826  0.00050304
   0.33042861  0.33557603 -0.00004160
   0.34926705  0.00795582 -0.00020384
   0.33022960  0.66136614 -0.00003555
   1.02869839  0.34773346  0.00002461
   0.64056965 -0.00671661  0.00004195
   0.64049041  0.31389868  0.00005333
   0.10881288  0.21671874  0.94709085
   0.21748576  0.10762441  0.05177115
   0.10878340  0.55873414  0.94709313
   0.22521457  0.44589258  0.05495690
   0.10727543  0.88687778  0.94993421
   0.21743225  0.77643735  0.05175920
   0.44160407  0.22173150  0.94524862
   0.55488036  0.11072354  0.05635966
   0.45021012  0.55841734  0.94753136
   0.55811683  0.44925734  0.05198184
   0.44159559  0.88649657  0.94526097
   0.55813633  0.77547422  0.05195799
   0.78012966  0.22340498  0.95057731
   0.88885248  0.10911723  0.04798114
   0.77862301  0.55723692  0.95251077
   0.88883015  0.44632939  0.04797521
   0.77857915  0.88793854  0.95249622
   0.88909214  0.77780973  0.04738718
unknown system                          
           1
     8.298735    4.832358    0.000000
    -8.263639    4.771605    0.000000
     0.000000    0.000000   30.000000
   V    Mo   W    S 
   3   3   3  18
Direct configuration=     8
   0.65499252  0.66070968 -0.00087360
   0.01820591  0.67776217  0.00056039
   0.01793498  0.00668541  0.00056008
   0.33054429  0.33726685 -0.00001856
   0.34942344  0.00800098 -0.00043403
   0.33022606  0.65978607 -0.00000854
   1.03380332  0.35035254 -0.00021309
   0.63569468 -0.00863425  0.00029961
   0.63563279  0.31096733  0.00030621
   0.10964664  0.21720502  0.94676919
   0.21843569  0.10795046  0.05189474
   0.10961157  0.55911061  0.94675899
   0.22693651  0.44675999  0.05568841
   0.10786406  0.88714327  0.94962453
   0.21833338  0.77705467  0.05188403
   0.44011639  0.22140036  0.94481371
   0.55355015  0.11008201  0.05703735
   0.44972984  0.55817318  0.94722194
   0.55770930  0.44888191  0.05219804
   0.44010373  0.88532474  0.94481827
   0.55773419  0.77545334  0.05216850
   0.78115480  0.22390587  0.95169929
   0.88787942  0.10966818  0.04686671
   0.77785488  0.55552188  0.95325463
   0.88786528  0.44487590  0.04686165
   0.77776596  0.88885147  0.95322792
   0.88946467  0.77795483  0.04703353
unknown system                          
           1
     8.314442    4.844250    0.000000
    -8.276884    4.779233    0.000000
     0.000000    0.000000   30.000000
   V    Mo   W    S 
   3   3   3  18
Direct configuration=     9
   0.65308350  0.65974732 -0.00087963
   0.02086334  0.67936185  0.00047862
   0.02046982  0.00757821  0.00050388
   0.33132692  0.33867131 -0.00000939
   0.34769942  0.00711098 -0.00059486
   0.33096492  0.65918140  0.00000392
   1.03461144  0.35077449 -0.00049945
   0.63428137 -0.00977578  0.00054195
   0.63422829  0.31072233  0.00055170
   0.11024190  0.21739380  0.94672040
   0.21890045  0.10851060  0.05199634
   0.11022086  0.55956607  0.94667266
   0.22766505  0.44713032  0.05587842
   0.10765596  0.88702189  0.94932991
   0.21881750  0.77697896  0.05201476
   0.43933996  0.22112096  0.94477264
   0.55204595  0.10933977  0.05712091
   0.44949955  0.55807293  0.94698869
   0.55767968  0.44905241  0.05234540
   0.43934812  0.88483219  0.94477144
   0.55770997  0.77526349  0.05231235
   0.78157560  0.22411919  0.95253488
   0.88743206  0.10974534  0.04606950
   0.77770865  0.55497699  0.95386486
   0.88742131  0.44438884  0.04607272
   0.77757252  0.88922028  0.95383654
   0.88985031  0.77810831  0.04660074
unknown system                          
           1
     8.319529    4.847669    0.000000
    -8.281431    4.781717    0.000000
     0.000000    0.000000   30.000000
   V    Mo   W    S 
   3   3   3  18
Direct configuration=    10
   0.65013180  0.65826396 -0.00090151
   0.02528372  0.68224701  0.00042979
   0.02486770  0.00901142  0.00047501
   0.33185423  0.34042976 -0.00000131
   0.34668928  0.00658392 -0.00074730
   0.33152357  0.65798185  0.00001769
   1.03884757  0.35289007 -0.00071893
   0.62997000 -0.01198376  0.00078927
   0.62994528  0.30865105  0.00079654
   0.11124144  0.21777055  0.94641140
   0.21975968  0.10916474  0.05215218
   0.11124834  0.56020014  0.94633159
   0.22870928  0.44766029  0.05632754
   0.10781425  0.88712634  0.94885907
   0.21973608  0.77723273  0.05219966
   0.43817842  0.22085369  0.94455241
   0.54994956  0.10830595  0.05758182
   0.44906648  0.55786949  0.94657184
   0.55741010  0.44910537  0.05268393
   0.43821086  0.88393499  0.94454284
   0.55744219  0.77495836  0.05264531
   0.78234595  0.22450345  0.95370467
   0.88657745  0.10997042  0.04493443
   0.77732552  0.55380618  0.95469332
   0.88656380  0.44334056  0.04495089
   0.77717524  0.88999706  0.95466734
   0.89034669  0.77833887  0.04605040
unknown system                          
           1
     8.317613    4.843798    0.000000
    -8.281774    4.781762    0.000000
     0.000000    0.000000   30.000000
   V    Mo   W    S 
   3   3   3  18
Direct configuration=    11
   0.64779077  0.65710644 -0.00071363
   0.02705522  0.68286553  0.00023266
   0.02672560  0.01018465  0.00028322
   0.33243233  0.34111615 -0.00003182
   0.34514378  0.00579029 -0.00076049
   0.33220698  0.65793765 -0.00001234
   1.03906858  0.35296928 -0.00099053
   0.62922023 -0.01281574  0.00102442
   0.62919367  0.30873287  0.00103621
   0.11183227  0.21796403  0.94629831
   0.22031678  0.10985427  0.05228292
   0.11187965  0.56057314  0.94621008
   0.22893550  0.44777413  0.05636255
   0.10764766  0.88709583  0.94854921
   0.22036763  0.77713735  0.05234193
   0.43766491  0.22064514  0.94459705
   0.54846363  0.10756599  0.05757132
   0.44887023  0.55778158  0.94627427
   0.55742524  0.44947166  0.05293334
   0.43772280  0.88364299  0.94458496
   0.55746490  0.77461871  0.05289777
   0.78224178  0.22446016  0.95426930
   0.88647959  0.10982082  0.04444422
   0.77750455  0.55388003  0.95515359
   0.88647495  0.44338479  0.04446913
   0.77737023  0.89012122  0.95513878
   0.89071499  0.77853550  0.04555348
unknown system                          
           1
     8.320463    4.845953    0.000000
    -8.284129    4.783060    0.000000
     0.000000    0.000000   30.000000
   V    Mo   W    S 
   3   3   3  18
Direct configuration=    12
   0.64577833  0.65611184 -0.00051688
   0.02821421  0.68311001  0.00006303
   0.02801260  0.01121063  0.00010791
   0.33275943  0.34135521 -0.00004331
   0.34425830  0.00534137 -0.00072763
   0.33265059  0.65807608 -0.00002361
   1.03949145  0.35312907 -0.00106743
   0.62858781 -0.01362575  0.00113929
   0.62855274  0.30890152  0.00114852
   0.11223753  0.21815744  0.94614732
   0.22061553  0.11032318  0.05233255
   0.11231839  0.56074985  0.94606502
   0.22871697  0.44766756  0.05622214
   0.10752449  0.88707821  0.94833585
   0.22071462  0.77697833  0.05239051
   0.43759300  0.22056495  0.94472535
   0.54755502  0.10710675  0.05757258
   0.44879078  0.55774254  0.94608555
   0.55741673  0.44970499  0.05314933
   0.43766135  0.88365854  0.94470870
   0.55746317  0.77438511  0.05311931
   0.78186445  0.22428242  0.95455221
   0.88659734  0.10970899  0.04421119
   0.77770527  0.55416292  0.95547178
   0.88659160  0.44358388  0.04424403
   0.77761940  0.89007450  0.95546966
   0.89092337  0.77867430  0.04511694
unknown system                          
           1
     8.318038    4.842948    0.000000
    -8.283080    4.782440    0.000000
     0.000000    0.000000   30.000000
   V    Mo   W    S 
   3   3   3  18
Direct configuration=    13
   0.64464328  0.65555167 -0.00036781
   0.02875019  0.68307542 -0.00006955
   0.02856156  0.01182434 -0.00003358
   0.33289849  0.34129274 -0.00007049
   0.34381417  0.00510428 -0.00068570
   0.33280210  0.65829673 -0.00005558
   1.03929387  0.35302607 -0.00119637
   0.62858092 -0.01390603  0.00125309
   0.62854107  0.30916643  0.00126444
   0.11239369  0.21833038  0.94604088
   0.22074473  0.11051404  0.05237724
   0.11248160  0.56071743  0.94597605
   0.22867023  0.44764454  0.05620502
   0.10749489  0.88706063  0.94822801
   0.22081794  0.77689299  0.05241998
   0.43754190  0.22049770  0.94474552
   0.54732697  0.10699213  0.05757650
   0.44878214  0.55773029  0.94599211
   0.55738370  0.44977700  0.05329676
   0.43761160  0.88367992  0.94472849
   0.55744168  0.77428249  0.05327255
   0.78156304  0.22413442  0.95462163
   0.88677071  0.10968110  0.04418179
   0.77782885  0.55442605  0.95560517
   0.88677069  0.44377541  0.04421138
   0.77776353  0.88995143  0.95560667
   0.89094091  0.77869485  0.04487570
unknown system                          
           1
     8.316579    4.839627    0.000000
    -8.283744    4.782795    0.000000
     0.000000    0.000000   30.000000
   V    Mo   W    S 
   3   3   3  18
Direct configuration=    14
   0.64367434  0.65507113 -0.00024602
   0.02928582  0.68310212 -0.00017322
   0.02908884  0.01234932 -0.00013951
   0.33300045  0.34125590 -0.00007915
   0.34354668  0.00495451 -0.00066220
   0.33289551  0.65844736 -0.00006605
   1.03938632  0.35307430 -0.00123317
   0.62841022 -0.01424061  0.00131310
   0.62836272  0.30932453  0.00132254
   0.11253934  0.21848425  0.94594023
   0.22082690  0.11065841  0.05239641
   0.11262670  0.56070949  0.94588508
   0.22853537  0.44757881  0.05613095
   0.10750488  0.88704927  0.94813740
   0.22087148  0.77680984  0.05243005
   0.43758183  0.22046313  0.94479808
   0.54713951  0.10689616  0.05759092
   0.44876872  0.55771727  0.94592936
   0.55731062  0.44979501  0.05341712
   0.43765071  0.88375635  0.94477707
   0.55737871  0.77419600  0.05339527
   0.78130041  0.22400439  0.95470773
   0.88691403  0.10969169  0.04412964
   0.77790556  0.55461389  0.95574647
   0.88692210  0.44391161  0.04415562
   0.77784203  0.88984610  0.95574709
   0.89094468  0.77869420  0.04464909
unknown system                          
           1
     8.309868    4.828626    0.000000
    -8.283039    4.782199    0.000000
     0.000000    0.000000   30.000000
   V    Mo   W    S 
   3   3   3  18
Direct configuration=    15
   0.64159161  0.65403780  0.00004991
   0.03043704  0.68311512 -0.00043383
   0.03029113  0.01356934 -0.00039807
   0.33316346  0.34104838 -0.00011486
   0.34295862  0.00463005 -0.00060216
   0.33308939  0.65885677 -0.00010379
   1.03938283  0.35305460 -0.00139192
   0.62816481 -0.01489659  0.00149389
   0.62811908  0.30972935  0.00150315
   0.11281257  0.21882164  0.94570370
   0.22095213  0.11087814  0.05245843
   0.11289619  0.56064384  0.94565571
   0.22838301  0.44750804  0.05605536
   0.10759882  0.88707757  0.94792363
   0.22097882  0.77669616  0.05249308
   0.43760483  0.22036474  0.94484544
   0.54688172  0.10676061  0.05764590
   0.44872676  0.55769061  0.94579117
   0.55709666  0.44978060  0.05371135
   0.43768865  0.88388194  0.94481696
   0.55717480  0.77400211  0.05369212
   0.78079760  0.22375390  0.95486523
   0.88724815  0.10972970  0.04404515
   0.77804398  0.55501576  0.95602667
   0.88725828  0.44420127  0.04406710
   0.77799344  0.88959733  0.95602677
   0.89088005  0.77866568  0.04417380
unknown system                          
           1
     8.310606    4.827239    0.000000
    -8.285402    4.783625    0.000000
     0.000000    0.000000   30.000000
   V    Mo   W    S 
   3   3   3  18
Direct configuration=    16
   0.63464472  0.65059492  0.00108134
   0.03445051  0.68318375 -0.00132370
   0.03424454  0.01758465 -0.00129840
   0.33370024  0.34038394 -0.00020711
   0.34128958  0.00360804 -0.00041482
   0.33355526  0.66020617 -0.00020907
   1.03981696  0.35331767 -0.00181268
   0.62722303 -0.01731289  0.00203769
   0.62715068  0.31116607  0.00205307
   0.11366561  0.21996530  0.94483866
   0.22126591  0.11142484  0.05265787
   0.11371202  0.56035036  0.94482568
   0.22777287  0.44722111  0.05568383
   0.10813751  0.88725437  0.94719451
   0.22111470  0.77634765  0.05267323
   0.43791412  0.22009745  0.94504235
   0.54635965  0.10648703  0.05786655
   0.44854776  0.55757875  0.94542877
   0.55611816  0.44946207  0.05472795
   0.43804267  0.88446550  0.94498527
   0.55623817  0.77335370  0.05471781
   0.77904693  0.22287275  0.95541833
   0.88847095  0.10994530  0.04375955
   0.77837423  0.55633187  0.95701892
   0.88850783  0.44523553  0.04375533
   0.77830266  0.88862194  0.95700407
   0.89054718  0.77846660  0.04249490
unknown system                          
           1
     8.308155    4.822412    0.000000
    -8.285816    4.783760    0.000000
     0.000000    0.000000   30.000000
   V    Mo   W    S 
   3   3   3  18
Direct configuration=    17
   0.63560782  0.65107056  0.00103566
   0.03396554  0.68316394 -0.00128814
   0.03381044  0.01712857 -0.00124998
   0.33352997  0.34030700 -0.00020909
   0.34164153  0.00376708 -0.00040464
   0.33341248  0.66013838 -0.00020559
   1.03977250  0.35328136 -0.00180526
   0.62735856 -0.01708341  0.00201497
   0.62727859  0.31106605  0.00202301
   0.11361230  0.21998365  0.94487340
   0.22107921  0.11123062  0.05260716
   0.11365706  0.56028549  0.94484191
   0.22778350  0.44722932  0.05571239
   0.10829193  0.88735180  0.94722441
   0.22097533  0.77638760  0.05264942
   0.43801505  0.22015598  0.94502993
   0.54661602  0.10660735  0.05785160
   0.44854741  0.55759015  0.94552461
   0.55596254  0.44928008  0.05469769
   0.43815095  0.88450377  0.94496351
   0.55607179  0.77338375  0.05468255
   0.77915638  0.22292818  0.95540938
   0.88849920  0.10996599  0.04376904
   0.77824347  0.55625873  0.95696877
   0.88851928  0.44523297  0.04377353
   0.77817478  0.88855973  0.95695215
   0.89048084  0.77843976  0.04255750
unknown system                          
           1
     8.308063    4.820098    0.000000
    -8.287541    4.784596    0.000000
     0.000000    0.000000   30.000000
   V    Mo   W    S 
   3   3   3  18
Direct configuration=    18
   0.63525517  0.65089599  0.00125297
   0.03412349  0.68307863 -0.00148260
   0.03397528  0.01735134 -0.00144131
   0.33350237  0.34009597 -0.00021287
   0.34198781  0.00381788 -0.00036962
   0.33337522  0.66043938 -0.00020982
   1.03983711  0.35333569 -0.00190693
   0.62731834 -0.01729183  0.00214185
   0.62723134  0.31121804  0.00215936
   0.11371061  0.22025296  0.94470886
   0.22089275  0.11103755  0.05259943
   0.11373770  0.56012557  0.94467243
   0.22763679  0.44716770  0.05564787
   0.10873233  0.88756501  0.94708165
   0.22075669  0.77638108  0.05265661
   0.43823879  0.22017252  0.94506111
   0.54691449  0.10675078  0.05790160
   0.44858139  0.55761972  0.94559752
   0.55548689  0.44887926  0.05486109
   0.43841978  0.88471542  0.94498144
   0.55559529  0.77330689  0.05484846
   0.77892242  0.22281156  0.95550936
   0.88879886  0.11005834  0.04372847
   0.77807064  0.55639170  0.95710550
   0.88881415  0.44545613  0.04373243
   0.77798747  0.88823830  0.95708106
   0.89031131  0.77834287  0.04229400
unknown system                          
           1
     8.307595    4.819191    0.000000
    -8.287450    4.784344    0.000000
     0.000000    0.000000   30.000000
   V    Mo   W    S 
   3   3   3  18
Direct configuration=    19
   0.63439749  0.65047830  0.00150121
   0.03454391  0.68306136 -0.00170649
   0.03453934  0.01791427 -0.00166180
   0.33340004  0.33980369 -0.00022427
   0.34198520  0.00373139 -0.00033829
   0.33337495  0.66075417 -0.00021646
   1.03989440  0.35331735 -0.00201296
   0.62729984 -0.01760116  0.00227341
   0.62718671  0.31147428  0.00228988
   0.11384868  0.22047319  0.94452753
   0.22064379  0.11085034  0.05256938
   0.11386993  0.56002425  0.94447686
   0.22748366  0.44710508  0.05557723
   0.10912851  0.88779908  0.94692150
   0.22053865  0.77633386  0.05266160
   0.43845764  0.22020138  0.94510198
   0.54713096  0.10683961  0.05800028
   0.44865806  0.55767306  0.94564594
   0.55503875  0.44856220  0.05507526
   0.43868653  0.88490487  0.94500107
   0.55514187  0.77317917  0.05506352
   0.77863300  0.22266970  0.95561595
   0.88915070  0.11012435  0.04367441
   0.77793473  0.55654943  0.95726194
   0.88913719  0.44570877  0.04368657
   0.77790433  0.88795866  0.95724022
   0.89020559  0.77832379  0.04199441
unknown system                          
           1
     8.307919    4.819226    0.000000
    -8.287709    4.784268    0.000000
     0.000000    0.000000   30.000000
   V    Mo   W    S 
   3   3   3  18
Direct configuration=    20
   0.63410506  0.65033926  0.00164518
   0.03473936  0.68307662 -0.00183418
   0.03460697  0.01799387 -0.00179876
   0.33333615  0.33965970 -0.00021811
   0.34211001  0.00363748 -0.00031833
   0.33320942  0.66095090 -0.00021976
   1.03990535  0.35339113 -0.00206700
   0.62737100 -0.01764647  0.00233584
   0.62721302  0.31154940  0.00235411
   0.11393807  0.22058479  0.94442585
   0.22042120  0.11064216  0.05252135
   0.11394645  0.56001340  0.94439143
   0.22735456  0.44705043  0.05553891
   0.10945897  0.88793733  0.94682834
   0.22021851  0.77626704  0.05260833
   0.43868410  0.22030428  0.94514183
   0.54729834  0.10690983  0.05808239
   0.44880674  0.55775128  0.94573190
   0.55470927  0.44831188  0.05518515
   0.43894405  0.88503008  0.94501816
   0.55483967  0.77311296  0.05517732
   0.77853921  0.22262034  0.95566010
   0.88935332  0.11017449  0.04365265
   0.77778589  0.55655471  0.95731062
   0.88934719  0.44587913  0.04366221
   0.77775262  0.88779716  0.95728230
   0.89021994  0.77832127  0.04190209
unknown system                          
           1
     8.307894    4.818594    0.000000
    -8.287881    4.783981    0.000000
     0.000000    0.000000   30.000000
   V    Mo   W    S 
   3   3   3  18
Direct configuration=    21
   0.63382009  0.65020478  0.00183942
   0.03491701  0.68309407 -0.00201483
   0.03480050  0.01814969 -0.00196716
   0.33314526  0.33935146 -0.00021290
   0.34221463  0.00347862 -0.00029574
   0.33300567  0.66127432 -0.00021192
   1.03991017  0.35341053 -0.00214163
   0.62743483 -0.01771886  0.00244835
   0.62725025  0.31165169  0.00246819
   0.11406839  0.22075283  0.94429774
   0.22009748  0.11036742  0.05245276
   0.11406334  0.56001439  0.94425423
   0.22716105  0.44697938  0.05548781
   0.10987340  0.88812001  0.94669945
   0.21985242  0.77619266  0.05257938
   0.43896089  0.22041044  0.94519502
   0.54746765  0.10696525  0.05815906
   0.44896268  0.55784800  0.94581745
   0.55429393  0.44795490  0.05533685
   0.43929840  0.88520860  0.94503201
   0.55443768  0.77306640  0.05533000
   0.77841693  0.22256366  0.95571964
   0.88963632  0.11021872  0.04360671
   0.77761686  0.55657607  0.95739151
   0.88961257  0.44611868  0.04362295
   0.77759591  0.88760040  0.95735243
   0.89030013  0.77836034  0.04175314
unknown system                          
           1
     8.307972    4.818480    0.000000
    -8.287739    4.783487    0.000000
     0.000000    0.000000   30.000000
   V    Mo   W    S 
   3   3   3  18
Direct configuration=    22
   0.63370831  0.65016400  0.00199897
   0.03494433  0.68310662 -0.00219286
   0.03491188  0.01820063 -0.00213508
   0.33290394  0.33907295 -0.00020888
   0.34233369  0.00322930 -0.00029646
   0.33279923  0.66164087 -0.00020207
   1.03992994  0.35342826 -0.00221584
   0.62753549 -0.01773804  0.00252947
   0.62729597  0.31170806  0.00255824
   0.11421831  0.22089682  0.94419741
   0.21972873  0.11005392  0.05237468
   0.11419223  0.56005054  0.94413485
   0.22694107  0.44690399  0.05543150
   0.11028972  0.88831872  0.94657357
   0.21943501  0.77610711  0.05256352
   0.43927146  0.22053661  0.94527338
   0.54754383  0.10696397  0.05825227
   0.44914487  0.55797004  0.94595500
   0.55386106  0.44757350  0.05546524
   0.43973275  0.88540623  0.94505398
   0.55402655  0.77303236  0.05546023
   0.77833991  0.22253222  0.95577132
   0.88989345  0.11023988  0.04355557
   0.77744735  0.55655149  0.95745883
   0.88984414  0.44635093  0.04358202
   0.77746129  0.88745568  0.95740833
   0.89047994  0.77845780  0.04165272
unknown system                          
           1
     8.307972    4.818480    0.000000
    -8.287739    4.783487    0.000000
     0.000000    0.000000   30.000000
   V    Mo   W    S 
   3   3   3  18
Direct configuration=    23
   0.63357499  0.65011580  0.00212826
   0.03493656  0.68311915 -0.00231506
   0.03496839  0.01821243 -0.00225577
   0.33281198  0.33896089 -0.00018675
   0.34244854  0.00298613 -0.00028072
   0.33273940  0.66197862 -0.00017987
   1.03992096  0.35343933 -0.00227505
   0.62761538 -0.01775268  0.00261115
   0.62731764  0.31173582  0.00264928
   0.11434105  0.22101138  0.94411161
   0.21947175  0.10981715  0.05231407
   0.11429128  0.56007445  0.94404493
   0.22678481  0.44685840  0.05539251
   0.11060546  0.88847057  0.94646219
   0.21911627  0.77604949  0.05255389
   0.43946482  0.22060953  0.94531843
   0.54755499  0.10692819  0.05830597
   0.44930577  0.55807988  0.94605988
   0.55354844  0.44732504  0.05554103
   0.44004165  0.88553816  0.94504688
   0.55374311  0.77299162  0.05554058
   0.77829884  0.22251981  0.95580250
   0.89007553  0.11026336  0.04351840
   0.77729530  0.55653496  0.95750478
   0.88999972  0.44649787  0.04355268
   0.77735478  0.88732403  0.95744598
   0.89058707  0.77852509  0.04158813
