<?xml version="1.0" encoding="ISO-8859-1"?>
<modeling>
 <generator>
  <i name="program" type="string">vasp </i>
  <i name="version" type="string">5.4.1  </i>
  <i name="subversion" type="string">05Feb16 (build Jul 05 2020 17:13:04) complex                          parallel </i>
  <i name="platform" type="string">IFC91_ompi </i>
  <i name="date" type="string">2024 04 24 </i>
  <i name="time" type="string">21:08:50 </i>
 </generator>
 <incar>
  <i type="int" name="ISTART">     0</i>
  <i type="string" name="PREC">normal</i>
  <i type="string" name="ALGO"> Normal</i>
  <i type="int" name="ISPIN">     1</i>
  <i type="int" name="ICHARG">     2</i>
  <i type="int" name="IBRION">     1</i>
  <i type="int" name="NSW">   100</i>
  <i type="int" name="ISIF">     3</i>
  <i type="int" name="ISYM">     0</i>
  <i name="SYMPREC">      0.00000001</i>
  <i name="POTIM">      0.50000000</i>
  <i type="logical" name="LREAL"> F  </i>
  <i type="logical" name="LPLANE"> F  </i>
  <i type="int" name="ISMEAR">     0</i>
  <i type="logical" name="LWAVE"> F  </i>
  <i type="logical" name="LCHARG"> F  </i>
  <v type="int" name="KPOINT_BSE">    -1     0     0     0</v>
 </incar>
 <kpoints>
  <generation param="Gamma">
   <v type="int" name="divisions">       8        8        1 </v>
   <v name="usershift">      0.00000000       0.00000000       0.00000000 </v>
   <v name="genvec1">      0.12500000       0.00000000       0.00000000 </v>
   <v name="genvec2">     -0.00000000       0.12500000       0.00000000 </v>
   <v name="genvec3">      0.00000000       0.00000000       1.00000000 </v>
   <v name="shift">      0.00000000       0.00000000       0.00000000 </v>
  </generation>
  <varray name="kpointlist" >
   <v>       0.00000000       0.00000000       0.00000000 </v>
   <v>       0.12500000       0.00000000       0.00000000 </v>
   <v>       0.25000000       0.00000000       0.00000000 </v>
   <v>       0.37500000       0.00000000       0.00000000 </v>
   <v>       0.50000000       0.00000000       0.00000000 </v>
   <v>       0.00000000       0.12500000       0.00000000 </v>
   <v>       0.12500000       0.12500000       0.00000000 </v>
   <v>       0.25000000       0.12500000       0.00000000 </v>
   <v>       0.37500000       0.12500000       0.00000000 </v>
   <v>       0.50000000       0.12500000       0.00000000 </v>
   <v>      -0.37500000       0.12500000       0.00000000 </v>
   <v>      -0.25000000       0.12500000       0.00000000 </v>
   <v>      -0.12500000       0.12500000       0.00000000 </v>
   <v>       0.00000000       0.25000000       0.00000000 </v>
   <v>       0.12500000       0.25000000       0.00000000 </v>
   <v>       0.25000000       0.25000000       0.00000000 </v>
   <v>       0.37500000       0.25000000       0.00000000 </v>
   <v>       0.50000000       0.25000000       0.00000000 </v>
   <v>      -0.37500000       0.25000000       0.00000000 </v>
   <v>      -0.25000000       0.25000000       0.00000000 </v>
   <v>      -0.12500000       0.25000000       0.00000000 </v>
   <v>      -0.00000000       0.37500000       0.00000000 </v>
   <v>       0.12500000       0.37500000       0.00000000 </v>
   <v>       0.25000000       0.37500000       0.00000000 </v>
   <v>       0.37500000       0.37500000       0.00000000 </v>
   <v>       0.50000000       0.37500000       0.00000000 </v>
   <v>      -0.37500000       0.37500000       0.00000000 </v>
   <v>      -0.25000000       0.37500000       0.00000000 </v>
   <v>      -0.12500000       0.37500000       0.00000000 </v>
   <v>       0.00000000       0.50000000       0.00000000 </v>
   <v>       0.12500000       0.50000000       0.00000000 </v>
   <v>       0.25000000       0.50000000       0.00000000 </v>
   <v>       0.37500000       0.50000000       0.00000000 </v>
   <v>       0.50000000       0.50000000       0.00000000 </v>
  </varray>
  <varray name="weights" >
   <v>       0.01562500 </v>
   <v>       0.03125000 </v>
   <v>       0.03125000 </v>
   <v>       0.03125000 </v>
   <v>       0.01562500 </v>
   <v>       0.03125000 </v>
   <v>       0.03125000 </v>
   <v>       0.03125000 </v>
   <v>       0.03125000 </v>
   <v>       0.03125000 </v>
   <v>       0.03125000 </v>
   <v>       0.03125000 </v>
   <v>       0.03125000 </v>
   <v>       0.03125000 </v>
   <v>       0.03125000 </v>
   <v>       0.03125000 </v>
   <v>       0.03125000 </v>
   <v>       0.03125000 </v>
   <v>       0.03125000 </v>
   <v>       0.03125000 </v>
   <v>       0.03125000 </v>
   <v>       0.03125000 </v>
   <v>       0.03125000 </v>
   <v>       0.03125000 </v>
   <v>       0.03125000 </v>
   <v>       0.03125000 </v>
   <v>       0.03125000 </v>
   <v>       0.03125000 </v>
   <v>       0.03125000 </v>
   <v>       0.01562500 </v>
   <v>       0.03125000 </v>
   <v>       0.03125000 </v>
   <v>       0.03125000 </v>
   <v>       0.01562500 </v>
  </varray>
 </kpoints>
 <parameters>
  <separator name="general" >
   <i type="string" name="SYSTEM">unknown system</i>
   <i type="logical" name="LCOMPAT"> F  </i>
  </separator>
  <separator name="electronic" >
   <i type="string" name="PREC">normal</i>
   <i name="ENMAX">    280.00000000</i>
   <i name="ENAUG">    373.43800000</i>
   <i name="EDIFF">      0.00010000</i>
   <i type="int" name="IALGO">    38</i>
   <i type="int" name="IWAVPR">    11</i>
   <i type="int" name="NBANDS">   120</i>
   <i name="NELECT">    159.00000000</i>
   <i type="int" name="TURBO">     0</i>
   <i type="int" name="IRESTART">     0</i>
   <i type="int" name="NREBOOT">     0</i>
   <i type="int" name="NMIN">     0</i>
   <i name="EREF">      0.00000000</i>
   <separator name="electronic smearing" >
    <i type="int" name="ISMEAR">     0</i>
    <i name="SIGMA">      0.20000000</i>
    <i name="KSPACING">      0.50000000</i>
    <i type="logical" name="KGAMMA"> T  </i>
   </separator>
   <separator name="electronic projectors" >
    <i type="logical" name="LREAL"> F  </i>
    <v name="ROPT">      0.00000000      0.00000000      0.00000000      0.00000000</v>
    <i type="int" name="LMAXPAW">  -100</i>
    <i type="int" name="LMAXMIX">     2</i>
    <i type="logical" name="NLSPLINE"> F  </i>
   </separator>
   <separator name="electronic startup" >
    <i type="int" name="ISTART">     0</i>
    <i type="int" name="ICHARG">     2</i>
    <i type="int" name="INIWAV">     1</i>
   </separator>
   <separator name="electronic spin" >
    <i type="int" name="ISPIN">     1</i>
    <i type="logical" name="LNONCOLLINEAR"> F  </i>
    <v name="MAGMOM">      1.00000000      1.00000000      1.00000000      1.00000000      1.00000000      1.00000000      1.00000000      1.00000000      1.00000000      1.00000000      1.00000000      1.00000000      1.00000000      1.00000000      1.00000000      1.00000000      1.00000000      1.00000000      1.00000000      1.00000000
      1.00000000      1.00000000      1.00000000      1.00000000      1.00000000      1.00000000      1.00000000</v>
    <i name="NUPDOWN">     -1.00000000</i>
    <i type="logical" name="LSORBIT"> F  </i>
    <v name="SAXIS">      0.00000000      0.00000000      1.00000000</v>
    <i type="logical" name="LSPIRAL"> F  </i>
    <v name="QSPIRAL">      0.00000000      0.00000000      0.00000000</v>
    <i type="logical" name="LZEROZ"> F  </i>
   </separator>
   <separator name="electronic exchange-correlation" >
    <i type="logical" name="LASPH"> F  </i>
    <i type="logical" name="LMETAGGA"> F  </i>
   </separator>
   <separator name="electronic convergence" >
    <i type="int" name="NELM">    60</i>
    <i type="int" name="NELMDL">    -5</i>
    <i type="int" name="NELMIN">     2</i>
    <i name="ENINI">    280.00000000</i>
    <separator name="electronic convergence detail" >
     <i type="logical" name="LDIAG"> T  </i>
     <i type="logical" name="LSUBROT"> F  </i>
     <i name="WEIMIN">      0.00100000</i>
     <i name="EBREAK">      0.00000021</i>
     <i name="DEPER">      0.30000000</i>
     <i type="int" name="NRMM">     4</i>
     <i name="TIME">      0.40000000</i>
    </separator>
   </separator>
   <separator name="electronic mixer" >
    <i name="AMIX">      0.40000000</i>
    <i name="BMIX">      1.00000000</i>
    <i name="AMIN">      0.10000000</i>
    <i name="AMIX_MAG">      1.60000000</i>
    <i name="BMIX_MAG">      1.00000000</i>
    <separator name="electronic mixer details" >
     <i type="int" name="IMIX">     4</i>
     <i type="logical" name="MIXFIRST"> F  </i>
     <i type="int" name="MAXMIX">   -45</i>
     <i name="WC">    100.00000000</i>
     <i type="int" name="INIMIX">     1</i>
     <i type="int" name="MIXPRE">     1</i>
     <i type="int" name="MREMOVE">     5</i>
    </separator>
   </separator>
   <separator name="electronic dipolcorrection" >
    <i type="logical" name="LDIPOL"> F  </i>
    <i type="logical" name="LMONO"> F  </i>
    <i type="int" name="IDIPOL">     0</i>
    <i name="EPSILON">      1.00000000</i>
    <v name="DIPOL">   -100.00000000   -100.00000000   -100.00000000</v>
    <i name="EFIELD">      0.00000000</i>
   </separator>
  </separator>
  <separator name="grids" >
   <i type="int" name="NGX">    42</i>
   <i type="int" name="NGY">    42</i>
   <i type="int" name="NGZ">   126</i>
   <i type="int" name="NGXF">    84</i>
   <i type="int" name="NGYF">    84</i>
   <i type="int" name="NGZF">   252</i>
   <i type="logical" name="ADDGRID"> F  </i>
  </separator>
  <separator name="ionic" >
   <i type="int" name="NSW">   100</i>
   <i type="int" name="IBRION">     1</i>
   <i type="int" name="ISIF">     3</i>
   <i name="PSTRESS">      0.00000000</i>
   <i name="EDIFFG">      0.00100000</i>
   <i type="int" name="NFREE">     0</i>
   <i name="POTIM">      0.50000000</i>
   <i name="SMASS">     -3.00000000</i>
   <i name="SCALEE">      1.00000000</i>
  </separator>
  <separator name="ionic md" >
   <i name="TEBEG">      0.00010000</i>
   <i name="TEEND">      0.00010000</i>
   <i type="int" name="NBLOCK">     1</i>
   <i type="int" name="KBLOCK">   100</i>
   <i type="int" name="NPACO">   256</i>
   <i name="APACO">     16.00000000</i>
  </separator>
  <separator name="symmetry" >
   <i type="int" name="ISYM">     0</i>
   <i name="SYMPREC">      0.00000001</i>
  </separator>
  <separator name="dos" >
   <i type="logical" name="LORBIT"> F  </i>
   <v name="RWIGS">     -1.00000000     -1.00000000     -1.00000000     -1.00000000</v>
   <i type="int" name="NEDOS">   301</i>
   <i name="EMIN">     10.00000000</i>
   <i name="EMAX">    -10.00000000</i>
   <i name="EFERMI">      0.00000000</i>
  </separator>
  <separator name="writing" >
   <i type="int" name="NWRITE">     2</i>
   <i type="logical" name="LWAVE"> F  </i>
   <i type="logical" name="LCHARG"> F  </i>
   <i type="logical" name="LPARD"> F  </i>
   <i type="logical" name="LVTOT"> F  </i>
   <i type="logical" name="LVHAR"> F  </i>
   <i type="logical" name="LELF"> F  </i>
   <i type="logical" name="LOPTICS"> F  </i>
   <v name="STM">      0.00000000      0.00000000      0.00000000      0.00000000      0.00000000      0.00000000      0.00000000</v>
  </separator>
  <separator name="performance" >
   <i type="int" name="NPAR">    40</i>
   <i type="int" name="NSIM">     4</i>
   <i type="int" name="NBLK">    -1</i>
   <i type="logical" name="LPLANE"> F  </i>
   <i type="logical" name="LSCALAPACK"> T  </i>
   <i type="logical" name="LSCAAWARE"> F  </i>
   <i type="logical" name="LSCALU"> F  </i>
   <i type="logical" name="LASYNC"> F  </i>
   <i type="logical" name="LORBITALREAL"> F  </i>
  </separator>
  <separator name="miscellaneous" >
   <i type="int" name="IDIOT">     3</i>
   <i type="logical" name="LMUSIC"> F  </i>
   <v name="POMASS">     50.94100000     95.94000000    183.85000000     32.06600000</v>
   <v name="DARWINR">      0.00000000      0.00000000      0.00000000      0.00000000</v>
   <v name="DARWINV">      1.00000000      1.00000000      1.00000000      1.00000000</v>
   <i type="logical" name="LCORR"> T  </i>
  </separator>
  <i type="logical" name="GGA_COMPAT"> T  </i>
  <i type="logical" name="LBERRY"> F  </i>
  <i type="int" name="ICORELEVEL">     0</i>
  <i type="logical" name="LDAU"> F  </i>
  <i type="int" name="I_CONSTRAINED_M">     0</i>
  <separator name="electronic exchange-correlation" >
   <i type="string" name="GGA">--</i>
   <i type="int" name="VOSKOWN">     0</i>
   <i type="logical" name="LHFCALC"> F  </i>
   <i type="string" name="PRECFOCK"></i>
   <i type="logical" name="LSYMGRAD"> F  </i>
   <i type="logical" name="LHFONE"> F  </i>
   <i type="logical" name="LRHFCALC"> F  </i>
   <i type="logical" name="LTHOMAS"> F  </i>
   <i type="logical" name="LMODELHF"> F  </i>
   <i name="ENCUT4O">     -1.00000000</i>
   <i type="int" name="EXXOEP">     0</i>
   <i type="int" name="FOURORBIT">     0</i>
   <i name="AEXX">      0.00000000</i>
   <i name="HFALPHA">      0.00000000</i>
   <i name="MCALPHA">      0.00000000</i>
   <i name="ALDAX">      1.00000000</i>
   <i name="AGGAX">      1.00000000</i>
   <i name="ALDAC">      1.00000000</i>
   <i name="AGGAC">      1.00000000</i>
   <i type="int" name="NKREDX">     1</i>
   <i type="int" name="NKREDY">     1</i>
   <i type="int" name="NKREDZ">     1</i>
   <i type="logical" name="SHIFTRED"> F  </i>
   <i type="logical" name="ODDONLY"> F  </i>
   <i type="logical" name="EVENONLY"> F  </i>
   <i type="int" name="LMAXFOCK">     0</i>
   <i type="int" name="NMAXFOCKAE">     0</i>
   <i type="logical" name="LFOCKAEDFT"> F  </i>
   <i name="HFSCREEN">      0.00000000</i>
   <i name="HFSCREENC">      0.00000000</i>
   <i type="int" name="NBANDSGWLOW">     0</i>
  </separator>
  <separator name="vdW DFT" >
   <i type="logical" name="LUSE_VDW"> F  </i>
   <i name="Zab_VDW">     -0.84910000</i>
   <i name="PARAM1">      0.12340000</i>
   <i name="PARAM2">      1.00000000</i>
   <i name="PARAM3">      0.00000000</i>
  </separator>
  <separator name="model GW" >
   <i type="int" name="MODEL_GW">     0</i>
   <i name="MODEL_EPS0">     58.26239943</i>
   <i name="MODEL_ALPHA">      1.00000000</i>
  </separator>
  <separator name="linear response parameters" >
   <i type="logical" name="LEPSILON"> F  </i>
   <i type="logical" name="LRPA"> F  </i>
   <i type="logical" name="LNABLA"> F  </i>
   <i type="logical" name="LVEL"> F  </i>
   <i type="int" name="KINTER">     0</i>
   <i name="CSHIFT">      0.10000000</i>
   <i name="OMEGAMAX">     -1.00000000</i>
   <i name="DEG_THRESHOLD">      0.00200000</i>
  </separator>
  <separator name="orbital magnetization" >
   <i type="logical" name="NUCIND"> F  </i>
   <v name="MAGPOS">      0.00000000      0.00000000      0.00000000</v>
   <i type="logical" name="LNICSALL"> T  </i>
   <i type="logical" name="ORBITALMAG"> F  </i>
   <i type="logical" name="LMAGBLOCH"> F  </i>
   <i type="logical" name="LCHIMAG"> F  </i>
   <i type="logical" name="LGAUGE"> T  </i>
   <i type="int" name="MAGATOM">     0</i>
   <v name="MAGDIPOL">      0.00000000      0.00000000      0.00000000</v>
   <v name="AVECCONST">      0.00000000      0.00000000      0.00000000</v>
  </separator>
  <separator name="response functions" >
   <i type="logical" name="LADDER"> F  </i>
   <i type="logical" name="LFXC"> F  </i>
   <i type="logical" name="LHARTREE"> T  </i>
   <i type="int" name="IBSE">     0</i>
   <v type="int" name="KPOINT">    -1     0     0     0</v>
   <i type="logical" name="LTCTE"> F  </i>
   <i type="logical" name="LTETE"> F  </i>
   <i type="logical" name="LTRIPLET"> F  </i>
   <i type="logical" name="LFXCEPS"> F  </i>
   <i type="logical" name="LFXHEG"> F  </i>
   <i type="int" name="NATURALO">     0</i>
   <i type="logical" name="L2ORDER"> F  </i>
   <i type="logical" name="LUSEW"> F  </i>
   <i name="ENCUTGW">     -2.00000000</i>
   <i name="ENCUTGWSOFT">     -2.00000000</i>
   <i name="ENCUTLF">     -1.00000000</i>
   <i type="int" name="LMAXMP2">    -1</i>
   <i name="SCISSOR">      0.00000000</i>
   <i type="int" name="NOMEGA">     0</i>
   <i type="int" name="NOMEGAR">     0</i>
   <i type="int" name="NBANDSGW">    -1</i>
   <i type="int" name="NBANDSO">    -1</i>
   <i type="int" name="NBANDSV">    -1</i>
   <i type="int" name="NELM">     1</i>
   <i type="int" name="NELMHF">     1</i>
   <i type="int" name="DIM">     3</i>
   <i type="int" name="ANTIRES">     0</i>
   <i name="OMEGAMAX">    -30.00000000</i>
   <i name="OMEGAMIN">    -30.00000000</i>
   <i name="OMEGATL">   -200.00000000</i>
   <i type="int" name="OMEGAGRID">     0</i>
   <i name="CSHIFT">     -0.10000000</i>
   <i type="logical" name="SELFENERGY"> F  </i>
   <i type="logical" name="LSPECTRAL"> F  </i>
   <i type="logical" name="LSPECTRALGW"> F  </i>
   <i type="logical" name="LSINGLES"> F  </i>
   <i type="logical" name="LFERMIGW"> F  </i>
   <i type="logical" name="ODDONLYGW"> F  </i>
   <i type="logical" name="EVENONLYGW"> F  </i>
   <i type="int" name="NKREDLFX">     1</i>
   <i type="int" name="NKREDLFY">     1</i>
   <i type="int" name="NKREDLFZ">     1</i>
   <i type="int" name="MAXMEM">  1800</i>
   <i type="int" name="TELESCOPE">     0</i>
   <i type="int" name="TAUPAR">     1</i>
   <i type="int" name="OMEGAPAR">    -1</i>
   <i name="LAMBDA">      1.00000000</i>
  </separator>
  <separator name="External order field" >
   <i name="OFIELD_KAPPA">      0.00000000</i>
   <v name="OFIELD_K">      0.00000000      0.00000000      0.00000000</v>
   <i name="OFIELD_Q6_NEAR">      0.00000000</i>
   <i name="OFIELD_Q6_FAR">      0.00000000</i>
   <i name="OFIELD_A">      0.00000000</i>
  </separator>
 </parameters>
 <atominfo>
  <atoms>      27 </atoms>
  <types>       4 </types>
  <array name="atoms" >
   <dimension dim="1">ion</dimension>
   <field type="string">element</field>
   <field type="int">atomtype</field>
   <set>
    <rc><c>V </c><c>   1</c></rc>
    <rc><c>V </c><c>   1</c></rc>
    <rc><c>V </c><c>   1</c></rc>
    <rc><c>Mo</c><c>   2</c></rc>
    <rc><c>Mo</c><c>   2</c></rc>
    <rc><c>Mo</c><c>   2</c></rc>
    <rc><c>W </c><c>   3</c></rc>
    <rc><c>W </c><c>   3</c></rc>
    <rc><c>W </c><c>   3</c></rc>
    <rc><c>S </c><c>   4</c></rc>
    <rc><c>S </c><c>   4</c></rc>
    <rc><c>S </c><c>   4</c></rc>
    <rc><c>S </c><c>   4</c></rc>
    <rc><c>S </c><c>   4</c></rc>
    <rc><c>S </c><c>   4</c></rc>
    <rc><c>S </c><c>   4</c></rc>
    <rc><c>S </c><c>   4</c></rc>
    <rc><c>S </c><c>   4</c></rc>
    <rc><c>S </c><c>   4</c></rc>
    <rc><c>S </c><c>   4</c></rc>
    <rc><c>S </c><c>   4</c></rc>
    <rc><c>S </c><c>   4</c></rc>
    <rc><c>S </c><c>   4</c></rc>
    <rc><c>S </c><c>   4</c></rc>
    <rc><c>S </c><c>   4</c></rc>
    <rc><c>S </c><c>   4</c></rc>
    <rc><c>S </c><c>   4</c></rc>
   </set>
  </array>
  <array name="atomtypes" >
   <dimension dim="1">type</dimension>
   <field type="int">atomspertype</field>
   <field type="string">element</field>
   <field>mass</field>
   <field>valence</field>
   <field type="string">pseudopotential</field>
   <set>
    <rc><c>   3</c><c>V </c><c>     50.94100000</c><c>      5.00000000</c><c> PAW_PBE V 08Apr2002                    </c></rc>
    <rc><c>   3</c><c>Mo</c><c>     95.94000000</c><c>      6.00000000</c><c> PAW_PBE Mo 08Apr2002                   </c></rc>
    <rc><c>   3</c><c>W </c><c>    183.85000000</c><c>      6.00000000</c><c> PAW_PBE W 08Apr2002                    </c></rc>
    <rc><c>  18</c><c>S </c><c>     32.06600000</c><c>      6.00000000</c><c>  PAW_PBE S 17Jan2003                   </c></rc>
   </set>
  </array>
 </atominfo>
 <structure name="initialpos" >
  <crystal>
   <varray name="basis" >
    <v>       8.66999996       5.03999989       0.00000000 </v>
    <v>      -8.66999982       5.04000013       0.00000000 </v>
    <v>       0.00000000       0.00000000      30.00000000 </v>
   </varray>
   <i name="volume">   2621.80797419 </i>
   <varray name="rec_basis" >
    <v>       0.05767013       0.09920635       0.00000000 </v>
    <v>      -0.05767013       0.09920635       0.00000000 </v>
    <v>       0.00000000       0.00000000       0.03333333 </v>
   </varray>
  </crystal>
  <varray name="positions" >
   <v>       0.33333334       0.33333334       0.00000000 </v>
   <v>       0.00000000       0.66666669       0.00000000 </v>
   <v>       0.66666669       0.66666669       0.00000000 </v>
   <v>       0.66666669       0.33333334       0.00000000 </v>
   <v>       1.00000000       0.33333334       0.00000000 </v>
   <v>       0.66666669       0.00000000       0.00000000 </v>
   <v>       0.00000000       0.00000000       0.00000000 </v>
   <v>       0.33333334       0.00000000       0.00000000 </v>
   <v>       0.33333334       0.66666669       0.00000000 </v>
   <v>       0.11068511       0.22244981       0.95539999 </v>
   <v>       0.22244981       0.11068511       0.04460000 </v>
   <v>       0.11068511       0.55578315       0.95539999 </v>
   <v>       0.22244981       0.44401845       0.04460000 </v>
   <v>       0.11068511       0.88911647       0.95539999 </v>
   <v>       0.22244981       0.77735180       0.04460000 </v>
   <v>       0.44401845       0.22244981       0.95539999 </v>
   <v>       0.55578315       0.11068511       0.04460000 </v>
   <v>       0.44401845       0.55578315       0.95539999 </v>
   <v>       0.55578315       0.44401845       0.04460000 </v>
   <v>       0.44401845       0.88911647       0.95539999 </v>
   <v>       0.55578315       0.77735180       0.04460000 </v>
   <v>       0.77735180       0.22244981       0.95539999 </v>
   <v>       0.88911647       0.11068511       0.04460000 </v>
   <v>       0.77735180       0.55578315       0.95539999 </v>
   <v>       0.88911647       0.44401845       0.04460000 </v>
   <v>       0.77735180       0.88911647       0.95539999 </v>
   <v>       0.88911647       0.77735180       0.04460000 </v>
  </varray>
 </structure>
 <calculation>
  <scstep>
   <time name="dav">   22.82   22.90</time>
   <time name="total">   22.87   22.95</time>
   <energy>
    <i name="alphaZ">     81.65567618 </i>
    <i name="ewald">  41890.23010383 </i>
    <i name="hartreedc"> -47722.85855704 </i>
    <i name="XCdc">   -242.92965114 </i>
    <i name="pawpsdc">   3467.42045192 </i>
    <i name="pawaedc">  -2871.19716117 </i>
    <i name="eentropy">     -0.51801692 </i>
    <i name="bandstr">   -239.71167705 </i>
    <i name="atom">   6761.44252427 </i>
    <i name="e_fr_energy">   1123.53369289 </i>
    <i name="e_wo_entrp">   1124.05170980 </i>
    <i name="e_0_energy">   1123.79270134 </i>
   </energy>
  </scstep>
  <scstep>
   <time name="dav">   29.57   29.64</time>
   <time name="total">   29.57   29.65</time>
   <energy>
    <i name="e_fr_energy">     -2.94245097 </i>
    <i name="e_wo_entrp">     -2.74299640 </i>
    <i name="e_0_energy">     -2.84272368 </i>
   </energy>
  </scstep>
  <scstep>
   <time name="dav">   28.87   28.94</time>
   <time name="total">   28.88   28.95</time>
   <energy>
    <i name="e_fr_energy">   -199.83160803 </i>
    <i name="e_wo_entrp">   -199.54700781 </i>
    <i name="e_0_energy">   -199.68930792 </i>
   </energy>
  </scstep>
  <scstep>
   <time name="dav">   30.82   30.90</time>
   <time name="total">   30.83   30.91</time>
   <energy>
    <i name="e_fr_energy">   -208.86660393 </i>
    <i name="e_wo_entrp">   -208.54410360 </i>
    <i name="e_0_energy">   -208.70535377 </i>
   </energy>
  </scstep>
  <scstep>
   <time name="dav">   30.00   30.07</time>
   <time name="total">   30.52   30.60</time>
   <energy>
    <i name="e_fr_energy">   -209.22222067 </i>
    <i name="e_wo_entrp">   -208.90318800 </i>
    <i name="e_0_energy">   -209.06270434 </i>
   </energy>
  </scstep>
  <scstep>
   <time name="dav">   32.82   32.90</time>
   <time name="total">   33.33   33.43</time>
   <energy>
    <i name="e_fr_energy">   -236.35927827 </i>
    <i name="e_wo_entrp">   -236.08165941 </i>
    <i name="e_0_energy">   -236.22046884 </i>
   </energy>
  </scstep>
  <scstep>
   <time name="dav">   33.74   33.82</time>
   <time name="total">   34.33   34.42</time>
   <energy>
    <i name="e_fr_energy">   -196.82888536 </i>
    <i name="e_wo_entrp">   -196.49598916 </i>
    <i name="e_0_energy">   -196.66243726 </i>
   </energy>
  </scstep>
  <scstep>
   <time name="dav">   30.92   30.99</time>
   <time name="total">   31.52   31.60</time>
   <energy>
    <i name="e_fr_energy">   -190.31798016 </i>
    <i name="e_wo_entrp">   -190.05093555 </i>
    <i name="e_0_energy">   -190.18445785 </i>
   </energy>
  </scstep>
  <scstep>
   <time name="dav">   31.22   31.30</time>
   <time name="total">   31.82   31.91</time>
   <energy>
    <i name="e_fr_energy">   -188.29593046 </i>
    <i name="e_wo_entrp">   -187.96119622 </i>
    <i name="e_0_energy">   -188.12856334 </i>
   </energy>
  </scstep>
  <scstep>
   <time name="dav">   34.09   34.17</time>
   <time name="total">   34.70   34.79</time>
   <energy>
    <i name="e_fr_energy">   -187.10949650 </i>
    <i name="e_wo_entrp">   -186.76306734 </i>
    <i name="e_0_energy">   -186.93628192 </i>
   </energy>
  </scstep>
  <scstep>
   <time name="dav">   31.98   32.05</time>
   <time name="total">   32.59   32.68</time>
   <energy>
    <i name="e_fr_energy">   -187.01018527 </i>
    <i name="e_wo_entrp">   -186.66326679 </i>
    <i name="e_0_energy">   -186.83672603 </i>
   </energy>
  </scstep>
  <scstep>
   <time name="dav">   33.31   33.39</time>
   <time name="total">   33.93   34.02</time>
   <energy>
    <i name="e_fr_energy">   -186.99978742 </i>
    <i name="e_wo_entrp">   -186.66333911 </i>
    <i name="e_0_energy">   -186.83156327 </i>
   </energy>
  </scstep>
  <scstep>
   <time name="dav">   33.75   33.83</time>
   <time name="total">   34.36   34.45</time>
   <energy>
    <i name="e_fr_energy">   -186.92424814 </i>
    <i name="e_wo_entrp">   -186.58563762 </i>
    <i name="e_0_energy">   -186.75494288 </i>
   </energy>
  </scstep>
  <scstep>
   <time name="dav">   32.92   33.00</time>
   <time name="total">   33.53   33.62</time>
   <energy>
    <i name="e_fr_energy">   -186.89028360 </i>
    <i name="e_wo_entrp">   -186.54648092 </i>
    <i name="e_0_energy">   -186.71838226 </i>
   </energy>
  </scstep>
  <scstep>
   <time name="dav">   31.51   31.58</time>
   <time name="total">   32.12   32.20</time>
   <energy>
    <i name="e_fr_energy">   -186.88605514 </i>
    <i name="e_wo_entrp">   -186.54166872 </i>
    <i name="e_0_energy">   -186.71386193 </i>
   </energy>
  </scstep>
  <scstep>
   <time name="dav">   33.36   33.44</time>
   <time name="total">   33.98   34.07</time>
   <energy>
    <i name="e_fr_energy">   -186.88581335 </i>
    <i name="e_wo_entrp">   -186.54189373 </i>
    <i name="e_0_energy">   -186.71385354 </i>
   </energy>
  </scstep>
  <scstep>
   <time name="dav">   32.84   32.92</time>
   <time name="total">   33.45   33.54</time>
   <energy>
    <i name="e_fr_energy">   -186.88376500 </i>
    <i name="e_wo_entrp">   -186.54071131 </i>
    <i name="e_0_energy">   -186.71223815 </i>
   </energy>
  </scstep>
  <scstep>
   <time name="dav">   31.68   31.75</time>
   <time name="total">   32.29   32.38</time>
   <energy>
    <i name="e_fr_energy">   -186.88261709 </i>
    <i name="e_wo_entrp">   -186.53995603 </i>
    <i name="e_0_energy">   -186.71128656 </i>
   </energy>
  </scstep>
  <scstep>
   <time name="dav">   29.20   29.27</time>
   <time name="total">   29.81   29.89</time>
   <energy>
    <i name="e_fr_energy">   -186.88243969 </i>
    <i name="e_wo_entrp">   -186.53929310 </i>
    <i name="e_0_energy">   -186.71086640 </i>
   </energy>
  </scstep>
  <scstep>
   <time name="dav">   24.91   24.97</time>
   <time name="total">   25.52   25.59</time>
   <energy>
    <i name="e_fr_energy">   -186.88329955 </i>
    <i name="e_wo_entrp">   -186.54045313 </i>
    <i name="e_0_energy">   -186.71187634 </i>
   </energy>
  </scstep>
  <scstep>
   <time name="dav">   22.76   22.82</time>
   <time name="total">   23.38   23.44</time>
   <energy>
    <i name="e_fr_energy">   -186.88403302 </i>
    <i name="e_wo_entrp">   -186.54110498 </i>
    <i name="e_0_energy">   -186.71256900 </i>
   </energy>
  </scstep>
  <scstep>
   <time name="dav">   21.21   21.26</time>
   <time name="total">   21.83   21.89</time>
   <energy>
    <i name="e_fr_energy">   -186.88491332 </i>
    <i name="e_wo_entrp">   -186.54199001 </i>
    <i name="e_0_energy">   -186.71345167 </i>
   </energy>
  </scstep>
  <scstep>
   <time name="dav">   21.48   21.53</time>
   <time name="total">   22.09   22.16</time>
   <energy>
    <i name="e_fr_energy">   -186.88615030 </i>
    <i name="e_wo_entrp">   -186.54335411 </i>
    <i name="e_0_energy">   -186.71475220 </i>
   </energy>
  </scstep>
  <scstep>
   <time name="dav">   19.90   19.95</time>
   <time name="total">   20.52   20.57</time>
   <energy>
    <i name="e_fr_energy">   -186.88668729 </i>
    <i name="e_wo_entrp">   -186.54382104 </i>
    <i name="e_0_energy">   -186.71525417 </i>
   </energy>
  </scstep>
  <scstep>
   <time name="dav">   17.24   17.28</time>
   <time name="total">   17.85   17.90</time>
   <energy>
    <i name="e_fr_energy">   -186.88709459 </i>
    <i name="e_wo_entrp">   -186.54421147 </i>
    <i name="e_0_energy">   -186.71565303 </i>
   </energy>
  </scstep>
  <scstep>
   <time name="dav">   20.07   20.11</time>
   <time name="total">   20.68   20.74</time>
   <energy>
    <i name="e_fr_energy">   -186.88733078 </i>
    <i name="e_wo_entrp">   -186.54446446 </i>
    <i name="e_0_energy">   -186.71589762 </i>
   </energy>
  </scstep>
  <scstep>
   <time name="dav">   21.00   21.05</time>
   <time name="total">   21.04   21.10</time>
   <energy>
    <i name="alphaZ">     81.65567618 </i>
    <i name="ewald">  41890.23010383 </i>
    <i name="hartreedc"> -47833.12231517 </i>
    <i name="XCdc">   -231.59846019 </i>
    <i name="pawpsdc">   4192.18061190 </i>
    <i name="pawaedc">  -3610.20586864 </i>
    <i name="eentropy">     -0.34286764 </i>
    <i name="bandstr">  -1437.12681803 </i>
    <i name="atom">   6761.44252427 </i>
    <i name="e_fr_energy">   -186.88741348 </i>
    <i name="e_wo_entrp">   -186.54454585 </i>
    <i name="e_0_energy">   -186.71597967 </i>
   </energy>
  </scstep>
  <structure>
   <crystal>
    <varray name="basis" >
     <v>       8.66999996       5.03999989       0.00000000 </v>
     <v>      -8.66999982       5.04000013       0.00000000 </v>
     <v>       0.00000000       0.00000000      30.00000000 </v>
    </varray>
    <i name="volume">   2621.80797419 </i>
    <varray name="rec_basis" >
     <v>       0.05767013       0.09920635       0.00000000 </v>
     <v>      -0.05767013       0.09920635       0.00000000 </v>
     <v>       0.00000000       0.00000000       0.03333333 </v>
    </varray>
   </crystal>
   <varray name="positions" >
    <v>       0.33333334       0.33333334       0.00000000 </v>
    <v>       0.00000000       0.66666669       0.00000000 </v>
    <v>       0.66666669       0.66666669       0.00000000 </v>
    <v>       0.66666669       0.33333334       0.00000000 </v>
    <v>       1.00000000       0.33333334       0.00000000 </v>
    <v>       0.66666669       0.00000000       0.00000000 </v>
    <v>       0.00000000       0.00000000       0.00000000 </v>
    <v>       0.33333334       0.00000000       0.00000000 </v>
    <v>       0.33333334       0.66666669       0.00000000 </v>
    <v>       0.11068511       0.22244981       0.95539999 </v>
    <v>       0.22244981       0.11068511       0.04460000 </v>
    <v>       0.11068511       0.55578315       0.95539999 </v>
    <v>       0.22244981       0.44401845       0.04460000 </v>
    <v>       0.11068511       0.88911647       0.95539999 </v>
    <v>       0.22244981       0.77735180       0.04460000 </v>
    <v>       0.44401845       0.22244981       0.95539999 </v>
    <v>       0.55578315       0.11068511       0.04460000 </v>
    <v>       0.44401845       0.55578315       0.95539999 </v>
    <v>       0.55578315       0.44401845       0.04460000 </v>
    <v>       0.44401845       0.88911647       0.95539999 </v>
    <v>       0.55578315       0.77735180       0.04460000 </v>
    <v>       0.77735180       0.22244981       0.95539999 </v>
    <v>       0.88911647       0.11068511       0.04460000 </v>
    <v>       0.77735180       0.55578315       0.95539999 </v>
    <v>       0.88911647       0.44401845       0.04460000 </v>
    <v>       0.77735180       0.88911647       0.95539999 </v>
    <v>       0.88911647       0.77735180       0.04460000 </v>
   </varray>
  </structure>
  <varray name="forces" >
   <v>       0.01316367       0.06984916      -0.05727900 </v>
   <v>       0.15050104      -0.39510191       0.06179945 </v>
   <v>       0.08671888      -0.03008990       0.02295868 </v>
   <v>       0.43019601       0.03827800       0.03398555 </v>
   <v>      -0.25788097      -0.43420651      -0.09082005 </v>
   <v>      -0.26961178       0.42077496       0.00223161 </v>
   <v>      -0.53240373      -0.06105470      -0.03044797 </v>
   <v>       0.25442231       0.47352679       0.07605105 </v>
   <v>       0.07060542      -0.02431312       0.00938583 </v>
   <v>       0.62412133       0.56469396      -2.17789214 </v>
   <v>      -0.44387666       0.56002315       2.14785684 </v>
   <v>      -0.64437291       0.14053786      -2.09997671 </v>
   <v>       0.65512983       0.15587485       2.05954626 </v>
   <v>       0.46966367      -0.57398513      -2.08089979 </v>
   <v>      -0.48683095      -0.58712584       2.19753871 </v>
   <v>      -0.69774751      -0.15115407      -2.12546302 </v>
   <v>      -0.20436383      -0.17902567       2.93337706 </v>
   <v>       0.75322020      -0.02423657      -1.49966130 </v>
   <v>      -0.89763493      -0.00197541       1.42954299 </v>
   <v>       0.08497750      -0.12052516      -2.90075488 </v>
   <v>       0.64716259      -0.14287630       2.07362772 </v>
   <v>       0.13180412       0.01296052      -2.94720899 </v>
   <v>       0.05501699      -0.02063389       2.92078567 </v>
   <v>      -0.32573363       0.66801145      -1.41872086 </v>
   <v>      -0.54795958       0.71448686       2.17792031 </v>
   <v>       0.61711550      -0.54480238      -2.14607278 </v>
   <v>       0.26459740      -0.52791101       1.42858979 </v>
  </varray>
  <varray name="stress" >
   <v>       7.43196074      -0.05403563      -1.60914453 </v>
   <v>      -0.05403569       4.34399054      -0.00049410 </v>
   <v>      -1.60914453      -0.00049400      30.28318639 </v>
  </varray>
  <energy>
   <i name="e_fr_energy">   -186.88741348 </i>
   <i name="e_wo_entrp">   -186.71597967 </i>
   <i name="e_0_energy">     -0.34286764 </i>
  </energy>
  <time name="totalsc">  821.14  823.35</time>
 </calculation>
 <calculation>
  <scstep>
   <time name="dav">   22.81   22.87</time>
   <time name="total">   23.44   23.49</time>
   <energy>
    <i name="alphaZ">     78.91669095 </i>
    <i name="ewald">  39377.98954411 </i>
    <i name="hartreedc"> -45335.54563309 </i>
    <i name="XCdc">   -239.05673439 </i>
    <i name="pawpsdc">   4192.16934831 </i>
    <i name="pawaedc">  -3610.19463796 </i>
    <i name="eentropy">     -0.28143666 </i>
    <i name="bandstr">  -1412.98334548 </i>
    <i name="atom">   6761.44252427 </i>
    <i name="e_fr_energy">   -187.54367995 </i>
    <i name="e_wo_entrp">   -187.26224328 </i>
    <i name="e_0_energy">   -187.40296162 </i>
   </energy>
  </scstep>
  <scstep>
   <time name="dav">   31.89   31.97</time>
   <time name="total">   32.50   32.59</time>
   <energy>
    <i name="e_fr_energy">   -189.65179751 </i>
    <i name="e_wo_entrp">   -189.31129098 </i>
    <i name="e_0_energy">   -189.48154424 </i>
   </energy>
  </scstep>
  <scstep>
   <time name="dav">   31.92   32.00</time>
   <time name="total">   32.55   32.64</time>
   <energy>
    <i name="e_fr_energy">   -189.34347785 </i>
    <i name="e_wo_entrp">   -189.06923777 </i>
    <i name="e_0_energy">   -189.20635781 </i>
   </energy>
  </scstep>
  <scstep>
   <time name="dav">   32.19   32.26</time>
   <time name="total">   32.81   32.89</time>
   <energy>
    <i name="e_fr_energy">   -188.80542908 </i>
    <i name="e_wo_entrp">   -188.52466649 </i>
    <i name="e_0_energy">   -188.66504778 </i>
   </energy>
  </scstep>
  <scstep>
   <time name="dav">   32.28   32.35</time>
   <time name="total">   32.90   32.99</time>
   <energy>
    <i name="e_fr_energy">   -188.96815861 </i>
    <i name="e_wo_entrp">   -188.67394928 </i>
    <i name="e_0_energy">   -188.82105394 </i>
   </energy>
  </scstep>
  <scstep>
   <time name="dav">   32.67   32.75</time>
   <time name="total">   33.29   33.38</time>
   <energy>
    <i name="e_fr_energy">   -188.77169074 </i>
    <i name="e_wo_entrp">   -188.49200896 </i>
    <i name="e_0_energy">   -188.63184985 </i>
   </energy>
  </scstep>
  <scstep>
   <time name="dav">   30.12   30.19</time>
   <time name="total">   30.75   30.83</time>
   <energy>
    <i name="e_fr_energy">   -188.75548917 </i>
    <i name="e_wo_entrp">   -188.47495989 </i>
    <i name="e_0_energy">   -188.61522453 </i>
   </energy>
  </scstep>
  <scstep>
   <time name="dav">   34.18   34.26</time>
   <time name="total">   34.80   34.89</time>
   <energy>
    <i name="e_fr_energy">   -188.73423362 </i>
    <i name="e_wo_entrp">   -188.45380547 </i>
    <i name="e_0_energy">   -188.59401955 </i>
   </energy>
  </scstep>
  <scstep>
   <time name="dav">   31.73   31.81</time>
   <time name="total">   32.35   32.44</time>
   <energy>
    <i name="e_fr_energy">   -188.71567426 </i>
    <i name="e_wo_entrp">   -188.43605479 </i>
    <i name="e_0_energy">   -188.57586452 </i>
   </energy>
  </scstep>
  <scstep>
   <time name="dav">   28.14   28.21</time>
   <time name="total">   28.76   28.84</time>
   <energy>
    <i name="e_fr_energy">   -188.71544527 </i>
    <i name="e_wo_entrp">   -188.43594878 </i>
    <i name="e_0_energy">   -188.57569702 </i>
   </energy>
  </scstep>
  <scstep>
   <time name="dav">   30.05   30.12</time>
   <time name="total">   30.67   30.75</time>
   <energy>
    <i name="e_fr_energy">   -188.71466239 </i>
    <i name="e_wo_entrp">   -188.43565819 </i>
    <i name="e_0_energy">   -188.57516029 </i>
   </energy>
  </scstep>
  <scstep>
   <time name="dav">   28.68   28.74</time>
   <time name="total">   29.30   29.37</time>
   <energy>
    <i name="e_fr_energy">   -188.71482471 </i>
    <i name="e_wo_entrp">   -188.43575238 </i>
    <i name="e_0_energy">   -188.57528855 </i>
   </energy>
  </scstep>
  <scstep>
   <time name="dav">   23.48   23.53</time>
   <time name="total">   23.52   23.58</time>
   <energy>
    <i name="alphaZ">     78.91669095 </i>
    <i name="ewald">  39377.98954411 </i>
    <i name="hartreedc"> -45346.27041789 </i>
    <i name="XCdc">   -237.96818573 </i>
    <i name="pawpsdc">   3950.47314254 </i>
    <i name="pawaedc">  -3364.99428136 </i>
    <i name="eentropy">     -0.27908285 </i>
    <i name="bandstr">  -1408.02472355 </i>
    <i name="atom">   6761.44252427 </i>
    <i name="e_fr_energy">   -188.71478951 </i>
    <i name="e_wo_entrp">   -188.43570666 </i>
    <i name="e_0_energy">   -188.57524808 </i>
   </energy>
  </scstep>
  <structure>
   <crystal>
    <varray name="basis" >
     <v>       8.85760339       5.10264442       0.00000000 </v>
     <v>      -8.85919582       5.10538426       0.00000000 </v>
     <v>       0.00000000       0.00000000      30.00000000 </v>
    </varray>
    <i name="volume">   2712.80384869 </i>
    <varray name="rec_basis" >
     <v>       0.05645875       0.09797091       0.00000000 </v>
     <v>      -0.05642846       0.09795330       0.00000000 </v>
     <v>       0.00000000       0.00000000       0.03333333 </v>
    </varray>
   </crystal>
   <varray name="positions" >
    <v>       0.33370426       0.33363102      -0.00009211 </v>
    <v>      -0.00147223       0.66435702       0.00009938 </v>
    <v>       0.66676394       0.66628141       0.00003692 </v>
    <v>       0.66804676       0.33231967       0.00005465 </v>
    <v>       0.99720443       0.33197271      -0.00014605 </v>
    <v>       0.66793040       0.00276392       0.00000359 </v>
    <v>      -0.00177344       0.00118903      -0.00004896 </v>
    <v>       0.33630748       0.00155845       0.00012230 </v>
    <v>       0.33341342       0.66635389       0.00001509 </v>
    <v>       0.11512413       0.22341602       0.95189775 </v>
    <v>       0.22389513       0.11460030       0.04805394 </v>
    <v>       0.10956497       0.55824851       0.95202304 </v>
    <v>       0.22501850       0.44294179       0.04791193 </v>
    <v>       0.10924471       0.88506271       0.95205372 </v>
    <v>       0.21828540       0.77589627       0.04813384 </v>
    <v>       0.44135379       0.22366763       0.95198206 </v>
    <v>       0.55435777       0.11039687       0.04931713 </v>
    <v>       0.44599804       0.55357158       0.95298840 </v>
    <v>       0.55327633       0.44650636       0.04689883 </v>
    <v>       0.44367804       0.88830321       0.95073532 </v>
    <v>       0.55689986       0.77486748       0.04793458 </v>
    <v>       0.77778053       0.22214514       0.95066062 </v>
    <v>       0.88917078       0.11043329       0.04929688 </v>
    <v>       0.77964264       0.55988648       0.95311856 </v>
    <v>       0.89101147       0.44896248       0.04810229 </v>
    <v>       0.77646130       0.88479214       0.95194892 </v>
    <v>       0.88732605       0.77408907       0.04689730 </v>
   </varray>
  </structure>
  <varray name="forces" >
   <v>      -0.00832943       0.03252242       0.07176802 </v>
   <v>       0.16519062      -0.29641636      -0.06071856 </v>
   <v>       0.04999432      -0.03272868       0.08606595 </v>
   <v>       0.62630061      -0.15668612      -0.00241656 </v>
   <v>      -0.16847386      -0.58989048      -0.03042742 </v>
   <v>      -0.37909943       0.50274015      -0.00644824 </v>
   <v>      -0.55619270      -0.00009209      -0.11359550 </v>
   <v>       0.38157684       0.43133918      -0.07134201 </v>
   <v>      -0.07720160       0.04568622       0.11064686 </v>
   <v>       0.06576229      -0.05804268      -0.00870419 </v>
   <v>       0.05886082      -0.06599533      -0.17224811 </v>
   <v>       0.02404615       0.09939740       0.02602425 </v>
   <v>      -0.03413343       0.09868694      -0.14871265 </v>
   <v>      -0.05613985       0.07231902       0.38445707 </v>
   <v>       0.04792671       0.05954855      -0.11664984 </v>
   <v>       0.02850119      -0.09327864       0.00997086 </v>
   <v>      -0.04296631      -0.10140306       0.28775031 </v>
   <v>      -0.09157656      -0.00527629       0.06299012 </v>
   <v>      -0.02251100       0.01167791      -0.17637846 </v>
   <v>      -0.06403954      -0.08470239       0.00403557 </v>
   <v>      -0.03195848      -0.10372112      -0.12431574 </v>
   <v>      -0.01401522       0.01060735      -0.39810577 </v>
   <v>       0.12379406      -0.00208487       0.23186147 </v>
   <v>      -0.00345681       0.02972788       0.08173861 </v>
   <v>      -0.02902048       0.06753862       0.16784711 </v>
   <v>       0.06988881       0.05715814       0.03433491 </v>
   <v>      -0.06272774       0.07136835      -0.12942806 </v>
  </varray>
  <varray name="stress" >
   <v>     -19.91269246       0.00687339       0.04824331 </v>
   <v>       0.00687352     -19.44987981       0.01167170 </v>
   <v>       0.04824330       0.01167158      -1.75672945 </v>
  </varray>
  <energy>
   <i name="e_fr_energy">   -188.71478951 </i>
   <i name="e_wo_entrp">   -188.57524808 </i>
   <i name="e_0_energy">     -0.27908285 </i>
  </energy>
  <time name="totalsc">  441.26  442.42</time>
 </calculation>
 <calculation>
  <scstep>
   <time name="dav">   24.66   24.72</time>
   <time name="total">   25.27   25.33</time>
   <energy>
    <i name="alphaZ">     82.34381610 </i>
    <i name="ewald">  41303.07741349 </i>
    <i name="hartreedc"> -47301.76764663 </i>
    <i name="XCdc">   -233.84268340 </i>
    <i name="pawpsdc">   3949.59285281 </i>
    <i name="pawaedc">  -3364.10690379 </i>
    <i name="eentropy">     -0.23644036 </i>
    <i name="bandstr">  -1387.15218877 </i>
    <i name="atom">   6761.44252427 </i>
    <i name="e_fr_energy">   -190.64925629 </i>
    <i name="e_wo_entrp">   -190.41281592 </i>
    <i name="e_0_energy">   -190.53103610 </i>
   </energy>
  </scstep>
  <scstep>
   <time name="dav">   29.14   29.21</time>
   <time name="total">   29.74   29.82</time>
   <energy>
    <i name="e_fr_energy">   -190.56825131 </i>
    <i name="e_wo_entrp">   -190.33090240 </i>
    <i name="e_0_energy">   -190.44957686 </i>
   </energy>
  </scstep>
  <scstep>
   <time name="dav">   31.72   31.80</time>
   <time name="total">   32.32   32.41</time>
   <energy>
    <i name="e_fr_energy">   -190.13733288 </i>
    <i name="e_wo_entrp">   -189.88536352 </i>
    <i name="e_0_energy">   -190.01134820 </i>
   </energy>
  </scstep>
  <scstep>
   <time name="dav">   32.72   32.80</time>
   <time name="total">   33.33   33.42</time>
   <energy>
    <i name="e_fr_energy">   -189.92319859 </i>
    <i name="e_wo_entrp">   -189.68731959 </i>
    <i name="e_0_energy">   -189.80525909 </i>
   </energy>
  </scstep>
  <scstep>
   <time name="dav">   31.52   31.60</time>
   <time name="total">   32.14   32.33</time>
   <energy>
    <i name="e_fr_energy">   -189.90371654 </i>
    <i name="e_wo_entrp">   -189.66415931 </i>
    <i name="e_0_energy">   -189.78393793 </i>
   </energy>
  </scstep>
  <scstep>
   <time name="dav">   32.15   32.23</time>
   <time name="total">   32.76   32.85</time>
   <energy>
    <i name="e_fr_energy">   -189.82505984 </i>
    <i name="e_wo_entrp">   -189.58614542 </i>
    <i name="e_0_energy">   -189.70560263 </i>
   </energy>
  </scstep>
  <scstep>
   <time name="dav">   30.18   30.25</time>
   <time name="total">   30.79   30.87</time>
   <energy>
    <i name="e_fr_energy">   -189.81815499 </i>
    <i name="e_wo_entrp">   -189.57954955 </i>
    <i name="e_0_energy">   -189.69885227 </i>
   </energy>
  </scstep>
  <scstep>
   <time name="dav">   31.65   31.73</time>
   <time name="total">   32.26   32.35</time>
   <energy>
    <i name="e_fr_energy">   -189.81913439 </i>
    <i name="e_wo_entrp">   -189.58045061 </i>
    <i name="e_0_energy">   -189.69979250 </i>
   </energy>
  </scstep>
  <scstep>
   <time name="dav">   28.20   28.27</time>
   <time name="total">   28.81   28.89</time>
   <energy>
    <i name="e_fr_energy">   -189.81798296 </i>
    <i name="e_wo_entrp">   -189.57933831 </i>
    <i name="e_0_energy">   -189.69866063 </i>
   </energy>
  </scstep>
  <scstep>
   <time name="dav">   26.05   26.11</time>
   <time name="total">   26.66   26.74</time>
   <energy>
    <i name="e_fr_energy">   -189.81826902 </i>
    <i name="e_wo_entrp">   -189.57954027 </i>
    <i name="e_0_energy">   -189.69890465 </i>
   </energy>
  </scstep>
  <scstep>
   <time name="dav">   24.26   24.32</time>
   <time name="total">   24.87   24.94</time>
   <energy>
    <i name="e_fr_energy">   -189.81808523 </i>
    <i name="e_wo_entrp">   -189.57932801 </i>
    <i name="e_0_energy">   -189.69870662 </i>
   </energy>
  </scstep>
  <scstep>
   <time name="dav">   21.05   21.10</time>
   <time name="total">   21.08   21.14</time>
   <energy>
    <i name="alphaZ">     82.34381610 </i>
    <i name="ewald">  41303.07741349 </i>
    <i name="hartreedc"> -47275.28575191 </i>
    <i name="XCdc">   -235.23322029 </i>
    <i name="pawpsdc">   4039.11714928 </i>
    <i name="pawaedc">  -3454.83768007 </i>
    <i name="eentropy">     -0.23876794 </i>
    <i name="bandstr">  -1410.20358508 </i>
    <i name="atom">   6761.44252427 </i>
    <i name="e_fr_energy">   -189.81810216 </i>
    <i name="e_wo_entrp">   -189.57933422 </i>
    <i name="e_0_energy">   -189.69871819 </i>
   </energy>
  </scstep>
  <structure>
   <crystal>
    <varray name="basis" >
     <v>       8.66916659       4.99665766       0.00000000 </v>
     <v>      -8.67065016       4.99921043       0.00000000 </v>
     <v>       0.00000000       0.00000000      30.00000000 </v>
    </varray>
    <i name="volume">   2599.89775893 </i>
    <varray name="rec_basis" >
     <v>       0.05768547       0.10004990       0.00000000 </v>
     <v>      -0.05765601       0.10003278       0.00000000 </v>
     <v>       0.00000000       0.00000000       0.03333333 </v>
    </varray>
   </crystal>
   <varray name="positions" >
    <v>       0.33375054       0.33369331      -0.00005135 </v>
    <v>      -0.00180815       0.66370344       0.00006489 </v>
    <v>       0.66675740       0.66617871       0.00008580 </v>
    <v>       0.66838771       0.33145594       0.00005328 </v>
    <v>       0.99605759       0.33115012      -0.00016333 </v>
    <v>       0.66840497       0.00396756      -0.00000007 </v>
    <v>      -0.00230867       0.00172366      -0.00011348 </v>
    <v>       0.33739464       0.00191150       0.00008178 </v>
    <v>       0.33341541       0.66650437       0.00007794 </v>
    <v>       0.11509050       0.22325591       0.95189280 </v>
    <v>       0.22384159       0.11443356       0.04795611 </v>
    <v>       0.10975404       0.55839129       0.95203782 </v>
    <v>       0.22515041       0.44313933       0.04782746 </v>
    <v>       0.10931143       0.88523739       0.95227209 </v>
    <v>       0.21843091       0.77594958       0.04806758 </v>
    <v>       0.44122549       0.22348454       0.95198772 </v>
    <v>       0.55414715       0.11026893       0.04948057 </v>
    <v>       0.44590113       0.55365082       0.95302418 </v>
    <v>       0.55327417       0.44654750       0.04679865 </v>
    <v>       0.44347503       0.88822341       0.95073761 </v>
    <v>       0.55669596       0.77472509       0.04786397 </v>
    <v>       0.77778475       0.22217632       0.95043450 </v>
    <v>       0.88928639       0.11031078       0.04942858 </v>
    <v>       0.77968894       0.55993943       0.95316499 </v>
    <v>       0.89109630       0.44910311       0.04819762 </v>
    <v>       0.77662395       0.88482034       0.95196842 </v>
    <v>       0.88738484       0.77426851       0.04682378 </v>
   </varray>
  </structure>
  <varray name="forces" >
   <v>      -0.01387171      -0.00168384       0.08491498 </v>
   <v>       0.19033787      -0.25898599      -0.07558267 </v>
   <v>       0.02811214      -0.02632367       0.08188698 </v>
   <v>       0.67601232      -0.22464319      -0.00614508 </v>
   <v>      -0.13680587      -0.61779451      -0.00705669 </v>
   <v>      -0.42053894       0.51423361      -0.00391085 </v>
   <v>      -0.56076209       0.02438835      -0.10442855 </v>
   <v>       0.42089061       0.42043149      -0.08642445 </v>
   <v>      -0.12899244       0.06428669       0.10704301 </v>
   <v>       0.04198594       0.08656239      -0.51724212 </v>
   <v>      -0.01206901       0.04417735       0.31383623 </v>
   <v>      -0.07330254       0.02048947      -0.46120832 </v>
   <v>       0.06187690       0.00468012       0.32691283 </v>
   <v>       0.00926351      -0.03878454      -0.07814262 </v>
   <v>      -0.04268695      -0.06107886       0.39533052 </v>
   <v>      -0.07750064       0.00197851      -0.49150197 </v>
   <v>       0.00208858      -0.01095950       0.87713884 </v>
   <v>       0.06484238      -0.00044977      -0.40315147 </v>
   <v>      -0.06656753       0.01396173       0.25423427 </v>
   <v>      -0.00405109      -0.01218293      -0.55888798 </v>
   <v>       0.07097822      -0.00620832       0.35540809 </v>
   <v>      -0.02074527       0.01033727      -0.97493885 </v>
   <v>       0.02944886      -0.00068460       0.80464888 </v>
   <v>      -0.03254193       0.06994479      -0.35598104 </v>
   <v>      -0.05873654       0.11826210       0.66595868 </v>
   <v>       0.04335994      -0.08865799      -0.46606665 </v>
   <v>       0.00997529      -0.04529615       0.32335600 </v>
  </varray>
  <varray name="stress" >
   <v>     -10.15137622      -0.00192077       0.04622126 </v>
   <v>      -0.00192056      -9.76592859       0.01277627 </v>
   <v>       0.04622114       0.01277618       6.49882639 </v>
  </varray>
  <energy>
   <i name="e_fr_energy">   -189.81810216 </i>
   <i name="e_wo_entrp">   -189.69871819 </i>
   <i name="e_0_energy">     -0.23876794 </i>
  </energy>
  <time name="totalsc">  393.60  394.75</time>
 </calculation>
 <calculation>
  <scstep>
   <time name="dav">   22.78   22.83</time>
   <time name="total">   23.38   23.44</time>
   <energy>
    <i name="alphaZ">     85.80426706 </i>
    <i name="ewald">  42825.99400167 </i>
    <i name="hartreedc"> -48842.47170415 </i>
    <i name="XCdc">   -232.96333910 </i>
    <i name="pawpsdc">   4039.27340358 </i>
    <i name="pawaedc">  -3454.99215515 </i>
    <i name="eentropy">     -0.21076430 </i>
    <i name="bandstr">  -1373.28648126 </i>
    <i name="atom">   6761.44252427 </i>
    <i name="e_fr_energy">   -191.41024737 </i>
    <i name="e_wo_entrp">   -191.19948308 </i>
    <i name="e_0_energy">   -191.30486523 </i>
   </energy>
  </scstep>
  <scstep>
   <time name="dav">   33.62   33.70</time>
   <time name="total">   34.22   34.31</time>
   <energy>
    <i name="e_fr_energy">   -191.22226714 </i>
    <i name="e_wo_entrp">   -191.01180036 </i>
    <i name="e_0_energy">   -191.11703375 </i>
   </energy>
  </scstep>
  <scstep>
   <time name="dav">   31.55   31.63</time>
   <time name="total">   32.15   32.23</time>
   <energy>
    <i name="e_fr_energy">   -191.37418661 </i>
    <i name="e_wo_entrp">   -191.14196283 </i>
    <i name="e_0_energy">   -191.25807472 </i>
   </energy>
  </scstep>
  <scstep>
   <time name="dav">   31.79   31.86</time>
   <time name="total">   32.39   32.47</time>
   <energy>
    <i name="e_fr_energy">   -190.99618213 </i>
    <i name="e_wo_entrp">   -190.78304809 </i>
    <i name="e_0_energy">   -190.88961511 </i>
   </energy>
  </scstep>
  <scstep>
   <time name="dav">   31.80   31.87</time>
   <time name="total">   32.40   32.48</time>
   <energy>
    <i name="e_fr_energy">   -190.91674662 </i>
    <i name="e_wo_entrp">   -190.70422810 </i>
    <i name="e_0_energy">   -190.81048736 </i>
   </energy>
  </scstep>
  <scstep>
   <time name="dav">   31.89   31.96</time>
   <time name="total">   32.49   32.57</time>
   <energy>
    <i name="e_fr_energy">   -190.86926317 </i>
    <i name="e_wo_entrp">   -190.65178234 </i>
    <i name="e_0_energy">   -190.76052275 </i>
   </energy>
  </scstep>
  <scstep>
   <time name="dav">   32.41   32.49</time>
   <time name="total">   33.01   33.10</time>
   <energy>
    <i name="e_fr_energy">   -190.84585111 </i>
    <i name="e_wo_entrp">   -190.63008513 </i>
    <i name="e_0_energy">   -190.73796812 </i>
   </energy>
  </scstep>
  <scstep>
   <time name="dav">   29.75   29.82</time>
   <time name="total">   30.36   30.43</time>
   <energy>
    <i name="e_fr_energy">   -190.84397115 </i>
    <i name="e_wo_entrp">   -190.62824435 </i>
    <i name="e_0_energy">   -190.73610775 </i>
   </energy>
  </scstep>
  <scstep>
   <time name="dav">   28.83   28.90</time>
   <time name="total">   29.42   29.50</time>
   <energy>
    <i name="e_fr_energy">   -190.84331391 </i>
    <i name="e_wo_entrp">   -190.62754861 </i>
    <i name="e_0_energy">   -190.73543126 </i>
   </energy>
  </scstep>
  <scstep>
   <time name="dav">   29.49   29.56</time>
   <time name="total">   30.09   30.17</time>
   <energy>
    <i name="e_fr_energy">   -190.84351411 </i>
    <i name="e_wo_entrp">   -190.62777996 </i>
    <i name="e_0_energy">   -190.73564703 </i>
   </energy>
  </scstep>
  <scstep>
   <time name="dav">   27.42   27.48</time>
   <time name="total">   28.01   28.09</time>
   <energy>
    <i name="e_fr_energy">   -190.84332433 </i>
    <i name="e_wo_entrp">   -190.62752805 </i>
    <i name="e_0_energy">   -190.73542619 </i>
   </energy>
  </scstep>
  <scstep>
   <time name="dav">   20.42   20.47</time>
   <time name="total">   20.46   20.52</time>
   <energy>
    <i name="alphaZ">     85.80426706 </i>
    <i name="ewald">  42825.99400167 </i>
    <i name="hartreedc"> -48814.06621674 </i>
    <i name="XCdc">   -234.27844176 </i>
    <i name="pawpsdc">   4064.58797188 </i>
    <i name="pawaedc">  -3480.49699589 </i>
    <i name="eentropy">     -0.21581152 </i>
    <i name="bandstr">  -1399.61463100 </i>
    <i name="atom">   6761.44252427 </i>
    <i name="e_fr_energy">   -190.84333203 </i>
    <i name="e_wo_entrp">   -190.62752051 </i>
    <i name="e_0_energy">   -190.73542627 </i>
   </energy>
  </scstep>
  <structure>
   <crystal>
    <varray name="basis" >
     <v>       8.48699778       4.89782135       0.00000000 </v>
     <v>      -8.48866505       4.90069646       0.00000000 </v>
     <v>       0.00000000       0.00000000      30.00000000 </v>
    </varray>
    <i name="volume">   2495.04494674 </i>
    <varray name="rec_basis" >
     <v>       0.05892515       0.10206628       0.00000000 </v>
     <v>      -0.05889058       0.10204623       0.00000000 </v>
     <v>       0.00000000       0.00000000       0.03333333 </v>
    </varray>
   </crystal>
   <varray name="positions" >
    <v>       0.33359699       0.33365583       0.00013550 </v>
    <v>      -0.00261399       0.66145099      -0.00010409 </v>
    <v>       0.66667864       0.66595954       0.00025174 </v>
    <v>       0.66932498       0.32736808       0.00003741 </v>
    <v>       0.99166921       0.32765998      -0.00015818 </v>
    <v>       0.67007637       0.00879474      -0.00000602 </v>
    <v>      -0.00412745       0.00396855      -0.00032186 </v>
    <v>       0.34157813       0.00294177      -0.00010983 </v>
    <v>       0.33332421       0.66749308       0.00029643 </v>
    <v>       0.11610957       0.22403959       0.95039260 </v>
    <v>       0.22424685       0.11512889       0.04901638 </v>
    <v>       0.10928226       0.55872762       0.95067159 </v>
    <v>       0.22530720       0.44257443       0.04890596 </v>
    <v>       0.10891959       0.88459156       0.95171944 </v>
    <v>       0.21746477       0.77555122       0.04931839 </v>
    <v>       0.44104277       0.22416496       0.95054675 </v>
    <v>       0.55437516       0.11035289       0.05179393 </v>
    <v>       0.44636843       0.55320209       0.95179592 </v>
    <v>       0.55306377       0.44694401       0.04768869 </v>
    <v>       0.44365006       0.88825600       0.94910526 </v>
    <v>       0.55730302       0.77452481       0.04900490 </v>
    <v>       0.77776426       0.22232493       0.94792934 </v>
    <v>       0.88925693       0.11033860       0.05157788 </v>
    <v>       0.78006781       0.56063650       0.95205837 </v>
    <v>       0.89170841       0.45022440       0.04999680 </v>
    <v>       0.77582506       0.88378432       0.95058100 </v>
    <v>       0.88695142       0.77355507       0.04787562 </v>
   </varray>
  </structure>
  <varray name="forces" >
   <v>      -0.02469059      -0.02550868       0.07691646 </v>
   <v>       0.21937430      -0.26702584      -0.07742461 </v>
   <v>       0.04912561      -0.03723344       0.04606949 </v>
   <v>       0.62643624      -0.25506920      -0.00227121 </v>
   <v>      -0.08546517      -0.58988974       0.01999887 </v>
   <v>      -0.43179157       0.47869198      -0.01065273 </v>
   <v>      -0.62596702       0.00420213      -0.07203557 </v>
   <v>       0.49483050       0.46405664      -0.04948362 </v>
   <v>      -0.15294448       0.07382715       0.07079739 </v>
   <v>      -0.06852841       0.05377540      -0.39286139 </v>
   <v>       0.01559755      -0.00820133       0.12010193 </v>
   <v>       0.02714739      -0.05384681      -0.28228067 </v>
   <v>      -0.04703711      -0.06856125       0.16407854 </v>
   <v>      -0.02096091       0.04492155       0.08392490 </v>
   <v>      -0.07212290      -0.00100712       0.28294476 </v>
   <v>       0.02790401       0.07446940      -0.32823920 </v>
   <v>       0.02644001       0.04802098       0.69237801 </v>
   <v>       0.02349055       0.01021142      -0.28381512 </v>
   <v>       0.08681336       0.01134498       0.18561528 </v>
   <v>       0.07778135       0.07366864      -0.40214098 </v>
   <v>      -0.02575799       0.08621762       0.19872524 </v>
   <v>      -0.00525598       0.01283609      -0.78218594 </v>
   <v>      -0.06397446      -0.01784274       0.60209166 </v>
   <v>       0.04308311      -0.05819373      -0.25347931 </v>
   <v>       0.00510156      -0.02986987       0.47888148 </v>
   <v>      -0.07681081      -0.03411809      -0.30254616 </v>
   <v>      -0.02181815       0.01012386       0.21689251 </v>
  </varray>
  <varray name="stress" >
   <v>      -5.58497870      -0.07706443      -0.12074665 </v>
   <v>      -0.07706416      -5.70720899      -0.09205325 </v>
   <v>      -0.12074661      -0.09205302       4.45475375 </v>
  </varray>
  <energy>
   <i name="e_fr_energy">   -190.84333203 </i>
   <i name="e_wo_entrp">   -190.73542627 </i>
   <i name="e_0_energy">     -0.21581152 </i>
  </energy>
  <time name="totalsc">  401.76  402.81</time>
 </calculation>
 <calculation>
  <scstep>
   <time name="dav">   22.79   22.84</time>
   <time name="total">   23.38   23.44</time>
   <energy>
    <i name="alphaZ">     89.97320221 </i>
    <i name="ewald">  44581.54324889 </i>
    <i name="hartreedc"> -50622.45057218 </i>
    <i name="XCdc">   -231.92892974 </i>
    <i name="pawpsdc">   4064.54978330 </i>
    <i name="pawaedc">  -3480.45473029 </i>
    <i name="eentropy">     -0.21415456 </i>
    <i name="bandstr">  -1354.62151895 </i>
    <i name="atom">   6761.44252427 </i>
    <i name="e_fr_energy">   -192.16114704 </i>
    <i name="e_wo_entrp">   -191.94699248 </i>
    <i name="e_0_energy">   -192.05406976 </i>
   </energy>
  </scstep>
  <scstep>
   <time name="dav">   28.67   28.74</time>
   <time name="total">   29.26   29.34</time>
   <energy>
    <i name="e_fr_energy">   -191.93156061 </i>
    <i name="e_wo_entrp">   -191.71564959 </i>
    <i name="e_0_energy">   -191.82360510 </i>
   </energy>
  </scstep>
  <scstep>
   <time name="dav">   30.73   30.80</time>
   <time name="total">   31.31   31.40</time>
   <energy>
    <i name="e_fr_energy">   -191.80822645 </i>
    <i name="e_wo_entrp">   -191.58177933 </i>
    <i name="e_0_energy">   -191.69500289 </i>
   </energy>
  </scstep>
  <scstep>
   <time name="dav">   31.63   31.71</time>
   <time name="total">   32.23   32.32</time>
   <energy>
    <i name="e_fr_energy">   -191.82784659 </i>
    <i name="e_wo_entrp">   -191.62320312 </i>
    <i name="e_0_energy">   -191.72552486 </i>
   </energy>
  </scstep>
  <scstep>
   <time name="dav">   31.80   31.87</time>
   <time name="total">   32.38   32.47</time>
   <energy>
    <i name="e_fr_energy">   -191.55226048 </i>
    <i name="e_wo_entrp">   -191.33081015 </i>
    <i name="e_0_energy">   -191.44153532 </i>
   </energy>
  </scstep>
  <scstep>
   <time name="dav">   30.39   30.46</time>
   <time name="total">   30.98   31.06</time>
   <energy>
    <i name="e_fr_energy">   -191.54313133 </i>
    <i name="e_wo_entrp">   -191.32211897 </i>
    <i name="e_0_energy">   -191.43262515 </i>
   </energy>
  </scstep>
  <scstep>
   <time name="dav">   31.00   31.08</time>
   <time name="total">   31.59   31.67</time>
   <energy>
    <i name="e_fr_energy">   -191.54857863 </i>
    <i name="e_wo_entrp">   -191.32761518 </i>
    <i name="e_0_energy">   -191.43809691 </i>
   </energy>
  </scstep>
  <scstep>
   <time name="dav">   30.02   30.09</time>
   <time name="total">   30.62   30.70</time>
   <energy>
    <i name="e_fr_energy">   -191.53780185 </i>
    <i name="e_wo_entrp">   -191.31698287 </i>
    <i name="e_0_energy">   -191.42739236 </i>
   </energy>
  </scstep>
  <scstep>
   <time name="dav">   29.91   29.98</time>
   <time name="total">   30.50   30.58</time>
   <energy>
    <i name="e_fr_energy">   -191.53829609 </i>
    <i name="e_wo_entrp">   -191.31767136 </i>
    <i name="e_0_energy">   -191.42798373 </i>
   </energy>
  </scstep>
  <scstep>
   <time name="dav">   30.84   30.91</time>
   <time name="total">   31.43   31.52</time>
   <energy>
    <i name="e_fr_energy">   -191.53834995 </i>
    <i name="e_wo_entrp">   -191.31729643 </i>
    <i name="e_0_energy">   -191.42782319 </i>
   </energy>
  </scstep>
  <scstep>
   <time name="dav">   26.72   26.79</time>
   <time name="total">   27.31   27.39</time>
   <energy>
    <i name="e_fr_energy">   -191.53792190 </i>
    <i name="e_wo_entrp">   -191.31710215 </i>
    <i name="e_0_energy">   -191.42751203 </i>
   </energy>
  </scstep>
  <scstep>
   <time name="dav">   18.46   18.51</time>
   <time name="total">   18.50   18.55</time>
   <energy>
    <i name="alphaZ">     89.97320221 </i>
    <i name="ewald">  44581.54324889 </i>
    <i name="hartreedc"> -50590.59856232 </i>
    <i name="XCdc">   -233.36605337 </i>
    <i name="pawpsdc">   4087.92268679 </i>
    <i name="pawaedc">  -3503.96555009 </i>
    <i name="eentropy">     -0.22091202 </i>
    <i name="bandstr">  -1384.26847426 </i>
    <i name="atom">   6761.44252427 </i>
    <i name="e_fr_energy">   -191.53788990 </i>
    <i name="e_wo_entrp">   -191.31697789 </i>
    <i name="e_0_energy">   -191.42743390 </i>
   </energy>
  </scstep>
  <structure>
   <crystal>
    <varray name="basis" >
     <v>       8.28816583       4.77764086       0.00000000 </v>
     <v>      -8.29437918       4.78839095       0.00000000 </v>
     <v>       0.00000000       0.00000000      30.00000000 </v>
    </varray>
    <i name="volume">   2379.43629529 </i>
    <varray name="rec_basis" >
     <v>       0.06037217       0.10457577       0.00000000 </v>
     <v>      -0.06023663       0.10449743       0.00000000 </v>
     <v>       0.00000000       0.00000000       0.03333333 </v>
    </varray>
   </crystal>
   <varray name="positions" >
    <v>       0.33306842       0.33346474       0.00045052 </v>
    <v>      -0.00415931       0.65686184      -0.00041768 </v>
    <v>       0.66655400       0.66526628       0.00044497 </v>
    <v>       0.67058119       0.31975921       0.00002316 </v>
    <v>       0.98393237       0.32109437      -0.00007252 </v>
    <v>       0.67284370       0.01761164      -0.00004162 </v>
    <v>      -0.00823367       0.00837006      -0.00060956 </v>
    <v>       0.35041029       0.00497595      -0.00033479 </v>
    <v>       0.33312783       0.66952010       0.00058644 </v>
    <v>       0.11678922       0.22553508       0.94833105 </v>
    <v>       0.22450327       0.11544437       0.05003288 </v>
    <v>       0.10848436       0.55804599       0.94903164 </v>
    <v>       0.22427583       0.44168953       0.05006786 </v>
    <v>       0.10900553       0.88470488       0.95153327 </v>
    <v>       0.21641626       0.77572656       0.05095014 </v>
    <v>       0.44200499       0.22526897       0.94872303 </v>
    <v>       0.55533197       0.11084842       0.05512456 </v>
    <v>       0.44693205       0.55287478       0.95019986 </v>
    <v>       0.55359746       0.44670174       0.04884460 </v>
    <v>       0.44514549       0.88864161       0.94694070 </v>
    <v>       0.55852396       0.77559948       0.05030205 </v>
    <v>       0.77785168       0.22253408       0.94425751 </v>
    <v>       0.88857173       0.11066009       0.05455145 </v>
    <v>       0.77986828       0.56007380       0.95061508 </v>
    <v>       0.89165521       0.45031100       0.05241457 </v>
    <v>       0.77447322       0.88335369       0.94885792 </v>
    <v>       0.88665913       0.77327620       0.04919281 </v>
   </varray>
  </structure>
  <varray name="forces" >
   <v>      -0.05666008      -0.03273452       0.02060967 </v>
   <v>       0.27139828      -0.37770523      -0.00474991 </v>
   <v>       0.13093747      -0.05016340       0.04558598 </v>
   <v>       0.04896348      -0.02876652      -0.04520284 </v>
   <v>       0.02899830      -0.09404188      -0.06725646 </v>
   <v>      -0.04543042      -0.02672043      -0.02536304 </v>
   <v>      -0.58517744      -0.03795210      -0.01557896 </v>
   <v>       0.41726520       0.34742493       0.06523861 </v>
   <v>      -0.15416407       0.13948832       0.05112028 </v>
   <v>      -0.16208724       0.00363909      -0.11083216 </v>
   <v>       0.08712876      -0.10008816      -0.20397522 </v>
   <v>       0.13406500      -0.11510081       0.00887884 </v>
   <v>      -0.17204003      -0.10981790      -0.09271052 </v>
   <v>      -0.09113477       0.19619762       0.41953542 </v>
   <v>      -0.09308916       0.08222155       0.00798327 </v>
   <v>       0.15518062       0.09621911      -0.02494314 </v>
   <v>       0.06022447       0.05724083       0.30042884 </v>
   <v>      -0.03900353       0.00271022       0.00238428 </v>
   <v>       0.22783056      -0.01075156      -0.02577914 </v>
   <v>       0.15385912       0.16231778      -0.17402520 </v>
   <v>      -0.13255044       0.14757468      -0.09088706 </v>
   <v>       0.01039736       0.03086333      -0.27923488 </v>
   <v>      -0.12153272      -0.07478317       0.25273768 </v>
   <v>       0.11693187      -0.17954915      -0.01916610 </v>
   <v>       0.07234154      -0.14847600       0.12723698 </v>
   <v>      -0.23219541       0.02628857      -0.03605264 </v>
   <v>      -0.03045673       0.09446480      -0.08598258 </v>
  </varray>
  <varray name="stress" >
   <v>       0.56337297      -0.22214115      -0.16506859 </v>
   <v>      -0.22214097       0.33799699      -0.30423670 </v>
   <v>      -0.16506838      -0.30423663      -0.66095230 </v>
  </varray>
  <energy>
   <i name="e_fr_energy">   -191.53788990 </i>
   <i name="e_wo_entrp">   -191.42743390 </i>
   <i name="e_0_energy">     -0.22091202 </i>
  </energy>
  <time name="totalsc">  393.09  394.13</time>
 </calculation>
 <calculation>
  <scstep>
   <time name="dav">   22.77   22.82</time>
   <time name="total">   23.36   23.42</time>
   <energy>
    <i name="alphaZ">     89.67002432 </i>
    <i name="ewald">  44432.60016163 </i>
    <i name="hartreedc"> -50438.81578311 </i>
    <i name="XCdc">   -233.62655730 </i>
    <i name="pawpsdc">   4087.78304419 </i>
    <i name="pawaedc">  -3503.82058555 </i>
    <i name="eentropy">     -0.22176245 </i>
    <i name="bandstr">  -1386.62167714 </i>
    <i name="atom">   6761.44252427 </i>
    <i name="e_fr_energy">   -191.61061115 </i>
    <i name="e_wo_entrp">   -191.38884870 </i>
    <i name="e_0_energy">   -191.49972993 </i>
   </energy>
  </scstep>
  <scstep>
   <time name="dav">   33.51   33.59</time>
   <time name="total">   34.10   34.19</time>
   <energy>
    <i name="e_fr_energy">   -191.66224544 </i>
    <i name="e_wo_entrp">   -191.43355657 </i>
    <i name="e_0_energy">   -191.54790101 </i>
   </energy>
  </scstep>
  <scstep>
   <time name="dav">   32.17   32.25</time>
   <time name="total">   32.76   32.84</time>
   <energy>
    <i name="e_fr_energy">   -191.62050387 </i>
    <i name="e_wo_entrp">   -191.39819756 </i>
    <i name="e_0_energy">   -191.50935072 </i>
   </energy>
  </scstep>
  <scstep>
   <time name="dav">   27.31   27.37</time>
   <time name="total">   27.90   27.98</time>
   <energy>
    <i name="e_fr_energy">   -191.62389079 </i>
    <i name="e_wo_entrp">   -191.40218817 </i>
    <i name="e_0_energy">   -191.51303948 </i>
   </energy>
  </scstep>
  <scstep>
   <time name="dav">   29.42   29.49</time>
   <time name="total">   30.01   30.09</time>
   <energy>
    <i name="e_fr_energy">   -191.61725334 </i>
    <i name="e_wo_entrp">   -191.39354504 </i>
    <i name="e_0_energy">   -191.50539919 </i>
   </energy>
  </scstep>
  <scstep>
   <time name="dav">   29.15   29.22</time>
   <time name="total">   29.75   29.84</time>
   <energy>
    <i name="e_fr_energy">   -191.61801285 </i>
    <i name="e_wo_entrp">   -191.39543321 </i>
    <i name="e_0_energy">   -191.50672303 </i>
   </energy>
  </scstep>
  <scstep>
   <time name="dav">   29.21   29.28</time>
   <time name="total">   29.79   29.88</time>
   <energy>
    <i name="e_fr_energy">   -191.61685444 </i>
    <i name="e_wo_entrp">   -191.39410307 </i>
    <i name="e_0_energy">   -191.50547876 </i>
   </energy>
  </scstep>
  <scstep>
   <time name="dav">   26.40   26.46</time>
   <time name="total">   26.99   27.06</time>
   <energy>
    <i name="e_fr_energy">   -191.61640643 </i>
    <i name="e_wo_entrp">   -191.39363694 </i>
    <i name="e_0_energy">   -191.50502168 </i>
   </energy>
  </scstep>
  <scstep>
   <time name="dav">   19.54   19.59</time>
   <time name="total">   19.58   19.63</time>
   <energy>
    <i name="alphaZ">     89.67002432 </i>
    <i name="ewald">  44432.60016163 </i>
    <i name="hartreedc"> -50442.22682285 </i>
    <i name="XCdc">   -233.50478576 </i>
    <i name="pawpsdc">   4083.85243798 </i>
    <i name="pawaedc">  -3499.83851438 </i>
    <i name="eentropy">     -0.22280102 </i>
    <i name="bandstr">  -1383.38863233 </i>
    <i name="atom">   6761.44252427 </i>
    <i name="e_fr_energy">   -191.61640813 </i>
    <i name="e_wo_entrp">   -191.39360711 </i>
    <i name="e_0_energy">   -191.50500762 </i>
   </energy>
  </scstep>
  <structure>
   <crystal>
    <varray name="basis" >
     <v>       8.30187335       4.78006284       0.00000000 </v>
     <v>      -8.31313896       4.79956516       0.00000000 </v>
     <v>       0.00000000       0.00000000      30.00000000 </v>
    </varray>
    <i name="volume">   2387.48126331 </i>
    <varray name="rec_basis" >
     <v>       0.06030915       0.10445911       0.00000000 </v>
     <v>      -0.06006409       0.10431755       0.00000000 </v>
     <v>       0.00000000       0.00000000       0.03333333 </v>
    </varray>
   </crystal>
   <varray name="positions" >
    <v>       0.33278691       0.33347436       0.00046718 </v>
    <v>      -0.00512986       0.65456129      -0.00041088 </v>
    <v>       0.66667881       0.66470657       0.00050415 </v>
    <v>       0.67052517       0.31982865      -0.00004342 </v>
    <v>       0.98390784       0.32086355      -0.00017666 </v>
    <v>       0.67247599       0.01722504      -0.00007806 </v>
    <v>      -0.00981805       0.00957747      -0.00062016 </v>
    <v>       0.35278322       0.00539048      -0.00022691 </v>
    <v>       0.33337304       0.67049659       0.00064969 </v>
    <v>       0.11632406       0.22591249       0.94827084 </v>
    <v>       0.22425199       0.11471285       0.04966851 </v>
    <v>       0.10835287       0.55717224       0.94913192 </v>
    <v>       0.22333927       0.44168978       0.04986380 </v>
    <v>       0.10968231       0.88587905       0.95218198 </v>
    <v>       0.21661094       0.77636310       0.05087567 </v>
    <v>       0.44283569       0.22524064       0.94878097 </v>
    <v>       0.55571474       0.11092911       0.05540949 </v>
    <v>       0.44680669       0.55301528       0.95028705 </v>
    <v>       0.55414510       0.44604181       0.04874326 </v>
    <v>       0.44625261       0.88896763       0.94679279 </v>
    <v>       0.55879228       0.77660340       0.05009487 </v>
    <v>       0.77802115       0.22264063       0.94401861 </v>
    <v>       0.88792464       0.11062131       0.05478087 </v>
    <v>       0.77934711       0.55893151       0.95066253 </v>
    <v>       0.89115053       0.44940443       0.05248323 </v>
    <v>       0.77404033       0.88413701       0.94889496 </v>
    <v>       0.88703910       0.77382815       0.04899361 </v>
   </varray>
  </structure>
  <varray name="forces" >
   <v>      -0.04457836      -0.04101545       0.03383921 </v>
   <v>       0.29549000      -0.46193730      -0.00546392 </v>
   <v>       0.15848579      -0.04877541       0.05947048 </v>
   <v>       0.15436017      -0.04024873      -0.02528735 </v>
   <v>       0.01137496      -0.19987712      -0.01856882 </v>
   <v>      -0.13100097       0.06111985      -0.02845766 </v>
   <v>      -0.63612326      -0.02868462      -0.03306688 </v>
   <v>       0.45034808       0.38334215      -0.00087543 </v>
   <v>      -0.17430266       0.19731214       0.04841107 </v>
   <v>      -0.09690208       0.01141282      -0.10704355 </v>
   <v>       0.05794670      -0.07504203      -0.21359658 </v>
   <v>       0.08445906      -0.05706155      -0.00886226 </v>
   <v>      -0.11260007      -0.03086697      -0.10247573 </v>
   <v>      -0.07692390       0.13344440       0.48043507 </v>
   <v>      -0.07189179       0.05319838      -0.01728210 </v>
   <v>       0.09793779       0.03554298      -0.01519862 </v>
   <v>       0.04910189       0.07874104       0.23546318 </v>
   <v>      -0.02715091       0.00024211       0.03734708 </v>
   <v>       0.11043309      -0.01344191      -0.03489041 </v>
   <v>       0.09048730       0.08548584      -0.16043989 </v>
   <v>      -0.05042202       0.07600284      -0.06683034 </v>
   <v>       0.00557684       0.00665929      -0.16634947 </v>
   <v>      -0.10989845      -0.02863423       0.20056632 </v>
   <v>       0.07244958      -0.09690347      -0.04291298 </v>
   <v>       0.05068099      -0.06944001       0.12520879 </v>
   <v>      -0.14095757      -0.00663256      -0.05347777 </v>
   <v>      -0.01638020       0.07605753      -0.11966145 </v>
  </varray>
  <varray name="stress" >
   <v>      -0.09696370       0.05728570      -0.11067012 </v>
   <v>       0.05728574      -0.26307442      -0.03821150 </v>
   <v>      -0.11067009      -0.03821141      -1.19417638 </v>
  </varray>
  <energy>
   <i name="e_fr_energy">   -191.61640813 </i>
   <i name="e_wo_entrp">   -191.50500762 </i>
   <i name="e_0_energy">     -0.22280102 </i>
  </energy>
  <time name="totalsc">  297.61  298.41</time>
 </calculation>
 <calculation>
  <scstep>
   <time name="dav">   22.74   22.80</time>
   <time name="total">   23.34   23.40</time>
   <energy>
    <i name="alphaZ">     89.75505411 </i>
    <i name="ewald">  44471.08842977 </i>
    <i name="hartreedc"> -50481.54311470 </i>
    <i name="XCdc">   -233.44991697 </i>
    <i name="pawpsdc">   4083.43588741 </i>
    <i name="pawaedc">  -3499.41767573 </i>
    <i name="eentropy">     -0.22154087 </i>
    <i name="bandstr">  -1382.77508790 </i>
    <i name="atom">   6761.44252427 </i>
    <i name="e_fr_energy">   -191.68544061 </i>
    <i name="e_wo_entrp">   -191.46389974 </i>
    <i name="e_0_energy">   -191.57467018 </i>
   </energy>
  </scstep>
  <scstep>
   <time name="dav">   33.40   33.48</time>
   <time name="total">   33.99   34.08</time>
   <energy>
    <i name="e_fr_energy">   -191.71412325 </i>
    <i name="e_wo_entrp">   -191.48639497 </i>
    <i name="e_0_energy">   -191.60025911 </i>
   </energy>
  </scstep>
  <scstep>
   <time name="dav">   32.09   32.16</time>
   <time name="total">   32.68   32.77</time>
   <energy>
    <i name="e_fr_energy">   -191.69168795 </i>
    <i name="e_wo_entrp">   -191.46982187 </i>
    <i name="e_0_energy">   -191.58075491 </i>
   </energy>
  </scstep>
  <scstep>
   <time name="dav">   28.55   28.62</time>
   <time name="total">   29.14   29.22</time>
   <energy>
    <i name="e_fr_energy">   -191.69211658 </i>
    <i name="e_wo_entrp">   -191.47109913 </i>
    <i name="e_0_energy">   -191.58160786 </i>
   </energy>
  </scstep>
  <scstep>
   <time name="dav">   29.15   29.22</time>
   <time name="total">   29.74   29.82</time>
   <energy>
    <i name="e_fr_energy">   -191.68932991 </i>
    <i name="e_wo_entrp">   -191.46625761 </i>
    <i name="e_0_energy">   -191.57779376 </i>
   </energy>
  </scstep>
  <scstep>
   <time name="dav">   29.66   29.73</time>
   <time name="total">   30.24   30.32</time>
   <energy>
    <i name="e_fr_energy">   -191.68936066 </i>
    <i name="e_wo_entrp">   -191.46691082 </i>
    <i name="e_0_energy">   -191.57813574 </i>
   </energy>
  </scstep>
  <scstep>
   <time name="dav">   27.17   27.24</time>
   <time name="total">   27.77   27.84</time>
   <energy>
    <i name="e_fr_energy">   -191.68940355 </i>
    <i name="e_wo_entrp">   -191.46676575 </i>
    <i name="e_0_energy">   -191.57808465 </i>
   </energy>
  </scstep>
  <scstep>
[...]
      <set comment="kpoint 31">
       <r>  -17.4873    1.0000 </r>
       <r>  -17.2527    1.0000 </r>
       <r>  -16.9227    1.0000 </r>
       <r>  -16.5858    1.0000 </r>
       <r>  -16.4977    1.0000 </r>
       <r>  -16.4099    1.0000 </r>
       <r>  -16.2812    1.0000 </r>
       <r>  -16.1618    1.0000 </r>
       <r>  -16.0892    1.0000 </r>
       <r>  -16.0273    1.0000 </r>
       <r>  -15.9164    1.0000 </r>
       <r>  -15.8628    1.0000 </r>
       <r>  -15.8362    1.0000 </r>
       <r>  -15.7393    1.0000 </r>
       <r>  -15.6616    1.0000 </r>
       <r>  -15.5536    1.0000 </r>
       <r>  -15.4372    1.0000 </r>
       <r>  -15.3160    1.0000 </r>
       <r>   -9.6935    1.0000 </r>
       <r>   -9.4196    1.0000 </r>
       <r>   -9.2958    1.0000 </r>
       <r>   -8.9049    1.0000 </r>
       <r>   -8.8252    1.0000 </r>
       <r>   -8.7035    1.0000 </r>
       <r>   -8.5425    1.0000 </r>
       <r>   -8.4931    1.0000 </r>
       <r>   -8.4199    1.0000 </r>
       <r>   -8.3296    1.0000 </r>
       <r>   -8.2798    1.0000 </r>
       <r>   -8.1841    1.0000 </r>
       <r>   -8.1600    1.0000 </r>
       <r>   -8.0992    1.0000 </r>
       <r>   -8.0016    1.0000 </r>
       <r>   -7.8766    1.0000 </r>
       <r>   -7.8023    1.0000 </r>
       <r>   -7.6452    1.0000 </r>
       <r>   -7.5831    1.0000 </r>
       <r>   -7.4274    1.0000 </r>
       <r>   -7.3132    1.0000 </r>
       <r>   -7.1714    1.0000 </r>
       <r>   -7.1210    1.0000 </r>
       <r>   -7.0771    1.0000 </r>
       <r>   -7.0094    1.0000 </r>
       <r>   -6.9730    1.0000 </r>
       <r>   -6.8581    1.0000 </r>
       <r>   -6.8417    1.0000 </r>
       <r>   -6.7233    1.0000 </r>
       <r>   -6.6082    1.0000 </r>
       <r>   -6.5642    1.0000 </r>
       <r>   -6.4827    1.0000 </r>
       <r>   -6.4063    1.0000 </r>
       <r>   -6.3858    1.0000 </r>
       <r>   -6.2754    1.0000 </r>
       <r>   -6.1896    1.0000 </r>
       <r>   -6.1461    1.0000 </r>
       <r>   -6.0573    1.0000 </r>
       <r>   -6.0221    1.0000 </r>
       <r>   -5.9207    1.0000 </r>
       <r>   -5.8760    1.0000 </r>
       <r>   -5.7982    1.0000 </r>
       <r>   -5.7110    1.0000 </r>
       <r>   -5.6385    1.0000 </r>
       <r>   -5.5485    1.0000 </r>
       <r>   -5.3644    1.0000 </r>
       <r>   -5.2558    1.0000 </r>
       <r>   -5.1877    1.0000 </r>
       <r>   -5.1143    1.0000 </r>
       <r>   -4.9032    1.0000 </r>
       <r>   -4.7659    1.0000 </r>
       <r>   -4.7495    1.0000 </r>
       <r>   -4.6278    1.0000 </r>
       <r>   -4.4433    1.0000 </r>
       <r>   -4.4010    1.0000 </r>
       <r>   -4.3131    1.0000 </r>
       <r>   -4.1849    1.0000 </r>
       <r>   -3.9568    1.0000 </r>
       <r>   -3.8009    0.9999 </r>
       <r>   -3.6643    0.9966 </r>
       <r>   -3.5284    0.9598 </r>
       <r>   -3.2846    0.5099 </r>
       <r>   -2.9806    0.0168 </r>
       <r>   -2.7883    0.0002 </r>
       <r>   -2.6188    0.0000 </r>
       <r>   -2.5112    0.0000 </r>
       <r>   -2.4571    0.0000 </r>
       <r>   -2.3510    0.0000 </r>
       <r>   -2.3011    0.0000 </r>
       <r>   -2.1407    0.0000 </r>
       <r>   -2.0534    0.0000 </r>
       <r>   -1.9421    0.0000 </r>
       <r>   -1.8448    0.0000 </r>
       <r>   -1.8107    0.0000 </r>
       <r>   -1.4732    0.0000 </r>
       <r>   -1.3343    0.0000 </r>
       <r>   -1.2539    0.0000 </r>
       <r>   -1.1739    0.0000 </r>
       <r>   -1.1486    0.0000 </r>
       <r>   -1.0548    0.0000 </r>
       <r>   -0.9779    0.0000 </r>
       <r>   -0.9451    0.0000 </r>
       <r>   -0.8541    0.0000 </r>
       <r>   -0.7389    0.0000 </r>
       <r>   -0.6515    0.0000 </r>
       <r>   -0.5365    0.0000 </r>
       <r>   -0.4499    0.0000 </r>
       <r>   -0.4098    0.0000 </r>
       <r>   -0.2881    0.0000 </r>
       <r>   -0.0702    0.0000 </r>
       <r>   -0.0479    0.0000 </r>
       <r>    0.1218    0.0000 </r>
       <r>    0.3543    0.0000 </r>
       <r>    0.5561    0.0000 </r>
       <r>    0.7206    0.0000 </r>
       <r>    0.9586    0.0000 </r>
       <r>    1.0710    0.0000 </r>
       <r>    1.3999    0.0000 </r>
       <r>    1.5418    0.0000 </r>
       <r>    2.1248    0.0000 </r>
       <r>    2.2869    0.0000 </r>
       <r>    2.3858    0.0000 </r>
      </set>
      <set comment="kpoint 32">
       <r>  -17.5071    1.0000 </r>
       <r>  -17.1329    1.0000 </r>
       <r>  -17.0766    1.0000 </r>
       <r>  -16.5883    1.0000 </r>
       <r>  -16.4205    1.0000 </r>
       <r>  -16.3565    1.0000 </r>
       <r>  -16.2665    1.0000 </r>
       <r>  -16.2049    1.0000 </r>
       <r>  -16.1116    1.0000 </r>
       <r>  -16.0060    1.0000 </r>
       <r>  -15.9450    1.0000 </r>
       <r>  -15.9000    1.0000 </r>
       <r>  -15.8395    1.0000 </r>
       <r>  -15.7383    1.0000 </r>
       <r>  -15.6542    1.0000 </r>
       <r>  -15.5661    1.0000 </r>
       <r>  -15.4192    1.0000 </r>
       <r>  -15.3059    1.0000 </r>
       <r>   -9.6052    1.0000 </r>
       <r>   -9.5416    1.0000 </r>
       <r>   -9.3735    1.0000 </r>
       <r>   -8.9097    1.0000 </r>
       <r>   -8.7516    1.0000 </r>
       <r>   -8.5294    1.0000 </r>
       <r>   -8.4795    1.0000 </r>
       <r>   -8.4623    1.0000 </r>
       <r>   -8.4090    1.0000 </r>
       <r>   -8.3453    1.0000 </r>
       <r>   -8.2855    1.0000 </r>
       <r>   -8.2481    1.0000 </r>
       <r>   -8.1902    1.0000 </r>
       <r>   -8.1501    1.0000 </r>
       <r>   -8.0348    1.0000 </r>
       <r>   -7.9523    1.0000 </r>
       <r>   -7.8201    1.0000 </r>
       <r>   -7.6130    1.0000 </r>
       <r>   -7.5406    1.0000 </r>
       <r>   -7.4519    1.0000 </r>
       <r>   -7.3247    1.0000 </r>
       <r>   -7.2129    1.0000 </r>
       <r>   -7.1243    1.0000 </r>
       <r>   -7.0800    1.0000 </r>
       <r>   -6.9704    1.0000 </r>
       <r>   -6.9524    1.0000 </r>
       <r>   -6.9461    1.0000 </r>
       <r>   -6.8009    1.0000 </r>
       <r>   -6.7169    1.0000 </r>
       <r>   -6.6033    1.0000 </r>
       <r>   -6.5296    1.0000 </r>
       <r>   -6.4894    1.0000 </r>
       <r>   -6.4170    1.0000 </r>
       <r>   -6.3688    1.0000 </r>
       <r>   -6.2655    1.0000 </r>
       <r>   -6.2117    1.0000 </r>
       <r>   -6.1446    1.0000 </r>
       <r>   -6.0953    1.0000 </r>
       <r>   -5.9933    1.0000 </r>
       <r>   -5.9149    1.0000 </r>
       <r>   -5.8689    1.0000 </r>
       <r>   -5.7184    1.0000 </r>
       <r>   -5.6691    1.0000 </r>
       <r>   -5.5999    1.0000 </r>
       <r>   -5.5090    1.0000 </r>
       <r>   -5.4305    1.0000 </r>
       <r>   -5.3067    1.0000 </r>
       <r>   -5.2033    1.0000 </r>
       <r>   -5.1200    1.0000 </r>
       <r>   -5.0404    1.0000 </r>
       <r>   -4.7723    1.0000 </r>
       <r>   -4.6725    1.0000 </r>
       <r>   -4.6039    1.0000 </r>
       <r>   -4.4794    1.0000 </r>
       <r>   -4.3912    1.0000 </r>
       <r>   -4.3254    1.0000 </r>
       <r>   -4.1981    1.0000 </r>
       <r>   -4.0086    1.0000 </r>
       <r>   -3.8050    0.9999 </r>
       <r>   -3.6564    0.9960 </r>
       <r>   -3.4551    0.8907 </r>
       <r>   -3.2719    0.4742 </r>
       <r>   -3.0574    0.0568 </r>
       <r>   -2.7381    0.0001 </r>
       <r>   -2.5785    0.0000 </r>
       <r>   -2.5022    0.0000 </r>
       <r>   -2.4403    0.0000 </r>
       <r>   -2.3425    0.0000 </r>
       <r>   -2.2586    0.0000 </r>
       <r>   -2.1442    0.0000 </r>
       <r>   -2.0554    0.0000 </r>
       <r>   -1.9397    0.0000 </r>
       <r>   -1.8727    0.0000 </r>
       <r>   -1.8213    0.0000 </r>
       <r>   -1.4904    0.0000 </r>
       <r>   -1.3723    0.0000 </r>
       <r>   -1.2582    0.0000 </r>
       <r>   -1.1724    0.0000 </r>
       <r>   -1.1428    0.0000 </r>
       <r>   -1.0513    0.0000 </r>
       <r>   -0.9727    0.0000 </r>
       <r>   -0.9222    0.0000 </r>
       <r>   -0.8317    0.0000 </r>
       <r>   -0.7450    0.0000 </r>
       <r>   -0.6533    0.0000 </r>
       <r>   -0.5638    0.0000 </r>
       <r>   -0.4620    0.0000 </r>
       <r>   -0.4370    0.0000 </r>
       <r>   -0.2473    0.0000 </r>
       <r>   -0.1236    0.0000 </r>
       <r>    0.0499    0.0000 </r>
       <r>    0.1654    0.0000 </r>
       <r>    0.3709    0.0000 </r>
       <r>    0.5747    0.0000 </r>
       <r>    0.7509    0.0000 </r>
       <r>    0.9268    0.0000 </r>
       <r>    1.0640    0.0000 </r>
       <r>    1.2901    0.0000 </r>
       <r>    1.4845    0.0000 </r>
       <r>    2.0890    0.0000 </r>
       <r>    2.2565    0.0000 </r>
       <r>    2.5501    0.0000 </r>
      </set>
      <set comment="kpoint 33">
       <r>  -17.4932    1.0000 </r>
       <r>  -17.2500    1.0000 </r>
       <r>  -16.9176    1.0000 </r>
       <r>  -16.5954    1.0000 </r>
       <r>  -16.5045    1.0000 </r>
       <r>  -16.3690    1.0000 </r>
       <r>  -16.2873    1.0000 </r>
       <r>  -16.1676    1.0000 </r>
       <r>  -16.0824    1.0000 </r>
       <r>  -15.9863    1.0000 </r>
       <r>  -15.9606    1.0000 </r>
       <r>  -15.8979    1.0000 </r>
       <r>  -15.8234    1.0000 </r>
       <r>  -15.7431    1.0000 </r>
       <r>  -15.6570    1.0000 </r>
       <r>  -15.5778    1.0000 </r>
       <r>  -15.4147    1.0000 </r>
       <r>  -15.3121    1.0000 </r>
       <r>   -9.7001    1.0000 </r>
       <r>   -9.3962    1.0000 </r>
       <r>   -9.2929    1.0000 </r>
       <r>   -8.9769    1.0000 </r>
       <r>   -8.8580    1.0000 </r>
       <r>   -8.7203    1.0000 </r>
       <r>   -8.4943    1.0000 </r>
       <r>   -8.4174    1.0000 </r>
       <r>   -8.3861    1.0000 </r>
       <r>   -8.3141    1.0000 </r>
       <r>   -8.2844    1.0000 </r>
       <r>   -8.2293    1.0000 </r>
       <r>   -8.1317    1.0000 </r>
       <r>   -8.0667    1.0000 </r>
       <r>   -8.0104    1.0000 </r>
       <r>   -7.9010    1.0000 </r>
       <r>   -7.8107    1.0000 </r>
       <r>   -7.6399    1.0000 </r>
       <r>   -7.6019    1.0000 </r>
       <r>   -7.4407    1.0000 </r>
       <r>   -7.2774    1.0000 </r>
       <r>   -7.2093    1.0000 </r>
       <r>   -7.1497    1.0000 </r>
       <r>   -7.0978    1.0000 </r>
       <r>   -6.9770    1.0000 </r>
       <r>   -6.9559    1.0000 </r>
       <r>   -6.9198    1.0000 </r>
       <r>   -6.7893    1.0000 </r>
       <r>   -6.6849    1.0000 </r>
       <r>   -6.5898    1.0000 </r>
       <r>   -6.5400    1.0000 </r>
       <r>   -6.5086    1.0000 </r>
       <r>   -6.4285    1.0000 </r>
       <r>   -6.3265    1.0000 </r>
       <r>   -6.2754    1.0000 </r>
       <r>   -6.2152    1.0000 </r>
       <r>   -6.1470    1.0000 </r>
       <r>   -6.0920    1.0000 </r>
       <r>   -6.0004    1.0000 </r>
       <r>   -5.9423    1.0000 </r>
       <r>   -5.9170    1.0000 </r>
       <r>   -5.8162    1.0000 </r>
       <r>   -5.7097    1.0000 </r>
       <r>   -5.6434    1.0000 </r>
       <r>   -5.5720    1.0000 </r>
       <r>   -5.3971    1.0000 </r>
       <r>   -5.2342    1.0000 </r>
       <r>   -5.1496    1.0000 </r>
       <r>   -5.0702    1.0000 </r>
       <r>   -4.9992    1.0000 </r>
       <r>   -4.7705    1.0000 </r>
       <r>   -4.6639    1.0000 </r>
       <r>   -4.5695    1.0000 </r>
       <r>   -4.5616    1.0000 </r>
       <r>   -4.3529    1.0000 </r>
       <r>   -4.2759    1.0000 </r>
       <r>   -4.1963    1.0000 </r>
       <r>   -4.0853    1.0000 </r>
       <r>   -3.8190    0.9999 </r>
       <r>   -3.6704    0.9970 </r>
       <r>   -3.4426    0.8732 </r>
       <r>   -3.3261    0.6248 </r>
       <r>   -3.0449    0.0475 </r>
       <r>   -2.6908    0.0000 </r>
       <r>   -2.5684    0.0000 </r>
       <r>   -2.5113    0.0000 </r>
       <r>   -2.4134    0.0000 </r>
       <r>   -2.3488    0.0000 </r>
       <r>   -2.2089    0.0000 </r>
       <r>   -2.1249    0.0000 </r>
       <r>   -2.0563    0.0000 </r>
       <r>   -1.9317    0.0000 </r>
       <r>   -1.8959    0.0000 </r>
       <r>   -1.8075    0.0000 </r>
       <r>   -1.4873    0.0000 </r>
       <r>   -1.4017    0.0000 </r>
       <r>   -1.2598    0.0000 </r>
       <r>   -1.1993    0.0000 </r>
       <r>   -1.1421    0.0000 </r>
       <r>   -1.0404    0.0000 </r>
       <r>   -0.9735    0.0000 </r>
       <r>   -0.9227    0.0000 </r>
       <r>   -0.8277    0.0000 </r>
       <r>   -0.7295    0.0000 </r>
       <r>   -0.7088    0.0000 </r>
       <r>   -0.5460    0.0000 </r>
       <r>   -0.5225    0.0000 </r>
       <r>   -0.3455    0.0000 </r>
       <r>   -0.2937    0.0000 </r>
       <r>   -0.1282    0.0000 </r>
       <r>    0.0571    0.0000 </r>
       <r>    0.2093    0.0000 </r>
       <r>    0.4052    0.0000 </r>
       <r>    0.5614    0.0000 </r>
       <r>    0.7920    0.0000 </r>
       <r>    0.9818    0.0000 </r>
       <r>    1.0819    0.0000 </r>
       <r>    1.1792    0.0000 </r>
       <r>    1.4435    0.0000 </r>
       <r>    2.1155    0.0000 </r>
       <r>    2.2872    0.0000 </r>
       <r>    2.3741    0.0000 </r>
      </set>
      <set comment="kpoint 34">
       <r>  -17.4717    1.0000 </r>
       <r>  -17.3143    1.0000 </r>
       <r>  -16.7390    1.0000 </r>
       <r>  -16.6903    1.0000 </r>
       <r>  -16.5803    1.0000 </r>
       <r>  -16.3770    1.0000 </r>
       <r>  -16.2839    1.0000 </r>
       <r>  -16.1696    1.0000 </r>
       <r>  -16.0326    1.0000 </r>
       <r>  -16.0121    1.0000 </r>
       <r>  -15.9542    1.0000 </r>
       <r>  -15.8898    1.0000 </r>
       <r>  -15.7928    1.0000 </r>
       <r>  -15.7316    1.0000 </r>
       <r>  -15.6857    1.0000 </r>
       <r>  -15.5829    1.0000 </r>
       <r>  -15.4113    1.0000 </r>
       <r>  -15.3216    1.0000 </r>
       <r>   -9.7397    1.0000 </r>
       <r>   -9.2795    1.0000 </r>
       <r>   -9.1535    1.0000 </r>
       <r>   -9.0655    1.0000 </r>
       <r>   -8.9808    1.0000 </r>
       <r>   -8.8518    1.0000 </r>
       <r>   -8.5052    1.0000 </r>
       <r>   -8.4239    1.0000 </r>
       <r>   -8.4004    1.0000 </r>
       <r>   -8.3053    1.0000 </r>
       <r>   -8.2630    1.0000 </r>
       <r>   -8.2014    1.0000 </r>
       <r>   -8.0874    1.0000 </r>
       <r>   -8.0518    1.0000 </r>
       <r>   -7.9431    1.0000 </r>
       <r>   -7.9001    1.0000 </r>
       <r>   -7.7944    1.0000 </r>
       <r>   -7.6839    1.0000 </r>
       <r>   -7.5107    1.0000 </r>
       <r>   -7.4473    1.0000 </r>
       <r>   -7.3359    1.0000 </r>
       <r>   -7.2043    1.0000 </r>
       <r>   -7.1469    1.0000 </r>
       <r>   -7.0417    1.0000 </r>
       <r>   -7.0197    1.0000 </r>
       <r>   -6.9507    1.0000 </r>
       <r>   -6.9221    1.0000 </r>
       <r>   -6.7675    1.0000 </r>
       <r>   -6.6865    1.0000 </r>
       <r>   -6.6416    1.0000 </r>
       <r>   -6.5323    1.0000 </r>
       <r>   -6.4896    1.0000 </r>
       <r>   -6.4066    1.0000 </r>
       <r>   -6.3095    1.0000 </r>
       <r>   -6.2623    1.0000 </r>
       <r>   -6.2350    1.0000 </r>
       <r>   -6.1517    1.0000 </r>
       <r>   -6.1058    1.0000 </r>
       <r>   -6.0201    1.0000 </r>
       <r>   -5.9664    1.0000 </r>
       <r>   -5.9012    1.0000 </r>
       <r>   -5.8835    1.0000 </r>
       <r>   -5.7820    1.0000 </r>
       <r>   -5.6487    1.0000 </r>
       <r>   -5.5648    1.0000 </r>
       <r>   -5.4552    1.0000 </r>
       <r>   -5.2537    1.0000 </r>
       <r>   -5.0890    1.0000 </r>
       <r>   -4.9334    1.0000 </r>
       <r>   -4.8927    1.0000 </r>
       <r>   -4.8341    1.0000 </r>
       <r>   -4.7022    1.0000 </r>
       <r>   -4.6079    1.0000 </r>
       <r>   -4.5465    1.0000 </r>
       <r>   -4.3410    1.0000 </r>
       <r>   -4.2191    1.0000 </r>
       <r>   -4.1821    1.0000 </r>
       <r>   -4.1345    1.0000 </r>
       <r>   -3.8322    1.0000 </r>
       <r>   -3.6486    0.9953 </r>
       <r>   -3.5269    0.9589 </r>
       <r>   -3.3288    0.6321 </r>
       <r>   -3.0178    0.0313 </r>
       <r>   -2.6720    0.0000 </r>
       <r>   -2.5719    0.0000 </r>
       <r>   -2.5136    0.0000 </r>
       <r>   -2.4030    0.0000 </r>
       <r>   -2.3602    0.0000 </r>
       <r>   -2.1829    0.0000 </r>
       <r>   -2.1145    0.0000 </r>
       <r>   -2.0523    0.0000 </r>
       <r>   -1.9273    0.0000 </r>
       <r>   -1.9081    0.0000 </r>
       <r>   -1.7928    0.0000 </r>
       <r>   -1.4820    0.0000 </r>
       <r>   -1.4094    0.0000 </r>
       <r>   -1.2574    0.0000 </r>
       <r>   -1.2145    0.0000 </r>
       <r>   -1.1448    0.0000 </r>
       <r>   -1.0223    0.0000 </r>
       <r>   -0.9733    0.0000 </r>
       <r>   -0.9364    0.0000 </r>
       <r>   -0.8468    0.0000 </r>
       <r>   -0.7479    0.0000 </r>
       <r>   -0.6891    0.0000 </r>
       <r>   -0.5861    0.0000 </r>
       <r>   -0.5015    0.0000 </r>
       <r>   -0.3414    0.0000 </r>
       <r>   -0.2804    0.0000 </r>
       <r>   -0.1291    0.0000 </r>
       <r>    0.0382    0.0000 </r>
       <r>    0.2270    0.0000 </r>
       <r>    0.4282    0.0000 </r>
       <r>    0.5393    0.0000 </r>
       <r>    0.8166    0.0000 </r>
       <r>    1.0494    0.0000 </r>
       <r>    1.0938    0.0000 </r>
       <r>    1.1126    0.0000 </r>
       <r>    1.4329    0.0000 </r>
       <r>    2.1875    0.0000 </r>
       <r>    2.2306    0.0000 </r>
       <r>    2.3778    0.0000 </r>
      </set>
     </set>
    </set>
   </array>
  </eigenvalues>
  <separator name="orbital magnetization" >
   <v name="MAGDIPOLOUT">      0.00000000      0.00000000      0.00000000</v>
  </separator>
 </calculation>
 <structure name="finalpos" >
  <crystal>
   <varray name="basis" >
    <v>       8.39113425       4.82029165       0.00000000 </v>
    <v>      -8.39553436       4.82779322       0.00000000 </v>
    <v>       0.00000000       0.00000000      30.00000000 </v>
   </varray>
   <i name="volume">   2429.38755749 </i>
   <varray name="rec_basis" >
    <v>       0.05961741       0.10367470       0.00000000 </v>
    <v>      -0.05952478       0.10362037       0.00000000 </v>
    <v>       0.00000000       0.00000000       0.03333333 </v>
   </varray>
  </crystal>
  <varray name="positions" >
   <v>       0.30947424       0.35178577      -0.00230251 </v>
   <v>      -0.00949785       0.63393011       0.00020563 </v>
   <v>       0.67326623       0.63945813       0.00088769 </v>
   <v>       0.68217406       0.32417071       0.00067928 </v>
   <v>       0.97701846       0.31206141       0.00031350 </v>
   <v>       0.66713969       0.01916436      -0.00017971 </v>
   <v>      -0.02037450       0.01769676      -0.00141286 </v>
   <v>       0.36345811      -0.00188379       0.00132524 </v>
   <v>       0.35182993       0.69695257       0.00035190 </v>
   <v>       0.10781733       0.22608024       0.94551981 </v>
   <v>       0.22482371       0.11787738       0.04322266 </v>
   <v>       0.11471805       0.55537684       0.95119258 </v>
   <v>       0.21982988       0.45265351       0.04948976 </v>
   <v>       0.10885154       0.88625214       0.95885286 </v>
   <v>       0.22003862       0.77855556       0.05174496 </v>
   <v>       0.43937389       0.22675343       0.95438265 </v>
   <v>       0.55926846       0.11427302       0.05728594 </v>
   <v>       0.45145049       0.55911942       0.94982289 </v>
   <v>       0.54302789       0.43512681       0.04708874 </v>
   <v>       0.45219030       0.89609860       0.94365368 </v>
   <v>       0.56752506       0.77618394       0.04799876 </v>
   <v>       0.77773452       0.22217128       0.94338040 </v>
   <v>       0.88219512       0.10931734       0.05634785 </v>
   <v>       0.78416303       0.55204184       0.94905015 </v>
   <v>       0.89003497       0.44397103       0.05507309 </v>
   <v>       0.76863996       0.87940205       0.95016285 </v>
   <v>       0.89204324       0.77362399       0.04586211 </v>
  </varray>
 </structure>
</modeling>
