   27   27  100    1
  0.9710400E+02  0.1002848E-08  0.1002848E-08  0.3000000E-08  0.5000000E-15
  1.000000000000000E-004
  CAR 
 unknown system                          
    159     34    120
 
  0.0000000E+00  0.0000000E+00  0.0000000E+00  0.1562500E-01
    1      -17.793186   1.000000
    2      -16.699744   1.000000
    3      -16.635996   1.000000
    4      -16.582512   1.000000
    5      -16.533437   1.000000
    6      -16.471860   1.000000
    7      -16.415302   1.000000
    8      -16.304972   1.000000
    9      -16.177790   1.000000
   10      -16.086277   1.000000
   11      -16.033970   1.000000
   12      -16.007609   1.000000
   13      -15.848393   1.000000
   14      -15.765039   1.000000
   15      -15.570963   1.000000
   16      -15.500166   1.000000
   17      -15.417577   1.000000
   18      -15.286278   1.000000
   19       -9.281284   1.000000
   20       -8.936537   1.000000
   21       -8.900243   1.000000
   22       -8.820858   1.000000
   23       -8.744869   1.000000
   24       -8.690909   1.000000
   25       -8.642770   1.000000
   26       -8.552020   1.000000
   27       -8.483995   1.000000
   28       -8.477893   1.000000
   29       -8.460669   1.000000
   30       -8.394130   1.000000
   31       -8.330257   1.000000
   32       -8.218626   1.000000
   33       -8.160125   1.000000
   34       -8.065347   1.000000
   35       -7.854783   1.000000
   36       -7.749091   1.000000
   37       -7.705991   1.000000
   38       -7.539370   1.000000
   39       -7.504306   1.000000
   40       -7.415652   1.000000
   41       -7.276892   1.000000
   42       -7.211734   1.000000
   43       -7.185801   1.000000
   44       -6.891199   1.000000
   45       -6.855621   1.000000
   46       -6.714283   1.000000
   47       -6.708951   1.000000
   48       -6.666685   1.000000
   49       -6.558134   1.000000
   50       -6.521469   1.000000
   51       -6.398263   1.000000
   52       -6.393715   1.000000
   53       -6.339147   1.000000
   54       -6.297155   1.000000
   55       -6.213167   1.000000
   56       -6.111483   1.000000
   57       -6.017032   1.000000
   58       -5.869881   1.000000
   59       -5.828600   1.000000
   60       -5.573614   1.000000
   61       -5.476819   1.000000
   62       -5.405076   1.000000
   63       -5.315402   1.000000
   64       -5.218862   1.000000
   65       -5.091782   1.000000
   66       -4.981444   1.000000
   67       -4.956724   1.000000
   68       -4.912297   1.000000
   69       -4.817620   1.000000
   70       -4.709222   1.000000
   71       -4.645874   1.000000
   72       -4.604824   1.000000
   73       -4.498113   1.000000
   74       -4.272534   1.000000
   75       -4.181848   1.000000
   76       -3.948812   0.999993
   77       -3.814596   0.999650
   78       -3.622472   0.978878
   79       -3.560009   0.944018
   80       -3.461451   0.813943
   81       -3.214235   0.196119
   82       -2.901195   0.001074
   83       -2.809344   0.000100
   84       -2.692831   0.000003
   85       -2.461284   0.000000
   86       -2.372623   0.000000
   87       -2.291553   0.000000
   88       -2.172460   0.000000
   89       -2.148918   0.000000
   90       -2.052161   0.000000
   91       -1.782722   0.000000
   92       -1.641544   0.000000
   93       -1.493692   0.000000
   94       -1.351480   0.000000
   95       -1.287332   0.000000
   96       -1.106299   0.000000
   97       -1.000187   0.000000
   98       -0.862417   0.000000
   99       -0.808500   0.000000
  100       -0.651664   0.000000
  101       -0.567714   0.000000
  102       -0.532103   0.000000
  103       -0.487106   0.000000
  104       -0.422501   0.000000
  105       -0.274715   0.000000
  106       -0.186719   0.000000
  107       -0.120719   0.000000
  108       -0.028201   0.000000
  109        0.077109   0.000000
  110        0.229418   0.000000
  111        0.274716   0.000000
  112        0.411849   0.000000
  113        0.591713   0.000000
  114        0.853159   0.000000
  115        0.911573   0.000000
  116        1.127095   0.000000
  117        1.367468   0.000000
  118        1.635164   0.000000
  119        1.829507   0.000000
  120        2.145883   0.000000
 
  0.1250000E+00  0.2775558E-16  0.0000000E+00  0.3125000E-01
    1      -17.767980   1.000000
    2      -16.795549   1.000000
    3      -16.670159   1.000000
    4      -16.604059   1.000000
    5      -16.537947   1.000000
    6      -16.453104   1.000000
    7      -16.374265   1.000000
    8      -16.294917   1.000000
    9      -16.176232   1.000000
   10      -16.069538   1.000000
   11      -16.021098   1.000000
   12      -15.950113   1.000000
   13      -15.837125   1.000000
   14      -15.758418   1.000000
   15      -15.586199   1.000000
   16      -15.502851   1.000000
   17      -15.430929   1.000000
   18      -15.289635   1.000000
   19       -9.272409   1.000000
   20       -9.132099   1.000000
   21       -8.985492   1.000000
   22       -8.912868   1.000000
   23       -8.782820   1.000000
   24       -8.733618   1.000000
   25       -8.621260   1.000000
   26       -8.560867   1.000000
   27       -8.519672   1.000000
   28       -8.453555   1.000000
   29       -8.361622   1.000000
   30       -8.304384   1.000000
   31       -8.239226   1.000000
   32       -8.157215   1.000000
   33       -8.074998   1.000000
   34       -7.927346   1.000000
   35       -7.865857   1.000000
   36       -7.745543   1.000000
   37       -7.664873   1.000000
   38       -7.574336   1.000000
   39       -7.458303   1.000000
   40       -7.413384   1.000000
   41       -7.317409   1.000000
   42       -7.216662   1.000000
   43       -7.167577   1.000000
   44       -6.934337   1.000000
   45       -6.866396   1.000000
   46       -6.792240   1.000000
   47       -6.728828   1.000000
   48       -6.604037   1.000000
   49       -6.544527   1.000000
   50       -6.515365   1.000000
   51       -6.403339   1.000000
   52       -6.353407   1.000000
   53       -6.329942   1.000000
   54       -6.311421   1.000000
   55       -6.202041   1.000000
   56       -6.113769   1.000000
   57       -5.995239   1.000000
   58       -5.910458   1.000000
   59       -5.778942   1.000000
   60       -5.603584   1.000000
   61       -5.517687   1.000000
   62       -5.437992   1.000000
   63       -5.367457   1.000000
   64       -5.220282   1.000000
   65       -5.119725   1.000000
   66       -5.049087   1.000000
   67       -4.970070   1.000000
   68       -4.913898   1.000000
   69       -4.787511   1.000000
   70       -4.722976   1.000000
   71       -4.630660   1.000000
   72       -4.552254   1.000000
   73       -4.462921   1.000000
   74       -4.233758   1.000000
   75       -4.164929   1.000000
   76       -3.916360   0.999980
   77       -3.837463   0.999808
   78       -3.709683   0.995949
   79       -3.607600   0.972945
   80       -3.491975   0.866146
   81       -3.126474   0.069954
   82       -2.892300   0.000868
   83       -2.779092   0.000042
   84       -2.679173   0.000002
   85       -2.463085   0.000000
   86       -2.362591   0.000000
   87       -2.256320   0.000000
   88       -2.179822   0.000000
   89       -2.141177   0.000000
   90       -2.038886   0.000000
   91       -1.776707   0.000000
   92       -1.642582   0.000000
   93       -1.499218   0.000000
   94       -1.360045   0.000000
   95       -1.275882   0.000000
   96       -1.104024   0.000000
   97       -1.003143   0.000000
   98       -0.890708   0.000000
   99       -0.826539   0.000000
  100       -0.740318   0.000000
  101       -0.654267   0.000000
  102       -0.575117   0.000000
  103       -0.506182   0.000000
  104       -0.413386   0.000000
  105       -0.304447   0.000000
  106       -0.249250   0.000000
  107       -0.131002   0.000000
  108        0.005945   0.000000
  109        0.101483   0.000000
  110        0.181594   0.000000
  111        0.326083   0.000000
  112        0.390614   0.000000
  113        0.630118   0.000000
  114        0.865373   0.000000
  115        0.928382   0.000000
  116        1.118185   0.000000
  117        1.374397   0.000000
  118        1.678313   0.000000
  119        1.867768   0.000000
  120        2.180737   0.000000
 
  0.2500000E+00  0.5551115E-16  0.0000000E+00  0.3125000E-01
    1      -17.693270   1.000000
    2      -16.998893   1.000000
    3      -16.690643   1.000000
    4      -16.648080   1.000000
    5      -16.584388   1.000000
    6      -16.415410   1.000000
    7      -16.329376   1.000000
    8      -16.236538   1.000000
    9      -16.181095   1.000000
   10      -16.060517   1.000000
   11      -15.972931   1.000000
   12      -15.841654   1.000000
   13      -15.806793   1.000000
   14      -15.737308   1.000000
   15      -15.621308   1.000000
   16      -15.518274   1.000000
   17      -15.457579   1.000000
   18      -15.299398   1.000000
   19       -9.468903   1.000000
   20       -9.229683   1.000000
   21       -9.101462   1.000000
   22       -9.026490   1.000000
   23       -8.867771   1.000000
   24       -8.794142   1.000000
   25       -8.628517   1.000000
   26       -8.518670   1.000000
   27       -8.469876   1.000000
   28       -8.432878   1.000000
   29       -8.323807   1.000000
   30       -8.193121   1.000000
   31       -8.149275   1.000000
   32       -8.016039   1.000000
   33       -7.984034   1.000000
   34       -7.919712   1.000000
   35       -7.758962   1.000000
   36       -7.644747   1.000000
   37       -7.611609   1.000000
   38       -7.521404   1.000000
   39       -7.440683   1.000000
   40       -7.407037   1.000000
   41       -7.279775   1.000000
   42       -7.232695   1.000000
   43       -7.080670   1.000000
   44       -6.979240   1.000000
   45       -6.889097   1.000000
   46       -6.815997   1.000000
   47       -6.761149   1.000000
   48       -6.608417   1.000000
   49       -6.551711   1.000000
   50       -6.511291   1.000000
   51       -6.420811   1.000000
   52       -6.342752   1.000000
   53       -6.279510   1.000000
   54       -6.206344   1.000000
   55       -6.182970   1.000000
   56       -6.131772   1.000000
   57       -6.014403   1.000000
   58       -5.881043   1.000000
   59       -5.804514   1.000000
   60       -5.736332   1.000000
   61       -5.641486   1.000000
   62       -5.492543   1.000000
   63       -5.452726   1.000000
   64       -5.332101   1.000000
   65       -5.189788   1.000000
   66       -5.002309   1.000000
   67       -4.974046   1.000000
   68       -4.918696   1.000000
   69       -4.778650   1.000000
   70       -4.731789   1.000000
   71       -4.582609   1.000000
   72       -4.454859   1.000000
   73       -4.382938   1.000000
   74       -4.285669   1.000000
   75       -4.084388   1.000000
   76       -4.013722   0.999999
   77       -3.931996   0.999988
   78       -3.717523   0.996566
   79       -3.614267   0.975757
   80       -3.482218   0.850682
   81       -3.038887   0.018065
   82       -2.874487   0.000561
   83       -2.714364   0.000006
   84       -2.647634   0.000001
   85       -2.456880   0.000000
   86       -2.352226   0.000000
   87       -2.203652   0.000000
   88       -2.158667   0.000000
   89       -2.104847   0.000000
   90       -2.000729   0.000000
   91       -1.776536   0.000000
   92       -1.649032   0.000000
   93       -1.511518   0.000000
   94       -1.365971   0.000000
   95       -1.262064   0.000000
   96       -1.126925   0.000000
   97       -1.041690   0.000000
   98       -0.972690   0.000000
   99       -0.935910   0.000000
  100       -0.847052   0.000000
  101       -0.739792   0.000000
  102       -0.669046   0.000000
  103       -0.541006   0.000000
  104       -0.474886   0.000000
  105       -0.367658   0.000000
  106       -0.262375   0.000000
  107       -0.213269   0.000000
  108       -0.023946   0.000000
  109        0.128979   0.000000
  110        0.157580   0.000000
  111        0.286517   0.000000
  112        0.405123   0.000000
  113        0.685856   0.000000
  114        0.872298   0.000000
  115        1.006346   0.000000
  116        1.147689   0.000000
  117        1.408289   0.000000
  118        1.799539   0.000000
  119        1.978032   0.000000
  120        2.284324   0.000000
 
  0.3750000E+00  0.0000000E+00  0.0000000E+00  0.3125000E-01
    1      -17.571953   1.000000
    2      -17.212961   1.000000
    3      -16.726219   1.000000
    4      -16.664130   1.000000
    5      -16.608044   1.000000
    6      -16.412054   1.000000
    7      -16.295508   1.000000
    8      -16.220699   1.000000
    9      -16.137398   1.000000
   10      -16.052987   1.000000
   11      -15.894754   1.000000
   12      -15.826169   1.000000
   13      -15.765529   1.000000
   14      -15.692154   1.000000
   15      -15.662888   1.000000
   16      -15.538089   1.000000
   17      -15.473985   1.000000
   18      -15.310629   1.000000
   19       -9.680826   1.000000
   20       -9.317869   1.000000
   21       -9.179342   1.000000
   22       -8.987557   1.000000
   23       -8.905342   1.000000
   24       -8.837926   1.000000
   25       -8.597202   1.000000
   26       -8.535542   1.000000
   27       -8.475878   1.000000
   28       -8.371359   1.000000
   29       -8.284243   1.000000
   30       -8.189507   1.000000
   31       -8.113472   1.000000
   32       -7.997924   1.000000
   33       -7.935295   1.000000
   34       -7.872407   1.000000
   35       -7.766923   1.000000
   36       -7.653343   1.000000
   37       -7.576949   1.000000
   38       -7.494568   1.000000
   39       -7.382846   1.000000
   40       -7.320468   1.000000
   41       -7.172517   1.000000
   42       -7.082178   1.000000
   43       -7.021126   1.000000
   44       -6.972938   1.000000
   45       -6.887805   1.000000
   46       -6.816543   1.000000
   47       -6.673792   1.000000
   48       -6.629780   1.000000
   49       -6.561227   1.000000
   50       -6.487504   1.000000
   51       -6.378967   1.000000
   52       -6.362275   1.000000
   53       -6.318494   1.000000
   54       -6.219429   1.000000
   55       -6.155296   1.000000
   56       -6.068047   1.000000
   57       -6.003595   1.000000
   58       -5.935767   1.000000
   59       -5.893941   1.000000
   60       -5.805723   1.000000
   61       -5.763248   1.000000
   62       -5.678793   1.000000
   63       -5.483276   1.000000
   64       -5.350222   1.000000
   65       -5.216722   1.000000
   66       -5.028465   1.000000
   67       -4.959467   1.000000
   68       -4.892724   1.000000
   69       -4.797087   1.000000
   70       -4.722299   1.000000
   71       -4.620565   1.000000
   72       -4.529067   1.000000
   73       -4.362432   1.000000
   74       -4.247766   1.000000
   75       -4.084418   1.000000
   76       -3.996615   0.999999
   77       -3.954764   0.999994
   78       -3.679066   0.992477
   79       -3.569244   0.951010
   80       -3.472736   0.834552
   81       -2.999616   0.008819
   82       -2.847711   0.000283
   83       -2.666989   0.000001
   84       -2.616169   0.000000
   85       -2.438371   0.000000
   86       -2.357634   0.000000
   87       -2.183237   0.000000
   88       -2.119148   0.000000
   89       -2.021601   0.000000
   90       -1.946726   0.000000
   91       -1.789480   0.000000
   92       -1.661816   0.000000
   93       -1.540345   0.000000
   94       -1.349497   0.000000
   95       -1.274885   0.000000
   96       -1.207880   0.000000
   97       -1.116484   0.000000
   98       -1.093992   0.000000
   99       -1.039894   0.000000
  100       -0.858237   0.000000
  101       -0.774201   0.000000
  102       -0.712961   0.000000
  103       -0.569357   0.000000
  104       -0.523527   0.000000
  105       -0.401771   0.000000
  106       -0.320701   0.000000
  107       -0.304465   0.000000
  108       -0.076558   0.000000
  109        0.091275   0.000000
  110        0.122307   0.000000
  111        0.265587   0.000000
  112        0.421015   0.000000
  113        0.717055   0.000000
  114        0.874402   0.000000
  115        1.096125   0.000000
  116        1.205544   0.000000
  117        1.463426   0.000000
  118        1.981660   0.000000
  119        2.151194   0.000000
  120        2.452816   0.000000
 
  0.5000000E+00  0.1110223E-15  0.0000000E+00  0.1562500E-01
    1      -17.416483   1.000000
    2      -17.401353   1.000000
    3      -16.740488   1.000000
    4      -16.671919   1.000000
    5      -16.611217   1.000000
    6      -16.414696   1.000000
    7      -16.277873   1.000000
    8      -16.232664   1.000000
    9      -16.108830   1.000000
   10      -16.040838   1.000000
   11      -15.849499   1.000000
   12      -15.829688   1.000000
   13      -15.748398   1.000000
   14      -15.723954   1.000000
   15      -15.649731   1.000000
   16      -15.545645   1.000000
   17      -15.476021   1.000000
   18      -15.315369   1.000000
   19       -9.757452   1.000000
   20       -9.356478   1.000000
   21       -9.216231   1.000000
   22       -8.984751   1.000000
   23       -8.869887   1.000000
   24       -8.796934   1.000000
   25       -8.664643   1.000000
   26       -8.569900   1.000000
   27       -8.475598   1.000000
   28       -8.335726   1.000000
   29       -8.237282   1.000000
   30       -8.191604   1.000000
   31       -8.075939   1.000000
   32       -7.997932   1.000000
   33       -7.924314   1.000000
   34       -7.882405   1.000000
   35       -7.816795   1.000000
   36       -7.699353   1.000000
   37       -7.593705   1.000000
   38       -7.426470   1.000000
   39       -7.384869   1.000000
   40       -7.260990   1.000000
   41       -7.078076   1.000000
   42       -7.027396   1.000000
   43       -6.983697   1.000000
   44       -6.963945   1.000000
   45       -6.828223   1.000000
   46       -6.717706   1.000000
   47       -6.681808   1.000000
   48       -6.646046   1.000000
   49       -6.601469   1.000000
   50       -6.517604   1.000000
   51       -6.420910   1.000000
   52       -6.401878   1.000000
   53       -6.303163   1.000000
   54       -6.197076   1.000000
   55       -6.125022   1.000000
   56       -6.070273   1.000000
   57       -6.031252   1.000000
   58       -5.977518   1.000000
   59       -5.895471   1.000000
   60       -5.824204   1.000000
   61       -5.777228   1.000000
   62       -5.672840   1.000000
   63       -5.469046   1.000000
   64       -5.390259   1.000000
   65       -5.270410   1.000000
   66       -5.130809   1.000000
   67       -4.970646   1.000000
   68       -4.875574   1.000000
   69       -4.848291   1.000000
   70       -4.724926   1.000000
   71       -4.611441   1.000000
   72       -4.514985   1.000000
   73       -4.335725   1.000000
   74       -4.258773   1.000000
   75       -4.106870   1.000000
   76       -3.955020   0.999994
   77       -3.928343   0.999986
   78       -3.664453   0.990043
   79       -3.566487   0.949000
   80       -3.458973   0.809212
   81       -2.989753   0.007285
   82       -2.831909   0.000186
   83       -2.651086   0.000001
   84       -2.602439   0.000000
   85       -2.438608   0.000000
   86       -2.352570   0.000000
   87       -2.168981   0.000000
   88       -2.109330   0.000000
   89       -1.977094   0.000000
   90       -1.916774   0.000000
   91       -1.795821   0.000000
   92       -1.682062   0.000000
   93       -1.547754   0.000000
   94       -1.343719   0.000000
   95       -1.282498   0.000000
   96       -1.258495   0.000000
   97       -1.180802   0.000000
   98       -1.118714   0.000000
   99       -1.075023   0.000000
  100       -0.841123   0.000000
  101       -0.795568   0.000000
  102       -0.719440   0.000000
  103       -0.582763   0.000000
  104       -0.534837   0.000000
  105       -0.413304   0.000000
  106       -0.355484   0.000000
  107       -0.342297   0.000000
  108       -0.104278   0.000000
  109        0.057693   0.000000
  110        0.109821   0.000000
  111        0.271438   0.000000
  112        0.420702   0.000000
  113        0.728079   0.000000
  114        0.877875   0.000000
  115        1.130081   0.000000
  116        1.230521   0.000000
  117        1.490958   0.000000
  118        2.181388   0.000000
  119        2.254504   0.000000
  120        2.362536   0.000000
 
  0.0000000E+00  0.1250000E+00  0.0000000E+00  0.3125000E-01
    1      -17.768067   1.000000
    2      -16.773766   1.000000
    3      -16.685264   1.000000
    4      -16.625046   1.000000
    5      -16.527289   1.000000
    6      -16.433813   1.000000
    7      -16.395627   1.000000
    8      -16.311217   1.000000
    9      -16.149446   1.000000
   10      -16.072617   1.000000
   11      -16.016301   1.000000
   12      -15.967647   1.000000
   13      -15.826121   1.000000
   14      -15.757139   1.000000
   15      -15.582701   1.000000
   16      -15.506042   1.000000
   17      -15.426360   1.000000
   18      -15.295198   1.000000
   19       -9.298079   1.000000
   20       -9.087583   1.000000
   21       -9.005638   1.000000
   22       -8.918241   1.000000
   23       -8.766496   1.000000
   24       -8.695475   1.000000
   25       -8.657716   1.000000
   26       -8.595200   1.000000
   27       -8.501255   1.000000
   28       -8.468420   1.000000
   29       -8.375837   1.000000
   30       -8.310923   1.000000
   31       -8.258645   1.000000
   32       -8.114905   1.000000
   33       -8.054312   1.000000
   34       -7.914588   1.000000
   35       -7.851062   1.000000
   36       -7.779783   1.000000
   37       -7.660421   1.000000
   38       -7.545638   1.000000
   39       -7.481577   1.000000
   40       -7.395232   1.000000
   41       -7.289094   1.000000
   42       -7.243642   1.000000
   43       -7.168257   1.000000
   44       -6.953646   1.000000
   45       -6.871218   1.000000
   46       -6.804884   1.000000
   47       -6.729911   1.000000
   48       -6.642268   1.000000
   49       -6.570276   1.000000
   50       -6.497546   1.000000
   51       -6.424669   1.000000
   52       -6.327246   1.000000
   53       -6.323759   1.000000
   54       -6.287485   1.000000
   55       -6.209129   1.000000
   56       -6.116442   1.000000
   57       -6.006920   1.000000
   58       -5.862269   1.000000
   59       -5.756449   1.000000
   60       -5.574647   1.000000
   61       -5.514371   1.000000
   62       -5.408605   1.000000
   63       -5.349574   1.000000
   64       -5.265728   1.000000
   65       -5.171360   1.000000
   66       -5.037672   1.000000
   67       -4.998778   1.000000
   68       -4.932794   1.000000
   69       -4.831518   1.000000
   70       -4.693924   1.000000
   71       -4.629796   1.000000
   72       -4.511345   1.000000
   73       -4.433009   1.000000
   74       -4.258982   1.000000
   75       -4.138965   1.000000
   76       -3.933051   0.999988
   77       -3.869710   0.999921
   78       -3.732081   0.997493
   79       -3.593435   0.966059
   80       -3.409859   0.701149
   81       -3.158920   0.106253
   82       -2.903475   0.001133
   83       -2.795672   0.000068
   84       -2.674847   0.000002
   85       -2.485371   0.000000
   86       -2.357352   0.000000
   87       -2.278348   0.000000
   88       -2.174125   0.000000
   89       -2.122933   0.000000
   90       -2.013578   0.000000
   91       -1.803294   0.000000
   92       -1.636596   0.000000
   93       -1.494830   0.000000
   94       -1.362029   0.000000
   95       -1.278756   0.000000
   96       -1.108973   0.000000
   97       -1.014857   0.000000
   98       -0.857734   0.000000
   99       -0.806959   0.000000
  100       -0.713420   0.000000
  101       -0.629569   0.000000
  102       -0.586519   0.000000
  103       -0.549944   0.000000
  104       -0.443145   0.000000
  105       -0.324941   0.000000
  106       -0.256593   0.000000
  107       -0.135944   0.000000
  108       -0.012500   0.000000
  109        0.063475   0.000000
  110        0.191821   0.000000
  111        0.325045   0.000000
  112        0.449575   0.000000
  113        0.707278   0.000000
  114        0.828412   0.000000
  115        0.951872   0.000000
  116        1.123281   0.000000
  117        1.341472   0.000000
  118        1.680726   0.000000
  119        1.867570   0.000000
  120        2.181101   0.000000
 
  0.1250000E+00  0.1250000E+00  0.0000000E+00  0.3125000E-01
    1      -17.717651   1.000000
    2      -16.923035   1.000000
    3      -16.745602   1.000000
    4      -16.629556   1.000000
    5      -16.520880   1.000000
    6      -16.404855   1.000000
    7      -16.382474   1.000000
    8      -16.249712   1.000000
    9      -16.182328   1.000000
   10      -16.058451   1.000000
   11      -16.015783   1.000000
   12      -15.863729   1.000000
   13      -15.796364   1.000000
   14      -15.735981   1.000000
   15      -15.606451   1.000000
   16      -15.504012   1.000000
   17      -15.457746   1.000000
   18      -15.305903   1.000000
   19       -9.400427   1.000000
   20       -9.238882   1.000000
   21       -9.112512   1.000000
   22       -8.964623   1.000000
   23       -8.846533   1.000000
   24       -8.725767   1.000000
   25       -8.591010   1.000000
   26       -8.570893   1.000000
   27       -8.486680   1.000000
   28       -8.460170   1.000000
   29       -8.368295   1.000000
   30       -8.220509   1.000000
   31       -8.171641   1.000000
   32       -8.045204   1.000000
   33       -8.000658   1.000000
   34       -7.926191   1.000000
   35       -7.743443   1.000000
   36       -7.669441   1.000000
   37       -7.617682   1.000000
   38       -7.504409   1.000000
   39       -7.446311   1.000000
   40       -7.350329   1.000000
   41       -7.323563   1.000000
   42       -7.240213   1.000000
   43       -7.129281   1.000000
   44       -6.993698   1.000000
   45       -6.926947   1.000000
   46       -6.848346   1.000000
   47       -6.778328   1.000000
   48       -6.608506   1.000000
   49       -6.569682   1.000000
   50       -6.531178   1.000000
   51       -6.413876   1.000000
   52       -6.331541   1.000000
   53       -6.261715   1.000000
   54       -6.226503   1.000000
   55       -6.164141   1.000000
   56       -6.134073   1.000000
   57       -5.987478   1.000000
   58       -5.871432   1.000000
   59       -5.752472   1.000000
   60       -5.673943   1.000000
   61       -5.536154   1.000000
   62       -5.472597   1.000000
   63       -5.433042   1.000000
   64       -5.322370   1.000000
   65       -5.245792   1.000000
   66       -5.107441   1.000000
   67       -4.965373   1.000000
   68       -4.906127   1.000000
   69       -4.785535   1.000000
   70       -4.721454   1.000000
   71       -4.604367   1.000000
   72       -4.432748   1.000000
   73       -4.366027   1.000000
   74       -4.238564   1.000000
   75       -4.128432   1.000000
   76       -4.070457   1.000000
   77       -3.868116   0.999918
   78       -3.716373   0.996481
   79       -3.629309   0.981212
   80       -3.411086   0.704152
   81       -3.081566   0.036433
   82       -2.911034   0.001352
   83       -2.765264   0.000028
   84       -2.637908   0.000000
   85       -2.497285   0.000000
   86       -2.357914   0.000000
   87       -2.243695   0.000000
   88       -2.151985   0.000000
   89       -2.083395   0.000000
   90       -1.992844   0.000000
   91       -1.807336   0.000000
   92       -1.643805   0.000000
   93       -1.511596   0.000000
   94       -1.371721   0.000000
   95       -1.261569   0.000000
   96       -1.120237   0.000000
   97       -1.028653   0.000000
   98       -0.924507   0.000000
   99       -0.870704   0.000000
  100       -0.801884   0.000000
  101       -0.723528   0.000000
  102       -0.643040   0.000000
  103       -0.547096   0.000000
  104       -0.481115   0.000000
  105       -0.358254   0.000000
  106       -0.301174   0.000000
  107       -0.165783   0.000000
  108       -0.049341   0.000000
  109        0.053270   0.000000
  110        0.182146   0.000000
  111        0.341799   0.000000
  112        0.461011   0.000000
  113        0.719631   0.000000
  114        0.862503   0.000000
  115        0.993306   0.000000
  116        1.135646   0.000000
  117        1.375610   0.000000
  118        1.765163   0.000000
  119        1.940293   0.000000
  120        2.250669   0.000000
 
  0.2500000E+00  0.1250000E+00  0.0000000E+00  0.3125000E-01
    1      -17.619200   1.000000
    2      -17.109239   1.000000
    3      -16.845699   1.000000
    4      -16.627045   1.000000
    5      -16.510925   1.000000
    6      -16.391670   1.000000
    7      -16.324668   1.000000
    8      -16.231190   1.000000
    9      -16.158764   1.000000
   10      -16.054727   1.000000
   11      -15.979429   1.000000
   12      -15.820155   1.000000
   13      -15.763297   1.000000
   14      -15.680590   1.000000
   15      -15.638582   1.000000
   16      -15.513744   1.000000
   17      -15.488921   1.000000
   18      -15.315372   1.000000
   19       -9.591038   1.000000
   20       -9.406543   1.000000
   21       -9.157569   1.000000
   22       -8.999553   1.000000
   23       -8.852862   1.000000
   24       -8.742307   1.000000
   25       -8.583459   1.000000
   26       -8.503353   1.000000
   27       -8.482647   1.000000
   28       -8.398487   1.000000
   29       -8.309859   1.000000
   30       -8.208810   1.000000
   31       -8.131317   1.000000
   32       -8.030689   1.000000
   33       -7.978271   1.000000
   34       -7.934130   1.000000
   35       -7.757350   1.000000
   36       -7.660023   1.000000
   37       -7.529223   1.000000
   38       -7.452318   1.000000
   39       -7.390459   1.000000
   40       -7.311420   1.000000
   41       -7.175181   1.000000
   42       -7.157980   1.000000
   43       -7.079852   1.000000
   44       -7.006121   1.000000
   45       -6.913697   1.000000
   46       -6.843268   1.000000
   47       -6.711371   1.000000