       N       E                     dE             d eps       ncg     rms          rms(c)
DAV:   1     0.112410616486E+04    0.11241E+04   -0.35872E+04  8160   0.577E+02
DAV:   2    -0.183100273699E+01   -0.11259E+04   -0.10837E+04 11040   0.173E+02
DAV:   3    -0.199582470033E+03   -0.19775E+03   -0.18976E+03 10920   0.821E+01
DAV:   4    -0.208937434303E+03   -0.93550E+01   -0.90224E+01 11880   0.261E+01
DAV:   5    -0.209298643018E+03   -0.36121E+00   -0.36018E+00 11480   0.391E+00    0.275E+01
DAV:   6    -0.237716085418E+03   -0.28417E+02   -0.10730E+02 12520   0.599E+01    0.595E+01
DAV:   7    -0.196625110092E+03    0.41091E+02   -0.17689E+02 13560   0.152E+02    0.201E+01
DAV:   8    -0.189635884907E+03    0.69892E+01   -0.17619E+01 12000   0.128E+01    0.128E+01
DAV:   9    -0.188216987672E+03    0.14189E+01   -0.31159E+00 13080   0.616E+00    0.940E+00
DAV:  10    -0.186952085593E+03    0.12649E+01   -0.17568E+00 13560   0.796E+00    0.215E+00
DAV:  11    -0.187042796071E+03   -0.90710E-01   -0.58363E-01 13600   0.294E+00    0.366E+00
DAV:  12    -0.186985331742E+03    0.57464E-01   -0.66201E-01 12880   0.435E+00    0.347E+00
DAV:  13    -0.186877760681E+03    0.10757E+00   -0.26292E-01 13320   0.299E+00    0.178E+00
DAV:  14    -0.186843753688E+03    0.34007E-01   -0.96864E-02 12920   0.153E+00    0.607E-01
DAV:  15    -0.186840190512E+03    0.35632E-02   -0.16471E-02 13040   0.557E-01    0.599E-01
DAV:  16    -0.186839006263E+03    0.11842E-02   -0.11015E-02 13400   0.550E-01    0.486E-01
DAV:  17    -0.186836420694E+03    0.25856E-02   -0.65113E-03 12800   0.399E-01    0.182E-01
DAV:  18    -0.186836125030E+03    0.29566E-03   -0.14356E-03 12320   0.155E-01    0.953E-02
DAV:  19    -0.186836146696E+03   -0.21666E-04   -0.59062E-04 10000   0.692E-02
   1 F= -.18683615E+03 E0= -.18666430E+03  d E =-.186836E+03
       N       E                     dE             d eps       ncg     rms          rms(c)
DAV:   1    -0.187493115419E+03   -0.65699E+00   -0.27427E+02  8160   0.351E+01    0.469E+00
DAV:   2    -0.189516084067E+03   -0.20230E+01   -0.20346E+01 11960   0.155E+01    0.103E+01
DAV:   3    -0.189330348192E+03    0.18574E+00   -0.55774E+00 12240   0.131E+01    0.616E+00
DAV:   4    -0.188765902438E+03    0.56445E+00   -0.57082E-01 11320   0.456E+00    0.246E+00
DAV:   5    -0.188850297601E+03   -0.84395E-01   -0.47993E-01 12120   0.404E+00    0.491E+00
DAV:   6    -0.188721083231E+03    0.12921E+00   -0.63303E-01 12200   0.394E+00    0.222E+00
DAV:   7    -0.188689117822E+03    0.31965E-01   -0.22054E-01 11920   0.203E+00    0.198E+00
DAV:   8    -0.188673735236E+03    0.15383E-01   -0.12622E-01 11880   0.208E+00    0.182E+00
DAV:   9    -0.188648269299E+03    0.25466E-01   -0.55541E-02 12080   0.121E+00    0.628E-01
DAV:  10    -0.188645134434E+03    0.31349E-02   -0.67147E-03 10440   0.302E-01    0.282E-01
DAV:  11    -0.188644826342E+03    0.30809E-03   -0.31506E-03 12960   0.256E-01    0.144E-01
DAV:  12    -0.188644942521E+03   -0.11618E-03   -0.95304E-04 10760   0.999E-02    0.113E-01
DAV:  13    -0.188644996191E+03   -0.53670E-04   -0.29083E-04  6840   0.720E-02
   2 F= -.18864500E+03 E0= -.18850485E+03  d E =-.180885E+01
       N       E                     dE             d eps       ncg     rms          rms(c)
DAV:   1    -0.190599643643E+03   -0.19547E+01   -0.31846E+01  9200   0.144E+01    0.448E+00
DAV:   2    -0.190532231677E+03    0.67412E-01   -0.28077E+00 12160   0.944E+00    0.716E+00
DAV:   3    -0.190076795692E+03    0.45544E+00   -0.13204E+00 12280   0.864E+00    0.428E+00
DAV:   4    -0.189859166755E+03    0.21763E+00   -0.70713E-01 13120   0.438E+00    0.251E+00
DAV:   5    -0.189813027608E+03    0.46139E-01   -0.35078E-01 12320   0.286E+00    0.240E+00
DAV:   6    -0.189757539041E+03    0.55489E-01   -0.11651E-01 12320   0.222E+00    0.707E-01
DAV:   7    -0.189752043966E+03    0.54951E-02   -0.13041E-02 11840   0.528E-01    0.242E-01
DAV:   8    -0.189752780764E+03   -0.73680E-03   -0.44822E-03 11680   0.360E-01    0.379E-01
DAV:   9    -0.189751793693E+03    0.98707E-03   -0.25801E-03 10320   0.317E-01    0.147E-01
DAV:  10    -0.189752159099E+03   -0.36541E-03   -0.11012E-03 10280   0.134E-01    0.140E-01
DAV:  11    -0.189751868974E+03    0.29012E-03   -0.58275E-04 10480   0.868E-02    0.188E-02
DAV:  12    -0.189751929469E+03   -0.60495E-04   -0.73343E-05  6480   0.247E-02
   3 F= -.18975193E+03 E0= -.18963394E+03  d E =-.110693E+01
       N       E                     dE             d eps       ncg     rms          rms(c)
DAV:   1    -0.191339211281E+03   -0.15873E+01   -0.77296E+01  8160   0.200E+01    0.463E+00
DAV:   2    -0.191160905495E+03    0.17831E+00   -0.54043E+00 13000   0.776E+00    0.462E+00
DAV:   3    -0.191317852484E+03   -0.15695E+00   -0.14942E+00 12200   0.911E+00    0.714E+00
DAV:   4    -0.190945605910E+03    0.37225E+00   -0.17228E+00 12200   0.847E+00    0.381E+00
DAV:   5    -0.190926529941E+03    0.19076E-01   -0.74859E-01 11240   0.559E+00    0.354E+00
DAV:   6    -0.190755296890E+03    0.17123E+00   -0.22017E-01 11600   0.317E+00    0.762E-01
DAV:   7    -0.190753378519E+03    0.19184E-02   -0.44476E-02 12600   0.988E-01    0.750E-01
DAV:   8    -0.190752124888E+03    0.12536E-02   -0.22530E-02 11960   0.102E+00    0.679E-01
DAV:   9    -0.190747193368E+03    0.49315E-02   -0.66635E-03 11200   0.562E-01    0.158E-01
DAV:  10    -0.190747549250E+03   -0.35588E-03   -0.15428E-03 10640   0.134E-01    0.133E-01
DAV:  11    -0.190747342841E+03    0.20641E-03   -0.83909E-04 10640   0.112E-01    0.419E-02
DAV:  12    -0.190747366139E+03   -0.23298E-04   -0.13282E-04  6600   0.417E-02
   4 F= -.19074737E+03 E0= -.19064621E+03  d E =-.995437E+00
       N       E                     dE             d eps       ncg     rms          rms(c)
DAV:   1    -0.192123836690E+03   -0.13765E+01   -0.16201E+02  8160   0.284E+01    0.571E+00
DAV:   2    -0.191882650022E+03    0.24119E+00   -0.93840E+00 11480   0.857E+00    0.435E+00
DAV:   3    -0.192377184642E+03   -0.49453E+00   -0.27242E+00 11920   0.104E+01    0.107E+01
DAV:   4    -0.191654383219E+03    0.72280E+00   -0.32436E+00 11760   0.123E+01    0.375E+00
DAV:   5    -0.191596039792E+03    0.58343E-01   -0.71632E-01 11880   0.576E+00    0.392E+00
DAV:   6    -0.191424302202E+03    0.17174E+00   -0.38378E-01 12560   0.433E+00    0.158E+00
DAV:   7    -0.191414285808E+03    0.10016E-01   -0.94267E-02 12440   0.203E+00    0.141E+00
DAV:   8    -0.191400592087E+03    0.13694E-01   -0.56690E-02 11360   0.164E+00    0.664E-01
DAV:   9    -0.191394869125E+03    0.57230E-02   -0.69881E-03 11680   0.485E-01    0.239E-01
DAV:  10    -0.191394831591E+03    0.37534E-04   -0.27463E-03 12200   0.241E-01    0.826E-02
DAV:  11    -0.191394892364E+03   -0.60773E-04   -0.52660E-04 10880   0.913E-02
   5 F= -.19139489E+03 E0= -.19129699E+03  d E =-.647526E+00
       N       E                     dE             d eps       ncg     rms          rms(c)
DAV:   1    -0.191429878452E+03   -0.35047E-01   -0.28873E+00  8160   0.359E+00    0.497E-01
DAV:   2    -0.191470111045E+03   -0.40233E-01   -0.19017E-01 12760   0.236E+00    0.177E+00
DAV:   3    -0.191439440131E+03    0.30671E-01   -0.61714E-02 12360   0.178E+00    0.355E-01
DAV:   4    -0.191439765639E+03   -0.32551E-03   -0.76034E-03 11040   0.600E-01    0.420E-01
DAV:   5    -0.191437924306E+03    0.18413E-02   -0.39709E-03 10720   0.468E-01    0.179E-01
DAV:   6    -0.191437874021E+03    0.50285E-04   -0.16970E-03 11480   0.213E-01    0.165E-01
DAV:   7    -0.191438102723E+03   -0.22870E-03   -0.22453E-03 10200   0.305E-01    0.233E-01
DAV:   8    -0.191437555628E+03    0.54709E-03   -0.96088E-04  8680   0.201E-01    0.270E-02
DAV:   9    -0.191437574735E+03   -0.19107E-04   -0.74702E-05  5800   0.321E-02
   6 F= -.19143757E+03 E0= -.19133757E+03  d E =-.426824E-01
       N       E                     dE             d eps       ncg     rms          rms(c)
DAV:   1    -0.191485241716E+03   -0.47686E-01   -0.74765E+00  8160   0.576E+00    0.708E-01
DAV:   2    -0.191536531277E+03   -0.51290E-01   -0.26694E-01 13240   0.233E+00    0.210E+00
DAV:   3    -0.191496219898E+03    0.40311E-01   -0.11233E-01 12440   0.232E+00    0.654E-01
DAV:   4    -0.191494026668E+03    0.21932E-02   -0.16366E-02 10880   0.748E-01    0.504E-01
DAV:   5    -0.191491908784E+03    0.21179E-02   -0.90605E-03 11320   0.714E-01    0.354E-01
DAV:   6    -0.191491056299E+03    0.85249E-03   -0.52049E-03 11360   0.436E-01    0.249E-01
DAV:   7    -0.191491617012E+03   -0.56071E-03   -0.50159E-03 11360   0.454E-01    0.351E-01
DAV:   8    -0.191490390656E+03    0.12264E-02   -0.21914E-03  9600   0.308E-01    0.407E-02
DAV:   9    -0.191490407100E+03   -0.16443E-04   -0.10796E-04  5560   0.432E-02
   7 F= -.19149041E+03 E0= -.19138823E+03  d E =-.528324E-01
       N       E                     dE             d eps       ncg     rms          rms(c)
DAV:   1    -0.191500040801E+03   -0.96501E-02   -0.29217E-01  8160   0.121E+00    0.243E-01
DAV:   2    -0.191500374538E+03   -0.33374E-03   -0.15138E-02 11560   0.494E-01    0.370E-01
DAV:   3    -0.191499764068E+03    0.61047E-03   -0.67514E-03 11480   0.577E-01    0.303E-01
DAV:   4    -0.191498997130E+03    0.76694E-03   -0.29532E-03 10960   0.361E-01    0.189E-01
DAV:   5    -0.191498856920E+03    0.14021E-03   -0.16679E-03  9760   0.293E-01    0.167E-01
DAV:   6    -0.191498513423E+03    0.34350E-03   -0.76909E-04  9800   0.184E-01    0.409E-02
DAV:   7    -0.191498502620E+03    0.10803E-04   -0.10344E-04  5880   0.480E-02
   8 F= -.19149850E+03 E0= -.19139590E+03  d E =-.809552E-02
       N       E                     dE             d eps       ncg     rms          rms(c)
DAV:   1    -0.191534977176E+03   -0.36464E-01   -0.32070E+00  8160   0.378E+00    0.449E-01
DAV:   2    -0.191561696121E+03   -0.26719E-01   -0.11540E-01 13600   0.181E+00    0.156E+00
DAV:   3    -0.191538880990E+03    0.22815E-01   -0.51014E-02 12400   0.156E+00    0.324E-01
DAV:   4    -0.191539133946E+03   -0.25296E-03   -0.59545E-03 11520   0.495E-01    0.379E-01
DAV:   5    -0.191537831890E+03    0.13021E-02   -0.43595E-03 11160   0.461E-01    0.212E-01
DAV:   6    -0.191537839470E+03   -0.75804E-05   -0.24846E-03 10360   0.295E-01    0.224E-01
DAV:   7    -0.191537651069E+03    0.18840E-03   -0.20357E-03  9720   0.303E-01    0.153E-01
DAV:   8    -0.191537349135E+03    0.30193E-03   -0.49290E-04  8240   0.139E-01    0.201E-02
DAV:   9    -0.191537359219E+03   -0.10084E-04   -0.59008E-05  6880   0.284E-02
   9 F= -.19153736E+03 E0= -.19143403E+03  d E =-.388566E-01
       N       E                     dE             d eps       ncg     rms          rms(c)
DAV:   1    -0.191452548479E+03    0.84801E-01   -0.14134E+01  8160   0.794E+00    0.924E-01
DAV:   2    -0.191547541082E+03   -0.94993E-01   -0.46585E-01 13600   0.353E+00    0.272E+00
DAV:   3    -0.191469267475E+03    0.78274E-01   -0.15934E-01 12240   0.290E+00    0.746E-01
DAV:   4    -0.191470408895E+03   -0.11414E-02   -0.29156E-02 11320   0.117E+00    0.872E-01
DAV:   5    -0.191463452011E+03    0.69569E-02   -0.22251E-02 11960   0.106E+00    0.448E-01
DAV:   6    -0.191463250350E+03    0.20166E-03   -0.10676E-02 11480   0.628E-01    0.469E-01
DAV:   7    -0.191462229001E+03    0.10213E-02   -0.83419E-03 11360   0.607E-01    0.300E-01
DAV:   8    -0.191461082069E+03    0.11469E-02   -0.20940E-03 11720   0.267E-01    0.469E-02
DAV:   9    -0.191461085309E+03   -0.32394E-05   -0.22366E-04  8080   0.520E-02
  10 F= -.19146109E+03 E0= -.19135974E+03  d E =0.762739E-01
       N       E                     dE             d eps       ncg     rms          rms(c)
DAV:   1    -0.191423707434E+03    0.37375E-01   -0.69884E+00  8160   0.555E+00    0.582E-01
DAV:   2    -0.191453985573E+03   -0.30278E-01   -0.17751E-01 13440   0.183E+00    0.156E+00
DAV:   3    -0.191432749643E+03    0.21236E-01   -0.65789E-02 12160   0.178E+00    0.617E-01
DAV:   4    -0.191429420214E+03    0.33294E-02   -0.11176E-02 11280   0.584E-01    0.303E-01
DAV:   5    -0.191429289257E+03    0.13096E-03   -0.61930E-03 11920   0.472E-01    0.414E-01
DAV:   6    -0.191428148180E+03    0.11411E-02   -0.55665E-03 11040   0.474E-01    0.211E-01
DAV:   7    -0.191427931667E+03    0.21651E-03   -0.14916E-03 10120   0.207E-01    0.102E-01
DAV:   8    -0.191427801232E+03    0.13044E-03   -0.46553E-04 10200   0.149E-01    0.754E-02
DAV:   9    -0.191427739954E+03    0.61278E-04   -0.13577E-04  6840   0.909E-02
  11 F= -.19142774E+03 E0= -.19132759E+03  d E =0.333454E-01
       N       E                     dE             d eps       ncg     rms          rms(c)
DAV:   1    -0.191432073025E+03   -0.42718E-02   -0.11480E+00  8160   0.226E+00    0.252E-01
DAV:   2    -0.191434925258E+03   -0.28522E-02   -0.37707E-02 12160   0.564E-01    0.293E-01
DAV:   3    -0.191435125855E+03   -0.20060E-03   -0.91194E-03 11160   0.572E-01    0.415E-01
DAV:   4    -0.191433632809E+03    0.14930E-02   -0.37809E-03 10880   0.389E-01    0.153E-01
DAV:   5    -0.191433540198E+03    0.92611E-04   -0.11428E-03  9640   0.229E-01    0.147E-01
DAV:   6    -0.191433445500E+03    0.94698E-04   -0.87539E-04  9760   0.209E-01
  12 F= -.19143345E+03 E0= -.19133252E+03  d E =-.570555E-02
       N       E                     dE             d eps       ncg     rms          rms(c)
DAV:   1    -0.191449027244E+03   -0.15487E-01   -0.12179E+00  8160   0.237E+00    0.309E-01
DAV:   2    -0.191457729412E+03   -0.87022E-02   -0.49373E-02 13600   0.108E+00    0.876E-01
DAV:   3    -0.191450837440E+03    0.68920E-02   -0.19982E-02 11760   0.957E-01    0.305E-01
DAV:   4    -0.191450563055E+03    0.27439E-03   -0.42693E-03 11080   0.417E-01    0.288E-01
DAV:   5    -0.191449914956E+03    0.64810E-03   -0.26253E-03 10120   0.360E-01    0.173E-01
DAV:   6    -0.191449737371E+03    0.17758E-03   -0.12695E-03  9520   0.210E-01    0.144E-01
DAV:   7    -0.191449675365E+03    0.62006E-04   -0.94304E-04  8320   0.211E-01
  13 F= -.19144968E+03 E0= -.19134697E+03  d E =-.162299E-01
       N       E                     dE             d eps       ncg     rms          rms(c)
DAV:   1    -0.191461180241E+03   -0.11443E-01   -0.62149E-01  8160   0.168E+00    0.224E-01
DAV:   2    -0.191467446183E+03   -0.62659E-02   -0.28288E-02 13600   0.862E-01    0.749E-01
DAV:   3    -0.191462162419E+03    0.52838E-02   -0.12504E-02 11480   0.763E-01    0.194E-01
DAV:   4    -0.191462083558E+03    0.78861E-04   -0.18033E-03  9960   0.257E-01    0.181E-01
DAV:   5    -0.191461859391E+03    0.22417E-03   -0.11754E-03 10240   0.236E-01    0.126E-01
DAV:   6    -0.191461753053E+03    0.10634E-03   -0.60230E-04  8200   0.148E-01    0.947E-02
DAV:   7    -0.191461746229E+03    0.68241E-05   -0.43612E-04  8240   0.145E-01
  14 F= -.19146175E+03 E0= -.19135771E+03  d E =-.120709E-01
       N       E                     dE             d eps       ncg     rms          rms(c)
DAV:   1    -0.191449604592E+03    0.12148E-01   -0.60084E-01  8160   0.164E+00    0.202E-01
DAV:   2    -0.191455096434E+03   -0.54918E-02   -0.24036E-02 13560   0.808E-01    0.698E-01
DAV:   3    -0.191450455756E+03    0.46407E-02   -0.10045E-02 11480   0.700E-01    0.163E-01
DAV:   4    -0.191450307343E+03    0.14841E-03   -0.10963E-03  9800   0.185E-01    0.123E-01
DAV:   5    -0.191450246823E+03    0.60520E-04   -0.73025E-04  9240   0.187E-01
  15 F= -.19145025E+03 E0= -.19134732E+03  d E =0.114994E-01
       N       E                     dE             d eps       ncg     rms          rms(c)
DAV:   1    -0.191453834852E+03   -0.35275E-02   -0.26786E-01  8160   0.111E+00    0.151E-01
DAV:   2    -0.191454533407E+03   -0.69856E-03   -0.89873E-03 12120   0.342E-01    0.251E-01
DAV:   3    -0.191454261232E+03    0.27218E-03   -0.31717E-03 12000   0.385E-01    0.225E-01
DAV:   4    -0.191453772065E+03    0.48917E-03   -0.10462E-03  9280   0.210E-01    0.730E-02
DAV:   5    -0.191453799593E+03   -0.27528E-04   -0.41492E-04  8240   0.136E-01
  16 F= -.19145380E+03 E0= -.19135071E+03  d E =-.355277E-02
       N       E                     dE             d eps       ncg     rms          rms(c)
DAV:   1    -0.191467114474E+03   -0.13342E-01   -0.80624E-01  8160   0.191E+00    0.273E-01
DAV:   2    -0.191477059232E+03   -0.99448E-02   -0.40086E-02 13480   0.110E+00    0.100E+00
DAV:   3    -0.191467952370E+03    0.91069E-02   -0.21101E-02 11360   0.948E-01    0.225E-01
DAV:   4    -0.191468144028E+03   -0.19166E-03   -0.31919E-03 11200   0.368E-01    0.275E-01
DAV:   5    -0.191467455863E+03    0.68817E-03   -0.20390E-03  9720   0.306E-01    0.129E-01
DAV:   6    -0.191467466761E+03   -0.10898E-04   -0.96195E-04  9120   0.196E-01
  17 F= -.19146747E+03 E0= -.19136279E+03  d E =-.136672E-01
       N       E                     dE             d eps       ncg     rms          rms(c)
DAV:   1    -0.191428188637E+03    0.39267E-01   -0.89447E+00  8160   0.633E+00    0.789E-01
DAV:   2    -0.191509643316E+03   -0.81455E-01   -0.33783E-01 13520   0.294E+00    0.284E+00
DAV:   3    -0.191439680057E+03    0.69963E-01   -0.17085E-01 12160   0.278E+00    0.665E-01
DAV:   4    -0.191435802080E+03    0.38780E-02   -0.16295E-02 11040   0.706E-01    0.439E-01
DAV:   5    -0.191435624618E+03    0.17746E-03   -0.11553E-02 12280   0.738E-01    0.521E-01
DAV:   6    -0.191433186015E+03    0.24386E-02   -0.75041E-03 11120   0.556E-01    0.248E-01
DAV:   7    -0.191433954580E+03   -0.76857E-03   -0.46741E-03 10720   0.467E-01    0.343E-01
DAV:   8    -0.191432605406E+03    0.13492E-02   -0.20236E-03 10000   0.312E-01    0.328E-02
DAV:   9    -0.191432625441E+03   -0.20035E-04   -0.11915E-04  6680   0.384E-02
  18 F= -.19143263E+03 E0= -.19133313E+03  d E =0.348413E-01
       N       E                     dE             d eps       ncg     rms          rms(c)
DAV:   1    -0.191439543275E+03   -0.69379E-02   -0.13100E+00  8160   0.239E+00    0.273E-01
DAV:   2    -0.191446464978E+03   -0.69217E-02   -0.35441E-02 13600   0.104E+00    0.729E-01
DAV:   3    -0.191440308396E+03    0.61566E-02   -0.11527E-02 12280   0.812E-01    0.155E-01
DAV:   4    -0.191440302201E+03    0.61959E-05   -0.15599E-03 11200   0.201E-01    0.159E-01
DAV:   5    -0.191440250891E+03    0.51309E-04   -0.15082E-03 11320   0.251E-01    0.191E-01
DAV:   6    -0.191439993794E+03    0.25710E-03   -0.10565E-03  9320   0.212E-01    0.831E-02
DAV:   7    -0.191439952474E+03    0.41320E-04   -0.23888E-04  5880   0.924E-02
  19 F= -.19143995E+03 E0= -.19134086E+03  d E =-.732703E-02
       N       E                     dE             d eps       ncg     rms          rms(c)
DAV:   1    -0.191452471509E+03   -0.12478E-01   -0.92224E-01  8160   0.205E+00    0.280E-01
DAV:   2    -0.191462995363E+03   -0.10524E-01   -0.42151E-02 13600   0.112E+00    0.994E-01
DAV:   3    -0.191453485775E+03    0.95096E-02   -0.19728E-02 11720   0.984E-01    0.208E-01
DAV:   4    -0.191453350971E+03    0.13480E-03   -0.22116E-03 11480   0.265E-01    0.194E-01
DAV:   5    -0.191453157616E+03    0.19335E-03   -0.16377E-03 10600   0.277E-01    0.172E-01
DAV:   6    -0.191452925093E+03    0.23252E-03   -0.96292E-04  8520   0.191E-01    0.102E-01
DAV:   7    -0.191452958673E+03   -0.33580E-04   -0.60340E-04  8160   0.171E-01
  20 F= -.19145296E+03 E0= -.19135302E+03  d E =-.130062E-01
       N       E                     dE             d eps       ncg     rms          rms(c)
DAV:   1    -0.191457730897E+03   -0.48058E-02   -0.11877E-01  8160   0.737E-01    0.918E-02
DAV:   2    -0.191458776059E+03   -0.10452E-02   -0.45252E-03 13600   0.331E-01    0.302E-01
DAV:   3    -0.191457874453E+03    0.90161E-03   -0.20147E-03  9600   0.311E-01    0.802E-02
DAV:   4    -0.191457856943E+03    0.17510E-04   -0.23601E-04  6400   0.845E-02
  21 F= -.19145786E+03 E0= -.19135745E+03  d E =-.489827E-02
       N       E                     dE             d eps       ncg     rms          rms(c)
DAV:   1    -0.191463935652E+03   -0.60612E-02   -0.31660E-01  8160   0.118E+00    0.162E-01
DAV:   2    -0.191467182707E+03   -0.32471E-02   -0.13810E-02 13560   0.600E-01    0.584E-01
DAV:   3    -0.191464196265E+03    0.29864E-02   -0.75478E-03 11240   0.542E-01    0.141E-01
DAV:   4    -0.191464059822E+03    0.13644E-03   -0.66358E-04  9160   0.126E-01    0.649E-02
DAV:   5    -0.191464008663E+03    0.51159E-04   -0.20237E-04  7400   0.766E-02
  22 F= -.19146401E+03 E0= -.19136397E+03  d E =-.615172E-02
       N       E                     dE             d eps       ncg     rms          rms(c)
DAV:   1    -0.191472977857E+03   -0.89180E-02   -0.53929E-01  8160   0.160E+00    0.236E-01
DAV:   2    -0.191478423324E+03   -0.54455E-02   -0.22862E-02 13600   0.806E-01    0.729E-01
DAV:   3    -0.191473129770E+03    0.52936E-02   -0.11493E-02 11560   0.768E-01    0.201E-01
DAV:   4    -0.191473080898E+03    0.48872E-04   -0.20025E-03 10000   0.267E-01    0.206E-01
DAV:   5    -0.191472717350E+03    0.36355E-03   -0.13559E-03 10280   0.262E-01    0.121E-01
DAV:   6    -0.191472698284E+03    0.19066E-04   -0.77614E-04  8320   0.173E-01
  23 F= -.19147270E+03 E0= -.19137197E+03  d E =-.868962E-02
       N       E                     dE             d eps       ncg     rms          rms(c)
DAV:   1    -0.191491553161E+03   -0.18836E-01   -0.14685E+00  8160   0.256E+00    0.297E-01
DAV:   2    -0.191498856114E+03   -0.73030E-02   -0.43598E-02 13600   0.982E-01    0.794E-01
DAV:   3    -0.191493046300E+03    0.58098E-02   -0.16194E-02 12120   0.872E-01    0.271E-01
DAV:   4    -0.191493161711E+03   -0.11541E-03   -0.39047E-03 11280   0.403E-01    0.304E-01
DAV:   5    -0.191492333928E+03    0.82778E-03   -0.25606E-03 10000   0.361E-01    0.159E-01
DAV:   6    -0.191492303952E+03    0.29976E-04   -0.13168E-03  9680   0.221E-01    0.162E-01
DAV:   7    -0.191492181540E+03    0.12241E-03   -0.10342E-03  8440   0.218E-01    0.112E-01
DAV:   8    -0.191492044258E+03    0.13728E-03   -0.27975E-04  6680   0.107E-01    0.203E-02
DAV:   9    -0.191492041916E+03    0.23426E-05   -0.38992E-05  6840   0.257E-02
  24 F= -.19149204E+03 E0= -.19139098E+03  d E =-.193436E-01
       N       E                     dE             d eps       ncg     rms          rms(c)
DAV:   1    -0.191495721945E+03   -0.36777E-02   -0.11218E-01  8160   0.697E-01    0.698E-02
DAV:   2    -0.191495939847E+03   -0.21790E-03   -0.22475E-03 12240   0.146E-01    0.105E-01
DAV:   3    -0.191495867798E+03    0.72049E-04   -0.60618E-04  9800   0.169E-01
  25 F= -.19149587E+03 E0= -.19139537E+03  d E =-.382588E-02
       N       E                     dE             d eps       ncg     rms          rms(c)
DAV:   1    -0.191506988791E+03   -0.11049E-01   -0.17988E+00  8160   0.285E+00    0.397E-01
DAV:   2    -0.191531017805E+03   -0.24029E-01   -0.83257E-02 13600   0.167E+00    0.154E+00
DAV:   3    -0.191508391437E+03    0.22626E-01   -0.43248E-02 11640   0.146E+00    0.271E-01
DAV:   4    -0.191508831160E+03   -0.43972E-03   -0.56154E-03 11520   0.443E-01    0.391E-01
DAV:   5    -0.191507616456E+03    0.12147E-02   -0.44319E-03 11080   0.428E-01    0.192E-01
DAV:   6    -0.191507417715E+03    0.19874E-03   -0.15239E-03 10280   0.233E-01    0.147E-01
DAV:   7    -0.191507322575E+03    0.95140E-04   -0.95226E-04  9480   0.221E-01
  26 F= -.19150732E+03 E0= -.19140448E+03  d E =-.114548E-01
       N       E                     dE             d eps       ncg     rms          rms(c)
DAV:   1    -0.191487045919E+03    0.20372E-01   -0.18529E+00  8160   0.291E+00    0.386E-01
DAV:   2    -0.191501982210E+03   -0.14936E-01   -0.72435E-02 13600   0.137E+00    0.119E+00
DAV:   3    -0.191488727011E+03    0.13255E-01   -0.32226E-02 12240   0.125E+00    0.316E-01
DAV:   4    -0.191487857528E+03    0.86948E-03   -0.36882E-03 10520   0.344E-01    0.209E-01
DAV:   5    -0.191487934058E+03   -0.76530E-04   -0.30184E-03 11760   0.375E-01    0.275E-01
DAV:   6    -0.191487361040E+03    0.57302E-03   -0.22923E-03  9560   0.298E-01    0.144E-01
DAV:   7    -0.191487379183E+03   -0.18143E-04   -0.11172E-03  9440   0.222E-01    0.136E-01
DAV:   8    -0.191487167503E+03    0.21168E-03   -0.37819E-04  9360   0.135E-01    0.224E-02
DAV:   9    -0.191487169232E+03   -0.17289E-05   -0.39368E-05  5960   0.265E-02
  27 F= -.19148717E+03 E0= -.19138604E+03  d E =0.201533E-01
       N       E                     dE             d eps       ncg     rms          rms(c)
DAV:   1    -0.191504439797E+03   -0.17272E-01   -0.12876E+00  8160   0.238E+00    0.281E-01
DAV:   2    -0.191511296418E+03   -0.68566E-02   -0.38099E-02 13600   0.100E+00    0.751E-01
DAV:   3    -0.191505494247E+03    0.58022E-02   -0.14315E-02 11560   0.826E-01    0.238E-01
DAV:   4    -0.191505991165E+03   -0.49692E-03   -0.44090E-03 10960   0.411E-01    0.349E-01
DAV:   5    -0.191504925122E+03    0.10660E-02   -0.28721E-03  9800   0.360E-01    0.132E-01
DAV:   6    -0.191504806576E+03    0.11855E-03   -0.78350E-04 10120   0.157E-01    0.942E-02
DAV:   7    -0.191504879996E+03   -0.73420E-04   -0.67717E-04  8920   0.184E-01
  28 F= -.19150488E+03 E0= -.19140424E+03  d E =-.177108E-01
       N       E                     dE             d eps       ncg     rms          rms(c)
DAV:   1    -0.191519906387E+03   -0.15100E-01   -0.74235E-01  8160   0.183E+00    0.206E-01
DAV:   2    -0.191524664134E+03   -0.47577E-02   -0.23477E-02 13600   0.685E-01    0.627E-01
DAV:   3    -0.191520831657E+03    0.38325E-02   -0.89533E-03 11520   0.665E-01    0.174E-01
DAV:   4    -0.191520633723E+03    0.19793E-03   -0.10329E-03  9920   0.160E-01    0.935E-02
DAV:   5    -0.191520527826E+03    0.10590E-03   -0.41049E-04  8880   0.110E-01    0.859E-02
DAV:   6    -0.191520599152E+03   -0.71326E-04   -0.59340E-04  8760   0.163E-01
  29 F= -.19152060E+03 E0= -.19141977E+03  d E =-.157192E-01
       N       E                     dE             d eps       ncg     rms          rms(c)
DAV:   1    -0.191503357651E+03    0.17170E-01   -0.20913E+00  8160   0.310E+00    0.466E-01
DAV:   2    -0.191531883499E+03   -0.28526E-01   -0.10407E-01 13600   0.188E+00    0.167E+00
DAV:   3    -0.191504229847E+03    0.27654E-01   -0.53144E-02 11920   0.164E+00    0.307E-01
DAV:   4    -0.191503372924E+03    0.85692E-03   -0.42993E-03 10840   0.363E-01    0.214E-01
DAV:   5    -0.191503481779E+03   -0.10886E-03   -0.34021E-03 12200   0.411E-01    0.294E-01
DAV:   6    -0.191502780800E+03    0.70098E-03   -0.25968E-03 10720   0.331E-01    0.155E-01
DAV:   7    -0.191502832574E+03   -0.51774E-04   -0.14057E-03  9600   0.244E-01    0.162E-01
DAV:   8    -0.191502548586E+03    0.28399E-03   -0.50418E-04  8560   0.151E-01    0.244E-02
DAV:   9    -0.191502552794E+03   -0.42081E-05   -0.43532E-05  6400   0.270E-02
  30 F= -.19150255E+03 E0= -.19140311E+03  d E =0.180464E-01
       N       E                     dE             d eps       ncg     rms          rms(c)
DAV:   1    -0.191552171355E+03   -0.49623E-01   -0.73800E+00  8160   0.578E+00    0.721E-01
DAV:   2    -0.191615332460E+03   -0.63161E-01   -0.27086E-01 13600   0.277E+00    0.250E+00
DAV:   3    -0.191559209438E+03    0.56123E-01   -0.12658E-01 12280   0.247E+00    0.517E-01
DAV:   4    -0.191559382207E+03   -0.17277E-03   -0.17029E-02 12240   0.754E-01    0.653E-01
DAV:   5    -0.191556371832E+03    0.30104E-02   -0.14888E-02 11360   0.778E-01    0.429E-01
DAV:   6    -0.191554901809E+03    0.14700E-02   -0.59631E-03 11600   0.434E-01    0.203E-01
DAV:   7    -0.191555135613E+03   -0.23380E-03   -0.30841E-03 11480   0.382E-01    0.247E-01
DAV:   8    -0.191554386246E+03    0.74937E-03   -0.12911E-03 10000   0.274E-01    0.505E-02
DAV:   9    -0.191554350994E+03    0.35252E-04   -0.11504E-04  6160   0.557E-02
  31 F= -.19155435E+03 E0= -.19145469E+03  d E =-.517982E-01
       N       E                     dE             d eps       ncg     rms          rms(c)
DAV:   1    -0.191569631405E+03   -0.15245E-01   -0.82193E-01  8160   0.190E+00    0.222E-01
DAV:   2    -0.191574468572E+03   -0.48372E-02   -0.24448E-02 13360   0.816E-01    0.639E-01
DAV:   3    -0.191570378521E+03    0.40901E-02   -0.10469E-02 11400   0.690E-01    0.216E-01
DAV:   4    -0.191570471886E+03   -0.93365E-04   -0.27842E-03  9920   0.327E-01    0.241E-01
DAV:   5    -0.191569982646E+03    0.48924E-03   -0.14611E-03  9520   0.265E-01    0.103E-01
DAV:   6    -0.191569867403E+03    0.11524E-03   -0.42060E-04  9360   0.116E-01    0.523E-02
DAV:   7    -0.191569947872E+03   -0.80469E-04   -0.34618E-04  7960   0.129E-01
  32 F= -.19156995E+03 E0= -.19147140E+03  d E =-.155969E-01
       N       E                     dE             d eps       ncg     rms          rms(c)
DAV:   1    -0.191576741036E+03   -0.68736E-02   -0.13520E+00  8160   0.244E+00    0.290E-01
DAV:   2    -0.191587005984E+03   -0.10265E-01   -0.44283E-02 13600   0.113E+00    0.943E-01
DAV:   3    -0.191578241760E+03    0.87642E-02   -0.19070E-02 12240   0.981E-01    0.252E-01
DAV:   4    -0.191578336944E+03   -0.95184E-04   -0.34240E-03 11040   0.372E-01    0.283E-01
DAV:   5    -0.191577690285E+03    0.64666E-03   -0.22974E-03  9640   0.328E-01    0.150E-01
DAV:   6    -0.191577636013E+03    0.54271E-04   -0.10649E-03  9920   0.206E-01    0.141E-01
DAV:   7    -0.191577516137E+03    0.11988E-03   -0.69970E-04  8480   0.182E-01    0.731E-02
DAV:   8    -0.191577447107E+03    0.69029E-04   -0.12647E-04  5640   0.736E-02
  33 F= -.19157745E+03 E0= -.19147786E+03  d E =-.749924E-02
       N       E                     dE             d eps       ncg     rms          rms(c)
DAV:   1    -0.191614086582E+03   -0.36570E-01   -0.41838E+00  8160   0.427E+00    0.407E-01
DAV:   2    -0.191627107606E+03   -0.13021E-01   -0.90304E-02 12600   0.120E+00    0.937E-01
DAV:   3    -0.191619381504E+03    0.77261E-02   -0.32080E-02 11920   0.115E+00    0.475E-01
DAV:   4    -0.191618829144E+03    0.55236E-03   -0.94477E-03 11960   0.602E-01    0.422E-01
DAV:   5    -0.191617300065E+03    0.15291E-02   -0.48550E-03 11200   0.498E-01    0.204E-01
DAV:   6    -0.191616927944E+03    0.37212E-03   -0.15920E-03 10880   0.238E-01    0.114E-01
DAV:   7    -0.191617259844E+03   -0.33190E-03   -0.13696E-03 10800   0.261E-01    0.212E-01
DAV:   8    -0.191616802580E+03    0.45726E-03   -0.81724E-04  8680   0.210E-01    0.389E-02
DAV:   9    -0.191616792690E+03    0.98898E-05   -0.58605E-05  5680   0.387E-02
  34 F= -.19161679E+03 E0= -.19151989E+03  d E =-.393456E-01
       N       E                     dE             d eps       ncg     rms          rms(c)
DAV:   1    -0.191594092323E+03    0.22710E-01   -0.49075E+00  8160   0.462E+00    0.517E-01
DAV:   2    -0.191622083106E+03   -0.27991E-01   -0.13312E-01 12360   0.191E+00    0.145E+00
DAV:   3    -0.191598920040E+03    0.23163E-01   -0.49790E-02 12320   0.162E+00    0.487E-01
DAV:   4    -0.191599041459E+03   -0.12142E-03   -0.12840E-02 11280   0.716E-01    0.521E-01
DAV:   5    -0.191596941571E+03    0.20999E-02   -0.77743E-03 11320   0.602E-01    0.256E-01
DAV:   6    -0.191596517378E+03    0.42419E-03   -0.28875E-03 11400   0.330E-01    0.217E-01
DAV:   7    -0.191596444268E+03    0.73110E-04   -0.22819E-03 10080   0.332E-01    0.180E-01
DAV:   8    -0.191596102366E+03    0.34190E-03   -0.65818E-04  8680   0.167E-01    0.314E-02
DAV:   9    -0.191596093955E+03    0.84112E-05   -0.68349E-05  6640   0.346E-02
  35 F= -.19159609E+03 E0= -.19149660E+03  d E =0.206987E-01
       N       E                     dE             d eps       ncg     rms          rms(c)
DAV:   1    -0.191580666120E+03    0.15436E-01   -0.39108E+00  8160   0.412E+00    0.429E-01
DAV:   2    -0.191598335673E+03   -0.17670E-01   -0.92207E-02 12360   0.140E+00    0.114E+00
DAV:   3    -0.191584988318E+03    0.13347E-01   -0.34381E-02 12360   0.131E+00    0.446E-01
DAV:   4    -0.191584774040E+03    0.21428E-03   -0.93599E-03 11120   0.594E-01    0.429E-01
DAV:   5    -0.191583378064E+03    0.13960E-02   -0.54992E-03 12120   0.510E-01    0.230E-01
DAV:   6    -0.191583085739E+03    0.29233E-03   -0.23510E-03 10440   0.297E-01    0.193E-01
DAV:   7    -0.191583049647E+03    0.36092E-04   -0.18372E-03  9960   0.293E-01    0.164E-01
DAV:   8    -0.191582763928E+03    0.28572E-03   -0.57509E-04  8560   0.156E-01    0.295E-02
DAV:   9    -0.191582755152E+03    0.87763E-05   -0.56450E-05  6640   0.315E-02
  36 F= -.19158276E+03 E0= -.19148057E+03  d E =0.133388E-01
       N       E                     dE             d eps       ncg     rms          rms(c)
DAV:   1    -0.191622436286E+03   -0.39672E-01   -0.73577E+00  8160   0.573E+00    0.683E-01
DAV:   2    -0.191671037636E+03   -0.48601E-01   -0.23135E-01 13600   0.240E+00    0.214E+00
DAV:   3    -0.191630401901E+03    0.40636E-01   -0.10664E-01 12040   0.221E+00    0.598E-01
DAV:   4    -0.191631153621E+03   -0.75172E-03   -0.20014E-02 11480   0.876E-01    0.756E-01
DAV:   5    -0.191626384139E+03    0.47695E-02   -0.15642E-02 11560   0.832E-01    0.347E-01
DAV:   6    -0.191626043156E+03    0.34098E-03   -0.62604E-03 11040   0.465E-01    0.310E-01
DAV:   7    -0.191625473675E+03    0.56948E-03   -0.40123E-03 11680   0.449E-01    0.195E-01
DAV:   8    -0.191624963950E+03    0.50973E-03   -0.11766E-03 10200   0.222E-01    0.435E-02
DAV:   9    -0.191624935760E+03    0.28190E-04   -0.11108E-04  6880   0.432E-02
  37 F= -.19162494E+03 E0= -.19152170E+03  d E =-.421806E-01
       N       E                     dE             d eps       ncg     rms          rms(c)
DAV:   1    -0.191649441515E+03   -0.24478E-01   -0.25535E+00  8160   0.335E+00    0.302E-01
DAV:   2    -0.191654452298E+03   -0.50108E-02   -0.50656E-02 12280   0.760E-01    0.479E-01
DAV:   3    -0.191653209016E+03    0.12433E-02   -0.12857E-02 12040   0.726E-01    0.402E-01
DAV:   4    -0.191652413333E+03    0.79568E-03   -0.54011E-03 11440   0.458E-01    0.288E-01
DAV:   5    -0.191651789275E+03    0.62406E-03   -0.27213E-03  9760   0.365E-01    0.184E-01
DAV:   6    -0.191651542962E+03    0.24631E-03   -0.12062E-03 11040   0.219E-01    0.925E-02
DAV:   7    -0.191651675870E+03   -0.13291E-03   -0.68638E-04  9120   0.183E-01    0.147E-01
DAV:   8    -0.191651447745E+03    0.22812E-03   -0.41402E-04  8240   0.151E-01    0.263E-02
DAV:   9    -0.191651449879E+03   -0.21338E-05   -0.33959E-05  5640   0.291E-02
  38 F= -.19165145E+03 E0= -.19155093E+03  d E =-.265141E-01
       N       E                     dE             d eps       ncg     rms          rms(c)
DAV:   1    -0.191667430744E+03   -0.15983E-01   -0.41748E+00  8160   0.428E+00    0.479E-01
DAV:   2    -0.191692872865E+03   -0.25442E-01   -0.11627E-01 13320   0.183E+00    0.145E+00
DAV:   3    -0.191671670820E+03    0.21202E-01   -0.46411E-02 12320   0.154E+00    0.442E-01
DAV:   4    -0.191671860808E+03   -0.18999E-03   -0.97167E-03 11240   0.669E-01    0.477E-01
DAV:   5    -0.191669985599E+03    0.18752E-02   -0.66882E-03 11240   0.567E-01    0.251E-01
DAV:   6    -0.191669883549E+03    0.10205E-03   -0.34291E-03 11400   0.368E-01    0.249E-01
DAV:   7    -0.191669509169E+03    0.37438E-03   -0.21594E-03  9960   0.318E-01    0.128E-01
DAV:   8    -0.191669278190E+03    0.23098E-03   -0.43696E-04  8160   0.120E-01    0.228E-02
DAV:   9    -0.191669279141E+03   -0.95077E-06   -0.57769E-05  6880   0.289E-02
  39 F= -.19166928E+03 E0= -.19156813E+03  d E =-.178293E-01
       N       E                     dE             d eps       ncg     rms          rms(c)
DAV:   1    -0.191700239345E+03   -0.30961E-01   -0.95330E+00  8160   0.647E+00    0.612E-01
DAV:   2    -0.191726985901E+03   -0.26747E-01   -0.20001E-01 12600   0.191E+00    0.131E+00
DAV:   3    -0.191711822901E+03    0.15163E-01   -0.57700E-02 12440   0.167E+00    0.649E-01
DAV:   4    -0.191711788102E+03    0.34799E-04   -0.20392E-02 12000   0.916E-01    0.659E-01
DAV:   5    -0.191707835104E+03    0.39530E-02   -0.11186E-02 11440   0.773E-01    0.321E-01
DAV:   6    -0.191707089302E+03    0.74580E-03   -0.46971E-03 11560   0.402E-01    0.205E-01
DAV:   7    -0.191707712267E+03   -0.62297E-03   -0.38708E-03 12120   0.435E-01    0.320E-01
DAV:   8    -0.191706592204E+03    0.11201E-02   -0.16991E-03  9960   0.301E-01    0.381E-02
DAV:   9    -0.191706590302E+03    0.19024E-05   -0.95662E-05  5800   0.411E-02
  40 F= -.19170659E+03 E0= -.19161036E+03  d E =-.373112E-01
       N       E                     dE             d eps       ncg     rms          rms(c)
DAV:   1    -0.191762796041E+03   -0.56204E-01   -0.43083E+00  8160   0.444E+00    0.496E-01
DAV:   2    -0.191777836973E+03   -0.15041E-01   -0.12570E-01 12800   0.146E+00    0.110E+00
DAV:   3    -0.191768793643E+03    0.90433E-02   -0.38667E-02 12000   0.135E+00    0.509E-01
DAV:   4    -0.191766867201E+03    0.19264E-02   -0.82292E-03 12240   0.570E-01    0.379E-01
DAV:   5    -0.191766316967E+03    0.55023E-03   -0.62517E-03 11160   0.562E-01    0.346E-01
DAV:   6    -0.191765450945E+03    0.86602E-03   -0.35920E-03 10960   0.376E-01    0.158E-01
DAV:   7    -0.191765415031E+03    0.35914E-04   -0.14866E-03 10080   0.285E-01    0.154E-01
DAV:   8    -0.191765102553E+03    0.31248E-03   -0.49135E-04  9480   0.171E-01    0.298E-02
DAV:   9    -0.191765094131E+03    0.84211E-05   -0.63040E-05  6120   0.351E-02
  41 F= -.19176509E+03 E0= -.19167230E+03  d E =-.585038E-01
       N       E                     dE             d eps       ncg     rms          rms(c)
DAV:   1    -0.191796651843E+03   -0.31549E-01   -0.44093E+00  8160   0.441E+00    0.480E-01
DAV:   2    -0.191819605204E+03   -0.22953E-01   -0.11482E-01 13600   0.164E+00    0.140E+00
DAV:   3    -0.191801376759E+03    0.18228E-01   -0.46158E-02 12320   0.152E+00    0.436E-01
DAV:   4    -0.191801750935E+03   -0.37418E-03   -0.88236E-03 11320   0.665E-01    0.487E-01
DAV:   5    -0.191799464409E+03    0.22865E-02   -0.59525E-03 11600   0.580E-01    0.212E-01
DAV:   6    -0.191799607271E+03   -0.14286E-03   -0.28500E-03 11520   0.361E-01    0.248E-01
DAV:   7    -0.191799220211E+03    0.38706E-03   -0.18822E-03 10360   0.327E-01    0.128E-01
DAV:   8    -0.191798974542E+03    0.24567E-03   -0.40820E-04  8280   0.130E-01    0.208E-02
DAV:   9    -0.191798977686E+03   -0.31441E-05   -0.58553E-05  6880   0.282E-02
  42 F= -.19179898E+03 E0= -.19170704E+03  d E =-.338836E-01
       N       E                     dE             d eps       ncg     rms          rms(c)
DAV:   1    -0.191835150315E+03   -0.36176E-01   -0.43054E+00  8160   0.436E+00    0.379E-01
DAV:   2    -0.191841653038E+03   -0.65027E-02   -0.80315E-02 12160   0.910E-01    0.475E-01
DAV:   3    -0.191841592543E+03    0.60495E-04   -0.14793E-02 12640   0.870E-01    0.521E-01
DAV:   4    -0.191839735858E+03    0.18567E-02   -0.76351E-03 11720   0.606E-01    0.322E-01
DAV:   5    -0.191838967376E+03    0.76848E-03   -0.34123E-03 10400   0.445E-01    0.220E-01
DAV:   6    -0.191838685398E+03    0.28198E-03   -0.19479E-03 11440   0.287E-01    0.118E-01
DAV:   7    -0.191838685329E+03    0.69036E-07   -0.97854E-04 10040   0.206E-01
  43 F= -.19183869E+03 E0= -.19175126E+03  d E =-.397076E-01
       N       E                     dE             d eps       ncg     rms          rms(c)
DAV:   1    -0.191870447379E+03   -0.31762E-01   -0.31264E+00  8160   0.376E+00    0.416E-01
DAV:   2    -0.191883706321E+03   -0.13259E-01   -0.86894E-02 13560   0.128E+00    0.105E+00
DAV:   3    -0.191874336273E+03    0.93700E-02   -0.31010E-02 12280   0.122E+00    0.402E-01
DAV:   4    -0.191873527862E+03    0.80841E-03   -0.54479E-03 11400   0.474E-01    0.333E-01
DAV:   5    -0.191872589258E+03    0.93860E-03   -0.35906E-03 11760   0.462E-01    0.202E-01
DAV:   6    -0.191872525636E+03    0.63623E-04   -0.19972E-03 10600   0.305E-01    0.183E-01
DAV:   7    -0.191872329833E+03    0.19580E-03   -0.12518E-03 10200   0.276E-01    0.122E-01
DAV:   8    -0.191872128658E+03    0.20118E-03   -0.31679E-04  8920   0.137E-01    0.207E-02
DAV:   9    -0.191872127012E+03    0.16465E-05   -0.44473E-05  6800   0.255E-02
  44 F= -.19187213E+03 E0= -.19178479E+03  d E =-.334417E-01
       N       E                     dE             d eps       ncg     rms          rms(c)
DAV:   1    -0.191979662667E+03   -0.10753E+00   -0.66451E+01  8160   0.174E+01    0.168E+00
DAV:   2    -0.192130509754E+03   -0.15085E+00   -0.17653E+00 11760   0.422E+00    0.254E+00
DAV:   3    -0.192118158468E+03    0.12351E-01   -0.39619E-01 12240   0.426E+00    0.214E+00
DAV:   4    -0.192063127956E+03    0.55031E-01   -0.82439E-02 12360   0.204E+00    0.768E-01
DAV:   5    -0.192068018700E+03   -0.48907E-02   -0.44156E-02 12720   0.163E+00    0.118E+00
DAV:   6    -0.192058874043E+03    0.91447E-02   -0.39562E-02 12680   0.159E+00    0.620E-01
DAV:   7    -0.192054134623E+03    0.47394E-02   -0.11734E-02 11640   0.772E-01    0.315E-01
DAV:   8    -0.192052961734E+03    0.11729E-02   -0.33124E-03 13080   0.446E-01    0.120E-01
DAV:   9    -0.192052812338E+03    0.14940E-03   -0.72762E-04 10480   0.144E-01    0.628E-02
DAV:  10    -0.192052720171E+03    0.92167E-04   -0.35576E-04 10200   0.667E-02
  45 F= -.19205272E+03 E0= -.19197098E+03  d E =-.180593E+00
       N       E                     dE             d eps       ncg     rms          rms(c)
DAV:   1    -0.192065942233E+03   -0.13130E-01   -0.91281E-01  8160   0.210E+00    0.361E-01
DAV:   2    -0.192069121505E+03   -0.31793E-02   -0.52263E-02 11120   0.970E-01    0.540E-01
DAV:   3    -0.192066791744E+03    0.23298E-02   -0.11277E-02 11520   0.856E-01    0.321E-01
DAV:   4    -0.192065763300E+03    0.10284E-02   -0.38000E-03 12080   0.479E-01    0.273E-01
DAV:   5    -0.192065569192E+03    0.19411E-03   -0.30610E-03 12480   0.451E-01    0.252E-01
DAV:   6    -0.192064824863E+03    0.74433E-03   -0.16980E-03 11560   0.292E-01    0.862E-02
DAV:   7    -0.192064899512E+03   -0.74650E-04   -0.61176E-04  9240   0.181E-01
  46 F= -.19206490E+03 E0= -.19198132E+03  d E =-.121793E-01
       N       E                     dE             d eps       ncg     rms          rms(c)
DAV:   1    -0.192084435102E+03   -0.19610E-01   -0.20530E+01  8160   0.962E+00    0.922E-01
DAV:   2    -0.192130293984E+03   -0.45859E-01   -0.59344E-01 12200   0.220E+00    0.104E+00
DAV:   3    -0.192138539641E+03   -0.82457E-02   -0.10362E-01 12240   0.224E+00    0.139E+00
DAV:   4    -0.192117151594E+03    0.21388E-01   -0.36245E-02 12200   0.141E+00    0.407E-01
DAV:   5    -0.192117676784E+03   -0.52519E-03   -0.12686E-02 11960   0.834E-01    0.515E-01
DAV:   6    -0.192116492802E+03    0.11840E-02   -0.99621E-03 12720   0.806E-01    0.382E-01
DAV:   7    -0.192115023452E+03    0.14694E-02   -0.38454E-03 11120   0.493E-01    0.219E-01
DAV:   8    -0.192114480203E+03    0.54325E-03   -0.11271E-03 10240   0.264E-01    0.587E-02
DAV:   9    -0.192114447261E+03    0.32942E-04   -0.21831E-04  7080   0.667E-02
  47 F= -.19211445E+03 E0= -.19203015E+03  d E =-.495477E-01
       N       E                     dE             d eps       ncg     rms          rms(c)
DAV:   1    -0.192115122783E+03   -0.64258E-03   -0.14260E+00  8160   0.253E+00    0.240E-01
DAV:   2    -0.192117573818E+03   -0.24510E-02   -0.30283E-02 11240   0.666E-01    0.353E-01
DAV:   3    -0.192116847828E+03    0.72599E-03   -0.65602E-03 12480   0.590E-01    0.273E-01
DAV:   4    -0.192116417319E+03    0.43051E-03   -0.25383E-03 10680   0.361E-01    0.212E-01
DAV:   5    -0.192116040074E+03    0.37724E-03   -0.13242E-03 10240   0.297E-01    0.118E-01
DAV:   6    -0.192115908492E+03    0.13158E-03   -0.49217E-04  9600   0.139E-01    0.439E-02
DAV:   7    -0.192115873770E+03    0.34722E-04   -0.11292E-04  7480   0.554E-02
  48 F= -.19211587E+03 E0= -.19203114E+03  d E =-.142651E-02
       N       E                     dE             d eps       ncg     rms          rms(c)
DAV:   1    -0.192124229059E+03   -0.83206E-02   -0.65321E-01  8160   0.172E+00    0.179E-01
DAV:   2    -0.192126025836E+03   -0.17968E-02   -0.22253E-02 11880   0.453E-01    0.215E-01
DAV:   3    -0.192126123835E+03   -0.97999E-04   -0.29707E-03 12560   0.430E-01    0.245E-01
DAV:   4    -0.192125442047E+03    0.68179E-03   -0.93632E-04 10240   0.256E-01    0.648E-02
DAV:   5    -0.192125453538E+03   -0.11491E-04   -0.33606E-04  8760   0.879E-02
  49 F= -.19212545E+03 E0= -.19203993E+03  d E =-.957977E-02
       N       E                     dE             d eps       ncg     rms          rms(c)
DAV:   1    -0.192130728284E+03   -0.52862E-02   -0.22567E-01  8160   0.102E+00    0.146E-01
DAV:   2    -0.192132579560E+03   -0.18513E-02   -0.10662E-02 11880   0.504E-01    0.381E-01
DAV:   3    -0.192131107853E+03    0.14717E-02   -0.33905E-03 11000   0.437E-01    0.119E-01
DAV:   4    -0.192131186595E+03   -0.78742E-04   -0.80655E-04  8840   0.215E-01
  50 F= -.19213119E+03 E0= -.19204518E+03  d E =-.573306E-02
       N       E                     dE             d eps       ncg     rms          rms(c)
DAV:   1    -0.192138147461E+03   -0.70396E-02   -0.49925E-01  8160   0.152E+00    0.175E-01
DAV:   2    -0.192139566071E+03   -0.14186E-02   -0.16817E-02 12320   0.422E-01    0.237E-01
DAV:   3    -0.192139547388E+03    0.18683E-04   -0.31520E-03 12040   0.411E-01    0.242E-01
DAV:   4    -0.192138981423E+03    0.56597E-03   -0.12140E-03  9960   0.245E-01    0.856E-02
DAV:   5    -0.192138998896E+03   -0.17473E-04   -0.48955E-04  9000   0.170E-01
  51 F= -.19213900E+03 E0= -.19205266E+03  d E =-.781230E-02
       N       E                     dE             d eps       ncg     rms          rms(c)
DAV:   1    -0.192149353832E+03   -0.10372E-01   -0.13034E+00  8160   0.245E+00    0.268E-01
DAV:   2    -0.192152794707E+03   -0.34409E-02   -0.44124E-02 12040   0.610E-01    0.284E-01
DAV:   3    -0.192153459567E+03   -0.66486E-03   -0.62476E-03 12240   0.622E-01    0.393E-01
DAV:   4    -0.192152049240E+03    0.14103E-02   -0.31443E-03 11280   0.430E-01    0.182E-01
DAV:   5    -0.192151828702E+03    0.22054E-03   -0.13001E-03  9960   0.277E-01    0.118E-01
DAV:   6    -0.192151777899E+03    0.50802E-04   -0.58994E-04 10360   0.147E-01
  52 F= -.19215178E+03 E0= -.19206492E+03  d E =-.127790E-01
       N       E                     dE             d eps       ncg     rms          rms(c)
DAV:   1    -0.192156160494E+03   -0.43318E-02   -0.16823E-01  8160   0.897E-01    0.119E-01
DAV:   2    -0.192157039096E+03   -0.87860E-03   -0.69721E-03 12160   0.340E-01    0.243E-01
DAV:   3    -0.192156510093E+03    0.52900E-03   -0.19444E-03 11440   0.332E-01    0.117E-01
DAV:   4    -0.192156397351E+03    0.11274E-03   -0.32627E-04  8720   0.121E-01    0.657E-02
DAV:   5    -0.192156400520E+03   -0.31683E-05   -0.22086E-04  8360   0.122E-01
  53 F= -.19215640E+03 E0= -.19206898E+03  d E =-.462262E-02
       N       E                     dE             d eps       ncg     rms          rms(c)
DAV:   1    -0.192160108422E+03   -0.37111E-02   -0.11448E-01  8160   0.740E-01    0.980E-02
DAV:   2    -0.192160312479E+03   -0.20406E-03   -0.39161E-03 11320   0.202E-01    0.947E-02
DAV:   3    -0.192160384054E+03   -0.71575E-04   -0.74697E-04 11120   0.204E-01
  54 F= -.19216038E+03 E0= -.19207223E+03  d E =-.398353E-02
       N       E                     dE             d eps       ncg     rms          rms(c)
DAV:   1    -0.192164540320E+03   -0.42278E-02   -0.15035E-01  8160   0.849E-01    0.114E-01
DAV:   2    -0.192164900431E+03   -0.36011E-03   -0.48059E-03 12200   0.238E-01    0.145E-01
DAV:   3    -0.192164839094E+03    0.61336E-04   -0.11504E-03 10920   0.259E-01    0.141E-01
DAV:   4    -0.192164690235E+03    0.14886E-03   -0.44902E-04  8240   0.167E-01    0.753E-02
DAV:   5    -0.192164663637E+03    0.26597E-04   -0.29267E-04  8720   0.125E-01
  55 F= -.19216466E+03 E0= -.19207676E+03  d E =-.427958E-02
       N       E                     dE             d eps       ncg     rms          rms(c)
DAV:   1    -0.192171795971E+03   -0.71057E-02   -0.44445E-01  8160   0.144E+00    0.171E-01
DAV:   2    -0.192173170699E+03   -0.13747E-02   -0.14956E-02 11280   0.409E-01    0.260E-01
DAV:   3    -0.192172908447E+03    0.26225E-03   -0.31705E-03 12200   0.419E-01    0.222E-01
DAV:   4    -0.192172481597E+03    0.42685E-03   -0.99279E-04  9720   0.223E-01    0.915E-02
DAV:   5    -0.192172440922E+03    0.40675E-04   -0.41546E-04  9400   0.169E-01
  56 F= -.19217244E+03 E0= -.19208423E+03  d E =-.777728E-02
       N       E                     dE             d eps       ncg     rms          rms(c)
DAV:   1    -0.192174345393E+03   -0.18638E-02   -0.26964E-02  8160   0.375E-01    0.710E-02
DAV:   2    -0.192174716874E+03   -0.37148E-03   -0.16803E-03 12160   0.225E-01    0.161E-01
DAV:   3    -0.192174342768E+03    0.37411E-03   -0.64374E-04  9240   0.211E-01    0.497E-02
DAV:   4    -0.192174338532E+03    0.42359E-05   -0.11089E-04  6000   0.753E-02
  57 F= -.19217434E+03 E0= -.19208621E+03  d E =-.189761E-02
       N       E                     dE             d eps       ncg     rms          rms(c)
DAV:   1    -0.192183999899E+03   -0.96571E-02   -0.79227E-01  8160   0.192E+00    0.228E-01
DAV:   2    -0.192186365701E+03   -0.23658E-02   -0.24512E-02 11240   0.562E-01    0.371E-01
DAV:   3    -0.192185598214E+03    0.76749E-03   -0.55202E-03 12400   0.552E-01    0.268E-01
DAV:   4    -0.192184883835E+03    0.71438E-03   -0.15534E-03 10320   0.263E-01    0.101E-01
DAV:   5    -0.192185074530E+03   -0.19070E-03   -0.77023E-04 10680   0.236E-01    0.170E-01
DAV:   6    -0.192184829655E+03    0.24488E-03   -0.65384E-04  8920   0.207E-01    0.630E-02
DAV:   7    -0.192184760460E+03    0.69194E-04   -0.14721E-04  6440   0.675E-02
  58 F= -.19218476E+03 E0= -.19209622E+03  d E =-.104219E-01
       N       E                     dE             d eps       ncg     rms          rms(c)
DAV:   1    -0.192194822877E+03   -0.99932E-02   -0.88632E-01  8160   0.202E+00    0.235E-01
DAV:   2    -0.192197135027E+03   -0.23122E-02   -0.28301E-02 10880   0.553E-01    0.317E-01
DAV:   3    -0.192197116869E+03    0.18158E-04   -0.55755E-03 12360   0.558E-01    0.326E-01
DAV:   4    -0.192196025099E+03    0.10918E-02   -0.19525E-03 10240   0.318E-01    0.101E-01
DAV:   5    -0.192196231365E+03   -0.20627E-03   -0.77864E-04 10280   0.233E-01    0.170E-01
DAV:   6    -0.192195990314E+03    0.24105E-03   -0.65132E-04  9160   0.208E-01    0.684E-02
DAV:   7    -0.192195921603E+03    0.68711E-04   -0.14327E-04  6920   0.880E-02
  59 F= -.19219592E+03 E0= -.19210719E+03  d E =-.111611E-01
       N       E                     dE             d eps       ncg     rms          rms(c)
DAV:   1    -0.192212066647E+03   -0.16076E-01   -0.31855E+00  8160   0.384E+00    0.440E-01
DAV:   2    -0.192219421190E+03   -0.73545E-02   -0.98807E-02 10880   0.973E-01    0.518E-01
DAV:   3    -0.192220773434E+03   -0.13522E-02   -0.17468E-02 11800   0.102E+00    0.659E-01
DAV:   4    -0.192216378925E+03    0.43945E-02   -0.80671E-03 11880   0.662E-01    0.214E-01
DAV:   5    -0.192216765224E+03   -0.38630E-03   -0.30531E-03 11040   0.454E-01    0.284E-01
DAV:   6    -0.192216191003E+03    0.57422E-03   -0.22155E-03 10240   0.362E-01    0.156E-01
DAV:   7    -0.192215913887E+03    0.27712E-03   -0.80020E-04 10680   0.226E-01    0.813E-02
DAV:   8    -0.192215835827E+03    0.78060E-04   -0.16623E-04  7840   0.950E-02
  60 F= -.19221584E+03 E0= -.19212700E+03  d E =-.199142E-01
       N       E                     dE             d eps       ncg     rms          rms(c)
DAV:   1    -0.192207350367E+03    0.85635E-02   -0.10249E+00  8160   0.221E+00    0.298E-01
DAV:   2    -0.192210034379E+03   -0.26840E-02   -0.36858E-02 12160   0.671E-01    0.436E-01
DAV:   3    -0.192209581527E+03    0.45285E-03   -0.94906E-03 11880   0.744E-01    0.412E-01
DAV:   4    -0.192207791105E+03    0.17904E-02   -0.31800E-03 11360   0.393E-01    0.140E-01
DAV:   5    -0.192207815381E+03   -0.24276E-04   -0.15572E-03 10280   0.313E-01    0.162E-01
DAV:   6    -0.192207529525E+03    0.28586E-03   -0.93330E-04 11000   0.229E-01    0.650E-02
DAV:   7    -0.192207490693E+03    0.38831E-04   -0.20808E-04  7600   0.916E-02
  61 F= -.19220749E+03 E0= -.19211926E+03  d E =0.834513E-02
       N       E                     dE             d eps       ncg     rms          rms(c)
DAV:   1    -0.192218614957E+03   -0.11085E-01   -0.21795E+01  8160   0.102E+01    0.112E+00
DAV:   2    -0.192265140077E+03   -0.46525E-01   -0.69703E-01 10880   0.234E+00    0.104E+00
DAV:   3    -0.192286999978E+03   -0.21860E-01   -0.10559E-01 12080   0.252E+00    0.187E+00
DAV:   4    -0.192250311920E+03    0.36688E-01   -0.61929E-02 11560   0.191E+00    0.485E-01
DAV:   5    -0.192256747791E+03   -0.64359E-02   -0.22896E-02 11080   0.120E+00    0.892E-01
DAV:   6    -0.192248419884E+03    0.83279E-02   -0.14791E-02 10640   0.981E-01    0.268E-01
DAV:   7    -0.192247383951E+03    0.10359E-02   -0.27645E-03 11680   0.370E-01    0.137E-01
DAV:   8    -0.192247235962E+03    0.14799E-03   -0.83526E-04 11680   0.216E-01    0.815E-02
DAV:   9    -0.192247129868E+03    0.10609E-03   -0.26731E-04  7920   0.888E-02    0.286E-02
DAV:  10    -0.192247115853E+03    0.14015E-04   -0.10938E-04  6680   0.342E-02
  62 F= -.19224712E+03 E0= -.19215914E+03  d E =-.396252E-01
       N       E                     dE             d eps       ncg     rms          rms(c)
DAV:   1    -0.192248202921E+03   -0.10731E-02   -0.97874E-02  8160   0.660E-01    0.806E-02
DAV:   2    -0.192248815133E+03   -0.61221E-03   -0.51053E-03 11360   0.290E-01    0.164E-01
DAV:   3    -0.192248560550E+03    0.25458E-03   -0.81805E-04 11240   0.225E-01    0.824E-02
DAV:   4    -0.192248514505E+03    0.46044E-04   -0.19129E-04  7480   0.106E-01
  63 F= -.19224851E+03 E0= -.19216057E+03  d E =-.139865E-02
       N       E                     dE             d eps       ncg     rms          rms(c)
DAV:   1    -0.192249953489E+03   -0.13929E-02   -0.12203E-01  8160   0.742E-01    0.919E-02
DAV:   2    -0.192250590569E+03   -0.63708E-03   -0.53669E-03 11120   0.280E-01    0.171E-01
DAV:   3    -0.192250303460E+03    0.28711E-03   -0.91870E-04 11440   0.248E-01    0.845E-02
DAV:   4    -0.192250264828E+03    0.38632E-04   -0.18931E-04  7480   0.111E-01
  64 F= -.19225026E+03 E0= -.19216243E+03  d E =-.175032E-02
       N       E                     dE             d eps       ncg     rms          rms(c)
DAV:   1    -0.192251454779E+03   -0.11513E-02   -0.93128E-02  8160   0.651E-01    0.954E-02
DAV:   2    -0.192251928038E+03   -0.47326E-03   -0.43773E-03 11040   0.253E-01    0.167E-01
DAV:   3    -0.192251677785E+03    0.25025E-03   -0.96943E-04 11000   0.252E-01    0.952E-02
DAV:   4    -0.192251608487E+03    0.69298E-04   -0.19238E-04  8080   0.116E-01
  65 F= -.19225161E+03 E0= -.19216379E+03  d E =-.134366E-02
       N       E                     dE             d eps       ncg     rms          rms(c)
DAV:   1    -0.192253304285E+03   -0.16265E-02   -0.36314E-01  8160   0.128E+00    0.170E-01
DAV:   2    -0.192255359690E+03   -0.20554E-02   -0.15288E-02 11120   0.527E-01    0.340E-01
DAV:   3    -0.192254101690E+03    0.12580E-02   -0.31421E-03 12360   0.467E-01    0.139E-01
DAV:   4    -0.192254093591E+03    0.80992E-05   -0.69168E-04  9840   0.214E-01
  66 F= -.19225409E+03 E0= -.19216653E+03  d E =-.248510E-02
       N       E                     dE             d eps       ncg     rms          rms(c)
DAV:   1    -0.192254119254E+03   -0.17564E-04   -0.85006E-03  9800   0.262E-01    0.686E-02
DAV:   2    -0.192254572303E+03   -0.45305E-03   -0.11640E-03 10520   0.274E-01    0.201E-01
DAV:   3    -0.192254073549E+03    0.49875E-03   -0.65745E-04  9720   0.235E-01    0.451E-02
DAV:   4    -0.192254101366E+03   -0.27817E-04   -0.10874E-04  7320   0.892E-02
  67 F= -.19225410E+03 E0= -.19216645E+03  d E =-.777551E-05
