<?xml version="1.0" encoding="ISO-8859-1"?>
<modeling>
 <generator>
  <i name="program" type="string">vasp </i>
  <i name="version" type="string">5.4.1  </i>
  <i name="subversion" type="string">05Feb16 (build Jul 05 2020 17:13:04) complex                          parallel </i>
  <i name="platform" type="string">IFC91_ompi </i>
  <i name="date" type="string">2024 04 21 </i>
  <i name="time" type="string">08:57:24 </i>
 </generator>
 <incar>
  <i type="int" name="ISTART">     0</i>
  <i type="string" name="PREC">normal</i>
  <i type="string" name="ALGO"> Normal</i>
  <i type="int" name="ISPIN">     1</i>
  <i type="int" name="ICHARG">     2</i>
  <i type="int" name="IBRION">     1</i>
  <i type="int" name="NSW">   100</i>
  <i type="int" name="ISIF">     3</i>
  <i type="int" name="ISYM">     0</i>
  <i name="SYMPREC">      0.00000001</i>
  <i name="POTIM">      0.50000000</i>
  <i type="logical" name="LREAL"> F  </i>
  <i type="logical" name="LPLANE"> F  </i>
  <i type="int" name="ISMEAR">     0</i>
  <i type="logical" name="LWAVE"> F  </i>
  <i type="logical" name="LCHARG"> F  </i>
  <v type="int" name="KPOINT_BSE">    -1     0     0     0</v>
 </incar>
 <kpoints>
  <generation param="Gamma">
   <v type="int" name="divisions">       8        8        1 </v>
   <v name="usershift">      0.00000000       0.00000000       0.00000000 </v>
   <v name="genvec1">      0.12500000       0.00000000       0.00000000 </v>
   <v name="genvec2">     -0.00000000       0.12500000       0.00000000 </v>
   <v name="genvec3">      0.00000000       0.00000000       1.00000000 </v>
   <v name="shift">      0.00000000       0.00000000       0.00000000 </v>
  </generation>
  <varray name="kpointlist" >
   <v>       0.00000000       0.00000000       0.00000000 </v>
   <v>       0.12500000       0.00000000       0.00000000 </v>
   <v>       0.25000000       0.00000000       0.00000000 </v>
   <v>       0.37500000       0.00000000       0.00000000 </v>
   <v>       0.50000000       0.00000000       0.00000000 </v>
   <v>       0.00000000       0.12500000       0.00000000 </v>
   <v>       0.12500000       0.12500000       0.00000000 </v>
   <v>       0.25000000       0.12500000       0.00000000 </v>
   <v>       0.37500000       0.12500000       0.00000000 </v>
   <v>       0.50000000       0.12500000       0.00000000 </v>
   <v>      -0.37500000       0.12500000       0.00000000 </v>
   <v>      -0.25000000       0.12500000       0.00000000 </v>
   <v>      -0.12500000       0.12500000       0.00000000 </v>
   <v>       0.00000000       0.25000000       0.00000000 </v>
   <v>       0.12500000       0.25000000       0.00000000 </v>
   <v>       0.25000000       0.25000000       0.00000000 </v>
   <v>       0.37500000       0.25000000       0.00000000 </v>
   <v>       0.50000000       0.25000000       0.00000000 </v>
   <v>      -0.37500000       0.25000000       0.00000000 </v>
   <v>      -0.25000000       0.25000000       0.00000000 </v>
   <v>      -0.12500000       0.25000000       0.00000000 </v>
   <v>      -0.00000000       0.37500000       0.00000000 </v>
   <v>       0.12500000       0.37500000       0.00000000 </v>
   <v>       0.25000000       0.37500000       0.00000000 </v>
   <v>       0.37500000       0.37500000       0.00000000 </v>
   <v>       0.50000000       0.37500000       0.00000000 </v>
   <v>      -0.37500000       0.37500000       0.00000000 </v>
   <v>      -0.25000000       0.37500000       0.00000000 </v>
   <v>      -0.12500000       0.37500000       0.00000000 </v>
   <v>       0.00000000       0.50000000       0.00000000 </v>
   <v>       0.12500000       0.50000000       0.00000000 </v>
   <v>       0.25000000       0.50000000       0.00000000 </v>
   <v>       0.37500000       0.50000000       0.00000000 </v>
   <v>       0.50000000       0.50000000       0.00000000 </v>
  </varray>
  <varray name="weights" >
   <v>       0.01562500 </v>
   <v>       0.03125000 </v>
   <v>       0.03125000 </v>
   <v>       0.03125000 </v>
   <v>       0.01562500 </v>
   <v>       0.03125000 </v>
   <v>       0.03125000 </v>
   <v>       0.03125000 </v>
   <v>       0.03125000 </v>
   <v>       0.03125000 </v>
   <v>       0.03125000 </v>
   <v>       0.03125000 </v>
   <v>       0.03125000 </v>
   <v>       0.03125000 </v>
   <v>       0.03125000 </v>
   <v>       0.03125000 </v>
   <v>       0.03125000 </v>
   <v>       0.03125000 </v>
   <v>       0.03125000 </v>
   <v>       0.03125000 </v>
   <v>       0.03125000 </v>
   <v>       0.03125000 </v>
   <v>       0.03125000 </v>
   <v>       0.03125000 </v>
   <v>       0.03125000 </v>
   <v>       0.03125000 </v>
   <v>       0.03125000 </v>
   <v>       0.03125000 </v>
   <v>       0.03125000 </v>
   <v>       0.01562500 </v>
   <v>       0.03125000 </v>
   <v>       0.03125000 </v>
   <v>       0.03125000 </v>
   <v>       0.01562500 </v>
  </varray>
 </kpoints>
 <parameters>
  <separator name="general" >
   <i type="string" name="SYSTEM">unknown system</i>
   <i type="logical" name="LCOMPAT"> F  </i>
  </separator>
  <separator name="electronic" >
   <i type="string" name="PREC">normal</i>
   <i name="ENMAX">    280.00000000</i>
   <i name="ENAUG">    373.43800000</i>
   <i name="EDIFF">      0.00010000</i>
   <i type="int" name="IALGO">    38</i>
   <i type="int" name="IWAVPR">    11</i>
   <i type="int" name="NBANDS">   120</i>
   <i name="NELECT">    159.00000000</i>
   <i type="int" name="TURBO">     0</i>
   <i type="int" name="IRESTART">     0</i>
   <i type="int" name="NREBOOT">     0</i>
   <i type="int" name="NMIN">     0</i>
   <i name="EREF">      0.00000000</i>
   <separator name="electronic smearing" >
    <i type="int" name="ISMEAR">     0</i>
    <i name="SIGMA">      0.20000000</i>
    <i name="KSPACING">      0.50000000</i>
    <i type="logical" name="KGAMMA"> T  </i>
   </separator>
   <separator name="electronic projectors" >
    <i type="logical" name="LREAL"> F  </i>
    <v name="ROPT">      0.00000000      0.00000000      0.00000000      0.00000000</v>
    <i type="int" name="LMAXPAW">  -100</i>
    <i type="int" name="LMAXMIX">     2</i>
    <i type="logical" name="NLSPLINE"> F  </i>
   </separator>
   <separator name="electronic startup" >
    <i type="int" name="ISTART">     0</i>
    <i type="int" name="ICHARG">     2</i>
    <i type="int" name="INIWAV">     1</i>
   </separator>
   <separator name="electronic spin" >
    <i type="int" name="ISPIN">     1</i>
    <i type="logical" name="LNONCOLLINEAR"> F  </i>
    <v name="MAGMOM">      1.00000000      1.00000000      1.00000000      1.00000000      1.00000000      1.00000000      1.00000000      1.00000000      1.00000000      1.00000000      1.00000000      1.00000000      1.00000000      1.00000000      1.00000000      1.00000000      1.00000000      1.00000000      1.00000000      1.00000000
      1.00000000      1.00000000      1.00000000      1.00000000      1.00000000      1.00000000      1.00000000</v>
    <i name="NUPDOWN">     -1.00000000</i>
    <i type="logical" name="LSORBIT"> F  </i>
    <v name="SAXIS">      0.00000000      0.00000000      1.00000000</v>
    <i type="logical" name="LSPIRAL"> F  </i>
    <v name="QSPIRAL">      0.00000000      0.00000000      0.00000000</v>
    <i type="logical" name="LZEROZ"> F  </i>
   </separator>
   <separator name="electronic exchange-correlation" >
    <i type="logical" name="LASPH"> F  </i>
    <i type="logical" name="LMETAGGA"> F  </i>
   </separator>
   <separator name="electronic convergence" >
    <i type="int" name="NELM">    60</i>
    <i type="int" name="NELMDL">    -5</i>
    <i type="int" name="NELMIN">     2</i>
    <i name="ENINI">    280.00000000</i>
    <separator name="electronic convergence detail" >
     <i type="logical" name="LDIAG"> T  </i>
     <i type="logical" name="LSUBROT"> F  </i>
     <i name="WEIMIN">      0.00100000</i>
     <i name="EBREAK">      0.00000021</i>
     <i name="DEPER">      0.30000000</i>
     <i type="int" name="NRMM">     4</i>
     <i name="TIME">      0.40000000</i>
    </separator>
   </separator>
   <separator name="electronic mixer" >
    <i name="AMIX">      0.40000000</i>
    <i name="BMIX">      1.00000000</i>
    <i name="AMIN">      0.10000000</i>
    <i name="AMIX_MAG">      1.60000000</i>
    <i name="BMIX_MAG">      1.00000000</i>
    <separator name="electronic mixer details" >
     <i type="int" name="IMIX">     4</i>
     <i type="logical" name="MIXFIRST"> F  </i>
     <i type="int" name="MAXMIX">   -45</i>
     <i name="WC">    100.00000000</i>
     <i type="int" name="INIMIX">     1</i>
     <i type="int" name="MIXPRE">     1</i>
     <i type="int" name="MREMOVE">     5</i>
    </separator>
   </separator>
   <separator name="electronic dipolcorrection" >
    <i type="logical" name="LDIPOL"> F  </i>
    <i type="logical" name="LMONO"> F  </i>
    <i type="int" name="IDIPOL">     0</i>
    <i name="EPSILON">      1.00000000</i>
    <v name="DIPOL">   -100.00000000   -100.00000000   -100.00000000</v>
    <i name="EFIELD">      0.00000000</i>
   </separator>
  </separator>
  <separator name="grids" >
   <i type="int" name="NGX">    42</i>
   <i type="int" name="NGY">    42</i>
   <i type="int" name="NGZ">   126</i>
   <i type="int" name="NGXF">    84</i>
   <i type="int" name="NGYF">    84</i>
   <i type="int" name="NGZF">   252</i>
   <i type="logical" name="ADDGRID"> F  </i>
  </separator>
  <separator name="ionic" >
   <i type="int" name="NSW">   100</i>
   <i type="int" name="IBRION">     1</i>
   <i type="int" name="ISIF">     3</i>
   <i name="PSTRESS">      0.00000000</i>
   <i name="EDIFFG">      0.00100000</i>
   <i type="int" name="NFREE">     0</i>
   <i name="POTIM">      0.50000000</i>
   <i name="SMASS">     -3.00000000</i>
   <i name="SCALEE">      1.00000000</i>
  </separator>
  <separator name="ionic md" >
   <i name="TEBEG">      0.00010000</i>
   <i name="TEEND">      0.00010000</i>
   <i type="int" name="NBLOCK">     1</i>
   <i type="int" name="KBLOCK">   100</i>
   <i type="int" name="NPACO">   256</i>
   <i name="APACO">     16.00000000</i>
  </separator>
  <separator name="symmetry" >
   <i type="int" name="ISYM">     0</i>
   <i name="SYMPREC">      0.00000001</i>
  </separator>
  <separator name="dos" >
   <i type="logical" name="LORBIT"> F  </i>
   <v name="RWIGS">     -1.00000000     -1.00000000     -1.00000000     -1.00000000</v>
   <i type="int" name="NEDOS">   301</i>
   <i name="EMIN">     10.00000000</i>
   <i name="EMAX">    -10.00000000</i>
   <i name="EFERMI">      0.00000000</i>
  </separator>
  <separator name="writing" >
   <i type="int" name="NWRITE">     2</i>
   <i type="logical" name="LWAVE"> F  </i>
   <i type="logical" name="LCHARG"> F  </i>
   <i type="logical" name="LPARD"> F  </i>
   <i type="logical" name="LVTOT"> F  </i>
   <i type="logical" name="LVHAR"> F  </i>
   <i type="logical" name="LELF"> F  </i>
   <i type="logical" name="LOPTICS"> F  </i>
   <v name="STM">      0.00000000      0.00000000      0.00000000      0.00000000      0.00000000      0.00000000      0.00000000</v>
  </separator>
  <separator name="performance" >
   <i type="int" name="NPAR">    40</i>
   <i type="int" name="NSIM">     4</i>
   <i type="int" name="NBLK">    -1</i>
   <i type="logical" name="LPLANE"> F  </i>
   <i type="logical" name="LSCALAPACK"> T  </i>
   <i type="logical" name="LSCAAWARE"> F  </i>
   <i type="logical" name="LSCALU"> F  </i>
   <i type="logical" name="LASYNC"> F  </i>
   <i type="logical" name="LORBITALREAL"> F  </i>
  </separator>
  <separator name="miscellaneous" >
   <i type="int" name="IDIOT">     3</i>
   <i type="logical" name="LMUSIC"> F  </i>
   <v name="POMASS">     50.94100000     95.94000000    183.85000000     32.06600000</v>
   <v name="DARWINR">      0.00000000      0.00000000      0.00000000      0.00000000</v>
   <v name="DARWINV">      1.00000000      1.00000000      1.00000000      1.00000000</v>
   <i type="logical" name="LCORR"> T  </i>
  </separator>
  <i type="logical" name="GGA_COMPAT"> T  </i>
  <i type="logical" name="LBERRY"> F  </i>
  <i type="int" name="ICORELEVEL">     0</i>
  <i type="logical" name="LDAU"> F  </i>
  <i type="int" name="I_CONSTRAINED_M">     0</i>
  <separator name="electronic exchange-correlation" >
   <i type="string" name="GGA">--</i>
   <i type="int" name="VOSKOWN">     0</i>
   <i type="logical" name="LHFCALC"> F  </i>
   <i type="string" name="PRECFOCK"></i>
   <i type="logical" name="LSYMGRAD"> F  </i>
   <i type="logical" name="LHFONE"> F  </i>
   <i type="logical" name="LRHFCALC"> F  </i>
   <i type="logical" name="LTHOMAS"> F  </i>
   <i type="logical" name="LMODELHF"> F  </i>
   <i name="ENCUT4O">     -1.00000000</i>
   <i type="int" name="EXXOEP">     0</i>
   <i type="int" name="FOURORBIT">     0</i>
   <i name="AEXX">      0.00000000</i>
   <i name="HFALPHA">      0.00000000</i>
   <i name="MCALPHA">      0.00000000</i>
   <i name="ALDAX">      1.00000000</i>
   <i name="AGGAX">      1.00000000</i>
   <i name="ALDAC">      1.00000000</i>
   <i name="AGGAC">      1.00000000</i>
   <i type="int" name="NKREDX">     1</i>
   <i type="int" name="NKREDY">     1</i>
   <i type="int" name="NKREDZ">     1</i>
   <i type="logical" name="SHIFTRED"> F  </i>
   <i type="logical" name="ODDONLY"> F  </i>
   <i type="logical" name="EVENONLY"> F  </i>
   <i type="int" name="LMAXFOCK">     0</i>
   <i type="int" name="NMAXFOCKAE">     0</i>
   <i type="logical" name="LFOCKAEDFT"> F  </i>
   <i name="HFSCREEN">      0.00000000</i>
   <i name="HFSCREENC">      0.00000000</i>
   <i type="int" name="NBANDSGWLOW">     0</i>
  </separator>
  <separator name="vdW DFT" >
   <i type="logical" name="LUSE_VDW"> F  </i>
   <i name="Zab_VDW">     -0.84910000</i>
   <i name="PARAM1">      0.12340000</i>
   <i name="PARAM2">      1.00000000</i>
   <i name="PARAM3">      0.00000000</i>
  </separator>
  <separator name="model GW" >
   <i type="int" name="MODEL_GW">     0</i>
   <i name="MODEL_EPS0">     58.26239943</i>
   <i name="MODEL_ALPHA">      1.00000000</i>
  </separator>
  <separator name="linear response parameters" >
   <i type="logical" name="LEPSILON"> F  </i>
   <i type="logical" name="LRPA"> F  </i>
   <i type="logical" name="LNABLA"> F  </i>
   <i type="logical" name="LVEL"> F  </i>
   <i type="int" name="KINTER">     0</i>
   <i name="CSHIFT">      0.10000000</i>
   <i name="OMEGAMAX">     -1.00000000</i>
   <i name="DEG_THRESHOLD">      0.00200000</i>
  </separator>
  <separator name="orbital magnetization" >
   <i type="logical" name="NUCIND"> F  </i>
   <v name="MAGPOS">      0.00000000      0.00000000      0.00000000</v>
   <i type="logical" name="LNICSALL"> T  </i>
   <i type="logical" name="ORBITALMAG"> F  </i>
   <i type="logical" name="LMAGBLOCH"> F  </i>
   <i type="logical" name="LCHIMAG"> F  </i>
   <i type="logical" name="LGAUGE"> T  </i>
   <i type="int" name="MAGATOM">     0</i>
   <v name="MAGDIPOL">      0.00000000      0.00000000      0.00000000</v>
   <v name="AVECCONST">      0.00000000      0.00000000      0.00000000</v>
  </separator>
  <separator name="response functions" >
   <i type="logical" name="LADDER"> F  </i>
   <i type="logical" name="LFXC"> F  </i>
   <i type="logical" name="LHARTREE"> T  </i>
   <i type="int" name="IBSE">     0</i>
   <v type="int" name="KPOINT">    -1     0     0     0</v>
   <i type="logical" name="LTCTE"> F  </i>
   <i type="logical" name="LTETE"> F  </i>
   <i type="logical" name="LTRIPLET"> F  </i>
   <i type="logical" name="LFXCEPS"> F  </i>
   <i type="logical" name="LFXHEG"> F  </i>
   <i type="int" name="NATURALO">     0</i>
   <i type="logical" name="L2ORDER"> F  </i>
   <i type="logical" name="LUSEW"> F  </i>
   <i name="ENCUTGW">     -2.00000000</i>
   <i name="ENCUTGWSOFT">     -2.00000000</i>
   <i name="ENCUTLF">     -1.00000000</i>
   <i type="int" name="LMAXMP2">    -1</i>
   <i name="SCISSOR">      0.00000000</i>
   <i type="int" name="NOMEGA">     0</i>
   <i type="int" name="NOMEGAR">     0</i>
   <i type="int" name="NBANDSGW">    -1</i>
   <i type="int" name="NBANDSO">    -1</i>
   <i type="int" name="NBANDSV">    -1</i>
   <i type="int" name="NELM">     1</i>
   <i type="int" name="NELMHF">     1</i>
   <i type="int" name="DIM">     3</i>
   <i type="int" name="ANTIRES">     0</i>
   <i name="OMEGAMAX">    -30.00000000</i>
   <i name="OMEGAMIN">    -30.00000000</i>
   <i name="OMEGATL">   -200.00000000</i>
   <i type="int" name="OMEGAGRID">     0</i>
   <i name="CSHIFT">     -0.10000000</i>
   <i type="logical" name="SELFENERGY"> F  </i>
   <i type="logical" name="LSPECTRAL"> F  </i>
   <i type="logical" name="LSPECTRALGW"> F  </i>
   <i type="logical" name="LSINGLES"> F  </i>
   <i type="logical" name="LFERMIGW"> F  </i>
   <i type="logical" name="ODDONLYGW"> F  </i>
   <i type="logical" name="EVENONLYGW"> F  </i>
   <i type="int" name="NKREDLFX">     1</i>
   <i type="int" name="NKREDLFY">     1</i>
   <i type="int" name="NKREDLFZ">     1</i>
   <i type="int" name="MAXMEM">  1800</i>
   <i type="int" name="TELESCOPE">     0</i>
   <i type="int" name="TAUPAR">     1</i>
   <i type="int" name="OMEGAPAR">    -1</i>
   <i name="LAMBDA">      1.00000000</i>
  </separator>
  <separator name="External order field" >
   <i name="OFIELD_KAPPA">      0.00000000</i>
   <v name="OFIELD_K">      0.00000000      0.00000000      0.00000000</v>
   <i name="OFIELD_Q6_NEAR">      0.00000000</i>
   <i name="OFIELD_Q6_FAR">      0.00000000</i>
   <i name="OFIELD_A">      0.00000000</i>
  </separator>
 </parameters>
 <atominfo>
  <atoms>      27 </atoms>
  <types>       4 </types>
  <array name="atoms" >
   <dimension dim="1">ion</dimension>
   <field type="string">element</field>
   <field type="int">atomtype</field>
   <set>
    <rc><c>V </c><c>   1</c></rc>
    <rc><c>V </c><c>   1</c></rc>
    <rc><c>V </c><c>   1</c></rc>
    <rc><c>Mo</c><c>   2</c></rc>
    <rc><c>Mo</c><c>   2</c></rc>
    <rc><c>Mo</c><c>   2</c></rc>
    <rc><c>W </c><c>   3</c></rc>
    <rc><c>W </c><c>   3</c></rc>
    <rc><c>W </c><c>   3</c></rc>
    <rc><c>S </c><c>   4</c></rc>
    <rc><c>S </c><c>   4</c></rc>
    <rc><c>S </c><c>   4</c></rc>
    <rc><c>S </c><c>   4</c></rc>
    <rc><c>S </c><c>   4</c></rc>
    <rc><c>S </c><c>   4</c></rc>
    <rc><c>S </c><c>   4</c></rc>
    <rc><c>S </c><c>   4</c></rc>
    <rc><c>S </c><c>   4</c></rc>
    <rc><c>S </c><c>   4</c></rc>
    <rc><c>S </c><c>   4</c></rc>
    <rc><c>S </c><c>   4</c></rc>
    <rc><c>S </c><c>   4</c></rc>
    <rc><c>S </c><c>   4</c></rc>
    <rc><c>S </c><c>   4</c></rc>
    <rc><c>S </c><c>   4</c></rc>
    <rc><c>S </c><c>   4</c></rc>
    <rc><c>S </c><c>   4</c></rc>
   </set>
  </array>
  <array name="atomtypes" >
   <dimension dim="1">type</dimension>
   <field type="int">atomspertype</field>
   <field type="string">element</field>
   <field>mass</field>
   <field>valence</field>
   <field type="string">pseudopotential</field>
   <set>
    <rc><c>   3</c><c>V </c><c>     50.94100000</c><c>      5.00000000</c><c> PAW_PBE V 08Apr2002                    </c></rc>
    <rc><c>   3</c><c>Mo</c><c>     95.94000000</c><c>      6.00000000</c><c> PAW_PBE Mo 08Apr2002                   </c></rc>
    <rc><c>   3</c><c>W </c><c>    183.85000000</c><c>      6.00000000</c><c> PAW_PBE W 08Apr2002                    </c></rc>
    <rc><c>  18</c><c>S </c><c>     32.06600000</c><c>      6.00000000</c><c>  PAW_PBE S 17Jan2003                   </c></rc>
   </set>
  </array>
 </atominfo>
 <structure name="initialpos" >
  <crystal>
   <varray name="basis" >
    <v>       8.66999996       5.03999989       0.00000000 </v>
    <v>      -8.66999982       5.04000013       0.00000000 </v>
    <v>       0.00000000       0.00000000      30.00000000 </v>
   </varray>
   <i name="volume">   2621.80797419 </i>
   <varray name="rec_basis" >
    <v>       0.05767013       0.09920635       0.00000000 </v>
    <v>      -0.05767013       0.09920635       0.00000000 </v>
    <v>       0.00000000       0.00000000       0.03333333 </v>
   </varray>
  </crystal>
  <varray name="positions" >
   <v>       0.66666669       0.66666669       0.00000000 </v>
   <v>       0.66666669       0.00000000       0.00000000 </v>
   <v>       0.33333334       0.66666669       0.00000000 </v>
   <v>       0.33333334       0.00000000       0.00000000 </v>
   <v>       0.00000000       0.66666669       0.00000000 </v>
   <v>       0.33333334       0.33333334       0.00000000 </v>
   <v>       0.00000000       0.00000000       0.00000000 </v>
   <v>       1.00000000       0.33333334       0.00000000 </v>
   <v>       0.66666669       0.33333334       0.00000000 </v>
   <v>       0.11068511       0.22244981       0.95539999 </v>
   <v>       0.22244981       0.11068511       0.04460000 </v>
   <v>       0.11068511       0.55578315       0.95539999 </v>
   <v>       0.22244981       0.44401845       0.04460000 </v>
   <v>       0.11068511       0.88911647       0.95539999 </v>
   <v>       0.22244981       0.77735180       0.04460000 </v>
   <v>       0.44401845       0.22244981       0.95539999 </v>
   <v>       0.55578315       0.11068511       0.04460000 </v>
   <v>       0.44401845       0.55578315       0.95539999 </v>
   <v>       0.55578315       0.44401845       0.04460000 </v>
   <v>       0.44401845       0.88911647       0.95539999 </v>
   <v>       0.55578315       0.77735180       0.04460000 </v>
   <v>       0.77735180       0.22244981       0.95539999 </v>
   <v>       0.88911647       0.11068511       0.04460000 </v>
   <v>       0.77735180       0.55578315       0.95539999 </v>
   <v>       0.88911647       0.44401845       0.04460000 </v>
   <v>       0.77735180       0.88911647       0.95539999 </v>
   <v>       0.88911647       0.77735180       0.04460000 </v>
  </varray>
 </structure>
 <calculation>
  <scstep>
   <time name="dav">   22.84   22.90</time>
   <time name="total">   22.89   22.95</time>
   <energy>
    <i name="alphaZ">     81.65567618 </i>
    <i name="ewald">  41891.17177386 </i>
    <i name="hartreedc"> -47723.81645847 </i>
    <i name="XCdc">   -242.92502648 </i>
    <i name="pawpsdc">   3467.42045192 </i>
    <i name="pawaedc">  -2871.19716117 </i>
    <i name="eentropy">     -0.52737600 </i>
    <i name="bandstr">   -239.11823925 </i>
    <i name="atom">   6761.44252427 </i>
    <i name="e_fr_energy">   1124.10616486 </i>
    <i name="e_wo_entrp">   1124.63354086 </i>
    <i name="e_0_energy">   1124.36985286 </i>
   </energy>
  </scstep>
  <scstep>
   <time name="dav">   29.19   29.26</time>
   <time name="total">   29.19   29.27</time>
   <energy>
    <i name="e_fr_energy">     -1.83100274 </i>
    <i name="e_wo_entrp">     -1.65732670 </i>
    <i name="e_0_energy">     -1.74416472 </i>
   </energy>
  </scstep>
  <scstep>
   <time name="dav">   28.88   28.95</time>
   <time name="total">   28.88   28.96</time>
   <energy>
    <i name="e_fr_energy">   -199.58247003 </i>
    <i name="e_wo_entrp">   -199.32345637 </i>
    <i name="e_0_energy">   -199.45296320 </i>
   </energy>
  </scstep>
  <scstep>
   <time name="dav">   31.00   31.07</time>
   <time name="total">   31.00   31.08</time>
   <energy>
    <i name="e_fr_energy">   -208.93743430 </i>
    <i name="e_wo_entrp">   -208.64413739 </i>
    <i name="e_0_energy">   -208.79078585 </i>
   </energy>
  </scstep>
  <scstep>
   <time name="dav">   30.03   30.10</time>
   <time name="total">   30.49   30.57</time>
   <energy>
    <i name="e_fr_energy">   -209.29864302 </i>
    <i name="e_wo_entrp">   -209.00899125 </i>
    <i name="e_0_energy">   -209.15381714 </i>
   </energy>
  </scstep>
  <scstep>
   <time name="dav">   32.20   32.27</time>
   <time name="total">   32.70   32.79</time>
   <energy>
    <i name="e_fr_energy">   -237.71608542 </i>
    <i name="e_wo_entrp">   -237.45533714 </i>
    <i name="e_0_energy">   -237.58571128 </i>
   </energy>
  </scstep>
  <scstep>
   <time name="dav">   34.59   34.67</time>
   <time name="total">   35.09   35.19</time>
   <energy>
    <i name="e_fr_energy">   -196.62511009 </i>
    <i name="e_wo_entrp">   -196.29974397 </i>
    <i name="e_0_energy">   -196.46242703 </i>
   </energy>
  </scstep>
  <scstep>
   <time name="dav">   31.15   31.23</time>
   <time name="total">   31.67   31.75</time>
   <energy>
    <i name="e_fr_energy">   -189.63588491 </i>
    <i name="e_wo_entrp">   -189.32929406 </i>
    <i name="e_0_energy">   -189.48258949 </i>
   </energy>
  </scstep>
  <scstep>
   <time name="dav">   33.51   33.59</time>
   <time name="total">   34.03   34.12</time>
   <energy>
    <i name="e_fr_energy">   -188.21698767 </i>
    <i name="e_wo_entrp">   -187.88749336 </i>
    <i name="e_0_energy">   -188.05224052 </i>
   </energy>
  </scstep>
  <scstep>
   <time name="dav">   34.54   34.62</time>
   <time name="total">   35.12   35.22</time>
   <energy>
    <i name="e_fr_energy">   -186.95208559 </i>
    <i name="e_wo_entrp">   -186.59928940 </i>
    <i name="e_0_energy">   -186.77568749 </i>
   </energy>
  </scstep>
  <scstep>
   <time name="dav">   34.68   34.76</time>
   <time name="total">   35.27   35.36</time>
   <energy>
    <i name="e_fr_energy">   -187.04279607 </i>
    <i name="e_wo_entrp">   -186.70297817 </i>
    <i name="e_0_energy">   -186.87288712 </i>
   </energy>
  </scstep>
  <scstep>
   <time name="dav">   33.08   33.16</time>
   <time name="total">   33.67   33.76</time>
   <energy>
    <i name="e_fr_energy">   -186.98533174 </i>
    <i name="e_wo_entrp">   -186.64707704 </i>
    <i name="e_0_energy">   -186.81620439 </i>
   </energy>
  </scstep>
  <scstep>
   <time name="dav">   34.03   34.11</time>
   <time name="total">   34.62   34.71</time>
   <energy>
    <i name="e_fr_energy">   -186.87776068 </i>
    <i name="e_wo_entrp">   -186.54177817 </i>
    <i name="e_0_energy">   -186.70976943 </i>
   </energy>
  </scstep>
  <scstep>
   <time name="dav">   33.16   33.24</time>
   <time name="total">   33.75   33.84</time>
   <energy>
    <i name="e_fr_energy">   -186.84375369 </i>
    <i name="e_wo_entrp">   -186.49861171 </i>
    <i name="e_0_energy">   -186.67118270 </i>
   </energy>
  </scstep>
  <scstep>
   <time name="dav">   33.43   33.51</time>
   <time name="total">   34.02   34.12</time>
   <energy>
    <i name="e_fr_energy">   -186.84019051 </i>
    <i name="e_wo_entrp">   -186.49507760 </i>
    <i name="e_0_energy">   -186.66763405 </i>
   </energy>
  </scstep>
  <scstep>
   <time name="dav">   34.17   34.26</time>
   <time name="total">   34.76   34.85</time>
   <energy>
    <i name="e_fr_energy">   -186.83900626 </i>
    <i name="e_wo_entrp">   -186.49441191 </i>
    <i name="e_0_energy">   -186.66670909 </i>
   </energy>
  </scstep>
  <scstep>
   <time name="dav">   32.84   32.92</time>
   <time name="total">   33.42   33.51</time>
   <energy>
    <i name="e_fr_energy">   -186.83642069 </i>
    <i name="e_wo_entrp">   -186.49327320 </i>
    <i name="e_0_energy">   -186.66484695 </i>
   </energy>
  </scstep>
  <scstep>
   <time name="dav">   31.79   31.86</time>
   <time name="total">   32.38   32.46</time>
   <energy>
    <i name="e_fr_energy">   -186.83612503 </i>
    <i name="e_wo_entrp">   -186.49245513 </i>
    <i name="e_0_energy">   -186.66429008 </i>
   </energy>
  </scstep>
  <scstep>
   <time name="dav">   26.94   27.01</time>
   <time name="total">   26.98   27.05</time>
   <energy>
    <i name="alphaZ">     81.65567618 </i>
    <i name="ewald">  41891.17177386 </i>
    <i name="hartreedc"> -47818.66536266 </i>
    <i name="XCdc">   -231.69426911 </i>
    <i name="pawpsdc">   4194.27722848 </i>
    <i name="pawaedc">  -3612.29588771 </i>
    <i name="eentropy">     -0.34369898 </i>
    <i name="bandstr">  -1452.38413102 </i>
    <i name="atom">   6761.44252427 </i>
    <i name="e_fr_energy">   -186.83614670 </i>
    <i name="e_wo_entrp">   -186.49244771 </i>
    <i name="e_0_energy">   -186.66429721 </i>
   </energy>
  </scstep>
  <structure>
   <crystal>
    <varray name="basis" >
     <v>       8.66999996       5.03999989       0.00000000 </v>
     <v>      -8.66999982       5.04000013       0.00000000 </v>
     <v>       0.00000000       0.00000000      30.00000000 </v>
    </varray>
    <i name="volume">   2621.80797419 </i>
    <varray name="rec_basis" >
     <v>       0.05767013       0.09920635       0.00000000 </v>
     <v>      -0.05767013       0.09920635       0.00000000 </v>
     <v>       0.00000000       0.00000000       0.03333333 </v>
    </varray>
   </crystal>
   <varray name="positions" >
    <v>       0.66666669       0.66666669       0.00000000 </v>
    <v>       0.66666669       0.00000000       0.00000000 </v>
    <v>       0.33333334       0.66666669       0.00000000 </v>
    <v>       0.33333334       0.00000000       0.00000000 </v>
    <v>       0.00000000       0.66666669       0.00000000 </v>
    <v>       0.33333334       0.33333334       0.00000000 </v>
    <v>       0.00000000       0.00000000       0.00000000 </v>
    <v>       1.00000000       0.33333334       0.00000000 </v>
    <v>       0.66666669       0.33333334       0.00000000 </v>
    <v>       0.11068511       0.22244981       0.95539999 </v>
    <v>       0.22244981       0.11068511       0.04460000 </v>
    <v>       0.11068511       0.55578315       0.95539999 </v>
    <v>       0.22244981       0.44401845       0.04460000 </v>
    <v>       0.11068511       0.88911647       0.95539999 </v>
    <v>       0.22244981       0.77735180       0.04460000 </v>
    <v>       0.44401845       0.22244981       0.95539999 </v>
    <v>       0.55578315       0.11068511       0.04460000 </v>
    <v>       0.44401845       0.55578315       0.95539999 </v>
    <v>       0.55578315       0.44401845       0.04460000 </v>
    <v>       0.44401845       0.88911647       0.95539999 </v>
    <v>       0.55578315       0.77735180       0.04460000 </v>
    <v>       0.77735180       0.22244981       0.95539999 </v>
    <v>       0.88911647       0.11068511       0.04460000 </v>
    <v>       0.77735180       0.55578315       0.95539999 </v>
    <v>       0.88911647       0.44401845       0.04460000 </v>
    <v>       0.77735180       0.88911647       0.95539999 </v>
    <v>       0.88911647       0.77735180       0.04460000 </v>
   </varray>
  </structure>
  <varray name="forces" >
   <v>       0.03173660      -0.12508463      -0.00598315 </v>
   <v>      -0.13572560      -0.25371099       0.01202668 </v>
   <v>      -0.12241338       0.03070608      -0.00771075 </v>
   <v>      -0.20314722      -0.15484653       0.09126719 </v>
   <v>       0.01101387       0.29403322      -0.05741665 </v>
   <v>       0.21671736      -0.11587662       0.03453393 </v>
   <v>       0.53041832       0.19266376       0.10608459 </v>
   <v>       0.00910244       0.35763059      -0.09611310 </v>
   <v>      -0.30356721      -0.17061173      -0.10774667 </v>
   <v>       0.01096244      -0.13994010      -2.87968276 </v>
   <v>      -0.20866849      -0.16047408       2.96681829 </v>
   <v>       0.60725362       0.52410881      -2.18834861 </v>
   <v>      -0.60014993       0.54597771       2.16072132 </v>
   <v>      -0.02681039      -0.02773189      -2.92891816 </v>
   <v>       0.74352026       0.02375904       2.10798837 </v>
   <v>       0.23457920       0.17881999      -2.87287998 </v>
   <v>       0.65808300       0.12680665       2.09819427 </v>
   <v>      -0.32509567       0.67490978      -1.38992527 </v>
   <v>      -0.38063167       0.68964320       2.18233842 </v>
   <v>       0.90945704      -0.00777406      -1.44241184 </v>
   <v>      -0.06828806       0.00051994       0.77634180 </v>
   <v>       0.45449727      -0.54935118      -2.16686904 </v>
   <v>      -0.45410166      -0.57346413       2.12335508 </v>
   <v>      -0.63782632      -0.15500023      -2.11561186 </v>
   <v>      -0.06128980      -0.13441382       2.84260895 </v>
   <v>      -0.24761393      -0.53575316      -1.37863092 </v>
   <v>      -0.64201209      -0.53554562       2.13596989 </v>
  </varray>
  <varray name="stress" >
   <v>       7.53834566       0.04574054      -1.62543924 </v>
   <v>       0.04574052       4.43915884       0.01695699 </v>
   <v>      -1.62543920       0.01695694      31.14374714 </v>
  </varray>
  <energy>
   <i name="e_fr_energy">   -186.83614670 </i>
   <i name="e_wo_entrp">   -186.66429721 </i>
   <i name="e_0_energy">     -0.34369898 </i>
  </energy>
  <time name="totalsc">  653.69  655.42</time>
 </calculation>
 <calculation>
  <scstep>
   <time name="dav">   22.82   22.88</time>
   <time name="total">   23.45   23.50</time>
   <energy>
    <i name="alphaZ">     78.87100113 </i>
    <i name="ewald">  39352.06648944 </i>
    <i name="hartreedc"> -45299.64107283 </i>
    <i name="XCdc">   -239.17507686 </i>
    <i name="pawpsdc">   4193.05140773 </i>
    <i name="pawaedc">  -3611.05125925 </i>
    <i name="eentropy">     -0.28134150 </i>
    <i name="bandstr">  -1422.77578755 </i>
    <i name="atom">   6761.44252427 </i>
    <i name="e_fr_energy">   -187.49311542 </i>
    <i name="e_wo_entrp">   -187.21177392 </i>
    <i name="e_0_energy">   -187.35244467 </i>
   </energy>
  </scstep>
  <scstep>
   <time name="dav">   31.08   31.15</time>
   <time name="total">   31.69   31.77</time>
   <energy>
    <i name="e_fr_energy">   -189.51608407 </i>
    <i name="e_wo_entrp">   -189.18023990 </i>
    <i name="e_0_energy">   -189.34816198 </i>
   </energy>
  </scstep>
  <scstep>
   <time name="dav">   31.57   31.64</time>
   <time name="total">   32.19   32.28</time>
   <energy>
    <i name="e_fr_energy">   -189.33034819 </i>
    <i name="e_wo_entrp">   -189.06909550 </i>
    <i name="e_0_energy">   -189.19972185 </i>
   </energy>
  </scstep>
  <scstep>
   <time name="dav">   29.58   29.65</time>
   <time name="total">   30.20   30.28</time>
   <energy>
    <i name="e_fr_energy">   -188.76590244 </i>
    <i name="e_wo_entrp">   -188.48317911 </i>
    <i name="e_0_energy">   -188.62454078 </i>
   </energy>
  </scstep>
  <scstep>
   <time name="dav">   31.32   31.39</time>
   <time name="total">   31.94   32.02</time>
   <energy>
    <i name="e_fr_energy">   -188.85029760 </i>
    <i name="e_wo_entrp">   -188.56239592 </i>
    <i name="e_0_energy">   -188.70634676 </i>
   </energy>
  </scstep>
  <scstep>
   <time name="dav">   31.50   31.58</time>
   <time name="total">   32.13   32.21</time>
   <energy>
    <i name="e_fr_energy">   -188.72108323 </i>
    <i name="e_wo_entrp">   -188.43735534 </i>
    <i name="e_0_energy">   -188.57921929 </i>
   </energy>
  </scstep>
  <scstep>
   <time name="dav">   30.92   30.99</time>
   <time name="total">   31.54   31.62</time>
   <energy>
    <i name="e_fr_energy">   -188.68911782 </i>
    <i name="e_wo_entrp">   -188.40587932 </i>
    <i name="e_0_energy">   -188.54749857 </i>
   </energy>
  </scstep>
  <scstep>
   <time name="dav">   30.81   30.89</time>
   <time name="total">   31.44   31.52</time>
   <energy>
    <i name="e_fr_energy">   -188.67373524 </i>
    <i name="e_wo_entrp">   -188.38925766 </i>
    <i name="e_0_energy">   -188.53149645 </i>
   </energy>
  </scstep>
  <scstep>
   <time name="dav">   31.29   31.36</time>
   <time name="total">   31.91   32.00</time>
   <energy>
    <i name="e_fr_energy">   -188.64826930 </i>
    <i name="e_wo_entrp">   -188.36637542 </i>
    <i name="e_0_energy">   -188.50732236 </i>
   </energy>
  </scstep>
  <scstep>
   <time name="dav">   27.70   27.77</time>
   <time name="total">   28.32   28.40</time>
   <energy>
    <i name="e_fr_energy">   -188.64513443 </i>
    <i name="e_wo_entrp">   -188.36388543 </i>
    <i name="e_0_energy">   -188.50450993 </i>
   </energy>
  </scstep>
  <scstep>
   <time name="dav">   33.23   33.31</time>
   <time name="total">   33.85   33.94</time>
   <energy>
    <i name="e_fr_energy">   -188.64482634 </i>
    <i name="e_wo_entrp">   -188.36488448 </i>
    <i name="e_0_energy">   -188.50485541 </i>
   </energy>
  </scstep>
  <scstep>
   <time name="dav">   28.45   28.52</time>
   <time name="total">   29.07   29.15</time>
   <energy>
    <i name="e_fr_energy">   -188.64494252 </i>
    <i name="e_wo_entrp">   -188.36488541 </i>
    <i name="e_0_energy">   -188.50491397 </i>
   </energy>
  </scstep>
  <scstep>
   <time name="dav">   20.17   20.22</time>
   <time name="total">   20.20   20.26</time>
   <energy>
    <i name="alphaZ">     78.87100113 </i>
    <i name="ewald">  39352.06648944 </i>
    <i name="hartreedc"> -45317.04486598 </i>
    <i name="XCdc">   -238.03024239 </i>
    <i name="pawpsdc">   3949.54099779 </i>
    <i name="pawaedc">  -3364.03167274 </i>
    <i name="eentropy">     -0.28030185 </i>
    <i name="bandstr">  -1411.17892586 </i>
    <i name="atom">   6761.44252427 </i>
    <i name="e_fr_energy">   -188.64499619 </i>
    <i name="e_wo_entrp">   -188.36469434 </i>
    <i name="e_0_energy">   -188.50484527 </i>
   </energy>
  </scstep>
  <structure>
   <crystal>
    <varray name="basis" >
     <v>       8.86177056       5.10657616       0.00000000 </v>
     <v>      -8.86042233       5.10425736       0.00000000 </v>
     <v>       0.00000000       0.00000000      30.00000000 </v>
    </varray>
    <i name="volume">   2714.37537082 </i>
    <varray name="rec_basis" >
     <v>       0.05641361       0.09792775       0.00000000 </v>
     <v>      -0.05643924       0.09794265       0.00000000 </v>
     <v>       0.00000000       0.00000000       0.03333333 </v>
    </varray>
   </crystal>
   <varray name="positions" >
    <v>       0.66615633       0.66597974      -0.00000962 </v>
    <v>       0.66507482      -0.00083664       0.00001934 </v>
    <v>       0.33313973       0.66715422      -0.00001240 </v>
    <v>       0.33202706      -0.00017590       0.00014677 </v>
    <v>       0.00143788       0.66804328      -0.00009233 </v>
    <v>       0.33338170       0.33217582       0.00005553 </v>
    <v>       0.00239779      -0.00055362       0.00017059 </v>
    <v>       1.00173694       0.33501963      -0.00015456 </v>
    <v>       0.66500557       0.33336137      -0.00017327 </v>
    <v>       0.11004586       0.22174956       0.95076921 </v>
    <v>       0.22110123       0.11049763       0.04937091 </v>
    <v>       0.11488296       0.55660205       0.95188093 </v>
    <v>       0.22339313       0.44830120       0.04807463 </v>
    <v>       0.11047780       0.88905833       0.95069003 </v>
    <v>       0.22463211       0.77539691       0.04798983 </v>
    <v>       0.44552692       0.22265300       0.95078014 </v>
    <v>       0.55822094       0.10946111       0.04797408 </v>
    <v>       0.44634409       0.55991772       0.95316487 </v>
    <v>       0.55802479       0.44837805       0.04810939 </v>
    <v>       0.44651150       0.88654900       0.95308046 </v>
    <v>       0.55559565       0.77754427       0.04584843 </v>
    <v>       0.77598710       0.21855614       0.95191547 </v>
    <v>       0.88510850       0.10920391       0.04801454 </v>
    <v>       0.77483543       0.55681586       0.95199790 </v>
    <v>       0.88830265       0.44354567       0.04917117 </v>
    <v>       0.77409879       0.88724126       0.95318303 </v>
    <v>       0.88476718       0.77657487       0.04803483 </v>
   </varray>
  </structure>
  <varray name="forces" >
   <v>       0.09618049      -0.12610113      -0.09441009 </v>
   <v>      -0.14275170      -0.12872210      -0.01206207 </v>
   <v>      -0.13236398      -0.06868485      -0.01670275 </v>
   <v>      -0.52576041      -0.16677065       0.04137153 </v>
   <v>       0.01706261       0.26911857       0.06222850 </v>
   <v>       0.34653182      -0.34321769      -0.05325032 </v>
   <v>       0.58370764       0.39164990       0.04413792 </v>
   <v>      -0.05466070       0.28790073       0.06800688 </v>
   <v>      -0.23267603      -0.13583636      -0.02992664 </v>
   <v>      -0.07300417      -0.11748103       0.01883483 </v>
   <v>      -0.04466224      -0.11294124       0.30689845 </v>
   <v>       0.08106155      -0.03340576      -0.09174099 </v>
   <v>      -0.07056805      -0.04213872      -0.04445385 </v>
   <v>      -0.13093507      -0.00285555      -0.21007233 </v>
   <v>       0.06498972       0.01332223       0.08070114 </v>
   <v>       0.06419216       0.10194377      -0.13564661 </v>
   <v>      -0.03400346       0.09224479      -0.03259663 </v>
   <v>      -0.00779394       0.05098198       0.16277352 </v>
   <v>       0.09803925       0.04382364       0.03208132 </v>
   <v>       0.04051828      -0.01276204       0.10519544 </v>
   <v>      -0.01855975      -0.01391378      -0.14018252 </v>
   <v>      -0.06766211       0.07082169       0.13462780 </v>
   <v>       0.06986784       0.07134744      -0.26275665 </v>
   <v>       0.01898214      -0.10452869       0.00879476 </v>
   <v>       0.07293762      -0.10800517      -0.15728587 </v>
   <v>       0.06503922       0.06421326       0.25221741 </v>
   <v>      -0.08370873       0.05999674      -0.03678217 </v>
  </varray>
  <varray name="stress" >
   <v>     -20.05803545       0.00018223       0.05919980 </v>
   <v>       0.00018232     -19.58191527      -0.01387417 </v>
   <v>       0.05919988      -0.01387431      -1.72446519 </v>
  </varray>
  <energy>
   <i name="e_fr_energy">   -188.64499619 </i>
   <i name="e_wo_entrp">   -188.50484527 </i>
   <i name="e_0_energy">     -0.28030185 </i>
  </energy>
  <time name="totalsc">  431.73  432.87</time>
 </calculation>
 <calculation>
  <scstep>
   <time name="dav">   25.02   25.08</time>
   <time name="total">   25.62   25.68</time>
   <energy>
    <i name="alphaZ">     82.32696685 </i>
    <i name="ewald">  41294.32981439 </i>
    <i name="hartreedc"> -47290.37703923 </i>
    <i name="XCdc">   -233.86146063 </i>
    <i name="pawpsdc">   3948.77379412 </i>
    <i name="pawaedc">  -3363.25714779 </i>
    <i name="eentropy">     -0.23465411 </i>
    <i name="bandstr">  -1389.74244151 </i>
    <i name="atom">   6761.44252427 </i>
    <i name="e_fr_energy">   -190.59964364 </i>
    <i name="e_wo_entrp">   -190.36498953 </i>
    <i name="e_0_energy">   -190.48231659 </i>
   </energy>
  </scstep>
  <scstep>
   <time name="dav">   31.47   31.54</time>
   <time name="total">   32.02   32.10</time>
   <energy>
    <i name="e_fr_energy">   -190.53223168 </i>
    <i name="e_wo_entrp">   -190.30877070 </i>
    <i name="e_0_energy">   -190.42050119 </i>
   </energy>
  </scstep>
  <scstep>
   <time name="dav">   31.67   31.75</time>
   <time name="total">   32.24   32.33</time>
   <energy>
    <i name="e_fr_energy">   -190.07679569 </i>
    <i name="e_wo_entrp">   -189.82520601 </i>
    <i name="e_0_energy">   -189.95100085 </i>
   </energy>
  </scstep>
  <scstep>
   <time name="dav">   33.56   33.64</time>
   <time name="total">   34.18   34.27</time>
   <energy>
    <i name="e_fr_energy">   -189.85916675 </i>
    <i name="e_wo_entrp">   -189.63203081 </i>
    <i name="e_0_energy">   -189.74559878 </i>
   </energy>
  </scstep>
  <scstep>
   <time name="dav">   31.74   31.82</time>
   <time name="total">   32.35   32.44</time>
   <energy>
    <i name="e_fr_energy">   -189.81302761 </i>
    <i name="e_wo_entrp">   -189.57101786 </i>
    <i name="e_0_energy">   -189.69202273 </i>
   </energy>
  </scstep>
  <scstep>
   <time name="dav">   31.75   31.83</time>
   <time name="total">   32.36   32.44</time>
   <energy>
    <i name="e_fr_energy">   -189.75753904 </i>
    <i name="e_wo_entrp">   -189.52342306 </i>
    <i name="e_0_energy">   -189.64048105 </i>
   </energy>
  </scstep>
  <scstep>
   <time name="dav">   30.73   30.81</time>
   <time name="total">   31.34   31.42</time>
   <energy>
    <i name="e_fr_energy">   -189.75204397 </i>
    <i name="e_wo_entrp">   -189.51585203 </i>
    <i name="e_0_energy">   -189.63394800 </i>
   </energy>
  </scstep>
  <scstep>
   <time name="dav">   30.37   30.44</time>
   <time name="total">   30.98   31.06</time>
   <energy>
    <i name="e_fr_energy">   -189.75278076 </i>
    <i name="e_wo_entrp">   -189.51742185 </i>
    <i name="e_0_energy">   -189.63510131 </i>
   </energy>
  </scstep>
  <scstep>
   <time name="dav">   27.43   27.49</time>
   <time name="total">   28.03   28.11</time>
   <energy>
    <i name="e_fr_energy">   -189.75179369 </i>
    <i name="e_wo_entrp">   -189.51585567 </i>
    <i name="e_0_energy">   -189.63382468 </i>
   </energy>
  </scstep>
  <scstep>
   <time name="dav">   27.36   27.43</time>
   <time name="total">   27.97   28.05</time>
   <energy>
    <i name="e_fr_energy">   -189.75215910 </i>
    <i name="e_wo_entrp">   -189.51648689 </i>
    <i name="e_0_energy">   -189.63432299 </i>
   </energy>
  </scstep>
  <scstep>
   <time name="dav">   27.85   27.92</time>
   <time name="total">   28.45   28.53</time>
   <energy>
    <i name="e_fr_energy">   -189.75186897 </i>
    <i name="e_wo_entrp">   -189.51588183 </i>
    <i name="e_0_energy">   -189.63387540 </i>
   </energy>
  </scstep>
  <scstep>
   <time name="dav">   19.37   19.42</time>
   <time name="total">   19.41   19.46</time>
   <energy>
    <i name="alphaZ">     82.32696685 </i>
    <i name="ewald">  41294.32981439 </i>
    <i name="hartreedc"> -47265.53896485 </i>
    <i name="XCdc">   -235.25748326 </i>
    <i name="pawpsdc">   4038.73782773 </i>
    <i name="pawaedc">  -3454.43667519 </i>
    <i name="eentropy">     -0.23597022 </i>
    <i name="bandstr">  -1411.11996918 </i>
    <i name="atom">   6761.44252427 </i>
    <i name="e_fr_energy">   -189.75192947 </i>
    <i name="e_wo_entrp">   -189.51595925 </i>
    <i name="e_0_energy">   -189.63394436 </i>
   </energy>
  </scstep>
  <structure>
   <crystal>
    <varray name="basis" >
     <v>       8.67151762       4.99954685       0.00000000 </v>
     <v>      -8.67019634       4.99727319       0.00000000 </v>
     <v>       0.00000000       0.00000000      30.00000000 </v>
    </varray>
    <i name="volume">   2600.42986063 </i>
    <varray name="rec_basis" >
     <v>       0.05765131       0.10002419       0.00000000 </v>
     <v>      -0.05767754       0.10003943       0.00000000 </v>
     <v>       0.00000000       0.00000000       0.03333333 </v>
    </varray>
   </crystal>
   <varray name="positions" >
    <v>       0.66603824       0.66567646      -0.00006330 </v>
    <v>       0.66472243      -0.00091427       0.00001248 </v>
    <v>       0.33289762       0.66716690      -0.00002190 </v>
    <v>       0.33124254       0.00005164       0.00017029 </v>
    <v>       0.00190385       0.66847647      -0.00005695 </v>
    <v>       0.33314184       0.33126878       0.00002526 </v>
    <v>       0.00361373      -0.00046125       0.00019569 </v>
    <v>       1.00216526       0.33555325      -0.00011589 </v>
    <v>       0.66455476       0.33335844      -0.00019028 </v>
    <v>       0.10977936       0.22162357       0.95077991 </v>
    <v>       0.22086959       0.11035194       0.04954541 </v>
    <v>       0.11490516       0.55646820       0.95182877 </v>
    <v>       0.22325483       0.44829874       0.04804935 </v>
    <v>       0.11034703       0.88917962       0.95057058 </v>
    <v>       0.22471691       0.77535660       0.04803572 </v>
    <v>       0.44575898       0.22276152       0.95070302 </v>
    <v>       0.55834231       0.10964796       0.04795555 </v>
    <v>       0.44642175       0.56001040       0.95325742 </v>
    <v>       0.55819234       0.44835688       0.04812763 </v>
    <v>       0.44652917       0.88648867       0.95314028 </v>
    <v>       0.55555455       0.77753890       0.04576872 </v>
    <v>       0.77604029       0.21873961       0.95199202 </v>
    <v>       0.88529491       0.10925584       0.04786514 </v>
    <v>       0.77467909       0.55662295       0.95200290 </v>
    <v>       0.88819242       0.44329500       0.04908173 </v>
    <v>       0.77426865       0.88728593       0.95332644 </v>
    <v>       0.88478684       0.77675569       0.04801391 </v>
   </varray>
  </structure>
  <varray name="forces" >
   <v>       0.15475550      -0.12330649      -0.09669801 </v>
   <v>      -0.16534648      -0.06005475      -0.01974825 </v>
   <v>      -0.15881311      -0.13892686      -0.02011411 </v>
   <v>      -0.63058944      -0.15509512       0.01724314 </v>
   <v>       0.02613724       0.25004252       0.06567683 </v>
   <v>       0.39744169      -0.42036708      -0.05181819 </v>
   <v>       0.59205751       0.45527937       0.01277180 </v>
   <v>      -0.08081845       0.25644999       0.08872112 </v>
   <v>      -0.19750274      -0.12298730       0.00196564 </v>
   <v>      -0.03051038      -0.06820170      -0.53908479 </v>
   <v>      -0.00108981      -0.03309507       0.91774665 </v>
   <v>       0.07444383       0.11695259      -0.61844636 </v>
   <v>      -0.05078592       0.10806498       0.45667139 </v>
   <v>      -0.04169232       0.00049066      -0.78667961 </v>
   <v>       0.14527561       0.02820751       0.58131143 </v>
   <v>       0.03403328       0.01583127      -0.70649606 </v>
   <v>       0.06861117       0.01726509       0.46164761 </v>
   <v>      -0.04512683       0.10341182      -0.27710503 </v>
   <v>      -0.03088065       0.10263365       0.54250555 </v>
   <v>       0.09426189      -0.01532738      -0.33765114 </v>
   <v>      -0.01555763      -0.01766237       0.28277118 </v>
   <v>       0.00882797      -0.05173363      -0.37314523 </v>
   <v>       0.00937156      -0.05313961       0.22102764 </v>
   <v>      -0.09128228      -0.02258454      -0.49365802 </v>
   <v>       0.02288508      -0.05319341       0.38555119 </v>
   <v>      -0.00107317      -0.04309666      -0.18485973 </v>
   <v>      -0.08703313      -0.07585747       0.46989334 </v>
  </varray>
  <varray name="stress" >
   <v>     -10.23355104      -0.00010952       0.05702207 </v>
   <v>      -0.00010963      -9.83646564      -0.01016308 </v>
   <v>       0.05702195      -0.01016314       6.51012924 </v>
  </varray>
  <energy>
   <i name="e_fr_energy">   -189.75192947 </i>
   <i name="e_wo_entrp">   -189.63394436 </i>
   <i name="e_0_energy">     -0.23597022 </i>
  </energy>
  <time name="totalsc">  398.41  399.46</time>
 </calculation>
 <calculation>
  <scstep>
   <time name="dav">   22.76   22.81</time>
   <time name="total">   23.28   23.34</time>
   <energy>
    <i name="alphaZ">     85.81941975 </i>
    <i name="ewald">  42832.77678609 </i>
    <i name="hartreedc"> -48848.75250852 </i>
    <i name="XCdc">   -232.95908009 </i>
    <i name="pawpsdc">   4038.64096635 </i>
    <i name="pawaedc">  -3454.33484298 </i>
    <i name="eentropy">     -0.19702665 </i>
    <i name="bandstr">  -1373.77544951 </i>
    <i name="atom">   6761.44252427 </i>
    <i name="e_fr_energy">   -191.33921128 </i>
    <i name="e_wo_entrp">   -191.14218463 </i>
    <i name="e_0_energy">   -191.24069796 </i>
   </energy>
  </scstep>
  <scstep>
   <time name="dav">   33.30   33.38</time>
   <time name="total">   33.82   33.91</time>
   <energy>
    <i name="e_fr_energy">   -191.16090550 </i>
    <i name="e_wo_entrp">   -190.96619537 </i>
    <i name="e_0_energy">   -191.06355043 </i>
   </energy>
  </scstep>
  <scstep>
   <time name="dav">   31.48   31.55</time>
   <time name="total">   31.99   32.07</time>
   <energy>
    <i name="e_fr_energy">   -191.31785248 </i>
    <i name="e_wo_entrp">   -191.09986425 </i>
    <i name="e_0_energy">   -191.20885837 </i>
   </energy>
  </scstep>
  <scstep>
   <time name="dav">   31.49   31.56</time>
   <time name="total">   32.01   32.10</time>
   <energy>
    <i name="e_fr_energy">   -190.94560591 </i>
    <i name="e_wo_entrp">   -190.73530381 </i>
    <i name="e_0_energy">   -190.84045486 </i>
   </energy>
  </scstep>
  <scstep>
   <time name="dav">   29.40   29.48</time>
   <time name="total">   29.92   30.00</time>
   <energy>
    <i name="e_fr_energy">   -190.92652994 </i>
    <i name="e_wo_entrp">   -190.73842104 </i>
    <i name="e_0_energy">   -190.83247549 </i>
   </energy>
  </scstep>
  <scstep>
   <time name="dav">   30.20   30.28</time>
   <time name="total">   30.72   30.81</time>
   <energy>
    <i name="e_fr_energy">   -190.75529689 </i>
    <i name="e_wo_entrp">   -190.55345555 </i>
    <i name="e_0_energy">   -190.65437622 </i>
   </energy>
  </scstep>
  <scstep>
   <time name="dav">   32.38   32.46</time>
   <time name="total">   32.90   32.99</time>
   <energy>
    <i name="e_fr_energy">   -190.75337852 </i>
    <i name="e_wo_entrp">   -190.55104450 </i>
    <i name="e_0_energy">   -190.65221151 </i>
   </energy>
  </scstep>
  <scstep>
   <time name="dav">   31.01   31.08</time>
   <time name="total">   31.53   31.62</time>
   <energy>
    <i name="e_fr_energy">   -190.75212489 </i>
    <i name="e_wo_entrp">   -190.54975736 </i>
    <i name="e_0_energy">   -190.65094113 </i>
   </energy>
  </scstep>
  <scstep>
   <time name="dav">   29.38   29.45</time>
   <time name="total">   29.89   29.97</time>
   <energy>
    <i name="e_fr_energy">   -190.74719337 </i>
    <i name="e_wo_entrp">   -190.54512805 </i>
    <i name="e_0_energy">   -190.64616071 </i>
   </energy>
  </scstep>
  <scstep>
   <time name="dav">   28.15   28.22</time>
   <time name="total">   28.67   28.75</time>
   <energy>
    <i name="e_fr_energy">   -190.74754925 </i>
    <i name="e_wo_entrp">   -190.54546041 </i>
    <i name="e_0_energy">   -190.64650483 </i>
   </energy>
  </scstep>
  <scstep>
   <time name="dav">   28.21   28.28</time>
   <time name="total">   28.73   28.81</time>
   <energy>
    <i name="e_fr_energy">   -190.74734284 </i>
    <i name="e_wo_entrp">   -190.54515042 </i>
    <i name="e_0_energy">   -190.64624663 </i>
   </energy>
  </scstep>
  <scstep>
   <time name="dav">   19.64   19.69</time>
   <time name="total">   19.68   19.73</time>
   <energy>
    <i name="alphaZ">     85.81941975 </i>
    <i name="ewald">  42832.77678609 </i>
    <i name="hartreedc"> -48820.49860948 </i>
    <i name="XCdc">   -234.29477328 </i>
    <i name="pawpsdc">   4063.71652220 </i>
    <i name="pawaedc">  -3479.59666351 </i>
    <i name="eentropy">     -0.20230972 </i>
    <i name="bandstr">  -1399.91026247 </i>
    <i name="atom">   6761.44252427 </i>
    <i name="e_fr_energy">   -190.74736614 </i>
    <i name="e_wo_entrp">   -190.54505642 </i>
    <i name="e_0_energy">   -190.64621128 </i>
   </energy>
  </scstep>
  <structure>
   <crystal>
    <varray name="basis" >
     <v>       8.48761384       4.89999665       0.00000000 </v>
     <v>      -8.48632936       4.89778349       0.00000000 </v>
     <v>       0.00000000       0.00000000      30.00000000 </v>
    </varray>
    <i name="volume">   2494.60440959 </i>
    <varray name="rec_basis" >
     <v>       0.05890052       0.10205621       0.00000000 </v>
     <v>      -0.05892714       0.10207166       0.00000000 </v>
     <v>       0.00000000       0.00000000       0.03333333 </v>
    </varray>
   </crystal>
   <varray name="positions" >
    <v>       0.66591529       0.66426811      -0.00026538 </v>
    <v>       0.66388716      -0.00049057      -0.00003488 </v>
    <v>       0.33124197       0.66673390      -0.00006641 </v>
    <v>       0.32787316       0.00153690       0.00018561 </v>
    <v>       0.00353013       0.66988824       0.00008190 </v>
    <v>       0.33182534       0.32693534      -0.00008079 </v>
    <v>       0.00877320       0.00039792       0.00019565 </v>
    <v>       1.00336444       0.33741122       0.00008522 </v>
    <v>       0.66315329       0.33328306      -0.00015930 </v>
    <v>       0.10942487       0.22136800       0.94919326 </v>
    <v>       0.22091857       0.11028429       0.05196048 </v>
    <v>       0.11626992       0.55731427       0.95010419 </v>
    <v>       0.22414904       0.44950344       0.04941750 </v>
    <v>       0.11033532       0.88921408       0.94845569 </v>
    <v>       0.22556978       0.77493066       0.04966141 </v>
    <v>       0.44572445       0.22256729       0.94875894 </v>
    <v>       0.55865887       0.10917567       0.04932819 </v>
    <v>       0.44698323       0.56100466       0.95231262 </v>
    <v>       0.55868538       0.44944150       0.04968129 </v>
    <v>       0.44684396       0.88596895       0.95206766 </v>
    <v>       0.55538273       0.77747086       0.04671096 </v>
    <v>       0.77555350       0.21797038       0.95079114 </v>
    <v>       0.88460081       0.10866681       0.04873093 </v>
    <v>       0.77425368       0.55717202       0.95055708 </v>
    <v>       0.88800627       0.44308654       0.05033789 </v>
    <v>       0.77363431       0.88684817       0.95257493 </v>
    <v>       0.88365580       0.77626273       0.04941411 </v>
   </varray>
  </structure>
  <varray name="forces" >
   <v>       0.15108144      -0.10672251      -0.06576280 </v>
   <v>      -0.17409710      -0.03541617      -0.03173116 </v>
   <v>      -0.17775138      -0.16626346      -0.02298394 </v>
   <v>      -0.67603922      -0.10214883      -0.02727872 </v>
   <v>       0.06248583       0.21758703       0.04519452 </v>
   <v>       0.45901310      -0.46988635      -0.01367921 </v>
   <v>       0.56350483       0.45949928      -0.01909407 </v>
   <v>      -0.14758777       0.23293340       0.06962578 </v>
   <v>      -0.15372986      -0.13135870       0.03881619 </v>
   <v>       0.02009347      -0.03172107      -0.33598000 </v>
   <v>       0.01896963       0.01795267       0.79318115 </v>
   <v>       0.01649905       0.08736060      -0.44739447 </v>
   <v>       0.04989741       0.09053076       0.27008349 </v>
   <v>       0.03608394       0.00062589      -0.57885591 </v>
   <v>       0.02464555       0.07216446       0.40464607 </v>
   <v>       0.02926445      -0.04657729      -0.51538729 </v>
   <v>      -0.04048280      -0.05667548       0.29448268 </v>
   <v>       0.02245869      -0.04868915      -0.17780980 </v>
   <v>      -0.05486240      -0.00752132       0.34835924 </v>
   <v>      -0.05661795      -0.03193224      -0.23526851 </v>
   <v>      -0.01070322      -0.03009825       0.26109500 </v>
   <v>      -0.01000640      -0.00052432      -0.25779529 </v>
   <v>       0.07146995      -0.00045978       0.08569683 </v>
   <v>      -0.00589232       0.01674773      -0.33106694 </v>
   <v>      -0.05140699       0.00181611       0.23560056 </v>
   <v>       0.06429189       0.05427236      -0.08170227 </v>
   <v>      -0.03058180       0.01450462       0.29500886 </v>
  </varray>
  <varray name="stress" >
   <v>      -5.69390739       0.06377728      -0.13394468 </v>
   <v>       0.06377731      -5.87043165       0.10598000 </v>
   <v>      -0.13394463       0.10597990       4.55076562 </v>
  </varray>
  <energy>
   <i name="e_fr_energy">   -190.74736614 </i>
   <i name="e_wo_entrp">   -190.64621128 </i>
   <i name="e_0_energy">     -0.20230972 </i>
  </energy>
  <time name="totalsc">  396.52  397.57</time>
 </calculation>
 <calculation>
  <scstep>
   <time name="dav">   22.76   22.82</time>
   <time name="total">   23.27   23.33</time>
   <energy>
    <i name="alphaZ">     90.17221317 </i>
    <i name="ewald">  44670.94409087 </i>
    <i name="hartreedc"> -50713.68151367 </i>
    <i name="XCdc">   -231.81605536 </i>
    <i name="pawpsdc">   4063.71389378 </i>
    <i name="pawaedc">  -3479.59012766 </i>
    <i name="eentropy">     -0.18599601 </i>
    <i name="bandstr">  -1353.12286608 </i>
    <i name="atom">   6761.44252427 </i>
    <i name="e_fr_energy">   -192.12383669 </i>
    <i name="e_wo_entrp">   -191.93784068 </i>
    <i name="e_0_energy">   -192.03083869 </i>
   </energy>
  </scstep>
  <scstep>
   <time name="dav">   29.95   30.03</time>
   <time name="total">   30.46   30.54</time>
   <energy>
    <i name="e_fr_energy">   -191.88265002 </i>
    <i name="e_wo_entrp">   -191.68335703 </i>
    <i name="e_0_energy">   -191.78300353 </i>
   </energy>
  </scstep>
  <scstep>
   <time name="dav">   30.90   30.97</time>
   <time name="total">   31.40   31.48</time>
   <energy>
    <i name="e_fr_energy">   -192.37718464 </i>
    <i name="e_wo_entrp">   -192.19233291 </i>
    <i name="e_0_energy">   -192.28475878 </i>
   </energy>
  </scstep>
  <scstep>
   <time name="dav">   30.53   30.60</time>
   <time name="total">   31.03   31.11</time>
   <energy>
    <i name="e_fr_energy">   -191.65438322 </i>
    <i name="e_wo_entrp">   -191.46024171 </i>
    <i name="e_0_energy">   -191.55731246 </i>
   </energy>
  </scstep>
  <scstep>
   <time name="dav">   30.78   30.85</time>
   <time name="total">   31.28   31.36</time>
   <energy>
    <i name="e_fr_energy">   -191.59603979 </i>
    <i name="e_wo_entrp">   -191.39761087 </i>
    <i name="e_0_energy">   -191.49682533 </i>
   </energy>
  </scstep>
  <scstep>
   <time name="dav">   32.26   32.34</time>
   <time name="total">   32.77   32.86</time>
   <energy>
    <i name="e_fr_energy">   -191.42430220 </i>
    <i name="e_wo_entrp">   -191.23397232 </i>
    <i name="e_0_energy">   -191.32913726 </i>
   </energy>
  </scstep>
  <scstep>
   <time name="dav">   32.00   32.08</time>
   <time name="total">   32.51   32.60</time>
   <energy>
    <i name="e_fr_energy">   -191.41428581 </i>
    <i name="e_wo_entrp">   -191.21104026 </i>
    <i name="e_0_energy">   -191.31266304 </i>
   </energy>
  </scstep>
  <scstep>
   <time name="dav">   29.70   29.77</time>
   <time name="total">   30.20   30.28</time>
   <energy>
    <i name="e_fr_energy">   -191.40059209 </i>
    <i name="e_wo_entrp">   -191.20709709 </i>
    <i name="e_0_energy">   -191.30384459 </i>
   </energy>
  </scstep>
  <scstep>
   <time name="dav">   30.37   30.44</time>
   <time name="total">   30.88   30.96</time>
   <energy>
    <i name="e_fr_energy">   -191.39486913 </i>
    <i name="e_wo_entrp">   -191.19988268 </i>
    <i name="e_0_energy">   -191.29737590 </i>
   </energy>
  </scstep>
  <scstep>
   <time name="dav">   31.48   31.56</time>
   <time name="total">   31.99   32.07</time>
   <energy>
    <i name="e_fr_energy">   -191.39483159 </i>
    <i name="e_wo_entrp">   -191.19912214 </i>
    <i name="e_0_energy">   -191.29697687 </i>
   </energy>
  </scstep>
  <scstep>
   <time name="dav">   28.67   28.74</time>
   <time name="total">   28.71   28.78</time>
   <energy>
    <i name="alphaZ">     90.17221317 </i>
    <i name="ewald">  44670.94409087 </i>
    <i name="hartreedc"> -50679.86376433 </i>
    <i name="XCdc">   -233.34110245 </i>
    <i name="pawpsdc">   4086.72995657 </i>
    <i name="pawaedc">  -3502.72967628 </i>
    <i name="eentropy">     -0.19580851 </i>
    <i name="bandstr">  -1384.55332567 </i>
    <i name="atom">   6761.44252427 </i>
    <i name="e_fr_energy">   -191.39489236 </i>
    <i name="e_wo_entrp">   -191.19908386 </i>
    <i name="e_0_energy">   -191.29698811 </i>
   </energy>
  </scstep>
  <structure>
   <crystal>
    <varray name="basis" >
     <v>       8.28586455       4.78128929       0.00000000 </v>
     <v>      -8.28090791       4.77271607       0.00000000 </v>
     <v>       0.00000000       0.00000000      30.00000000 </v>
    </varray>
    <i name="volume">   2374.18485600 </i>
    <varray name="rec_basis" >
     <v>       0.06030764       0.10463686       0.00000000 </v>
     <v>      -0.06041597       0.10469949       0.00000000 </v>
     <v>       0.00000000       0.00000000       0.03333333 </v>
    </varray>
   </crystal>
   <varray name="positions" >
    <v>       0.66575737       0.66179658      -0.00054382 </v>
    <v>       0.66236252       0.00048067      -0.00016145 </v>
    <v>       0.32780140       0.66583344      -0.00015906 </v>
    <v>       0.32171819       0.00510748       0.00007795 </v>
    <v>       0.00658818       0.67211024       0.00027464 </v>
    <v>       0.32922602       0.31785507      -0.00015347 </v>
    <v>       0.01850862       0.00215842       0.00010681 </v>
    <v>       1.00512804       0.34120211       0.00039038 </v>
    <v>       0.66054800       0.33279982       0.00000543 </v>
    <v>       0.10928087       0.22090002       0.94722446 </v>
    <v>       0.22146220       0.11045879       0.05574685 </v>
    <v>       0.11796040       0.55868620       0.94774144 </v>
    <v>       0.22598532       0.45076626       0.05106272 </v>
    <v>       0.11067617       0.88890665       0.94550607 </v>
    <v>       0.22683183       0.77536044       0.05183308 </v>
    <v>       0.44517950       0.22170096       0.94607457 </v>
    <v>       0.55786614       0.10841228       0.05105315 </v>
    <v>       0.44682102       0.56077589       0.95113660 </v>
    <v>       0.55836861       0.45026591       0.05164891 </v>
    <v>       0.44630874       0.88576887       0.95065995 </v>
    <v>       0.55495253       0.77718998       0.04815952 </v>
    <v>       0.77519062       0.21746440       0.94922544 </v>
    <v>       0.88450356       0.10788100       0.04960356 </v>
    <v>       0.77432298       0.55784183       0.94868198 </v>
    <v>       0.88772148       0.44354433       0.05186748 </v>
    <v>       0.77411424       0.88676456       0.95177963 </v>
    <v>       0.88302990       0.77618226       0.05115709 </v>
   </varray>
  </structure>
  <varray name="forces" >
   <v>       0.05463296      -0.05974976      -0.01879443 </v>
   <v>      -0.13801741      -0.10195054      -0.00268323 </v>
   <v>      -0.17268477      -0.07638634       0.03025969 </v>
   <v>      -0.10295610       0.05481269      -0.01213412 </v>
   <v>       0.14875093       0.06634794      -0.01748564 </v>
   <v>       0.23279630      -0.12095146       0.06875255 </v>
   <v>       0.17971186       0.11183382       0.03012894 </v>
   <v>      -0.25186483       0.15445401       0.01384554 </v>
   <v>      -0.04992387      -0.12851513      -0.01618536 </v>
   <v>       0.04358288      -0.01235606      -0.01041137 </v>
   <v>       0.01330914       0.02321787       0.36792130 </v>
   <v>      -0.03964874       0.01291185      -0.15498969 </v>
   <v>       0.14926673       0.01807807      -0.05187104 </v>
   <v>       0.07562507      -0.01694927      -0.23718378 </v>
   <v>      -0.11870760       0.14060401       0.05680827 </v>
   <v>       0.03565361      -0.07919174      -0.17485289 </v>
   <v>      -0.15327028      -0.11726112       0.01656328 </v>
   <v>       0.10615029      -0.24871217       0.07384211 </v>
   <v>      -0.02736098      -0.11455342       0.05568368 </v>
   <v>      -0.23559901      -0.04086080      -0.01542336 </v>
   <v>      -0.00632627      -0.03479812       0.01475927 </v>
   <v>      -0.06031252       0.08607970      -0.00838316 </v>
   <v>       0.16357395       0.08866141      -0.18156188 </v>
   <v>       0.09579631       0.01246795      -0.01129591 </v>
   <v>      -0.11247223       0.03842130       0.04772820 </v>
   <v>       0.14258007       0.20999720       0.13978423 </v>
   <v>       0.02771455       0.13434812      -0.00282121 </v>
  </varray>
  <varray name="stress" >
   <v>       0.34405481       0.05057482      -0.24768927 </v>
   <v>       0.05057508       0.01373120       0.27859959 </v>
   <v>      -0.24768918       0.27859946      -0.29466110 </v>
  </varray>
  <energy>
   <i name="e_fr_energy">   -191.39489236 </i>
   <i name="e_wo_entrp">   -191.29698811 </i>
   <i name="e_0_energy">     -0.19580851 </i>
  </energy>
  <time name="totalsc">  378.15  379.14</time>
 </calculation>
 <calculation>
  <scstep>
   <time name="dav">   22.80   22.85</time>
   <time name="total">   23.31   23.36</time>
   <energy>
    <i name="alphaZ">     90.04627613 </i>
    <i name="ewald">  44592.75193833 </i>
    <i name="hartreedc"> -50601.24787570 </i>
    <i name="XCdc">   -233.51428466 </i>
    <i name="pawpsdc">   4087.09581961 </i>
    <i name="pawaedc">  -3503.09273287 </i>
    <i name="eentropy">     -0.19885573 </i>
    <i name="bandstr">  -1384.71268783 </i>
    <i name="atom">   6761.44252427 </i>
    <i name="e_fr_energy">   -191.42987845 </i>
    <i name="e_wo_entrp">   -191.23102273 </i>
    <i name="e_0_energy">   -191.33045059 </i>
   </energy>
  </scstep>
  <scstep>
   <time name="dav">   32.75   32.83</time>
   <time name="total">   33.26   33.34</time>
   <energy>
    <i name="e_fr_energy">   -191.47011104 </i>
    <i name="e_wo_entrp">   -191.26215155 </i>
    <i name="e_0_energy">   -191.36613130 </i>
   </energy>
  </scstep>
  <scstep>
   <time name="dav">   31.81   31.89</time>
   <time name="total">   32.32   32.41</time>
   <energy>
    <i name="e_fr_energy">   -191.43944013 </i>
    <i name="e_wo_entrp">   -191.24060621 </i>
    <i name="e_0_energy">   -191.34002317 </i>
   </energy>
  </scstep>
  <scstep>
   <time name="dav">   28.98   29.05</time>
   <time name="total">   29.48   29.56</time>
   <energy>
    <i name="e_fr_energy">   -191.43976564 </i>
    <i name="e_wo_entrp">   -191.23986378 </i>
    <i name="e_0_energy">   -191.33981471 </i>
   </energy>
  </scstep>
  <scstep>
   <time name="dav">   28.33   28.39</time>
   <time name="total">   28.83   28.91</time>
   <energy>
    <i name="e_fr_energy">   -191.43792431 </i>
    <i name="e_wo_entrp">   -191.23747509 </i>
    <i name="e_0_energy">   -191.33769970 </i>
   </energy>
  </scstep>
  <scstep>
   <time name="dav">   29.94   30.01</time>
   <time name="total">   30.44   30.53</time>
   <energy>
    <i name="e_fr_energy">   -191.43787402 </i>
    <i name="e_wo_entrp">   -191.23746735 </i>
    <i name="e_0_energy">   -191.33767068 </i>
   </energy>
  </scstep>
  <scstep>
   <time name="dav">   27.15   27.22</time>
   <time name="total">   27.66   27.74</time>
   <energy>
    <i name="e_fr_energy">   -191.43810272 </i>
    <i name="e_wo_entrp">   -191.23891489 </i>
    <i name="e_0_energy">   -191.33850881 </i>
   </energy>
  </scstep>
  <scstep>
   <time name="dav">   23.98   24.04</time>
   <time name="total">   24.49   24.55</time>
   <energy>
    <i name="e_fr_energy">   -191.43755563 </i>
    <i name="e_wo_entrp">   -191.23756502 </i>
    <i name="e_0_energy">   -191.33756033 </i>
   </energy>
  </scstep>
  <scstep>
   <time name="dav">   17.87   17.91</time>
   <time name="total">   17.91   17.96</time>
   <energy>
    <i name="alphaZ">     90.04627613 </i>
    <i name="ewald">  44592.75193833 </i>
    <i name="hartreedc"> -50603.28358833 </i>
    <i name="XCdc">   -233.45593035 </i>
    <i name="pawpsdc">   4082.58369227 </i>
    <i name="pawaedc">  -3498.51690916 </i>
    <i name="eentropy">     -0.20000901 </i>
    <i name="bandstr">  -1382.80556888 </i>
    <i name="atom">   6761.44252427 </i>
    <i name="e_fr_energy">   -191.43757473 </i>
    <i name="e_wo_entrp">   -191.23756572 </i>
    <i name="e_0_energy">   -191.33757023 </i>
   </energy>
  </scstep>
  <structure>
   <crystal>
    <varray name="basis" >
     <v>       8.29572597       4.78365784       0.00000000 </v>
     <v>      -8.28957577       4.77302218       0.00000000 </v>
     <v>       0.00000000       0.00000000      30.00000000 </v>
    </varray>
    <i name="volume">   2377.50534666 </i>
    <varray name="rec_basis" >
     <v>       0.06022727       0.10460009       0.00000000 </v>
     <v>      -0.06036148       0.10467769       0.00000000 </v>
     <v>       0.00000000       0.00000000       0.03333333 </v>
    </varray>
   </crystal>
   <varray name="positions" >
    <v>       0.66562041       0.66139071      -0.00056838 </v>
    <v>       0.66149575       0.00035298      -0.00016353 </v>
    <v>       0.32699722       0.66596402      -0.00011020 </v>
    <v>       0.32180005       0.00560831       0.00006077 </v>
    <v>       0.00728400       0.67197751       0.00024396 </v>
    <v>       0.32933526       0.31675393      -0.00004458 </v>
    <v>       0.01940189       0.00216767       0.00015553 </v>
    <v>       1.00514473       0.34261207       0.00040663 </v>
    <v>       0.65981860       0.33231788      -0.00002272 </v>
    <v>       0.10934476       0.22072297       0.94724803 </v>
    <v>       0.22160258       0.11053118       0.05625196 </v>
    <v>       0.11787777       0.55883436       0.94754499 </v>
    <v>       0.22646136       0.45040536       0.05094786 </v>
    <v>       0.11080032       0.88861496       0.94519161 </v>
    <v>       0.22716272       0.77638312       0.05187946 </v>
    <v>       0.44490286       0.22122654       0.94585299 </v>
    <v>       0.55686836       0.10828750       0.05104413 </v>
    <v>       0.44590038       0.55925185       0.95127686 </v>
    <v>       0.55773255       0.44976129       0.05169670 </v>
    <v>       0.44544795       0.88624145       0.95066456 </v>
    <v>       0.55477090       0.77704159       0.04815390 </v>
    <v>       0.77545170       0.21807278       0.94924445 </v>
    <v>       0.88540957       0.10786906       0.04929924 </v>
    <v>       0.77465500       0.55761571       0.94870178 </v>
    <v>       0.88759604       0.44404321       0.05190999 </v>
    <v>       0.77554715       0.88739638       0.95201666 </v>
    <v>       0.88378458       0.77677006       0.05111729 </v>
   </varray>
  </structure>
  <varray name="forces" >
   <v>       0.03946532      -0.06165077      -0.04227203 </v>
   <v>      -0.13201922      -0.14104190      -0.00259776 </v>
   <v>      -0.18551510      -0.06050378       0.02461111 </v>
   <v>      -0.18354843       0.02571004      -0.01156988 </v>
   <v>       0.15446842       0.08641633      -0.03032156 </v>
   <v>       0.28324293      -0.12220325       0.01869015 </v>
   <v>       0.29274190       0.14386725       0.00160589 </v>
   <v>      -0.28464847       0.17464844       0.02153865 </v>
   <v>      -0.07321881      -0.14561623      -0.03232691 </v>
   <v>       0.01155606       0.00375811       0.07203611 </v>
   <v>       0.03054114       0.00105143       0.21696405 </v>
   <v>      -0.02320298       0.02457520      -0.14082498 </v>
   <v>       0.08197019       0.01416329      -0.06899219 </v>
   <v>       0.04343194      -0.00651327      -0.10635603 </v>
   <v>      -0.05999432       0.08251320       0.05018135 </v>
   <v>       0.02159819      -0.03652534      -0.11831602 </v>
   <v>      -0.08380669      -0.05574873       0.03323596 </v>
   <v>       0.06097294      -0.15883487       0.10696921 </v>
   <v>       0.00015151      -0.06067896       0.04780383 </v>
   <v>      -0.12875182      -0.02595467      -0.02572930 </v>
   <v>      -0.00883599      -0.02162653      -0.02143670 </v>
   <v>      -0.04317630       0.05707647       0.01050105 </v>
   <v>       0.08269225       0.07184684      -0.19071930 </v>
   <v>       0.06535955       0.00268341       0.02521394 </v>
   <v>      -0.08465098       0.01395164       0.03309585 </v>
   <v>       0.07870811       0.12525544       0.14199171 </v>
   <v>       0.04446865       0.06938121      -0.01297621 </v>
  </varray>
  <varray name="stress" >
   <v>      -0.24777551      -0.03854696      -0.08735068 </v>
   <v>      -0.03854701      -0.25291197       0.13581808 </v>
   <v>      -0.08735086       0.13581802      -1.09662722 </v>
  </varray>
  <energy>
   <i name="e_fr_energy">   -191.43757473 </i>
   <i name="e_wo_entrp">   -191.33757023 </i>
   <i name="e_0_energy">     -0.20000901 </i>
  </energy>
  <time name="totalsc">  291.21  291.98</time>
 </calculation>
 <calculation>
  <scstep>
   <time name="dav">   22.75   22.81</time>
   <time name="total">   23.26   23.32</time>
   <energy>
    <i name="alphaZ">     90.28732743 </i>
    <i name="ewald">  44694.84431835 </i>
    <i name="hartreedc"> -50708.23597158 </i>
    <i name="XCdc">   -233.32022086 </i>
    <i name="pawpsdc">   4082.40503493 </i>
    <i name="pawaedc">  -3498.33635390 </i>
    <i name="eentropy">     -0.20198026 </i>
    <i name="bandstr">  -1380.36992010 </i>
    <i name="atom">   6761.44252427 </i>
    <i name="e_fr_energy">   -191.48524172 </i>
    <i name="e_wo_entrp">   -191.28326146 </i>
    <i name="e_0_energy">   -191.38425159 </i>
   </energy>
  </scstep>
  <scstep>
   <time name="dav">   33.83   33.91</time>
   <time name="total">   34.33   34.42</time>
   <energy>
    <i name="e_fr_energy">   -191.53653128 </i>
    <i name="e_wo_entrp">   -191.32068515 </i>
    <i name="e_0_energy">   -191.42860821 </i>
   </energy>
  </scstep>
  <scstep>
   <time name="dav">   32.03   32.11</time>
   <time name="total">   32.53   32.62</time>
   <energy>
    <i name="e_fr_energy">   -191.49621990 </i>
    <i name="e_wo_entrp">   -191.29452331 </i>
    <i name="e_0_energy">   -191.39537160 </i>
   </energy>
  </scstep>
  <scstep>
   <time name="dav">   28.63   28.70</time>
   <time name="total">   29.14   29.21</time>
   <energy>
    <i name="e_fr_energy">   -191.49402667 </i>
    <i name="e_wo_entrp">   -191.29069575 </i>
    <i name="e_0_energy">   -191.39236121 </i>
   </energy>
  </scstep>
  <scstep>
   <time name="dav">   29.58   29.66</time>
   <time name="total">   30.09   30.17</time>
   <energy>
    <i name="e_fr_energy">   -191.49190878 </i>
    <i name="e_wo_entrp">   -191.28736770 </i>
    <i name="e_0_energy">   -191.38963824 </i>
   </energy>
  </scstep>
  <scstep>
   <time name="dav">   29.67   29.74</time>
   <time name="total">   30.19   30.27</time>
   <energy>
    <i name="e_fr_energy">   -191.49105630 </i>
    <i name="e_wo_entrp">   -191.28620854 </i>
    <i name="e_0_energy">   -191.38863242 </i>
   </energy>
  </scstep>
  <scstep>
   <time name="dav">   29.66   29.73</time>
   <time name="total">   30.17   30.25</time>
   <energy>
    <i name="e_fr_energy">   -191.49161701 </i>
    <i name="e_wo_entrp">   -191.28868266 </i>
    <i name="e_0_energy">   -191.39014984 </i>
   </energy>
  </scstep>
  <scstep>
   <time name="dav">   25.87   25.93</time>
   <time name="total">   26.38   26.45</time>
   <energy>
    <i name="e_fr_energy">   -191.49039066 </i>
    <i name="e_wo_entrp">   -191.28581336 </i>
    <i name="e_0_energy">   -191.38810201 </i>
   </energy>
  </scstep>
  <scstep>
   <time name="dav">   17.34   17.38</time>
   <time name="total">   17.38   17.43</time>
   <energy>
    <i name="alphaZ">     90.28732743 </i>
    <i name="ewald">  44694.84431835 </i>
    <i name="hartreedc"> -50706.94035578 </i>
    <i name="XCdc">   -233.37679598 </i>
    <i name="pawpsdc">   4084.93314422 </i>
    <i name="pawaedc">  -3500.89806049 </i>
    <i name="eentropy">     -0.20435881 </i>
    <i name="bandstr">  -1381.57815032 </i>
    <i name="atom">   6761.44252427 </i>
    <i name="e_fr_energy">   -191.49040710 </i>
    <i name="e_wo_entrp">   -191.28604829 </i>
    <i name="e_0_energy">   -191.38822770 </i>
   </energy>
  </scstep>
  <structure>
   <crystal>
    <varray name="basis" >
     <v>       8.28449796       4.77611121       0.00000000 </v>
     <v>      -8.27942865       4.76735251       0.00000000 </v>
     <v>       0.00000000       0.00000000      30.00000000 </v>
    </varray>
    <i name="volume">   2371.15782507 </i>
    <varray name="rec_basis" >
     <v>       0.06031677       0.10475172       0.00000000 </v>
     <v>      -0.06042758       0.10481586       0.00000000 </v>
     <v>       0.00000000       0.00000000       0.03333333 </v>
    </varray>
   </crystal>
   <varray name="positions" >
    <v>       0.66535373       0.66072179      -0.00066844 </v>
    <v>       0.65997161      -0.00004032      -0.00017365 </v>
    <v>       0.32572587       0.66624062      -0.00005931 </v>
    <v>       0.32105602       0.00663005       0.00003174 </v>
    <v>       0.00858273       0.67203247       0.00018616 </v>
    <v>       0.32951307       0.31448750      -0.00000210 </v>
    <v>       0.02185511       0.00207153       0.00015831 </v>
    <v>       1.00527879       0.34504989       0.00046421 </v>
    <v>       0.65845401       0.33159529      -0.00008562 </v>
    <v>       0.10941402       0.22067782       0.94731316 </v>
    <v>       0.22175728       0.11043562       0.05688680 </v>
    <v>       0.11801958       0.55915164       0.94714007 </v>
    <v>       0.22696715       0.45022484       0.05087038 </v>
    <v>       0.11094305       0.88837812       0.94482867 </v>
    <v>       0.22754719       0.77722041       0.05207893 </v>
[...]
      <set comment="kpoint 31">
       <r>  -17.4955    1.0000 </r>
       <r>  -17.2599    1.0000 </r>
       <r>  -16.9297    1.0000 </r>
       <r>  -16.6155    1.0000 </r>
       <r>  -16.4967    1.0000 </r>
       <r>  -16.4526    1.0000 </r>
       <r>  -16.2991    1.0000 </r>
       <r>  -16.2126    1.0000 </r>
       <r>  -16.0957    1.0000 </r>
       <r>  -16.0131    1.0000 </r>
       <r>  -15.9070    1.0000 </r>
       <r>  -15.8550    1.0000 </r>
       <r>  -15.7747    1.0000 </r>
       <r>  -15.7034    1.0000 </r>
       <r>  -15.6328    1.0000 </r>
       <r>  -15.5269    1.0000 </r>
       <r>  -15.4465    1.0000 </r>
       <r>  -15.3347    1.0000 </r>
       <r>   -9.7371    1.0000 </r>
       <r>   -9.4577    1.0000 </r>
       <r>   -9.3065    1.0000 </r>
       <r>   -8.9657    1.0000 </r>
       <r>   -8.7805    1.0000 </r>
       <r>   -8.7216    1.0000 </r>
       <r>   -8.6123    1.0000 </r>
       <r>   -8.5334    1.0000 </r>
       <r>   -8.3715    1.0000 </r>
       <r>   -8.3447    1.0000 </r>
       <r>   -8.2818    1.0000 </r>
       <r>   -8.1602    1.0000 </r>
       <r>   -8.1098    1.0000 </r>
       <r>   -8.0364    1.0000 </r>
       <r>   -7.9794    1.0000 </r>
       <r>   -7.9368    1.0000 </r>
       <r>   -7.8040    1.0000 </r>
       <r>   -7.6934    1.0000 </r>
       <r>   -7.6205    1.0000 </r>
       <r>   -7.4390    1.0000 </r>
       <r>   -7.4321    1.0000 </r>
       <r>   -7.2367    1.0000 </r>
       <r>   -7.1405    1.0000 </r>
       <r>   -7.0831    1.0000 </r>
       <r>   -6.9968    1.0000 </r>
       <r>   -6.8874    1.0000 </r>
       <r>   -6.8617    1.0000 </r>
       <r>   -6.8455    1.0000 </r>
       <r>   -6.7019    1.0000 </r>
       <r>   -6.6181    1.0000 </r>
       <r>   -6.5657    1.0000 </r>
       <r>   -6.5115    1.0000 </r>
       <r>   -6.4207    1.0000 </r>
       <r>   -6.3253    1.0000 </r>
       <r>   -6.2324    1.0000 </r>
       <r>   -6.1908    1.0000 </r>
       <r>   -6.0910    1.0000 </r>
       <r>   -6.0665    1.0000 </r>
       <r>   -6.0271    1.0000 </r>
       <r>   -5.9020    1.0000 </r>
       <r>   -5.8481    1.0000 </r>
       <r>   -5.7353    1.0000 </r>
       <r>   -5.6862    1.0000 </r>
       <r>   -5.6166    1.0000 </r>
       <r>   -5.5402    1.0000 </r>
       <r>   -5.4255    1.0000 </r>
       <r>   -5.3693    1.0000 </r>
       <r>   -5.2035    1.0000 </r>
       <r>   -5.1036    1.0000 </r>
       <r>   -4.8864    1.0000 </r>
       <r>   -4.7590    1.0000 </r>
       <r>   -4.7050    1.0000 </r>
       <r>   -4.6370    1.0000 </r>
       <r>   -4.4521    1.0000 </r>
       <r>   -4.3649    1.0000 </r>
       <r>   -4.2788    1.0000 </r>
       <r>   -4.1950    1.0000 </r>
       <r>   -4.0201    1.0000 </r>
       <r>   -3.8764    0.9999 </r>
       <r>   -3.6929    0.9943 </r>
       <r>   -3.3865    0.6416 </r>
       <r>   -3.2502    0.2738 </r>
       <r>   -3.1165    0.0610 </r>
       <r>   -2.9081    0.0013 </r>
       <r>   -2.7639    0.0000 </r>
       <r>   -2.5659    0.0000 </r>
       <r>   -2.5008    0.0000 </r>
       <r>   -2.4320    0.0000 </r>
       <r>   -2.1623    0.0000 </r>
       <r>   -2.0880    0.0000 </r>
       <r>   -1.9653    0.0000 </r>
       <r>   -1.8938    0.0000 </r>
       <r>   -1.8394    0.0000 </r>
       <r>   -1.6280    0.0000 </r>
       <r>   -1.5435    0.0000 </r>
       <r>   -1.3962    0.0000 </r>
       <r>   -1.2498    0.0000 </r>
       <r>   -1.1942    0.0000 </r>
       <r>   -1.1152    0.0000 </r>
       <r>   -1.0902    0.0000 </r>
       <r>   -0.9667    0.0000 </r>
       <r>   -0.9032    0.0000 </r>
       <r>   -0.7763    0.0000 </r>
       <r>   -0.7352    0.0000 </r>
       <r>   -0.6731    0.0000 </r>
       <r>   -0.5973    0.0000 </r>
       <r>   -0.5585    0.0000 </r>
       <r>   -0.3675    0.0000 </r>
       <r>   -0.3446    0.0000 </r>
       <r>   -0.2047    0.0000 </r>
       <r>   -0.0361    0.0000 </r>
       <r>    0.1967    0.0000 </r>
       <r>    0.3680    0.0000 </r>
       <r>    0.6388    0.0000 </r>
       <r>    0.8350    0.0000 </r>
       <r>    0.9576    0.0000 </r>
       <r>    1.1581    0.0000 </r>
       <r>    1.2170    0.0000 </r>
       <r>    1.2873    0.0000 </r>
       <r>    2.1297    0.0000 </r>
       <r>    2.2845    0.0000 </r>
       <r>    2.3889    0.0000 </r>
      </set>
      <set comment="kpoint 32">
       <r>  -17.5165    1.0000 </r>
       <r>  -17.1312    1.0000 </r>
       <r>  -17.0902    1.0000 </r>
       <r>  -16.6169    1.0000 </r>
       <r>  -16.4628    1.0000 </r>
       <r>  -16.3673    1.0000 </r>
       <r>  -16.2765    1.0000 </r>
       <r>  -16.2278    1.0000 </r>
       <r>  -16.1234    1.0000 </r>
       <r>  -16.0122    1.0000 </r>
       <r>  -15.9713    1.0000 </r>
       <r>  -15.8506    1.0000 </r>
       <r>  -15.7762    1.0000 </r>
       <r>  -15.7188    1.0000 </r>
       <r>  -15.6253    1.0000 </r>
       <r>  -15.5289    1.0000 </r>
       <r>  -15.4332    1.0000 </r>
       <r>  -15.3234    1.0000 </r>
       <r>   -9.6424    1.0000 </r>
       <r>   -9.5588    1.0000 </r>
       <r>   -9.3846    1.0000 </r>
       <r>   -8.9649    1.0000 </r>
       <r>   -8.7180    1.0000 </r>
       <r>   -8.6087    1.0000 </r>
       <r>   -8.5194    1.0000 </r>
       <r>   -8.4855    1.0000 </r>
       <r>   -8.4238    1.0000 </r>
       <r>   -8.3561    1.0000 </r>
       <r>   -8.2789    1.0000 </r>
       <r>   -8.2101    1.0000 </r>
       <r>   -8.1478    1.0000 </r>
       <r>   -8.0897    1.0000 </r>
       <r>   -8.0529    1.0000 </r>
       <r>   -7.9598    1.0000 </r>
       <r>   -7.8276    1.0000 </r>
       <r>   -7.7055    1.0000 </r>
       <r>   -7.5473    1.0000 </r>
       <r>   -7.4366    1.0000 </r>
       <r>   -7.3585    1.0000 </r>
       <r>   -7.2753    1.0000 </r>
       <r>   -7.1343    1.0000 </r>
       <r>   -7.1185    1.0000 </r>
       <r>   -6.9781    1.0000 </r>
       <r>   -6.9336    1.0000 </r>
       <r>   -6.8887    1.0000 </r>
       <r>   -6.7969    1.0000 </r>
       <r>   -6.6977    1.0000 </r>
       <r>   -6.5917    1.0000 </r>
       <r>   -6.5548    1.0000 </r>
       <r>   -6.5061    1.0000 </r>
       <r>   -6.4463    1.0000 </r>
       <r>   -6.3466    1.0000 </r>
       <r>   -6.2734    1.0000 </r>
       <r>   -6.1927    1.0000 </r>
       <r>   -6.1103    1.0000 </r>
       <r>   -6.0740    1.0000 </r>
       <r>   -5.9814    1.0000 </r>
       <r>   -5.8850    1.0000 </r>
       <r>   -5.8173    1.0000 </r>
       <r>   -5.7524    1.0000 </r>
       <r>   -5.6745    1.0000 </r>
       <r>   -5.5859    1.0000 </r>
       <r>   -5.5063    1.0000 </r>
       <r>   -5.4318    1.0000 </r>
       <r>   -5.3244    1.0000 </r>
       <r>   -5.2249    1.0000 </r>
       <r>   -5.0880    1.0000 </r>
       <r>   -4.9741    1.0000 </r>
       <r>   -4.8072    1.0000 </r>
       <r>   -4.6792    1.0000 </r>
       <r>   -4.6387    1.0000 </r>
       <r>   -4.4694    1.0000 </r>
       <r>   -4.3448    1.0000 </r>
       <r>   -4.3015    1.0000 </r>
       <r>   -4.1937    1.0000 </r>
       <r>   -4.0052    1.0000 </r>
       <r>   -3.9215    1.0000 </r>
       <r>   -3.6137    0.9755 </r>
       <r>   -3.4864    0.8574 </r>
       <r>   -3.2908    0.3768 </r>
       <r>   -3.0723    0.0315 </r>
       <r>   -2.8433    0.0003 </r>
       <r>   -2.7245    0.0000 </r>
       <r>   -2.5531    0.0000 </r>
       <r>   -2.4968    0.0000 </r>
       <r>   -2.3999    0.0000 </r>
       <r>   -2.1818    0.0000 </r>
       <r>   -2.0720    0.0000 </r>
       <r>   -1.9767    0.0000 </r>
       <r>   -1.8974    0.0000 </r>
       <r>   -1.8340    0.0000 </r>
       <r>   -1.6397    0.0000 </r>
       <r>   -1.5249    0.0000 </r>
       <r>   -1.4250    0.0000 </r>
       <r>   -1.2531    0.0000 </r>
       <r>   -1.2006    0.0000 </r>
       <r>   -1.1050    0.0000 </r>
       <r>   -1.0594    0.0000 </r>
       <r>   -0.9936    0.0000 </r>
       <r>   -0.9164    0.0000 </r>
       <r>   -0.8080    0.0000 </r>
       <r>   -0.7367    0.0000 </r>
       <r>   -0.6745    0.0000 </r>
       <r>   -0.5972    0.0000 </r>
       <r>   -0.5116    0.0000 </r>
       <r>   -0.3906    0.0000 </r>
       <r>   -0.2999    0.0000 </r>
       <r>   -0.1497    0.0000 </r>
       <r>   -0.0552    0.0000 </r>
       <r>    0.1500    0.0000 </r>
       <r>    0.4176    0.0000 </r>
       <r>    0.6269    0.0000 </r>
       <r>    0.8208    0.0000 </r>
       <r>    0.8890    0.0000 </r>
       <r>    1.1369    0.0000 </r>
       <r>    1.2125    0.0000 </r>
       <r>    1.2800    0.0000 </r>
       <r>    2.0930    0.0000 </r>
       <r>    2.2569    0.0000 </r>
       <r>    2.5530    0.0000 </r>
      </set>
      <set comment="kpoint 33">
       <r>  -17.5070    1.0000 </r>
       <r>  -17.2424    1.0000 </r>
       <r>  -16.9360    1.0000 </r>
       <r>  -16.6208    1.0000 </r>
       <r>  -16.5361    1.0000 </r>
       <r>  -16.4080    1.0000 </r>
       <r>  -16.2785    1.0000 </r>
       <r>  -16.1578    1.0000 </r>
       <r>  -16.1203    1.0000 </r>
       <r>  -16.0260    1.0000 </r>
       <r>  -15.9325    1.0000 </r>
       <r>  -15.8414    1.0000 </r>
       <r>  -15.7911    1.0000 </r>
       <r>  -15.7391    1.0000 </r>
       <r>  -15.6369    1.0000 </r>
       <r>  -15.5231    1.0000 </r>
       <r>  -15.4375    1.0000 </r>
       <r>  -15.3198    1.0000 </r>
       <r>   -9.7072    1.0000 </r>
       <r>   -9.4110    1.0000 </r>
       <r>   -9.3389    1.0000 </r>
       <r>   -9.0216    1.0000 </r>
       <r>   -8.8316    1.0000 </r>
       <r>   -8.7440    1.0000 </r>
       <r>   -8.5259    1.0000 </r>
       <r>   -8.4787    1.0000 </r>
       <r>   -8.3964    1.0000 </r>
       <r>   -8.3253    1.0000 </r>
       <r>   -8.2454    1.0000 </r>
       <r>   -8.1895    1.0000 </r>
       <r>   -8.1418    1.0000 </r>
       <r>   -8.0715    1.0000 </r>
       <r>   -8.0203    1.0000 </r>
       <r>   -7.9047    1.0000 </r>
       <r>   -7.7736    1.0000 </r>
       <r>   -7.7476    1.0000 </r>
       <r>   -7.6143    1.0000 </r>
       <r>   -7.4454    1.0000 </r>
       <r>   -7.3237    1.0000 </r>
       <r>   -7.2418    1.0000 </r>
       <r>   -7.1326    1.0000 </r>
       <r>   -7.0795    1.0000 </r>
       <r>   -6.9881    1.0000 </r>
       <r>   -6.9680    1.0000 </r>
       <r>   -6.8380    1.0000 </r>
       <r>   -6.8047    1.0000 </r>
       <r>   -6.7021    1.0000 </r>
       <r>   -6.5797    1.0000 </r>
       <r>   -6.5672    1.0000 </r>
       <r>   -6.5127    1.0000 </r>
       <r>   -6.4490    1.0000 </r>
       <r>   -6.3411    1.0000 </r>
       <r>   -6.3058    1.0000 </r>
       <r>   -6.1862    1.0000 </r>
       <r>   -6.0953    1.0000 </r>
       <r>   -6.0825    1.0000 </r>
       <r>   -6.0114    1.0000 </r>
       <r>   -5.9584    1.0000 </r>
       <r>   -5.8441    1.0000 </r>
       <r>   -5.7863    1.0000 </r>
       <r>   -5.7014    1.0000 </r>
       <r>   -5.6577    1.0000 </r>
       <r>   -5.5119    1.0000 </r>
       <r>   -5.4369    1.0000 </r>
       <r>   -5.2860    1.0000 </r>
       <r>   -5.1359    1.0000 </r>
       <r>   -5.0687    1.0000 </r>
       <r>   -4.9114    1.0000 </r>
       <r>   -4.8035    1.0000 </r>
       <r>   -4.6374    1.0000 </r>
       <r>   -4.6038    1.0000 </r>
       <r>   -4.5138    1.0000 </r>
       <r>   -4.3388    1.0000 </r>
       <r>   -4.2779    1.0000 </r>
       <r>   -4.1983    1.0000 </r>
       <r>   -4.0032    1.0000 </r>
       <r>   -3.9612    1.0000 </r>
       <r>   -3.6630    0.9898 </r>
       <r>   -3.5097    0.8913 </r>
       <r>   -3.3610    0.5724 </r>
       <r>   -3.0344    0.0167 </r>
       <r>   -2.7908    0.0001 </r>
       <r>   -2.6933    0.0000 </r>
       <r>   -2.5520    0.0000 </r>
       <r>   -2.4741    0.0000 </r>
       <r>   -2.3778    0.0000 </r>
       <r>   -2.1837    0.0000 </r>
       <r>   -2.0876    0.0000 </r>
       <r>   -1.9709    0.0000 </r>
       <r>   -1.8756    0.0000 </r>
       <r>   -1.8162    0.0000 </r>
       <r>   -1.6376    0.0000 </r>
       <r>   -1.5356    0.0000 </r>
       <r>   -1.4016    0.0000 </r>
       <r>   -1.2847    0.0000 </r>
       <r>   -1.2081    0.0000 </r>
       <r>   -1.1032    0.0000 </r>
       <r>   -1.0413    0.0000 </r>
       <r>   -1.0112    0.0000 </r>
       <r>   -0.9091    0.0000 </r>
       <r>   -0.8018    0.0000 </r>
       <r>   -0.7636    0.0000 </r>
       <r>   -0.6805    0.0000 </r>
       <r>   -0.6236    0.0000 </r>
       <r>   -0.4822    0.0000 </r>
       <r>   -0.4420    0.0000 </r>
       <r>   -0.2842    0.0000 </r>
       <r>   -0.0887    0.0000 </r>
       <r>   -0.0715    0.0000 </r>
       <r>    0.1497    0.0000 </r>
       <r>    0.3828    0.0000 </r>
       <r>    0.6334    0.0000 </r>
       <r>    0.8599    0.0000 </r>
       <r>    0.8686    0.0000 </r>
       <r>    1.0629    0.0000 </r>
       <r>    1.2314    0.0000 </r>
       <r>    1.3241    0.0000 </r>
       <r>    2.1162    0.0000 </r>
       <r>    2.2917    0.0000 </r>
       <r>    2.3686    0.0000 </r>
      </set>
      <set comment="kpoint 34">
       <r>  -17.4912    1.0000 </r>
       <r>  -17.3006    1.0000 </r>
       <r>  -16.7802    1.0000 </r>
       <r>  -16.6850    1.0000 </r>
       <r>  -16.6141    1.0000 </r>
       <r>  -16.4168    1.0000 </r>
       <r>  -16.2848    1.0000 </r>
       <r>  -16.1527    1.0000 </r>
       <r>  -16.0873    1.0000 </r>
       <r>  -16.0405    1.0000 </r>
       <r>  -15.8533    1.0000 </r>
       <r>  -15.8529    1.0000 </r>
       <r>  -15.8058    1.0000 </r>
       <r>  -15.7558    1.0000 </r>
       <r>  -15.6527    1.0000 </r>
       <r>  -15.5193    1.0000 </r>
       <r>  -15.4406    1.0000 </r>
       <r>  -15.3216    1.0000 </r>
       <r>   -9.7426    1.0000 </r>
       <r>   -9.2680    1.0000 </r>
       <r>   -9.2498    1.0000 </r>
       <r>   -9.1200    1.0000 </r>
       <r>   -8.9472    1.0000 </r>
       <r>   -8.8387    1.0000 </r>
       <r>   -8.5395    1.0000 </r>
       <r>   -8.4565    1.0000 </r>
       <r>   -8.3931    1.0000 </r>
       <r>   -8.3617    1.0000 </r>
       <r>   -8.2354    1.0000 </r>
       <r>   -8.1756    1.0000 </r>
       <r>   -8.1029    1.0000 </r>
       <r>   -8.0270    1.0000 </r>
       <r>   -7.9372    1.0000 </r>
       <r>   -7.9316    1.0000 </r>
       <r>   -7.7911    1.0000 </r>
       <r>   -7.7350    1.0000 </r>
       <r>   -7.5622    1.0000 </r>
       <r>   -7.4683    1.0000 </r>
       <r>   -7.3250    1.0000 </r>
       <r>   -7.2196    1.0000 </r>
       <r>   -7.1400    1.0000 </r>
       <r>   -7.0750    1.0000 </r>
       <r>   -7.0590    1.0000 </r>
       <r>   -6.9884    1.0000 </r>
       <r>   -6.8151    1.0000 </r>
       <r>   -6.7608    1.0000 </r>
       <r>   -6.6597    1.0000 </r>
       <r>   -6.6221    1.0000 </r>
       <r>   -6.5534    1.0000 </r>
       <r>   -6.4599    1.0000 </r>
       <r>   -6.4243    1.0000 </r>
       <r>   -6.3936    1.0000 </r>
       <r>   -6.2730    1.0000 </r>
       <r>   -6.2288    1.0000 </r>
       <r>   -6.1384    1.0000 </r>
       <r>   -6.1170    1.0000 </r>
       <r>   -6.0079    1.0000 </r>
       <r>   -5.9907    1.0000 </r>
       <r>   -5.8480    1.0000 </r>
       <r>   -5.8016    1.0000 </r>
       <r>   -5.7458    1.0000 </r>
       <r>   -5.6661    1.0000 </r>
       <r>   -5.5268    1.0000 </r>
       <r>   -5.4071    1.0000 </r>
       <r>   -5.3721    1.0000 </r>
       <r>   -5.1168    1.0000 </r>
       <r>   -4.9033    1.0000 </r>
       <r>   -4.8471    1.0000 </r>
       <r>   -4.8211    1.0000 </r>
       <r>   -4.6816    1.0000 </r>
       <r>   -4.5816    1.0000 </r>
       <r>   -4.5249    1.0000 </r>
       <r>   -4.3505    1.0000 </r>
       <r>   -4.2444    1.0000 </r>
       <r>   -4.1754    1.0000 </r>
       <r>   -4.0036    1.0000 </r>
       <r>   -3.9774    1.0000 </r>
       <r>   -3.7290    0.9973 </r>
       <r>   -3.5176    0.9014 </r>
       <r>   -3.3852    0.6381 </r>
       <r>   -3.0211    0.0132 </r>
       <r>   -2.7736    0.0000 </r>
       <r>   -2.6825    0.0000 </r>
       <r>   -2.5543    0.0000 </r>
       <r>   -2.4596    0.0000 </r>
       <r>   -2.3696    0.0000 </r>
       <r>   -2.1800    0.0000 </r>
       <r>   -2.1069    0.0000 </r>
       <r>   -1.9565    0.0000 </r>
       <r>   -1.8467    0.0000 </r>
       <r>   -1.8204    0.0000 </r>
       <r>   -1.6316    0.0000 </r>
       <r>   -1.5489    0.0000 </r>
       <r>   -1.3919    0.0000 </r>
       <r>   -1.2851    0.0000 </r>
       <r>   -1.2160    0.0000 </r>
       <r>   -1.1038    0.0000 </r>
       <r>   -1.0307    0.0000 </r>
       <r>   -1.0112    0.0000 </r>
       <r>   -0.8885    0.0000 </r>
       <r>   -0.8367    0.0000 </r>
       <r>   -0.7606    0.0000 </r>
       <r>   -0.7140    0.0000 </r>
       <r>   -0.6146    0.0000 </r>
       <r>   -0.4829    0.0000 </r>
       <r>   -0.4566    0.0000 </r>
       <r>   -0.2875    0.0000 </r>
       <r>   -0.0888    0.0000 </r>
       <r>   -0.0577    0.0000 </r>
       <r>    0.1730    0.0000 </r>
       <r>    0.3429    0.0000 </r>
       <r>    0.6329    0.0000 </r>
       <r>    0.8651    0.0000 </r>
       <r>    0.9151    0.0000 </r>
       <r>    1.0189    0.0000 </r>
       <r>    1.2402    0.0000 </r>
       <r>    1.3515    0.0000 </r>
       <r>    2.1764    0.0000 </r>
       <r>    2.2417    0.0000 </r>
       <r>    2.3703    0.0000 </r>
      </set>
     </set>
    </set>
   </array>
  </eigenvalues>
  <separator name="orbital magnetization" >
   <v name="MAGDIPOLOUT">      0.00000000      0.00000000      0.00000000</v>
  </separator>
 </calculation>
 <structure name="finalpos" >
  <crystal>
   <varray name="basis" >
    <v>       8.39191061       4.84360790       0.00000000 </v>
    <v>      -8.37526610       4.81453365       0.00000000 </v>
    <v>       0.00000000       0.00000000      30.00000000 </v>
   </varray>
   <i name="volume">   2429.08923170 </i>
   <varray name="rec_basis" >
    <v>       0.05946097       0.10343712       0.00000000 </v>
    <v>      -0.05982005       0.10364268       0.00000000 </v>
    <v>       0.00000000       0.00000000       0.03333333 </v>
   </varray>
  </crystal>
  <varray name="positions" >
   <v>       0.63138489       0.65293362      -0.00046402 </v>
   <v>       0.63791043      -0.01227765       0.00022598 </v>
   <v>       0.32069463       0.67484415      -0.00058300 </v>
   <v>       0.33235883       0.00640508      -0.00022335 </v>
   <v>       0.03514339       0.68277298       0.00008561 </v>
   <v>       0.35047413       0.31219815       0.00069519 </v>
   <v>       0.03356318      -0.00542241       0.00160507 </v>
   <v>       0.99303163       0.36542391      -0.00162452 </v>
   <v>       0.64330130       0.31799557      -0.00039106 </v>
   <v>       0.10988687       0.22310060       0.95361806 </v>
   <v>       0.23116975       0.11093487       0.05743602 </v>
   <v>       0.11980409       0.56418395       0.94373549 </v>
   <v>       0.22283240       0.44239726       0.04416598 </v>
   <v>       0.11858428       0.89048175       0.94402272 </v>
   <v>       0.23596024       0.78296059       0.05431108 </v>
   <v>       0.44635200       0.21559747       0.94312190 </v>
   <v>       0.56056507       0.11063792       0.05328445 </v>
   <v>       0.43402097       0.54804092       0.95065576 </v>
   <v>       0.55926078       0.44863079       0.05337401 </v>
   <v>       0.44491745       0.88313434       0.94775415 </v>
   <v>       0.54622046       0.77412662       0.04978493 </v>
   <v>       0.77188655       0.21658145       0.94926858 </v>
   <v>       0.88959581       0.11204582       0.04162372 </v>
   <v>       0.77875470       0.56232722       0.95673333 </v>
   <v>       0.88633463       0.45514350       0.05186968 </v>
   <v>       0.77790469       0.88708019       0.95732290 </v>
   <v>       0.88630129       0.77593578       0.04859124 </v>
  </varray>
 </structure>
</modeling>
