unknown system                          
           1
     8.861771    5.106576    0.000000
    -8.860422    5.104257    0.000000
     0.000000    0.000000   30.000000
   V    Mo   W    S 
   3   3   3  18
Direct configuration=     1
   0.66666669  0.66666669  0.00000000
   0.66666669  0.00000000  0.00000000
   0.33333334  0.66666669  0.00000000
   0.33333334  0.00000000  0.00000000
   0.00000000  0.66666669  0.00000000
   0.33333334  0.33333334  0.00000000
   0.00000000  0.00000000  0.00000000
   1.00000000  0.33333334  0.00000000
   0.66666669  0.33333334  0.00000000
   0.11068511  0.22244981  0.95539999
   0.22244981  0.11068511  0.04460000
   0.11068511  0.55578315  0.95539999
   0.22244981  0.44401845  0.04460000
   0.11068511  0.88911647  0.95539999
   0.22244981  0.77735180  0.04460000
   0.44401845  0.22244981  0.95539999
   0.55578315  0.11068511  0.04460000
   0.44401845  0.55578315  0.95539999
   0.55578315  0.44401845  0.04460000
   0.44401845  0.88911647  0.95539999
   0.55578315  0.77735180  0.04460000
   0.77735180  0.22244981  0.95539999
   0.88911647  0.11068511  0.04460000
   0.77735180  0.55578315  0.95539999
   0.88911647  0.44401845  0.04460000
   0.77735180  0.88911647  0.95539999
   0.88911647  0.77735180  0.04460000
unknown system                          
           1
     8.671518    4.999547    0.000000
    -8.670196    4.997273    0.000000
     0.000000    0.000000   30.000000
   V    Mo   W    S 
   3   3   3  18
Direct configuration=     2
   0.66615633  0.66597974 -0.00000962
   0.66507482 -0.00083664  0.00001934
   0.33313973  0.66715422 -0.00001240
   0.33202706 -0.00017590  0.00014677
   0.00143788  0.66804328 -0.00009233
   0.33338170  0.33217582  0.00005553
   0.00239779 -0.00055362  0.00017059
   1.00173694  0.33501963 -0.00015456
   0.66500557  0.33336137 -0.00017327
   0.11004586  0.22174956  0.95076921
   0.22110123  0.11049763  0.04937091
   0.11488296  0.55660205  0.95188093
   0.22339313  0.44830120  0.04807463
   0.11047780  0.88905833  0.95069003
   0.22463211  0.77539691  0.04798983
   0.44552692  0.22265300  0.95078014
   0.55822094  0.10946111  0.04797408
   0.44634409  0.55991772  0.95316487
   0.55802479  0.44837805  0.04810939
   0.44651150  0.88654900  0.95308046
   0.55559565  0.77754427  0.04584843
   0.77598710  0.21855614  0.95191547
   0.88510850  0.10920391  0.04801454
   0.77483543  0.55681586  0.95199790
   0.88830265  0.44354567  0.04917117
   0.77409879  0.88724126  0.95318303
   0.88476718  0.77657487  0.04803483
unknown system                          
           1
     8.487614    4.899997    0.000000
    -8.486329    4.897783    0.000000
     0.000000    0.000000   30.000000
   V    Mo   W    S 
   3   3   3  18
Direct configuration=     3
   0.66603824  0.66567646 -0.00006330
   0.66472243 -0.00091427  0.00001248
   0.33289762  0.66716690 -0.00002190
   0.33124254  0.00005164  0.00017029
   0.00190385  0.66847647 -0.00005695
   0.33314184  0.33126878  0.00002526
   0.00361373 -0.00046125  0.00019569
   1.00216526  0.33555325 -0.00011589
   0.66455476  0.33335844 -0.00019028
   0.10977936  0.22162357  0.95077991
   0.22086959  0.11035194  0.04954541
   0.11490516  0.55646820  0.95182877
   0.22325483  0.44829874  0.04804935
   0.11034703  0.88917962  0.95057058
   0.22471691  0.77535660  0.04803572
   0.44575898  0.22276152  0.95070302
   0.55834231  0.10964796  0.04795555
   0.44642175  0.56001040  0.95325742
   0.55819234  0.44835688  0.04812763
   0.44652917  0.88648867  0.95314028
   0.55555455  0.77753890  0.04576872
   0.77604029  0.21873961  0.95199202
   0.88529491  0.10925584  0.04786514
   0.77467909  0.55662295  0.95200290
   0.88819242  0.44329500  0.04908173
   0.77426865  0.88728593  0.95332644
   0.88478684  0.77675569  0.04801391
unknown system                          
           1
     8.285865    4.781289    0.000000
    -8.280908    4.772716    0.000000
     0.000000    0.000000   30.000000
   V    Mo   W    S 
   3   3   3  18
Direct configuration=     4
   0.66591529  0.66426811 -0.00026538
   0.66388716 -0.00049057 -0.00003488
   0.33124197  0.66673390 -0.00006641
   0.32787316  0.00153690  0.00018561
   0.00353013  0.66988824  0.00008190
   0.33182534  0.32693534 -0.00008079
   0.00877320  0.00039792  0.00019565
   1.00336444  0.33741122  0.00008522
   0.66315329  0.33328306 -0.00015930
   0.10942487  0.22136800  0.94919326
   0.22091857  0.11028429  0.05196048
   0.11626992  0.55731427  0.95010419
   0.22414904  0.44950344  0.04941750
   0.11033532  0.88921408  0.94845569
   0.22556978  0.77493066  0.04966141
   0.44572445  0.22256729  0.94875894
   0.55865887  0.10917567  0.04932819
   0.44698323  0.56100466  0.95231262
   0.55868538  0.44944150  0.04968129
   0.44684396  0.88596895  0.95206766
   0.55538273  0.77747086  0.04671096
   0.77555350  0.21797038  0.95079114
   0.88460081  0.10866681  0.04873093
   0.77425368  0.55717202  0.95055708
   0.88800627  0.44308654  0.05033789
   0.77363431  0.88684817  0.95257493
   0.88365580  0.77626273  0.04941411
unknown system                          
           1
     8.295726    4.783658    0.000000
    -8.289576    4.773022    0.000000
     0.000000    0.000000   30.000000
   V    Mo   W    S 
   3   3   3  18
Direct configuration=     5
   0.66575737  0.66179658 -0.00054382
   0.66236252  0.00048067 -0.00016145
   0.32780140  0.66583344 -0.00015906
   0.32171819  0.00510748  0.00007795
   0.00658818  0.67211024  0.00027464
   0.32922602  0.31785507 -0.00015347
   0.01850862  0.00215842  0.00010681
   1.00512804  0.34120211  0.00039038
   0.66054800  0.33279982  0.00000543
   0.10928087  0.22090002  0.94722446
   0.22146220  0.11045879  0.05574685
   0.11796040  0.55868620  0.94774144
   0.22598532  0.45076626  0.05106272
   0.11067617  0.88890665  0.94550607
   0.22683183  0.77536044  0.05183308
   0.44517950  0.22170096  0.94607457
   0.55786614  0.10841228  0.05105315
   0.44682102  0.56077589  0.95113660
   0.55836861  0.45026591  0.05164891
   0.44630874  0.88576887  0.95065995
   0.55495253  0.77718998  0.04815952
   0.77519062  0.21746440  0.94922544
   0.88450356  0.10788100  0.04960356
   0.77432298  0.55784183  0.94868198
   0.88772148  0.44354433  0.05186748
   0.77411424  0.88676456  0.95177963
   0.88302990  0.77618226  0.05115709
unknown system                          
           1
     8.284498    4.776111    0.000000
    -8.279429    4.767353    0.000000
     0.000000    0.000000   30.000000
   V    Mo   W    S 
   3   3   3  18
Direct configuration=     6
   0.66562041  0.66139071 -0.00056838
   0.66149575  0.00035298 -0.00016353
   0.32699722  0.66596402 -0.00011020
   0.32180005  0.00560831  0.00006077
   0.00728400  0.67197751  0.00024396
   0.32933526  0.31675393 -0.00004458
   0.01940189  0.00216767  0.00015553
   1.00514473  0.34261207  0.00040663
   0.65981860  0.33231788 -0.00002272
   0.10934476  0.22072297  0.94724803
   0.22160258  0.11053118  0.05625196
   0.11787777  0.55883436  0.94754499
   0.22646136  0.45040536  0.05094786
   0.11080032  0.88861496  0.94519161
   0.22716272  0.77638312  0.05187946
   0.44490286  0.22122654  0.94585299
   0.55686836  0.10828750  0.05104413
   0.44590038  0.55925185  0.95127686
   0.55773255  0.44976129  0.05169670
   0.44544795  0.88624145  0.95066456
   0.55477090  0.77704159  0.04815390
   0.77545170  0.21807278  0.94924445
   0.88540957  0.10786906  0.04929924
   0.77465500  0.55761571  0.94870178
   0.88759604  0.44404321  0.05190999
   0.77554715  0.88739638  0.95201666
   0.88378458  0.77677006  0.05111729
unknown system                          
           1
     8.294079    4.780638    0.000000
    -8.288825    4.771560    0.000000
     0.000000    0.000000   30.000000
   V    Mo   W    S 
   3   3   3  18
Direct configuration=     7
   0.66535373  0.66072179 -0.00066844
   0.65997161 -0.00004032 -0.00017365
   0.32572587  0.66624062 -0.00005931
   0.32105602  0.00663005  0.00003174
   0.00858273  0.67203247  0.00018616
   0.32951307  0.31448750 -0.00000210
   0.02185511  0.00207153  0.00015831
   1.00527879  0.34504989  0.00046421
   0.65845401  0.33159529 -0.00008562
   0.10941402  0.22067782  0.94731316
   0.22175728  0.11043562  0.05688680
   0.11801958  0.55915164  0.94714007
   0.22696715  0.45022484  0.05087038
   0.11094305  0.88837812  0.94482867
   0.22754719  0.77722041  0.05207893
   0.44470439  0.22084367  0.94548063
   0.55610349  0.10819508  0.05118861
   0.44503612  0.55789416  0.95145446
   0.55729019  0.44937565  0.05188443
   0.44472797  0.88657384  0.95054889
   0.55456993  0.77691452  0.04817113
   0.77565816  0.21861404  0.94919781
   0.88622783  0.10799139  0.04892771
   0.77493904  0.55740740  0.94867427
   0.88735194  0.44450261  0.05205120
   0.77675152  0.88794730  0.95228683
   0.88441467  0.77707751  0.05116462
unknown system                          
           1
     8.299086    4.781470    0.000000
    -8.293897    4.772509    0.000000
     0.000000    0.000000   30.000000
   V    Mo   W    S 
   3   3   3  18
Direct configuration=     8
   0.66527560  0.66070479 -0.00068364
   0.65960282 -0.00027998 -0.00016849
   0.32563704  0.66639168 -0.00004962
   0.32133275  0.00658655  0.00003171
   0.00872992  0.67190376  0.00019204
   0.32985761  0.31464186  0.00002033
   0.02169846  0.00180850  0.00018815
   1.00517671  0.34550267  0.00047694
   0.65828063  0.33144495 -0.00009455
   0.10941064  0.22070943  0.94743395
   0.22176774  0.11041638  0.05682530
   0.11803551  0.55916843  0.94714074
   0.22695247  0.45019517  0.05077651
   0.11097866  0.88833584  0.94486545
   0.22755986  0.77727520  0.05204061
   0.44473352  0.22081600  0.94550189
   0.55612036  0.10824448  0.05116118
   0.44495345  0.55780414  0.95154150
   0.55729880  0.44933548  0.05184400
   0.44471734  0.88657264  0.95056154
   0.55455244  0.77691913  0.04811088
   0.77568516  0.21865077  0.94925237
   0.88631862  0.10809053  0.04879668
   0.77494681  0.55735071  0.94874617
   0.88728044  0.44455084  0.05201551
   0.77682242  0.88800423  0.95237088
   0.88448865  0.77707030  0.05110187
unknown system                          
           1
     8.286499    4.779303    0.000000
    -8.280515    4.768953    0.000000
     0.000000    0.000000   30.000000
   V    Mo   W    S 
   3   3   3  18
Direct configuration=     9
   0.66498619  0.66036486 -0.00076768
   0.65816524 -0.00094402 -0.00016412
   0.32487560  0.66678908 -0.00001556
   0.32137229  0.00704830  0.00001225
   0.00967054  0.67176491  0.00017249
   0.33060562  0.31374353  0.00005948
   0.02267745  0.00122431  0.00022851
   1.00503156  0.34753086  0.00051852
   0.65731131  0.33081734 -0.00014832
   0.10942306  0.22074563  0.94767499
   0.22188280  0.11034162  0.05704410
   0.11818798  0.55938519  0.94691578
   0.22716668  0.45013477  0.05060648
   0.11111918  0.88818023  0.94473190
   0.22776878  0.77767400  0.05211853
   0.44470248  0.22059915  0.94532906
   0.55588699  0.10828832  0.05122469
   0.44448743  0.55718041  0.95174059
   0.55717800  0.44916169  0.05190361
   0.44444799  0.88666077  0.95048060
   0.55441479  0.77686280  0.04805098
   0.77578773  0.21888507  0.94930119
   0.88678670  0.10832085  0.04841256
   0.77506575  0.55718720  0.94883200
   0.88701674  0.44483208  0.05206706
   0.77737534  0.88830966  0.95260848
   0.88482022  0.77712584  0.05106172
unknown system                          
           1
     8.284040    4.780329    0.000000
    -8.277583    4.769154    0.000000
     0.000000    0.000000   30.000000
   V    Mo   W    S 
   3   3   3  18
Direct configuration=    10
   0.66567068  0.66100865 -0.00057877
   0.66146925  0.00078067 -0.00019039
   0.32633164  0.66587135 -0.00008281
   0.32091934  0.00621861  0.00005452
   0.00769088  0.67200162  0.00019630
   0.32848808  0.31508274 -0.00003111
   0.02111814  0.00279835  0.00010539
   1.00559049  0.34326756  0.00044593
   0.65936650  0.33219628 -0.00002053
   0.10942046  0.22062728  0.94705337
   0.22162845  0.11048262  0.05673402
   0.11783592  0.55888888  0.94737499
   0.22686805  0.45024545  0.05100374
   0.11079007  0.88847689  0.94496418
   0.22739349  0.77701183  0.05194437
   0.44469336  0.22102948  0.94567459
   0.55611154  0.10813291  0.05106507
   0.44529269  0.55813786  0.95136584
   0.55726203  0.44943684  0.05178044
   0.44477523  0.88659340  0.95072353
   0.55470988  0.77696326  0.04814483
   0.77560790  0.21854908  0.94918372
   0.88591414  0.10775656  0.04926045
   0.77485538  0.55748260  0.94861126
   0.88760539  0.44423948  0.05193639
   0.77651760  0.88776513  0.95214929
   0.88428791  0.77716908  0.05113130
unknown system                          
           1
     8.278502    4.778005    0.000000
    -8.272061    4.766855    0.000000
     0.000000    0.000000   30.000000
   V    Mo   W    S 
   3   3   3  18
Direct configuration=    11
   0.66625678  0.66121992 -0.00046334
   0.66391691  0.00233687 -0.00023089
   0.32698617  0.66518081 -0.00012681
   0.32016986  0.00583397  0.00008006
   0.00643291  0.67218071  0.00020295
   0.32634164  0.31523886 -0.00003745
   0.02081177  0.00446983  0.00005622
   1.00640419  0.34028729  0.00042445
   0.66056606  0.33317254  0.00007900
   0.10940334  0.22052150  0.94647648
   0.22136890  0.11052012  0.05676098
   0.11758571  0.55849929  0.94761545
   0.22681807  0.45022330  0.05130731
   0.11053680  0.88852207  0.94498212
   0.22720163  0.77684172  0.05183437
   0.44458228  0.22122023  0.94584352
   0.55592023  0.10795456  0.05092736
   0.44551859  0.55819549  0.95121856
   0.55701474  0.44940907  0.05170074
   0.44469312  0.88677493  0.95098454
   0.55493108  0.77707319  0.04814168
   0.77567707  0.21862949  0.94910466
   0.88560223  0.10738396  0.04978698
   0.77478034  0.55758230  0.94841958
   0.88801259  0.44388669  0.05182746
   0.77645226  0.88761882  0.95195351
   0.88422917  0.77743692  0.05113040
unknown system                          
           1
     8.284876    4.780810    0.000000
    -8.278451    4.769689    0.000000
     0.000000    0.000000   30.000000
   V    Mo   W    S 
   3   3   3  18
Direct configuration=    12
   0.66640427  0.66081360 -0.00050202
   0.66406777  0.00274572 -0.00027782
   0.32663000  0.66508178 -0.00014526
   0.31959193  0.00595425  0.00007161
   0.00658965  0.67256669  0.00017460
   0.32548933  0.31449311  0.00000288
   0.02169216  0.00528650  0.00002156
   1.00716143  0.33977213  0.00041145
   0.66016162  0.33327394  0.00009949
   0.10942638  0.22050797  0.94633335
   0.22129906  0.11046237  0.05698348
   0.11750297  0.55831922  0.94763557
   0.22689189  0.45005872  0.05133760
   0.11041601  0.88844372  0.94492524
   0.22718747  0.77705395  0.05180256
   0.44441350  0.22115990  0.94586340
   0.55566576  0.10795963  0.05085036
   0.44518810  0.55759386  0.95138464
   0.55667382  0.44913012  0.05166512
   0.44444626  0.88703576  0.95113857
   0.55501007  0.77716371  0.04801912
   0.77600581  0.21907147  0.94916246
   0.88592912  0.10744709  0.04974706
   0.77481125  0.55742607  0.94840752
   0.88808334  0.44382899  0.05170787
   0.77694753  0.88784923  0.95212703
   0.88452793  0.77771496  0.05105247
unknown system                          
           1
     8.288038    4.782309    0.000000
    -8.281445    4.770899    0.000000
     0.000000    0.000000   30.000000
   V    Mo   W    S 
   3   3   3  18
Direct configuration=    13
   0.66627750  0.66045393 -0.00056183
   0.66303204  0.00238524 -0.00028365
   0.32602512  0.66538571 -0.00012011
   0.31965523  0.00613234  0.00008553
   0.00728621  0.67269024  0.00017197
   0.32595124  0.31399204  0.00006167
   0.02228862  0.00497068  0.00006842
   1.00732476  0.34087543  0.00044294
   0.65929109  0.33279290  0.00007511
   0.10945863  0.22054689  0.94643521
   0.22137255  0.11038603  0.05713750
   0.11760685  0.55845483  0.94747696
   0.22704674  0.45005404  0.05126059
   0.11048164  0.88834131  0.94480800
   0.22728645  0.77727007  0.05187561
   0.44435940  0.22100910  0.94572413
   0.55556900  0.10801026  0.05091267
   0.44486152  0.55721131  0.95151355
   0.55658341  0.44902759  0.05174050
   0.44429568  0.88709159  0.95105627
   0.55494608  0.77716306  0.04796984
   0.77612625  0.21928805  0.94920198
   0.88621753  0.10758917  0.04950510
   0.77491371  0.55729997  0.94844014
   0.88792268  0.44396392  0.05168169
   0.77729744  0.88806515  0.95229258
   0.88473709  0.77776360  0.05102751
unknown system                          
           1
     8.286412    4.781736    0.000000
    -8.279808    4.770306    0.000000
     0.000000    0.000000   30.000000
   V    Mo   W    S 
   3   3   3  18
Direct configuration=    14
   0.66622219  0.66010440 -0.00061210
   0.66229411  0.00216148 -0.00029974
   0.32560275  0.66562866 -0.00010637
   0.31965648  0.00626045  0.00008608
   0.00777608  0.67285618  0.00015252
   0.32613373  0.31357831  0.00009189
   0.02281492  0.00486059  0.00007676
   1.00768633  0.34158512  0.00045717
   0.65848971  0.33246465  0.00005082
   0.10950029  0.22055597  0.94650463
   0.22141303  0.11030777  0.05725434
   0.11766711  0.55852550  0.94738467
   0.22718736  0.45006755  0.05121404
   0.11052401  0.88829736  0.94474860
   0.22734210  0.77742682  0.05192941
   0.44427956  0.22089780  0.94565027
   0.55548138  0.10805702  0.05095361
   0.44464256  0.55691888  0.95164351
   0.55651577  0.44896440  0.05178213
   0.44415768  0.88713718  0.95100951
   0.55492192  0.77716249  0.04790494
   0.77622815  0.21949988  0.94925905
   0.88643571  0.10768157  0.04932925
   0.77497518  0.55718828  0.94847864
   0.88780126  0.44401632  0.05161744
   0.77757691  0.88820179  0.95244942
   0.88488816  0.77780804  0.05098940
unknown system                          
           1
     8.281544    4.778847    0.000000
    -8.275248    4.767950    0.000000
     0.000000    0.000000   30.000000
   V    Mo   W    S 
   3   3   3  18
Direct configuration=    15
   0.66626604  0.66040393 -0.00057114
   0.66306219  0.00234153 -0.00028320
   0.32600882  0.66532298 -0.00012013
   0.31953908  0.00619136  0.00006902
   0.00721015  0.67264021  0.00015848
   0.32595791  0.31388299  0.00004841
   0.02238578  0.00498013  0.00005009
   1.00717414  0.34092136  0.00043063
   0.65941446  0.33293538  0.00006644
   0.10945853  0.22055015  0.94646135
   0.22137250  0.11038505  0.05717869
   0.11757762  0.55843459  0.94746283
   0.22701958  0.44999956  0.05124989
   0.11045891  0.88832910  0.94480425
   0.22730731  0.77731374  0.05188656
   0.44437142  0.22100755  0.94572247
   0.55554169  0.10800032  0.05091427
   0.44485089  0.55712926  0.95153256
   0.55657929  0.44903742  0.05173272
   0.44427869  0.88713519  0.95106348
   0.55496334  0.77715088  0.04796435
   0.77617775  0.21932531  0.94918529
   0.88628735  0.10762570  0.04949704
   0.77490903  0.55731916  0.94844685
   0.88795313  0.44401390  0.05171556
   0.77734856  0.88806033  0.95231166
   0.88474031  0.77777738  0.05102149
unknown system                          
           1
     8.286903    4.781375    0.000000
    -8.280423    4.770161    0.000000
     0.000000    0.000000   30.000000
   V    Mo   W    S 
   3   3   3  18
Direct configuration=    16
   0.66614447  0.66047112 -0.00055902
   0.66291968  0.00238255 -0.00027306
   0.32585317  0.66540177 -0.00010583
   0.31943090  0.00630211  0.00008917
   0.00741065  0.67249007  0.00017023
   0.32598755  0.31350790  0.00008339
   0.02270848  0.00498420  0.00008190
   1.00686211  0.34127426  0.00045040
   0.65949157  0.33270627  0.00007655
   0.10946243  0.22056484  0.94651833
   0.22136853  0.11036964  0.05720957
   0.11758681  0.55846202  0.94742496
   0.22699084  0.44992541  0.05117447
   0.11043873  0.88827193  0.94476769
   0.22734546  0.77739485  0.05186472
   0.44441666  0.22097131  0.94570133
   0.55553905  0.10800307  0.05085958
   0.44465183  0.55690907  0.95156941
   0.55652652  0.44895166  0.05173839
   0.44428156  0.88720345  0.95110612
   0.55494952  0.77720545  0.04793051
   0.77619113  0.21933646  0.94919451
   0.88637027  0.10767198  0.04939714
   0.77498551  0.55729707  0.94843088
   0.88794200  0.44409825  0.05173294
   0.77750122  0.88821745  0.95236525
   0.88485779  0.77784030  0.05100036
unknown system                          
           1
     8.278680    4.777216    0.000000
    -8.272805    4.767049    0.000000
     0.000000    0.000000   30.000000
   V    Mo   W    S 
   3   3   3  18
Direct configuration=    17
   0.66611404  0.66006997 -0.00062133
   0.66198433  0.00205296 -0.00029510
   0.32543144  0.66573955 -0.00009478
   0.31963224  0.00636806  0.00008965
   0.00800248  0.67277100  0.00015024
   0.32629365  0.31330240  0.00010992
   0.02308533  0.00475268  0.00009225
   1.00751638  0.34205930  0.00046836
   0.65836136  0.33226889  0.00004288
   0.10951050  0.22056854  0.94658177
   0.22143034  0.11028399  0.05729271
   0.11769443  0.55857288  0.94733573
   0.22719906  0.45003225  0.05115009
   0.11053535  0.88825906  0.94472131
   0.22738703  0.77750781  0.05193587
   0.44429847  0.22085040  0.94562047
   0.55546932  0.10807002  0.05094174
   0.44449944  0.55675114  0.95169466
   0.55649725  0.44892062  0.05179358
   0.44413712  0.88717141  0.95101031
   0.55490037  0.77717973  0.04787681
   0.77624535  0.21953238  0.94927390
   0.88653304  0.10774037  0.04922188
   0.77502422  0.55715940  0.94848996
   0.88775504  0.44409521  0.05163039
   0.77770670  0.88830487  0.95251505
   0.88497017  0.77782956  0.05097158
unknown system                          
           1
     8.283953    4.779377    0.000000
    -8.277668    4.768501    0.000000
     0.000000    0.000000   30.000000
   V    Mo   W    S 
   3   3   3  18
Direct configuration=    18
   0.66602558  0.66108255 -0.00045322
   0.66517095  0.00306584 -0.00024799
   0.32677001  0.66457248 -0.00014153
   0.31881335  0.00631253  0.00000432
   0.00580442  0.67146586  0.00012971
   0.32558736  0.31373309 -0.00000083
   0.02201023  0.00546168 -0.00000497
   1.00479296  0.33985753  0.00036207
   0.66252192  0.33424035  0.00009658
   0.10940773  0.22060522  0.94639133
   0.22127623  0.11053713  0.05726528
   0.11739071  0.55825394  0.94752894
   0.22658101  0.44962375  0.05121162
   0.11020603  0.88822811  0.94480459
   0.22739568  0.77729796  0.05176856
   0.44469770  0.22116276  0.94586375
   0.55550252  0.10774202  0.05072025
   0.44486214  0.55692722  0.95137452
   0.55657900  0.44905947  0.05161932
   0.44445155  0.88740533  0.95134020
   0.55508398  0.77722292  0.04804171
   0.77613964  0.21895213  0.94889149
   0.88614286  0.10754682  0.04980565
   0.77483131  0.55764567  0.94830151
   0.88836407  0.44430931  0.05216060
   0.77724020  0.88802601  0.95209597
   0.88456531  0.77787675  0.05107048
unknown system                          
           1
     8.289232    4.781763    0.000000
    -8.282431    4.769994    0.000000
     0.000000    0.000000   30.000000
   V    Mo   W    S 
   3   3   3  18
Direct configuration=    19
   0.66579204  0.66091727 -0.00042098
   0.66554806  0.00316504 -0.00020907
   0.32656785  0.66443280 -0.00010353
   0.31820731  0.00635549  0.00007627
   0.00553575  0.67068657  0.00017736
   0.32567713  0.31317550  0.00006108
   0.02252156  0.00556370  0.00006158
   1.00370309  0.34043495  0.00038324
   0.66377786  0.33483381  0.00014316
   0.10943550  0.22070397  0.94648029
   0.22123018  0.11046580  0.05725493
   0.11739169  0.55825342  0.94748191
   0.22638836  0.44945531  0.05108349
   0.11010910  0.88814228  0.94477766
   0.22737921  0.77736333  0.05166703
   0.44488448  0.22116393  0.94589405
   0.55546531  0.10782051  0.05058422
   0.44469822  0.55661602  0.95141784
   0.55661760  0.44896976  0.05156402
   0.44438182  0.88755262  0.95141624
   0.55512132  0.77724482  0.04800362
   0.77615200  0.21898856  0.94877487
   0.88632997  0.10770630  0.04976121
   0.77477928  0.55767311  0.94824415
   0.88844636  0.44452178  0.05231738
   0.77742687  0.88807409  0.95211806
   0.88464653  0.77793371  0.05098982
unknown system                          
           1
     8.289723    4.781720    0.000000
    -8.282936    4.769977    0.000000
     0.000000    0.000000   30.000000
   V    Mo   W    S 
   3   3   3  18
Direct configuration=    20
   0.66564185  0.66054081 -0.00049267
   0.66458789  0.00276321 -0.00022770
   0.32611464  0.66483477 -0.00009657
   0.31830901  0.00638311  0.00003218
   0.00611394  0.67068153  0.00013130
   0.32611023  0.31287809  0.00005180
   0.02294470  0.00525252  0.00003967
   1.00400230  0.34152130  0.00038784
   0.66301436  0.33447316  0.00008331
   0.10947913  0.22072868  0.94663777
   0.22129521  0.11038882  0.05735934
   0.11749628  0.55838305  0.94738964
   0.22653126  0.44953155  0.05101123
   0.11018609  0.88810816  0.94477164
   0.22741269  0.77746078  0.05173293
   0.44481959  0.22102667  0.94586435
   0.55543218  0.10792481  0.05062899
   0.44450712  0.55643268  0.95156190
   0.55661945  0.44891173  0.05162133
   0.44426192  0.88752579  0.95135108
   0.55506138  0.77722890  0.04793724
   0.77619459  0.21917074  0.94885577
   0.88653881  0.10784673  0.04954342
   0.77483594  0.55754092  0.94830623
   0.88826457  0.44456947  0.05228368
   0.77765622  0.88819175  0.95228446
   0.88478311  0.77791475  0.05094974
unknown system                          
           1
     8.287026    4.780036    0.000000
    -8.280135    4.768112    0.000000
     0.000000    0.000000   30.000000
   V    Mo   W    S 
   3   3   3  18
Direct configuration=    21
   0.66557868  0.66041484 -0.00050822
   0.66428366  0.00263282 -0.00022467
   0.32595633  0.66497261 -0.00008459
   0.31833653  0.00641458  0.00003999
   0.00627055  0.67060164  0.00013148
   0.32628878  0.31275474  0.00006903
   0.02310075  0.00514101  0.00005539
   1.00400578  0.34192950  0.00040027
   0.66283781  0.33438749  0.00007567
   0.10948986  0.22074922  0.94669359
   0.22131674  0.11035693  0.05737209
   0.11753461  0.55843279  0.94734678
   0.22656342  0.44954684  0.05097291
   0.11020716  0.88808142  0.94475712
   0.22741837  0.77749126  0.05175035
   0.44481816  0.22098255  0.94584246
   0.55542081  0.10795788  0.05063809
   0.44443963  0.55636829  0.95160283
   0.55662740  0.44888972  0.05163454
   0.44422556  0.88751874  0.95131953
   0.55503671  0.77722121  0.04791721
   0.77621074  0.21922412  0.94887431
   0.88661613  0.10790495  0.04946129
   0.77485644  0.55750608  0.94831884
   0.88820601  0.44459799  0.05227946
   0.77773426  0.88823083  0.95233392
   0.88483358  0.77790444  0.05093026
unknown system                          
           1
     8.293220    4.782559    0.000000
    -8.286019    4.770101    0.000000
     0.000000    0.000000   30.000000
   V    Mo   W    S 
   3   3   3  18
Direct configuration=    22
   0.66545655  0.66017701 -0.00051628
   0.66422053  0.00254358 -0.00021880
   0.32578161  0.66496362 -0.00006955
   0.31813704  0.00649355  0.00003996
   0.00618709  0.67019834  0.00013176
   0.32642612  0.31246940  0.00008107
   0.02338588  0.00512772  0.00006721
   1.00366854  0.34246409  0.00040845
   0.66317622  0.33465993  0.00007159
   0.10950155  0.22079717  0.94679002
   0.22131560  0.11030994  0.05740221
   0.11753303  0.55845319  0.94729664
   0.22650172  0.44948569  0.05090193
   0.11018599  0.88804194  0.94475199
   0.22741082  0.77753974  0.05174632
   0.44486841  0.22094061  0.94585835
   0.55538057  0.10803929  0.05060523
   0.44435043  0.55620498  0.95166312
   0.55665413  0.44883814  0.05162359
   0.44413821  0.88755895  0.95131948
   0.55502891  0.77719427  0.04788418
   0.77625968  0.21934979  0.94886212
   0.88680307  0.10804547  0.04937992
   0.77485315  0.55746640  0.94832195
   0.88819178  0.44467491  0.05232575
   0.77788984  0.88824930  0.95239145
   0.88490800  0.77792744  0.05088022
unknown system                          
           1
     8.299437    4.784703    0.000000
    -8.292450    4.772619    0.000000
     0.000000    0.000000   30.000000
   V    Mo   W    S 
   3   3   3  18
Direct configuration=    23
   0.66538642  0.66019630 -0.00056542
   0.66342644  0.00228884 -0.00021592
   0.32556326  0.66546781 -0.00005957
   0.31837766  0.00642541  0.00003580
   0.00681703  0.67047910  0.00011228
   0.32683881  0.31242251  0.00009269
   0.02349685  0.00474007  0.00007536
   1.00391328  0.34301288  0.00043302
   0.66235891  0.33402815  0.00003842
   0.10951896  0.22078285  0.94686545
   0.22137476  0.11028553  0.05740547
   0.11764972  0.55856552  0.94725648
   0.22664763  0.44958314  0.05085701
   0.11027281  0.88802103  0.94474580
   0.22744265  0.77756757  0.05179250
   0.44481560  0.22086275  0.94581046
   0.55542018  0.10801810  0.05065254
   0.44425183  0.55622082  0.95171854
   0.55665154  0.44882942  0.05165935
   0.44418442  0.88751183  0.95125838
   0.55498030  0.77723732  0.04786290
   0.77622023  0.21927593  0.94892920
   0.88676444  0.10802216  0.04923076
   0.77491179  0.55742909  0.94837647
   0.88805250  0.44468657  0.05227577
   0.77790850  0.88838362  0.95247333
   0.88496793  0.77787013  0.05088285
unknown system                          
           1
     8.298586    4.783860    0.000000
    -8.291754    4.772046    0.000000
     0.000000    0.000000   30.000000
   V    Mo   W    S 
   3   3   3  18
Direct configuration=    24
   0.66504453  0.65979522 -0.00059856
   0.66278097  0.00184672 -0.00020019
   0.32512907  0.66575450 -0.00002830
   0.31835543  0.00652959  0.00002171
   0.00697926  0.66976579  0.00008964
   0.32752519  0.31204782  0.00011242
   0.02389431  0.00441447  0.00008877
   1.00334538  0.34439894  0.00042760
   0.66257656  0.33421444 -0.00000052
   0.10956305  0.22090299  0.94707623
   0.22145579  0.11020498  0.05751308
   0.11776450  0.55873307  0.94709847
   0.22667891  0.44958858  0.05071952
   0.11028863  0.88788298  0.94469645
   0.22748054  0.77765100  0.05184737
   0.44490222  0.22072494  0.94576428
   0.55535523  0.10810772  0.05066410
   0.44403693  0.55597470  0.95183095
   0.55671631  0.44879152  0.05171233
   0.44404696  0.88750674  0.95118507