   27   27  100    1
  0.9710400E+02  0.1002848E-08  0.1002848E-08  0.3000000E-08  0.5000000E-15
  1.000000000000000E-004
  CAR 
 unknown system                          
    159     34    120
 
  0.0000000E+00  0.0000000E+00  0.0000000E+00  0.1562500E-01
    1      -17.809410   1.000000
    2      -16.708396   1.000000
    3      -16.641545   1.000000
    4      -16.579565   1.000000
    5      -16.523354   1.000000
    6      -16.475065   1.000000
    7      -16.397617   1.000000
    8      -16.251124   1.000000
    9      -16.133621   1.000000
   10      -16.088724   1.000000
   11      -16.077749   1.000000
   12      -15.946050   1.000000
   13      -15.908889   1.000000
   14      -15.753744   1.000000
   15      -15.575456   1.000000
   16      -15.565039   1.000000
   17      -15.390409   1.000000
   18      -15.329730   1.000000
   19       -9.304011   1.000000
   20       -8.975575   1.000000
   21       -8.939691   1.000000
   22       -8.827561   1.000000
   23       -8.751107   1.000000
   24       -8.673502   1.000000
   25       -8.653006   1.000000
   26       -8.602123   1.000000
   27       -8.496559   1.000000
   28       -8.494271   1.000000
   29       -8.430107   1.000000
   30       -8.400625   1.000000
   31       -8.261258   1.000000
   32       -8.120535   1.000000
   33       -8.069039   1.000000
   34       -7.951753   1.000000
   35       -7.814172   1.000000
   36       -7.784227   1.000000
   37       -7.717439   1.000000
   38       -7.511517   1.000000
   39       -7.500977   1.000000
   40       -7.407115   1.000000
   41       -7.357223   1.000000
   42       -7.319566   1.000000
   43       -7.109289   1.000000
   44       -6.883074   1.000000
   45       -6.840758   1.000000
   46       -6.779851   1.000000
   47       -6.767315   1.000000
   48       -6.562287   1.000000
   49       -6.512979   1.000000
   50       -6.447830   1.000000
   51       -6.420299   1.000000
   52       -6.373638   1.000000
   53       -6.347359   1.000000
   54       -6.332167   1.000000
   55       -6.234251   1.000000
   56       -6.165036   1.000000
   57       -6.114720   1.000000
   58       -5.983834   1.000000
   59       -5.775114   1.000000
   60       -5.626571   1.000000
   61       -5.354963   1.000000
   62       -5.328453   1.000000
   63       -5.274238   1.000000
   64       -5.198846   1.000000
   65       -5.039243   1.000000
   66       -4.985215   1.000000
   67       -4.927265   1.000000
   68       -4.871000   1.000000
   69       -4.813181   1.000000
   70       -4.702773   1.000000
   71       -4.675230   1.000000
   72       -4.590252   1.000000
   73       -4.569988   1.000000
   74       -4.324872   1.000000
   75       -4.122930   1.000000
   76       -3.924598   1.000000
   77       -3.707983   0.999884
   78       -3.575530   0.996980
   79       -3.432599   0.958625
   80       -3.386139   0.920200
   81       -3.216557   0.582111
   82       -2.906780   0.023675
   83       -2.881247   0.015244
   84       -2.682887   0.000181
   85       -2.551397   0.000003
   86       -2.459086   0.000000
   87       -2.418951   0.000000
   88       -2.271946   0.000000
   89       -2.163210   0.000000
   90       -2.108754   0.000000
   91       -1.816342   0.000000
   92       -1.680802   0.000000
   93       -1.569331   0.000000
   94       -1.417355   0.000000
   95       -1.211839   0.000000
   96       -0.977156   0.000000
   97       -0.876153   0.000000
   98       -0.847796   0.000000
   99       -0.761249   0.000000
  100       -0.556658   0.000000
  101       -0.519432   0.000000
  102       -0.474374   0.000000
  103       -0.395425   0.000000
  104       -0.369747   0.000000
  105       -0.206686   0.000000
  106       -0.161513   0.000000
  107       -0.095149   0.000000
  108        0.035206   0.000000
  109        0.220212   0.000000
  110        0.269239   0.000000
  111        0.282922   0.000000
  112        0.422855   0.000000
  113        0.821604   0.000000
  114        0.877425   0.000000
  115        0.907530   0.000000
  116        1.087138   0.000000
  117        1.204819   0.000000
  118        1.646752   0.000000
  119        1.832352   0.000000
  120        2.159714   0.000000
 
  0.1250000E+00  0.2775558E-16  0.0000000E+00  0.3125000E-01
    1      -17.783923   1.000000
    2      -16.775937   1.000000
    3      -16.695437   1.000000
    4      -16.623048   1.000000
    5      -16.535532   1.000000
    6      -16.407980   1.000000
    7      -16.369784   1.000000
    8      -16.273631   1.000000
    9      -16.143100   1.000000
   10      -16.075937   1.000000
   11      -16.017807   1.000000
   12      -15.933517   1.000000
   13      -15.864599   1.000000
   14      -15.746074   1.000000
   15      -15.597216   1.000000
   16      -15.556827   1.000000
   17      -15.405695   1.000000
   18      -15.337171   1.000000
   19       -9.289892   1.000000
   20       -9.172607   1.000000
   21       -9.042114   1.000000
   22       -8.913642   1.000000
   23       -8.764769   1.000000
   24       -8.696893   1.000000
   25       -8.663271   1.000000
   26       -8.590200   1.000000
   27       -8.528867   1.000000
   28       -8.402309   1.000000
   29       -8.376249   1.000000
   30       -8.297861   1.000000
   31       -8.249467   1.000000
   32       -8.010014   1.000000
   33       -7.982747   1.000000
   34       -7.914232   1.000000
   35       -7.823765   1.000000
   36       -7.711278   1.000000
   37       -7.687461   1.000000
   38       -7.541064   1.000000
   39       -7.487112   1.000000
   40       -7.405215   1.000000
   41       -7.347442   1.000000
   42       -7.285017   1.000000
   43       -7.117495   1.000000
   44       -6.930585   1.000000
   45       -6.880291   1.000000
   46       -6.802125   1.000000
   47       -6.707845   1.000000
   48       -6.647483   1.000000
   49       -6.526950   1.000000
   50       -6.456157   1.000000
   51       -6.419540   1.000000
   52       -6.387913   1.000000
   53       -6.327428   1.000000
   54       -6.297143   1.000000
   55       -6.238597   1.000000
   56       -6.156303   1.000000
   57       -6.078040   1.000000
   58       -5.965232   1.000000
   59       -5.730945   1.000000
   60       -5.617104   1.000000
   61       -5.432681   1.000000
   62       -5.364414   1.000000
   63       -5.283968   1.000000
   64       -5.193640   1.000000
   65       -5.135468   1.000000
   66       -5.011546   1.000000
   67       -4.985055   1.000000
   68       -4.841910   1.000000
   69       -4.827476   1.000000
   70       -4.729885   1.000000
   71       -4.629511   1.000000
   72       -4.567095   1.000000
   73       -4.543644   1.000000
   74       -4.303024   1.000000
   75       -4.038044   1.000000
   76       -3.854678   0.999999
   77       -3.791512   0.999990
   78       -3.657305   0.999556
   79       -3.590669   0.997832
   80       -3.311700   0.810586
   81       -3.088619   0.242788
   82       -2.899855   0.021071
   83       -2.858186   0.009989
   84       -2.680441   0.000169
   85       -2.564132   0.000005
   86       -2.452920   0.000000
   87       -2.414054   0.000000
   88       -2.269484   0.000000
   89       -2.166962   0.000000
   90       -2.081880   0.000000
   91       -1.817687   0.000000
   92       -1.681252   0.000000
   93       -1.564402   0.000000
   94       -1.397261   0.000000
   95       -1.198061   0.000000
   96       -0.976449   0.000000
   97       -0.884180   0.000000
   98       -0.836552   0.000000
   99       -0.769543   0.000000
  100       -0.639728   0.000000
  101       -0.557651   0.000000
  102       -0.518697   0.000000
  103       -0.473051   0.000000
  104       -0.377798   0.000000
  105       -0.334933   0.000000
  106       -0.207074   0.000000
  107       -0.182887   0.000000
  108        0.137093   0.000000
  109        0.199878   0.000000
  110        0.291280   0.000000
  111        0.348254   0.000000
  112        0.432072   0.000000
  113        0.811888   0.000000
  114        0.881559   0.000000
  115        0.947309   0.000000
  116        1.134510   0.000000
  117        1.179078   0.000000
  118        1.691284   0.000000
  119        1.871425   0.000000
  120        2.195089   0.000000
 
  0.2500000E+00  0.5551115E-16  0.0000000E+00  0.3125000E-01
    1      -17.708726   1.000000
    2      -16.982977   1.000000
    3      -16.719243   1.000000
    4      -16.659690   1.000000
    5      -16.570956   1.000000
    6      -16.389632   1.000000
    7      -16.327503   1.000000
    8      -16.234780   1.000000
    9      -16.137916   1.000000
   10      -16.046325   1.000000
   11      -15.988422   1.000000
   12      -15.851996   1.000000
   13      -15.798348   1.000000
   14      -15.717438   1.000000
   15      -15.625551   1.000000
   16      -15.552846   1.000000
   17      -15.445448   1.000000
   18      -15.355411   1.000000
   19       -9.506240   1.000000
   20       -9.260385   1.000000
   21       -9.140051   1.000000
   22       -9.042400   1.000000
   23       -8.831068   1.000000
   24       -8.782106   1.000000
   25       -8.679861   1.000000
   26       -8.533632   1.000000
   27       -8.480545   1.000000
   28       -8.402124   1.000000
   29       -8.270967   1.000000
   30       -8.149221   1.000000
   31       -8.106308   1.000000
   32       -8.053789   1.000000
   33       -7.900553   1.000000
   34       -7.866547   1.000000
   35       -7.765514   1.000000
   36       -7.672839   1.000000
   37       -7.577624   1.000000
   38       -7.530437   1.000000
   39       -7.414063   1.000000
   40       -7.364396   1.000000
   41       -7.320097   1.000000
   42       -7.181806   1.000000
   43       -7.116386   1.000000
   44       -6.940526   1.000000
   45       -6.876340   1.000000
   46       -6.802910   1.000000
   47       -6.746541   1.000000
   48       -6.644778   1.000000
   49       -6.582954   1.000000
   50       -6.526098   1.000000
   51       -6.416538   1.000000
   52       -6.406299   1.000000
   53       -6.342721   1.000000
   54       -6.212527   1.000000
   55       -6.176950   1.000000
   56       -6.133815   1.000000
   57       -6.025081   1.000000
   58       -5.919260   1.000000
   59       -5.711853   1.000000
   60       -5.636706   1.000000
   61       -5.583944   1.000000
   62       -5.504051   1.000000
   63       -5.429072   1.000000
   64       -5.296286   1.000000
   65       -5.225919   1.000000
   66       -5.029521   1.000000
   67       -4.969585   1.000000
   68       -4.865156   1.000000
   69       -4.782429   1.000000
   70       -4.711666   1.000000
   71       -4.571386   1.000000
   72       -4.522278   1.000000
   73       -4.429979   1.000000
   74       -4.298849   1.000000
   75       -4.121824   1.000000
   76       -3.979330   1.000000
   77       -3.833863   0.999998
   78       -3.693754   0.999829
   79       -3.491459   0.984268
   80       -3.207360   0.556564
   81       -3.045146   0.157505
   82       -2.862146   0.010759
   83       -2.795954   0.002830
   84       -2.673544   0.000140
   85       -2.605455   0.000019
   86       -2.477654   0.000000
   87       -2.401121   0.000000
   88       -2.240784   0.000000
   89       -2.137979   0.000000
   90       -2.030440   0.000000
   91       -1.826336   0.000000
   92       -1.672901   0.000000
   93       -1.546052   0.000000
   94       -1.357453   0.000000
   95       -1.169360   0.000000
   96       -0.981571   0.000000
   97       -0.938622   0.000000
   98       -0.851643   0.000000
   99       -0.809234   0.000000
  100       -0.755470   0.000000
  101       -0.680216   0.000000
  102       -0.621812   0.000000
  103       -0.556061   0.000000
  104       -0.463724   0.000000
  105       -0.458052   0.000000
  106       -0.311009   0.000000
  107       -0.250310   0.000000
  108        0.101867   0.000000
  109        0.142894   0.000000
  110        0.201046   0.000000
  111        0.424716   0.000000
  112        0.596000   0.000000
  113        0.817157   0.000000
  114        0.939328   0.000000
  115        1.019434   0.000000
  116        1.138951   0.000000
  117        1.235192   0.000000
  118        1.815536   0.000000
  119        1.983990   0.000000
  120        2.300192   0.000000
 
  0.3750000E+00  0.0000000E+00  0.0000000E+00  0.3125000E-01
    1      -17.589179   1.000000
    2      -17.198462   1.000000
    3      -16.755313   1.000000
    4      -16.656942   1.000000
    5      -16.606504   1.000000
    6      -16.408639   1.000000
    7      -16.293458   1.000000
    8      -16.198902   1.000000
    9      -16.121620   1.000000
   10      -16.028143   1.000000
   11      -15.903365   1.000000
   12      -15.811064   1.000000
   13      -15.779413   1.000000
   14      -15.696976   1.000000
   15      -15.630711   1.000000
   16      -15.570406   1.000000
   17      -15.453973   1.000000
   18      -15.379292   1.000000
   19       -9.726909   1.000000
   20       -9.362167   1.000000
   21       -9.161041   1.000000
   22       -9.045182   1.000000
   23       -8.893773   1.000000
   24       -8.836202   1.000000
   25       -8.642664   1.000000
   26       -8.540496   1.000000
   27       -8.439797   1.000000
   28       -8.297323   1.000000
   29       -8.245175   1.000000
   30       -8.185683   1.000000
   31       -8.052898   1.000000
   32       -8.007618   1.000000
   33       -7.893234   1.000000
   34       -7.825493   1.000000
   35       -7.801169   1.000000
   36       -7.747998   1.000000
   37       -7.533180   1.000000
   38       -7.462028   1.000000
   39       -7.357935   1.000000
   40       -7.294842   1.000000
   41       -7.197996   1.000000
   42       -7.127197   1.000000
   43       -7.028020   1.000000
   44       -6.895521   1.000000
   45       -6.831205   1.000000
   46       -6.802813   1.000000
   47       -6.677033   1.000000
   48       -6.636412   1.000000
   49       -6.616597   1.000000
   50       -6.494495   1.000000
   51       -6.435891   1.000000
   52       -6.322920   1.000000
   53       -6.296808   1.000000
   54       -6.231112   1.000000
   55       -6.106898   1.000000
   56       -6.066918   1.000000
   57       -6.015281   1.000000
   58       -5.966229   1.000000
   59       -5.878691   1.000000
   60       -5.749373   1.000000
   61       -5.687439   1.000000
   62       -5.631583   1.000000
   63       -5.532297   1.000000
   64       -5.334173   1.000000
   65       -5.312406   1.000000
   66       -5.025415   1.000000
   67       -4.937066   1.000000
   68       -4.829498   1.000000
   69       -4.780781   1.000000
   70       -4.683713   1.000000
   71       -4.637783   1.000000
   72       -4.518381   1.000000
   73       -4.440227   1.000000
   74       -4.309136   1.000000
   75       -4.229179   1.000000
   76       -4.034801   1.000000
   77       -3.779556   0.999986
   78       -3.623558   0.998983
   79       -3.332575   0.847946
   80       -3.145745   0.384599
   81       -3.042227   0.152586
   82       -2.819812   0.004687
   83       -2.767325   0.001493
   84       -2.677044   0.000154
   85       -2.647747   0.000068
   86       -2.532966   0.000002
   87       -2.381335   0.000000
   88       -2.206158   0.000000
   89       -2.078147   0.000000
   90       -1.984926   0.000000
   91       -1.833938   0.000000
   92       -1.654098   0.000000
   93       -1.512966   0.000000
   94       -1.345173   0.000000
   95       -1.150043   0.000000
   96       -1.058201   0.000000
   97       -0.978246   0.000000
   98       -0.914891   0.000000
   99       -0.894306   0.000000
  100       -0.820693   0.000000
  101       -0.761065   0.000000
  102       -0.651699   0.000000
  103       -0.602635   0.000000
  104       -0.563604   0.000000
  105       -0.489450   0.000000
  106       -0.429098   0.000000
  107       -0.307191   0.000000
  108       -0.033827   0.000000
  109        0.060975   0.000000
  110        0.207265   0.000000
  111        0.477233   0.000000
  112        0.619658   0.000000
  113        0.866166   0.000000
  114        1.025566   0.000000
  115        1.071174   0.000000
  116        1.161544   0.000000
  117        1.311904   0.000000
  118        2.001943   0.000000
  119        2.160990   0.000000
  120        2.472521   0.000000
 
  0.5000000E+00  0.1110223E-15  0.0000000E+00  0.1562500E-01
    1      -17.475340   1.000000
    2      -17.346329   1.000000
    3      -16.769463   1.000000
    4      -16.653042   1.000000
    5      -16.619920   1.000000
    6      -16.416632   1.000000
    7      -16.285666   1.000000
    8      -16.189773   1.000000
    9      -16.112187   1.000000
   10      -16.012995   1.000000
   11      -15.847136   1.000000
   12      -15.811881   1.000000
   13      -15.768704   1.000000
   14      -15.703564   1.000000
   15      -15.636947   1.000000
   16      -15.594764   1.000000
   17      -15.424848   1.000000
   18      -15.400164   1.000000
   19       -9.806616   1.000000
   20       -9.402754   1.000000
   21       -9.198110   1.000000
   22       -9.020690   1.000000
   23       -8.861729   1.000000
   24       -8.848110   1.000000
   25       -8.640376   1.000000
   26       -8.616239   1.000000
   27       -8.390823   1.000000
   28       -8.270542   1.000000
   29       -8.205779   1.000000
   30       -8.149719   1.000000
   31       -8.075453   1.000000
   32       -7.994552   1.000000
   33       -7.911503   1.000000
   34       -7.885818   1.000000
   35       -7.811189   1.000000
   36       -7.737775   1.000000
   37       -7.559181   1.000000
   38       -7.447936   1.000000
   39       -7.338937   1.000000
   40       -7.310656   1.000000
   41       -7.098245   1.000000
   42       -7.017751   1.000000
   43       -7.003242   1.000000
   44       -6.847290   1.000000
   45       -6.816442   1.000000
   46       -6.744404   1.000000
   47       -6.671534   1.000000
   48       -6.658526   1.000000
   49       -6.540916   1.000000
   50       -6.517287   1.000000
   51       -6.468816   1.000000
   52       -6.365045   1.000000
   53       -6.291957   1.000000
   54       -6.213177   1.000000
   55       -6.130160   1.000000
   56       -6.041189   1.000000
   57       -6.011627   1.000000
   58       -5.951630   1.000000
   59       -5.845747   1.000000
   60       -5.816272   1.000000
   61       -5.710006   1.000000
   62       -5.669900   1.000000
   63       -5.497852   1.000000
   64       -5.391180   1.000000
   65       -5.356898   1.000000
   66       -5.203433   1.000000
   67       -4.962823   1.000000
   68       -4.844088   1.000000
   69       -4.780905   1.000000
   70       -4.667068   1.000000
   71       -4.561283   1.000000
   72       -4.505024   1.000000
   73       -4.411972   1.000000
   74       -4.388572   1.000000
   75       -4.280442   1.000000
   76       -3.963530   1.000000
   77       -3.785225   0.999988
   78       -3.587565   0.997678
   79       -3.255644   0.685694
   80       -3.153969   0.407000
   81       -3.002541   0.095772
   82       -2.802255   0.003242
   83       -2.784538   0.002203
   84       -2.698829   0.000277
   85       -2.653286   0.000080
   86       -2.552949   0.000004
   87       -2.368995   0.000000
   88       -2.192034   0.000000
   89       -2.053037   0.000000
   90       -1.966124   0.000000
   91       -1.834295   0.000000
   92       -1.643936   0.000000
   93       -1.491649   0.000000
   94       -1.352652   0.000000
   95       -1.174338   0.000000
   96       -1.062802   0.000000
   97       -1.008394   0.000000
   98       -0.948688   0.000000
   99       -0.916816   0.000000
  100       -0.852670   0.000000
  101       -0.774766   0.000000
  102       -0.674743   0.000000
  103       -0.615117   0.000000
  104       -0.579172   0.000000
  105       -0.521088   0.000000
  106       -0.479531   0.000000
  107       -0.318755   0.000000
  108       -0.084485   0.000000
  109        0.028514   0.000000
  110        0.206860   0.000000
  111        0.490002   0.000000
  112        0.614574   0.000000
  113        0.884132   0.000000
  114        1.057533   0.000000
  115        1.086437   0.000000
  116        1.193327   0.000000
  117        1.339113   0.000000
  118        2.220961   0.000000
  119        2.260490   0.000000
  120        2.372875   0.000000
 
  0.0000000E+00  0.1250000E+00  0.0000000E+00  0.3125000E-01
    1      -17.784866   1.000000
    2      -16.765809   1.000000
    3      -16.699695   1.000000
    4      -16.615880   1.000000
    5      -16.545899   1.000000
    6      -16.434284   1.000000
    7      -16.367904   1.000000
    8      -16.252581   1.000000
    9      -16.124152   1.000000
   10      -16.065490   1.000000
   11      -16.018023   1.000000
   12      -15.949882   1.000000
   13      -15.881021   1.000000
   14      -15.743627   1.000000
   15      -15.593578   1.000000
   16      -15.560265   1.000000
   17      -15.408431   1.000000
   18      -15.332612   1.000000
   19       -9.303958   1.000000
   20       -9.117637   1.000000
   21       -9.020993   1.000000
   22       -8.927798   1.000000
   23       -8.792239   1.000000
   24       -8.695447   1.000000
   25       -8.670178   1.000000
   26       -8.610885   1.000000
   27       -8.512620   1.000000
   28       -8.501100   1.000000
   29       -8.387067   1.000000
   30       -8.254945   1.000000
   31       -8.167173   1.000000
   32       -8.048349   1.000000
   33       -7.977840   1.000000
   34       -7.890877   1.000000
   35       -7.809296   1.000000
   36       -7.717414   1.000000
   37       -7.684695   1.000000
   38       -7.546103   1.000000
   39       -7.501305   1.000000
   40       -7.432320   1.000000
   41       -7.328403   1.000000
   42       -7.258470   1.000000
   43       -7.164757   1.000000
   44       -6.943848   1.000000
   45       -6.829530   1.000000
   46       -6.803921   1.000000
   47       -6.722783   1.000000
   48       -6.630522   1.000000
   49       -6.516919   1.000000
   50       -6.461561   1.000000
   51       -6.454418   1.000000
   52       -6.385459   1.000000
   53       -6.332269   1.000000
   54       -6.298616   1.000000
   55       -6.223642   1.000000
   56       -6.157338   1.000000
   57       -6.073975   1.000000
   58       -5.979894   1.000000
   59       -5.734755   1.000000
   60       -5.585771   1.000000
   61       -5.425249   1.000000
   62       -5.324041   1.000000
   63       -5.269314   1.000000
   64       -5.230535   1.000000
   65       -5.166964   1.000000
   66       -5.047778   1.000000
   67       -4.981646   1.000000
   68       -4.934507   1.000000
   69       -4.824485   1.000000
   70       -4.681924   1.000000
   71       -4.646072   1.000000
   72       -4.546462   1.000000
   73       -4.487560   1.000000
   74       -4.216770   1.000000
   75       -4.099730   1.000000
   76       -3.867339   0.999999
   77       -3.776289   0.999984
   78       -3.663977   0.999626
   79       -3.579688   0.997240
   80       -3.322919   0.831318
   81       -3.073624   0.210875
   82       -2.897491   0.020239
   83       -2.874274   0.013448
   84       -2.678739   0.000162
   85       -2.563439   0.000005
   86       -2.464488   0.000000
   87       -2.398503   0.000000
   88       -2.275899   0.000000
   89       -2.161449   0.000000
   90       -2.109545   0.000000
   91       -1.808351   0.000000
   92       -1.677849   0.000000
   93       -1.561189   0.000000
   94       -1.404372   0.000000
   95       -1.200179   0.000000
   96       -0.974635   0.000000
   97       -0.892061   0.000000
   98       -0.852279   0.000000
   99       -0.766688   0.000000
  100       -0.603138   0.000000
  101       -0.586659   0.000000
  102       -0.538944   0.000000
  103       -0.490416   0.000000
  104       -0.398035   0.000000
  105       -0.296314   0.000000
  106       -0.199162   0.000000
  107       -0.125767   0.000000
  108        0.130186   0.000000
  109        0.214676   0.000000
  110        0.260509   0.000000
  111        0.334574   0.000000
  112        0.397198   0.000000
  113        0.674193   0.000000
  114        0.861961   0.000000
  115        1.063161   0.000000
  116        1.170762   0.000000
  117        1.227206   0.000000
  118        1.691076   0.000000
  119        1.872278   0.000000
  120        2.194836   0.000000
 
  0.1250000E+00  0.1250000E+00  0.0000000E+00  0.3125000E-01
    1      -17.734851   1.000000
    2      -16.897563   1.000000
    3      -16.751670   1.000000
    4      -16.674085   1.000000
    5      -16.504838   1.000000
    6      -16.401239   1.000000
    7      -16.363784   1.000000
    8      -16.230531   1.000000
    9      -16.123111   1.000000
   10      -16.051741   1.000000
   11      -16.029904   1.000000
   12      -15.852611   1.000000
   13      -15.828277   1.000000
   14      -15.720755   1.000000
   15      -15.624057   1.000000
   16      -15.541679   1.000000
   17      -15.437755   1.000000
   18      -15.354098   1.000000
   19       -9.384546   1.000000
   20       -9.285596   1.000000
   21       -9.156920   1.000000
   22       -8.980758   1.000000
   23       -8.832061   1.000000
   24       -8.748503   1.000000
   25       -8.620133   1.000000
   26       -8.560357   1.000000
   27       -8.483985   1.000000
   28       -8.434836   1.000000
   29       -8.342808   1.000000
   30       -8.245626   1.000000
   31       -8.116990   1.000000
   32       -8.058876   1.000000
   33       -7.923352   1.000000
   34       -7.831439   1.000000
   35       -7.738250   1.000000
   36       -7.668711   1.000000
   37       -7.582055   1.000000
   38       -7.511478   1.000000
   39       -7.443927   1.000000
   40       -7.387310   1.000000
   41       -7.269049   1.000000
   42       -7.249958   1.000000
   43       -7.177777   1.000000
   44       -6.974641   1.000000
   45       -6.890318   1.000000
   46       -6.788918   1.000000
   47       -6.752279   1.000000
   48       -6.642948   1.000000
   49       -6.551530   1.000000
   50       -6.503126   1.000000
   51       -6.437004   1.000000
   52       -6.418969   1.000000
   53       -6.354684   1.000000
   54       -6.240909   1.000000
   55       -6.171535   1.000000
   56       -6.152791   1.000000
   57       -6.004868   1.000000
   58       -5.920373   1.000000
   59       -5.681768   1.000000
   60       -5.614244   1.000000
   61       -5.556394   1.000000
   62       -5.395187   1.000000
   63       -5.342219   1.000000
   64       -5.320420   1.000000
   65       -5.206930   1.000000
   66       -5.108998   1.000000
   67       -5.048181   1.000000
   68       -4.889232   1.000000
   69       -4.796681   1.000000
   70       -4.695102   1.000000
   71       -4.574135   1.000000
   72       -4.496251   1.000000
   73       -4.440202   1.000000
   74       -4.187255   1.000000
   75       -4.090978   1.000000
   76       -3.985106   1.000000
   77       -3.875014   0.999999
   78       -3.640554   0.999326
   79       -3.537960   0.993430
   80       -3.263447   0.705008
   81       -3.028508   0.130844
   82       -2.874791   0.013575
   83       -2.829624   0.005724
   84       -2.671097   0.000131
   85       -2.591588   0.000013
   86       -2.472790   0.000000
   87       -2.390391   0.000000
   88       -2.266566   0.000000
   89       -2.168320   0.000000
   90       -2.074685   0.000000
   91       -1.808388   0.000000
   92       -1.667634   0.000000
   93       -1.556561   0.000000
   94       -1.373749   0.000000
   95       -1.171005   0.000000
   96       -0.987071   0.000000
   97       -0.933947   0.000000
   98       -0.853016   0.000000
   99       -0.794155   0.000000
  100       -0.701164   0.000000
  101       -0.649509   0.000000
  102       -0.606580   0.000000
  103       -0.546124   0.000000
  104       -0.447773   0.000000
  105       -0.413951   0.000000
  106       -0.246321   0.000000
  107       -0.206209   0.000000
  108        0.104700   0.000000
  109        0.126855   0.000000
  110        0.292421   0.000000
  111        0.365679   0.000000
  112        0.461764   0.000000
  113        0.704241   0.000000
  114        0.897808   0.000000
  115        1.099235   0.000000
  116        1.227600   0.000000
  117        1.258503   0.000000
  118        1.776582   0.000000
  119        1.947045   0.000000
  120        2.265357   0.000000
 
  0.2500000E+00  0.1250000E+00  0.0000000E+00  0.3125000E-01
    1      -17.637583   1.000000
    2      -17.085585   1.000000
    3      -16.861869   1.000000
    4      -16.657373   1.000000
    5      -16.475590   1.000000
    6      -16.406991   1.000000
    7      -16.317105   1.000000
    8      -16.216129   1.000000
    9      -16.117303   1.000000
   10      -16.046234   1.000000
   11      -15.974464   1.000000
   12      -15.816248   1.000000
   13      -15.770621   1.000000
   14      -15.691782   1.000000
   15      -15.643947   1.000000
   16      -15.528872   1.000000
   17      -15.462318   1.000000
   18      -15.381809   1.000000
   19       -9.611013   1.000000
   20       -9.433200   1.000000
   21       -9.190558   1.000000
   22       -9.042936   1.000000
   23       -8.831861   1.000000
   24       -8.746457   1.000000
   25       -8.605606   1.000000
   26       -8.502285   1.000000
   27       -8.441935   1.000000
   28       -8.357098   1.000000
   29       -8.262571   1.000000
   30       -8.224864   1.000000
   31       -8.088641   1.000000
   32       -8.051403   1.000000
   33       -7.967151   1.000000
   34       -7.909775   1.000000
   35       -7.793827   1.000000
   36       -7.664392   1.000000
   37       -7.493875   1.000000
   38       -7.403253   1.000000
   39       -7.345843   1.000000
   40       -7.289414   1.000000
   41       -7.232037   1.000000
   42       -7.197045   1.000000
   43       -7.057918   1.000000
   44       -6.923402   1.000000
   45       -6.855439   1.000000
   46       -6.812824   1.000000
   47       -6.735494   1.000000