       N       E                     dE             d eps       ncg     rms          rms(c)
DAV:   1     0.112458436033E+04    0.11246E+04   -0.35858E+04  8160   0.577E+02
DAV:   2    -0.183842680802E+01   -0.11264E+04   -0.10819E+04 11200   0.173E+02
DAV:   3    -0.199824560711E+03   -0.19799E+03   -0.19006E+03 10880   0.822E+01
DAV:   4    -0.208969109428E+03   -0.91445E+01   -0.88932E+01 12160   0.262E+01
DAV:   5    -0.209288895170E+03   -0.31979E+00   -0.31890E+00 11440   0.357E+00    0.275E+01
DAV:   6    -0.236795544918E+03   -0.27507E+02   -0.11088E+02 12680   0.604E+01    0.594E+01
DAV:   7    -0.196665409582E+03    0.40130E+02   -0.17919E+02 13280   0.152E+02    0.203E+01
DAV:   8    -0.190028252935E+03    0.66372E+01   -0.20828E+01 11800   0.134E+01    0.136E+01
DAV:   9    -0.188240600355E+03    0.17877E+01   -0.30932E+00 11800   0.626E+00    0.919E+00
DAV:  10    -0.187056433863E+03    0.11842E+01   -0.18275E+00 13360   0.773E+00    0.300E+00
DAV:  11    -0.186995978666E+03    0.60455E-01   -0.62171E-01 12520   0.238E+00    0.248E+00
DAV:  12    -0.187074056611E+03   -0.78078E-01   -0.59697E-01 12560   0.415E+00    0.453E+00
DAV:  13    -0.186905933904E+03    0.16812E+00   -0.42342E-01 12880   0.363E+00    0.185E+00
DAV:  14    -0.186894105128E+03    0.11829E-01   -0.11972E-01 12840   0.209E+00    0.178E+00
DAV:  15    -0.186870052740E+03    0.24052E-01   -0.58510E-02 12760   0.148E+00    0.735E-01
DAV:  16    -0.186865561117E+03    0.44916E-02   -0.88639E-03 12720   0.371E-01    0.414E-01
DAV:  17    -0.186863602928E+03    0.19582E-02   -0.74579E-03 12760   0.368E-01    0.222E-01
DAV:  18    -0.186862959865E+03    0.64306E-03   -0.17433E-03 11600   0.126E-01    0.131E-01
DAV:  19    -0.186862839228E+03    0.12064E-03   -0.59227E-04 10000   0.994E-02    0.449E-02
DAV:  20    -0.186863686005E+03   -0.84678E-03   -0.76600E-04  9000   0.508E-02    0.376E-02
DAV:  21    -0.186864368175E+03   -0.68217E-03   -0.19187E-04  8200   0.394E-02    0.339E-02
DAV:  22    -0.186865399194E+03   -0.10310E-02   -0.16134E-04  7440   0.461E-02    0.405E-02
DAV:  23    -0.186866546931E+03   -0.11477E-02   -0.13690E-04  7520   0.487E-02    0.162E-02
DAV:  24    -0.186867122085E+03   -0.57515E-03   -0.28896E-05  6720   0.170E-02    0.453E-03
DAV:  25    -0.186867486588E+03   -0.36450E-03   -0.16864E-05  5560   0.963E-03    0.437E-03
DAV:  26    -0.186867730383E+03   -0.24379E-03   -0.93637E-06  6760   0.723E-03    0.157E-03
DAV:  27    -0.186867821092E+03   -0.90710E-04   -0.32725E-06  7200   0.416E-03
   1 F= -.18686782E+03 E0= -.18669571E+03  d E =-.186868E+03
       N       E                     dE             d eps       ncg     rms          rms(c)
DAV:   1    -0.187506859154E+03   -0.63913E+00   -0.27185E+02  8160   0.350E+01    0.467E+00
DAV:   2    -0.189513582476E+03   -0.20067E+01   -0.20435E+01 12240   0.156E+01    0.985E+00
DAV:   3    -0.189363216797E+03    0.15037E+00   -0.50163E+00 12440   0.126E+01    0.649E+00
DAV:   4    -0.188791163118E+03    0.57205E+00   -0.60365E-01 12400   0.458E+00    0.229E+00
DAV:   5    -0.188886849375E+03   -0.95686E-01   -0.45021E-01 11240   0.375E+00    0.525E+00
DAV:   6    -0.188758905600E+03    0.12794E+00   -0.73760E-01 12640   0.411E+00    0.223E+00
DAV:   7    -0.188704656560E+03    0.54249E-01   -0.19666E-01 10520   0.140E+00    0.136E+00
DAV:   8    -0.188695800786E+03    0.88558E-02   -0.90263E-02 13000   0.145E+00    0.149E+00
DAV:   9    -0.188681143999E+03    0.14657E-01   -0.32431E-02 11760   0.105E+00    0.629E-01
DAV:  10    -0.188677472221E+03    0.36718E-02   -0.71880E-03 12560   0.384E-01    0.329E-01
DAV:  11    -0.188676773920E+03    0.69830E-03   -0.37416E-03 12840   0.280E-01    0.128E-01
DAV:  12    -0.188676871182E+03   -0.97262E-04   -0.95332E-04 12000   0.989E-02
   2 F= -.18867687E+03 E0= -.18853555E+03  d E =-.180905E+01
       N       E                     dE             d eps       ncg     rms          rms(c)
DAV:   1    -0.190607444753E+03   -0.19307E+01   -0.31417E+01  9120   0.143E+01    0.446E+00
DAV:   2    -0.190567134478E+03    0.40310E-01   -0.28190E+00 11120   0.953E+00    0.734E+00
DAV:   3    -0.190088062846E+03    0.47907E+00   -0.14092E+00 12320   0.862E+00    0.426E+00
DAV:   4    -0.189880847395E+03    0.20722E+00   -0.76889E-01 12640   0.423E+00    0.265E+00
DAV:   5    -0.189920546505E+03   -0.39699E-01   -0.47610E-01 12240   0.405E+00    0.375E+00
DAV:   6    -0.189775661726E+03    0.14488E+00   -0.21604E-01 12280   0.316E+00    0.652E-01
DAV:   7    -0.189769470676E+03    0.61910E-02   -0.16064E-02 12520   0.503E-01    0.254E-01
DAV:   8    -0.189770504108E+03   -0.10334E-02   -0.49641E-03 11600   0.402E-01    0.406E-01
DAV:   9    -0.189769342217E+03    0.11619E-02   -0.26626E-03 10960   0.333E-01    0.137E-01
DAV:  10    -0.189769618960E+03   -0.27674E-03   -0.90765E-04 10240   0.120E-01    0.129E-01
DAV:  11    -0.189769402690E+03    0.21627E-03   -0.46992E-04  9000   0.749E-02    0.198E-02
DAV:  12    -0.189769424917E+03   -0.22227E-04   -0.68174E-05  6920   0.267E-02
   3 F= -.18976942E+03 E0= -.18964932E+03  d E =-.109255E+01
       N       E                     dE             d eps       ncg     rms          rms(c)
DAV:   1    -0.191314385729E+03   -0.15450E+01   -0.75296E+01  8160   0.198E+01    0.456E+00
DAV:   2    -0.191164827444E+03    0.14956E+00   -0.53459E+00 13160   0.782E+00    0.478E+00
DAV:   3    -0.191269191085E+03   -0.10436E+00   -0.15779E+00 12240   0.905E+00    0.643E+00
DAV:   4    -0.190872953797E+03    0.39624E+00   -0.12240E+00 12960   0.722E+00    0.262E+00
DAV:   5    -0.190786600733E+03    0.86353E-01   -0.31086E-01 12200   0.265E+00    0.174E+00
DAV:   6    -0.190772783163E+03    0.13818E-01   -0.15511E-01 12720   0.253E+00    0.169E+00
DAV:   7    -0.190751227930E+03    0.21555E-01   -0.65683E-02 11760   0.157E+00    0.501E-01
DAV:   8    -0.190748109286E+03    0.31186E-02   -0.91556E-03 11680   0.486E-01    0.329E-01
DAV:   9    -0.190747449524E+03    0.65976E-03   -0.28864E-03 11600   0.369E-01    0.209E-01
DAV:  10    -0.190747574888E+03   -0.12536E-03   -0.14817E-03 11280   0.203E-01    0.138E-01
DAV:  11    -0.190747362323E+03    0.21256E-03   -0.92604E-04 10000   0.110E-01    0.462E-02
DAV:  12    -0.190747357515E+03    0.48079E-05   -0.14138E-04  7280   0.441E-02
   4 F= -.19074736E+03 E0= -.19064233E+03  d E =-.977933E+00
       N       E                     dE             d eps       ncg     rms          rms(c)
DAV:   1    -0.192157717007E+03   -0.14104E+01   -0.16458E+02  8160   0.287E+01    0.576E+00
DAV:   2    -0.191865720434E+03    0.29200E+00   -0.95639E+00 11320   0.819E+00    0.388E+00
DAV:   3    -0.192008040659E+03   -0.14232E+00   -0.20470E+00 12080   0.868E+00    0.739E+00
DAV:   4    -0.191753194173E+03    0.25485E+00   -0.25104E+00 11480   0.108E+01    0.452E+00
DAV:   5    -0.191585720749E+03    0.16747E+00   -0.76673E-01 12280   0.582E+00    0.346E+00
DAV:   6    -0.191436126942E+03    0.14959E+00   -0.28056E-01 12240   0.382E+00    0.123E+00
DAV:   7    -0.191427660956E+03    0.84660E-02   -0.72445E-02 12320   0.143E+00    0.828E-01
DAV:   8    -0.191425888508E+03    0.17724E-02   -0.33826E-02 12040   0.122E+00    0.775E-01
DAV:   9    -0.191419341620E+03    0.65469E-02   -0.10680E-02 12440   0.701E-01    0.186E-01
DAV:  10    -0.191419631681E+03   -0.29006E-03   -0.23700E-03 11240   0.183E-01    0.109E-01
DAV:  11    -0.191419488250E+03    0.14343E-03   -0.63944E-04 11200   0.969E-02    0.556E-02
DAV:  12    -0.191419469248E+03    0.19003E-04   -0.10739E-04  7040   0.464E-02
   5 F= -.19141947E+03 E0= -.19131702E+03  d E =-.672112E+00
       N       E                     dE             d eps       ncg     rms          rms(c)
DAV:   1    -0.191483567637E+03   -0.64079E-01   -0.46045E+00  8160   0.456E+00    0.674E-01
DAV:   2    -0.191546227170E+03   -0.62660E-01   -0.28203E-01 12960   0.300E+00    0.230E+00
DAV:   3    -0.191493069862E+03    0.53157E-01   -0.10863E-01 12400   0.232E+00    0.456E-01
DAV:   4    -0.191495606904E+03   -0.25370E-02   -0.18590E-02 11200   0.883E-01    0.739E-01
DAV:   5    -0.191490368783E+03    0.52381E-02   -0.12218E-02 11280   0.736E-01    0.256E-01
DAV:   6    -0.191490071311E+03    0.29747E-03   -0.35651E-03 10920   0.283E-01    0.209E-01
DAV:   7    -0.191490449408E+03   -0.37810E-03   -0.37208E-03 11480   0.402E-01    0.317E-01
DAV:   8    -0.191489475473E+03    0.97394E-03   -0.18855E-03  9640   0.284E-01    0.477E-02
DAV:   9    -0.191489463029E+03    0.12444E-04   -0.10589E-04  5760   0.446E-02
   6 F= -.19148946E+03 E0= -.19138464E+03  d E =-.699938E-01
       N       E                     dE             d eps       ncg     rms          rms(c)
DAV:   1    -0.191535494478E+03   -0.46019E-01   -0.22568E+00  8160   0.316E+00    0.367E-01
DAV:   2    -0.191549262335E+03   -0.13768E-01   -0.73164E-02 13360   0.118E+00    0.103E+00
DAV:   3    -0.191538626544E+03    0.10636E-01   -0.28915E-02 12200   0.116E+00    0.347E-01
DAV:   4    -0.191538943958E+03   -0.31741E-03   -0.63965E-03 11080   0.494E-01    0.401E-01
DAV:   5    -0.191537404105E+03    0.15399E-02   -0.38533E-03 11040   0.418E-01    0.139E-01
DAV:   6    -0.191537311619E+03    0.92486E-04   -0.91624E-04  9960   0.137E-01
   7 F= -.19153731E+03 E0= -.19143159E+03  d E =-.478486E-01
       N       E                     dE             d eps       ncg     rms          rms(c)
DAV:   1    -0.191594172933E+03   -0.56769E-01   -0.33845E+00  8160   0.387E+00    0.448E-01
DAV:   2    -0.191620542739E+03   -0.26370E-01   -0.11878E-01 13600   0.165E+00    0.150E+00
DAV:   3    -0.191598801731E+03    0.21741E-01   -0.56731E-02 12160   0.154E+00    0.406E-01
DAV:   4    -0.191599481847E+03   -0.68012E-03   -0.10413E-02 11360   0.641E-01    0.479E-01
DAV:   5    -0.191597133127E+03    0.23487E-02   -0.49978E-03 11240   0.477E-01    0.146E-01
DAV:   6    -0.191597165831E+03   -0.32703E-04   -0.13714E-03 10360   0.178E-01    0.148E-01
DAV:   7    -0.191597417429E+03   -0.25160E-03   -0.17443E-03 10280   0.283E-01    0.236E-01
DAV:   8    -0.191596872155E+03    0.54527E-03   -0.89332E-04  8320   0.200E-01    0.277E-02
DAV:   9    -0.191596891117E+03   -0.18962E-04   -0.60380E-05  5640   0.309E-02
   8 F= -.19159689E+03 E0= -.19149067E+03  d E =-.595795E-01
       N       E                     dE             d eps       ncg     rms          rms(c)
DAV:   1    -0.191625137410E+03   -0.28265E-01   -0.76113E-01  8160   0.184E+00    0.217E-01
DAV:   2    -0.191631278140E+03   -0.61407E-02   -0.28889E-02 13480   0.892E-01    0.705E-01
DAV:   3    -0.191626230333E+03    0.50478E-02   -0.11397E-02 11320   0.724E-01    0.177E-01
DAV:   4    -0.191626525592E+03   -0.29526E-03   -0.22886E-03  9760   0.302E-01    0.244E-01
DAV:   5    -0.191625929958E+03    0.59563E-03   -0.12543E-03  9360   0.236E-01    0.630E-02
DAV:   6    -0.191625947414E+03   -0.17456E-04   -0.22791E-04  6560   0.637E-02
   9 F= -.19162595E+03 E0= -.19151972E+03  d E =-.290563E-01
       N       E                     dE             d eps       ncg     rms          rms(c)
DAV:   1    -0.191603539660E+03    0.22390E-01   -0.42163E-01  8160   0.137E+00    0.158E-01
DAV:   2    -0.191606994568E+03   -0.34549E-02   -0.15956E-02 12720   0.634E-01    0.524E-01
DAV:   3    -0.191604078911E+03    0.29157E-02   -0.60356E-03 11560   0.526E-01    0.123E-01
DAV:   4    -0.191604246098E+03   -0.16719E-03   -0.11534E-03  9320   0.215E-01    0.171E-01
DAV:   5    -0.191603936642E+03    0.30946E-03   -0.61543E-04  8640   0.171E-01    0.433E-02
DAV:   6    -0.191603945527E+03   -0.88846E-05   -0.12429E-04  6040   0.534E-02
  10 F= -.19160395E+03 E0= -.19149763E+03  d E =0.220019E-01
       N       E                     dE             d eps       ncg     rms          rms(c)
DAV:   1    -0.191560980759E+03    0.42956E-01   -0.20446E+00  8160   0.309E+00    0.432E-01
DAV:   2    -0.191577038484E+03   -0.16058E-01   -0.94857E-02 11400   0.149E+00    0.115E+00
DAV:   3    -0.191563655196E+03    0.13383E-01   -0.31907E-02 11680   0.122E+00    0.380E-01
DAV:   4    -0.191564125617E+03   -0.47042E-03   -0.88467E-03 11240   0.582E-01    0.447E-01
DAV:   5    -0.191562234598E+03    0.18910E-02   -0.58790E-03 10800   0.521E-01    0.202E-01
DAV:   6    -0.191561899902E+03    0.33470E-03   -0.18779E-03 11800   0.232E-01    0.953E-02
DAV:   7    -0.191561759219E+03    0.14068E-03   -0.67008E-04 11400   0.103E-01    0.559E-02
DAV:   8    -0.191561771749E+03   -0.12530E-04   -0.21946E-04  6880   0.100E-01
  11 F= -.19156177E+03 E0= -.19145556E+03  d E =0.421738E-01
       N       E                     dE             d eps       ncg     rms          rms(c)
DAV:   1    -0.191345453814E+03    0.21631E+00   -0.44095E+01  8160   0.142E+01    0.157E+00
DAV:   2    -0.191572421214E+03   -0.22697E+00   -0.14147E+00 12600   0.524E+00    0.359E+00
DAV:   3    -0.191409301241E+03    0.16312E+00   -0.28173E-01 11760   0.412E+00    0.116E+00
DAV:   4    -0.191410374403E+03   -0.10732E-02   -0.71364E-02 12400   0.167E+00    0.139E+00
DAV:   5    -0.191394305643E+03    0.16069E-01   -0.53917E-02 11400   0.161E+00    0.631E-01
DAV:   6    -0.191392399348E+03    0.19063E-02   -0.16159E-02 11640   0.684E-01    0.410E-01
DAV:   7    -0.191392466480E+03   -0.67132E-04   -0.13320E-02 12320   0.754E-01    0.579E-01
DAV:   8    -0.191389247443E+03    0.32190E-02   -0.60854E-03 11320   0.519E-01    0.935E-02
DAV:   9    -0.191389234642E+03    0.12801E-04   -0.54867E-04 10080   0.980E-02
  12 F= -.19138923E+03 E0= -.19128847E+03  d E =0.172537E+00
       N       E                     dE             d eps       ncg     rms          rms(c)
DAV:   1    -0.191428837000E+03   -0.39590E-01   -0.26015E+00  8160   0.342E+00    0.447E-01
DAV:   2    -0.191452028371E+03   -0.23191E-01   -0.14118E-01 13320   0.178E+00    0.122E+00
DAV:   3    -0.191436589297E+03    0.15439E-01   -0.37031E-02 12320   0.138E+00    0.347E-01
DAV:   4    -0.191436866834E+03   -0.27754E-03   -0.69676E-03 11440   0.536E-01    0.432E-01
DAV:   5    -0.191435206953E+03    0.16599E-02   -0.48341E-03 11400   0.487E-01    0.195E-01
DAV:   6    -0.191434896370E+03    0.31058E-03   -0.15152E-03 11280   0.196E-01    0.923E-02
DAV:   7    -0.191434987419E+03   -0.91049E-04   -0.98809E-04 10840   0.176E-01
  13 F= -.19143499E+03 E0= -.19133248E+03  d E =-.457528E-01
       N       E                     dE             d eps       ncg     rms          rms(c)
DAV:   1    -0.191431288517E+03    0.36079E-02   -0.92925E+00  8160   0.659E+00    0.714E-01
DAV:   2    -0.191462767150E+03   -0.31479E-01   -0.23424E-01 13440   0.202E+00    0.163E+00
DAV:   3    -0.191442787677E+03    0.19979E-01   -0.75617E-02 11960   0.189E+00    0.729E-01
DAV:   4    -0.191438166276E+03    0.46214E-02   -0.12856E-02 12360   0.696E-01    0.372E-01
DAV:   5    -0.191437930866E+03    0.23541E-03   -0.90859E-03 10800   0.644E-01    0.482E-01
DAV:   6    -0.191436841158E+03    0.10897E-02   -0.90086E-03 11000   0.629E-01    0.313E-01
DAV:   7    -0.191436009797E+03    0.83136E-03   -0.31253E-03 11240   0.365E-01    0.191E-01
DAV:   8    -0.191435609547E+03    0.40025E-03   -0.82037E-04  9080   0.213E-01    0.535E-02
DAV:   9    -0.191435586576E+03    0.22971E-04   -0.10810E-04  6760   0.588E-02
  14 F= -.19143559E+03 E0= -.19133397E+03  d E =-.599157E-03
       N       E                     dE             d eps       ncg     rms          rms(c)
DAV:   1    -0.191492359617E+03   -0.56750E-01   -0.56331E+00  8160   0.502E+00    0.601E-01
DAV:   2    -0.191535680302E+03   -0.43321E-01   -0.20997E-01 13600   0.245E+00    0.189E+00
DAV:   3    -0.191501459681E+03    0.34221E-01   -0.81704E-02 12200   0.202E+00    0.522E-01
DAV:   4    -0.191501924979E+03   -0.46530E-03   -0.14796E-02 11440   0.826E-01    0.598E-01
DAV:   5    -0.191498413549E+03    0.35114E-02   -0.84454E-03 11520   0.655E-01    0.240E-01
DAV:   6    -0.191497793307E+03    0.62024E-03   -0.23140E-03 10800   0.224E-01    0.114E-01
DAV:   7    -0.191497767188E+03    0.26119E-04   -0.10579E-03 11040   0.155E-01    0.121E-01
DAV:   8    -0.191497632472E+03    0.13472E-03   -0.47551E-04  8840   0.153E-01    0.668E-02
DAV:   9    -0.191497589685E+03    0.42788E-04   -0.10694E-04  6040   0.669E-02
  15 F= -.19149759E+03 E0= -.19139489E+03  d E =-.620031E-01
       N       E                     dE             d eps       ncg     rms          rms(c)
DAV:   1    -0.191442658153E+03    0.54974E-01   -0.39461E+00  8160   0.422E+00    0.479E-01
DAV:   2    -0.191462941736E+03   -0.20284E-01   -0.12501E-01 13600   0.170E+00    0.117E+00
DAV:   3    -0.191447802229E+03    0.15140E-01   -0.33781E-02 11960   0.136E+00    0.410E-01
DAV:   4    -0.191447994261E+03   -0.19203E-03   -0.92761E-03 11320   0.599E-01    0.454E-01
DAV:   5    -0.191446273773E+03    0.17205E-02   -0.61704E-03 11280   0.560E-01    0.256E-01
DAV:   6    -0.191445598667E+03    0.67511E-03   -0.20395E-03 11160   0.256E-01    0.993E-02
DAV:   7    -0.191445492386E+03    0.10628E-03   -0.52474E-04 10320   0.899E-02    0.437E-02
DAV:   8    -0.191445495546E+03   -0.31599E-05   -0.13247E-04  7520   0.796E-02
  16 F= -.19144550E+03 E0= -.19134307E+03  d E =0.520941E-01
       N       E                     dE             d eps       ncg     rms          rms(c)
DAV:   1    -0.191393083337E+03    0.52409E-01   -0.46389E+00  8160   0.455E+00    0.489E-01
DAV:   2    -0.191415623877E+03   -0.22541E-01   -0.13270E-01 12760   0.161E+00    0.123E+00
DAV:   3    -0.191399645515E+03    0.15978E-01   -0.38449E-02 11760   0.142E+00    0.476E-01
DAV:   4    -0.191399161369E+03    0.48415E-03   -0.92361E-03 11280   0.604E-01    0.417E-01
DAV:   5    -0.191397618959E+03    0.15424E-02   -0.51286E-03 10920   0.526E-01    0.240E-01
DAV:   6    -0.191397093170E+03    0.52579E-03   -0.19020E-03 11360   0.260E-01    0.114E-01
DAV:   7    -0.191396994274E+03    0.98896E-04   -0.64241E-04 10200   0.123E-01
  17 F= -.19139699E+03 E0= -.19129568E+03  d E =0.485013E-01
       N       E                     dE             d eps       ncg     rms          rms(c)
DAV:   1    -0.191400950726E+03   -0.38576E-02   -0.80058E-01  8160   0.190E+00    0.219E-01
DAV:   2    -0.191402921385E+03   -0.19707E-02   -0.25453E-02 11360   0.482E-01    0.275E-01
DAV:   3    -0.191402778461E+03    0.14292E-03   -0.62872E-03 12280   0.506E-01    0.338E-01
DAV:   4    -0.191401762270E+03    0.10162E-02   -0.24408E-03 10800   0.337E-01    0.127E-01
DAV:   5    -0.191401741999E+03    0.20271E-04   -0.84596E-04  9280   0.199E-01
  18 F= -.19140174E+03 E0= -.19130025E+03  d E =-.474773E-02
       N       E                     dE             d eps       ncg     rms          rms(c)
DAV:   1    -0.191439624571E+03   -0.37862E-01   -0.31439E+00  8160   0.376E+00    0.511E-01
DAV:   2    -0.191472111194E+03   -0.32487E-01   -0.13169E-01 13560   0.213E+00    0.171E+00
DAV:   3    -0.191443075332E+03    0.29036E-01   -0.59956E-02 11960   0.176E+00    0.416E-01
DAV:   4    -0.191443455463E+03   -0.38013E-03   -0.10204E-02 11440   0.669E-01    0.482E-01
DAV:   5    -0.191441382958E+03    0.20725E-02   -0.60565E-03 11360   0.544E-01    0.227E-01
DAV:   6    -0.191440718587E+03    0.66437E-03   -0.17890E-03 10600   0.211E-01    0.866E-02
DAV:   7    -0.191440899194E+03   -0.18061E-03   -0.98036E-04 10880   0.189E-01    0.169E-01
DAV:   8    -0.191440610514E+03    0.28868E-03   -0.54908E-04  8840   0.166E-01    0.337E-02
DAV:   9    -0.191440608441E+03    0.20737E-05   -0.41590E-05  6000   0.333E-02
  19 F= -.19144061E+03 E0= -.19133787E+03  d E =-.388664E-01
       N       E                     dE             d eps       ncg     rms          rms(c)
DAV:   1    -0.191468906574E+03   -0.28296E-01   -0.14626E+00  8160   0.258E+00    0.333E-01
DAV:   2    -0.191480943316E+03   -0.12037E-01   -0.60277E-02 13600   0.134E+00    0.988E-01
DAV:   3    -0.191470868019E+03    0.10075E-01   -0.21629E-02 12280   0.106E+00    0.251E-01
DAV:   4    -0.191471412078E+03   -0.54406E-03   -0.44933E-03 11400   0.447E-01    0.363E-01
DAV:   5    -0.191470173099E+03    0.12390E-02   -0.30819E-03 10840   0.389E-01    0.139E-01
DAV:   6    -0.191469988506E+03    0.18459E-03   -0.79516E-04  9760   0.131E-01    0.630E-02
DAV:   7    -0.191469931307E+03    0.57199E-04   -0.24645E-04  7280   0.591E-02
  20 F= -.19146993E+03 E0= -.19136651E+03  d E =-.293229E-01
       N       E                     dE             d eps       ncg     rms          rms(c)
DAV:   1    -0.191471902583E+03   -0.19141E-02   -0.79745E-02  8160   0.602E-01    0.803E-02
DAV:   2    -0.191472568052E+03   -0.66547E-03   -0.30139E-03 13520   0.283E-01    0.249E-01
DAV:   3    -0.191471957133E+03    0.61092E-03   -0.13083E-03 10000   0.255E-01    0.709E-02
DAV:   4    -0.191471940940E+03    0.16194E-04   -0.15309E-04  5760   0.824E-02
  21 F= -.19147194E+03 E0= -.19136855E+03  d E =-.200963E-02
       N       E                     dE             d eps       ncg     rms          rms(c)
DAV:   1    -0.191514350140E+03   -0.42393E-01   -0.34965E+00  8160   0.395E+00    0.465E-01
DAV:   2    -0.191540793823E+03   -0.26444E-01   -0.12659E-01 13480   0.176E+00    0.145E+00
DAV:   3    -0.191519992454E+03    0.20801E-01   -0.49131E-02 12280   0.155E+00    0.400E-01
DAV:   4    -0.191520758098E+03   -0.76564E-03   -0.93596E-03 11480   0.653E-01    0.501E-01
DAV:   5    -0.191518217367E+03    0.25407E-02   -0.50661E-03 11400   0.506E-01    0.153E-01
DAV:   6    -0.191518064190E+03    0.15318E-03   -0.11840E-03 10280   0.152E-01    0.984E-02
DAV:   7    -0.191518104397E+03   -0.40207E-04   -0.79724E-04 11480   0.160E-01
  22 F= -.19151810E+03 E0= -.19141441E+03  d E =-.461635E-01
       N       E                     dE             d eps       ncg     rms          rms(c)
DAV:   1    -0.191489993303E+03    0.28071E-01   -0.17605E+00  8160   0.284E+00    0.359E-01
DAV:   2    -0.191503128760E+03   -0.13135E-01   -0.70294E-02 13520   0.134E+00    0.971E-01
DAV:   3    -0.191492270643E+03    0.10858E-01   -0.20019E-02 12360   0.107E+00    0.224E-01
DAV:   4    -0.191492504040E+03   -0.23340E-03   -0.35735E-03 11080   0.366E-01    0.317E-01
DAV:   5    -0.191491682422E+03    0.82162E-03   -0.27752E-03 10440   0.369E-01    0.163E-01
DAV:   6    -0.191491425682E+03    0.25674E-03   -0.98249E-04 10000   0.165E-01    0.584E-02
DAV:   7    -0.191491370120E+03    0.55562E-04   -0.22478E-04  7600   0.587E-02
  23 F= -.19149137E+03 E0= -.19138811E+03  d E =0.267343E-01
       N       E                     dE             d eps       ncg     rms          rms(c)
DAV:   1    -0.191582478641E+03   -0.91053E-01   -0.18190E+01  8160   0.910E+00    0.113E+00
DAV:   2    -0.191724260936E+03   -0.14178E+00   -0.72414E-01 13280   0.438E+00    0.350E+00
DAV:   3    -0.191613287822E+03    0.11097E+00   -0.28674E-01 12160   0.372E+00    0.969E-01
DAV:   4    -0.191618564187E+03   -0.52764E-02   -0.59133E-02 12320   0.169E+00    0.130E+00
DAV:   5    -0.191600745581E+03    0.17819E-01   -0.34580E-02 12200   0.130E+00    0.378E-01
DAV:   6    -0.191599687143E+03    0.10584E-02   -0.91402E-03 11400   0.424E-01    0.277E-01
DAV:   7    -0.191600674287E+03   -0.98714E-03   -0.77379E-03 12720   0.574E-01    0.478E-01
DAV:   8    -0.191598440666E+03    0.22336E-02   -0.40067E-03 11560   0.448E-01    0.815E-02
DAV:   9    -0.191598376010E+03    0.64656E-04   -0.28093E-04  7600   0.744E-02
  24 F= -.19159838E+03 E0= -.19149507E+03  d E =-.107006E+00
       N       E                     dE             d eps       ncg     rms          rms(c)
DAV:   1    -0.191614544177E+03   -0.16104E-01   -0.95127E-01  8160   0.206E+00    0.231E-01
DAV:   2    -0.191618834975E+03   -0.42908E-02   -0.27229E-02 13600   0.718E-01    0.590E-01
DAV:   3    -0.191615905972E+03    0.29290E-02   -0.10733E-02 11640   0.689E-01    0.261E-01
DAV:   4    -0.191615396421E+03    0.50955E-03   -0.19320E-03 10200   0.249E-01    0.128E-01
DAV:   5    -0.191615347652E+03    0.48769E-04   -0.91683E-04 10440   0.195E-01
  25 F= -.19161535E+03 E0= -.19151249E+03  d E =-.169716E-01
       N       E                     dE             d eps       ncg     rms          rms(c)
DAV:   1    -0.191638998092E+03   -0.23602E-01   -0.29331E+00  8160   0.367E+00    0.396E-01
DAV:   2    -0.191652118225E+03   -0.13120E-01   -0.93194E-02 12520   0.117E+00    0.934E-01
DAV:   3    -0.191644409458E+03    0.77088E-02   -0.27705E-02 12440   0.112E+00    0.413E-01
DAV:   4    -0.191643956963E+03    0.45250E-03   -0.61578E-03 11080   0.512E-01    0.367E-01
DAV:   5    -0.191642610880E+03    0.13461E-02   -0.32289E-03 10800   0.429E-01    0.174E-01
DAV:   6    -0.191642505508E+03    0.10537E-03   -0.14356E-03 11360   0.226E-01    0.129E-01
DAV:   7    -0.191642728550E+03   -0.22304E-03   -0.14840E-03 10680   0.256E-01    0.214E-01
DAV:   8    -0.191642274728E+03    0.45382E-03   -0.81564E-04  8480   0.195E-01    0.312E-02
DAV:   9    -0.191642282140E+03   -0.74114E-05   -0.52816E-05  5680   0.324E-02
  26 F= -.19164228E+03 E0= -.19153995E+03  d E =-.269345E-01
       N       E                     dE             d eps       ncg     rms          rms(c)
DAV:   1    -0.191680947839E+03   -0.38673E-01   -0.40898E+00  8160   0.426E+00    0.465E-01
DAV:   2    -0.191701115635E+03   -0.20168E-01   -0.11159E-01 13360   0.153E+00    0.135E+00
DAV:   3    -0.191686268015E+03    0.14848E-01   -0.49423E-02 12160   0.145E+00    0.503E-01
DAV:   4    -0.191684668999E+03    0.15990E-02   -0.83568E-03 11120   0.559E-01    0.325E-01
DAV:   5    -0.191684133149E+03    0.53585E-03   -0.48652E-03 11480   0.520E-01    0.300E-01
DAV:   6    -0.191683141430E+03    0.99172E-03   -0.23240E-03 11240   0.317E-01    0.925E-02
DAV:   7    -0.191683076637E+03    0.64793E-04   -0.42271E-04  9920   0.746E-02
  27 F= -.19168308E+03 E0= -.19158093E+03  d E =-.407945E-01
       N       E                     dE             d eps       ncg     rms          rms(c)
DAV:   1    -0.191747302063E+03   -0.64161E-01   -0.70563E+00  8160   0.563E+00    0.631E-01
DAV:   2    -0.191790517620E+03   -0.43216E-01   -0.24184E-01 13480   0.240E+00    0.196E+00
DAV:   3    -0.191758894279E+03    0.31623E-01   -0.98354E-02 11960   0.202E+00    0.613E-01
DAV:   4    -0.191758716697E+03    0.17758E-03   -0.17867E-02 11440   0.918E-01    0.624E-01
DAV:   5    -0.191754868898E+03    0.38478E-02   -0.10169E-02 11080   0.742E-01    0.294E-01
DAV:   6    -0.191754255394E+03    0.61350E-03   -0.36288E-03 10680   0.341E-01    0.219E-01
DAV:   7    -0.191755024204E+03   -0.76881E-03   -0.37598E-03 12000   0.459E-01    0.353E-01
DAV:   8    -0.191753683989E+03    0.13402E-02   -0.17808E-03 10040   0.305E-01    0.314E-02
DAV:   9    -0.191753700448E+03   -0.16460E-04   -0.94920E-05  5800   0.377E-02
  28 F= -.19175370E+03 E0= -.19165249E+03  d E =-.706238E-01
       N       E                     dE             d eps       ncg     rms          rms(c)
DAV:   1    -0.191844095171E+03   -0.90411E-01   -0.45466E+01  8160   0.143E+01    0.144E+00
DAV:   2    -0.192052175979E+03   -0.20808E+00   -0.13869E+00 12480   0.510E+00    0.430E+00
DAV:   3    -0.191932975302E+03    0.11920E+00   -0.61176E-01 11840   0.457E+00    0.160E+00
DAV:   4    -0.191923739959E+03    0.92353E-02   -0.10355E-01 12280   0.219E+00    0.140E+00
DAV:   5    -0.191901802696E+03    0.21937E-01   -0.52012E-02 11400   0.170E+00    0.651E-01
DAV:   6    -0.191899274608E+03    0.25281E-02   -0.20370E-02 11360   0.759E-01    0.501E-01
DAV:   7    -0.191902565204E+03   -0.32906E-02   -0.19230E-02 12440   0.104E+00    0.798E-01
DAV:   8    -0.191895868030E+03    0.66972E-02   -0.95976E-03 11240   0.736E-01    0.100E-01
DAV:   9    -0.191895772626E+03    0.95404E-04   -0.75247E-04  9920   0.102E-01
  29 F= -.19189577E+03 E0= -.19179534E+03  d E =-.142072E+00
       N       E                     dE             d eps       ncg     rms          rms(c)
DAV:   1    -0.191909782603E+03   -0.13915E-01   -0.77800E-01  8160   0.194E+00    0.357E-01
DAV:   2    -0.191915398731E+03   -0.56161E-02   -0.55933E-02 11280   0.105E+00    0.731E-01
DAV:   3    -0.191910952331E+03    0.44464E-02   -0.16657E-02 11560   0.915E-01    0.335E-01
DAV:   4    -0.191910705482E+03    0.24685E-03   -0.57369E-03 10920   0.522E-01    0.375E-01
DAV:   5    -0.191909602807E+03    0.11027E-02   -0.42539E-03 10680   0.471E-01    0.209E-01
DAV:   6    -0.191909370697E+03    0.23211E-03   -0.21326E-03 10960   0.269E-01    0.187E-01
DAV:   7    -0.191909104858E+03    0.26584E-03   -0.98379E-04  9800   0.231E-01    0.937E-02
DAV:   8    -0.191909019770E+03    0.85088E-04   -0.18132E-04  5880   0.926E-02
  30 F= -.19190902E+03 E0= -.19180821E+03  d E =-.132471E-01
       N       E                     dE             d eps       ncg     rms          rms(c)
DAV:   1    -0.191923509842E+03   -0.14405E-01   -0.11688E+00  8160   0.228E+00    0.229E-01
DAV:   2    -0.191927818281E+03   -0.43084E-02   -0.39897E-02 11240   0.684E-01    0.473E-01
DAV:   3    -0.191926591712E+03    0.12266E-02   -0.98065E-03 12360   0.639E-01    0.317E-01
DAV:   4    -0.191925637500E+03    0.95421E-03   -0.20475E-03 10560   0.274E-01    0.111E-01
DAV:   5    -0.191925749922E+03   -0.11242E-03   -0.92018E-04 10040   0.208E-01    0.167E-01
DAV:   6    -0.191925577396E+03    0.17253E-03   -0.81134E-04  9400   0.197E-01    0.901E-02
DAV:   7    -0.191925523859E+03    0.53537E-04   -0.32372E-04  8160   0.113E-01
  31 F= -.19192552E+03 E0= -.19182497E+03  d E =-.165041E-01
       N       E                     dE             d eps       ncg     rms          rms(c)
DAV:   1    -0.191936428498E+03   -0.10851E-01   -0.65901E-01  8160   0.174E+00    0.217E-01
DAV:   2    -0.191939936182E+03   -0.35077E-02   -0.30759E-02 12160   0.687E-01    0.481E-01
DAV:   3    -0.191938256334E+03    0.16798E-02   -0.78178E-03 11840   0.587E-01    0.241E-01
DAV:   4    -0.191937934489E+03    0.32184E-03   -0.21129E-03 10160   0.294E-01    0.184E-01
DAV:   5    -0.191937678385E+03    0.25610E-03   -0.13076E-03  9800   0.251E-01    0.128E-01
DAV:   6    -0.191937617281E+03    0.61104E-04   -0.67068E-04  8920   0.161E-01
  32 F= -.19193762E+03 E0= -.19183693E+03  d E =-.120934E-01
       N       E                     dE             d eps       ncg     rms          rms(c)
DAV:   1    -0.191958468196E+03   -0.20790E-01   -0.58298E+00  8160   0.516E+00    0.664E-01
DAV:   2    -0.191994854764E+03   -0.36387E-01   -0.27322E-01 11800   0.224E+00    0.172E+00
DAV:   3    -0.191972414468E+03    0.22440E-01   -0.89419E-02 12040   0.186E+00    0.654E-01
DAV:   4    -0.191973848418E+03   -0.14339E-02   -0.24979E-02 12160   0.107E+00    0.795E-01
DAV:   5    -0.191966867411E+03    0.69810E-02   -0.15251E-02 11200   0.858E-01    0.262E-01
DAV:   6    -0.191968462532E+03   -0.15951E-02   -0.68859E-03 11560   0.549E-01    0.485E-01
DAV:   7    -0.191966251988E+03    0.22105E-02   -0.46612E-03 11400   0.524E-01    0.125E-01
DAV:   8    -0.191966023701E+03    0.22829E-03   -0.51603E-04 10040   0.120E-01    0.373E-02
DAV:   9    -0.191966004255E+03    0.19446E-04   -0.98448E-05  8120   0.364E-02
  33 F= -.19196600E+03 E0= -.19186504E+03  d E =-.283870E-01
       N       E                     dE             d eps       ncg     rms          rms(c)
DAV:   1    -0.191971958760E+03   -0.59351E-02   -0.38216E-01  8160   0.132E+00    0.159E-01
DAV:   2    -0.191973593749E+03   -0.16350E-02   -0.17164E-02 10560   0.478E-01    0.288E-01
DAV:   3    -0.191973246498E+03    0.34725E-03   -0.41800E-03 11760   0.413E-01    0.231E-01
DAV:   4    -0.191972793109E+03    0.45339E-03   -0.13279E-03  9440   0.230E-01    0.104E-01
DAV:   5    -0.191972775168E+03    0.17942E-04   -0.56308E-04  8920   0.177E-01
  34 F= -.19197278E+03 E0= -.19187260E+03  d E =-.677091E-02
       N       E                     dE             d eps       ncg     rms          rms(c)
DAV:   1    -0.191981382461E+03   -0.85894E-02   -0.75988E-01  8160   0.187E+00    0.231E-01
DAV:   2    -0.191983294065E+03   -0.19116E-02   -0.29015E-02 11680   0.527E-01    0.265E-01
DAV:   3    -0.191984187804E+03   -0.89374E-03   -0.69587E-03 12280   0.527E-01    0.418E-01
DAV:   4    -0.191982542612E+03    0.16452E-02   -0.36342E-03 10080   0.380E-01    0.117E-01
DAV:   5    -0.191982701958E+03   -0.15935E-03   -0.11173E-03 10120   0.241E-01    0.165E-01
DAV:   6    -0.191982464076E+03    0.23788E-03   -0.83840E-04  9800   0.203E-01    0.713E-02
DAV:   7    -0.191982439693E+03    0.24384E-04   -0.19363E-04  5840   0.102E-01
  35 F= -.19198244E+03 E0= -.19188344E+03  d E =-.966453E-02
       N       E                     dE             d eps       ncg     rms          rms(c)
DAV:   1    -0.191983923374E+03   -0.14593E-02   -0.16714E-02  8160   0.304E-01    0.657E-02
DAV:   2    -0.191983939574E+03   -0.16200E-04   -0.89432E-04 10680   0.137E-01
  36 F= -.19198394E+03 E0= -.19188481E+03  d E =-.149988E-02
       N       E                     dE             d eps       ncg     rms          rms(c)
DAV:   1    -0.191988513176E+03   -0.45898E-02   -0.25817E-01  8160   0.109E+00    0.158E-01
DAV:   2    -0.191991900727E+03   -0.33876E-02   -0.16190E-02 13400   0.586E-01    0.536E-01
DAV:   3    -0.191989277936E+03    0.26228E-02   -0.60582E-03 11320   0.523E-01    0.137E-01
DAV:   4    -0.191989355467E+03   -0.77531E-04   -0.10326E-03  8960   0.211E-01    0.154E-01
DAV:   5    -0.191989112484E+03    0.24298E-03   -0.54731E-04  8600   0.179E-01    0.617E-02
DAV:   6    -0.191989131042E+03   -0.18558E-04   -0.18493E-04  6400   0.102E-01
  37 F= -.19198913E+03 E0= -.19189028E+03  d E =-.519147E-02
       N       E                     dE             d eps       ncg     rms          rms(c)
DAV:   1    -0.191999258996E+03   -0.10147E-01   -0.51390E-01  8160   0.156E+00    0.194E-01
DAV:   2    -0.192000591048E+03   -0.13321E-02   -0.15939E-02 13160   0.459E-01    0.283E-01
DAV:   3    -0.192000004572E+03    0.58648E-03   -0.37132E-03 12280   0.444E-01    0.192E-01
DAV:   4    -0.191999702964E+03    0.30161E-03   -0.12320E-03 10080   0.222E-01    0.152E-01
DAV:   5    -0.191999634201E+03    0.68764E-04   -0.10728E-03  9080   0.218E-01    0.134E-01
DAV:   6    -0.191999514878E+03    0.11932E-03   -0.45975E-04  7800   0.129E-01    0.516E-02
DAV:   7    -0.191999498046E+03    0.16832E-04   -0.12569E-04  6600   0.823E-02
  38 F= -.19199950E+03 E0= -.19190225E+03  d E =-.103670E-01
       N       E                     dE             d eps       ncg     rms          rms(c)
DAV:   1    -0.191995629370E+03    0.38855E-02   -0.69962E-02  8160   0.582E-01    0.779E-02
DAV:   2    -0.191995844354E+03   -0.21498E-03   -0.22823E-03 12400   0.187E-01    0.146E-01
DAV:   3    -0.191995690016E+03    0.15434E-03   -0.75782E-04  8720   0.197E-01    0.930E-02
DAV:   4    -0.191995651143E+03    0.38873E-04   -0.29316E-04  6760   0.111E-01
  39 F= -.19199565E+03 E0= -.19189790E+03  d E =0.384690E-02
       N       E                     dE             d eps       ncg     rms          rms(c)
DAV:   1    -0.191996245112E+03   -0.55510E-03   -0.21313E-01  8160   0.986E-01    0.129E-01
DAV:   2    -0.191998116525E+03   -0.18714E-02   -0.10506E-02 13120   0.521E-01    0.391E-01
DAV:   3    -0.191996654963E+03    0.14616E-02   -0.35507E-03 11480   0.412E-01    0.119E-01
DAV:   4    -0.191996685428E+03   -0.30465E-04   -0.70756E-04  8400   0.188E-01
  40 F= -.19199669E+03 E0= -.19189893E+03  d E =-.103428E-02
       N       E                     dE             d eps       ncg     rms          rms(c)
DAV:   1    -0.191993459869E+03    0.31951E-02   -0.12969E-01  8160   0.790E-01    0.976E-02
DAV:   2    -0.191994037825E+03   -0.57796E-03   -0.48300E-03 13080   0.250E-01    0.209E-01
DAV:   3    -0.191993735813E+03    0.30201E-03   -0.15097E-03 10160   0.249E-01    0.116E-01
DAV:   4    -0.191993651500E+03    0.84313E-04   -0.37540E-04  7520   0.118E-01
  41 F= -.19199365E+03 E0= -.19189573E+03  d E =0.303393E-02
       N       E                     dE             d eps       ncg     rms          rms(c)
DAV:   1    -0.192001015333E+03   -0.72795E-02   -0.44010E-01  8160   0.143E+00    0.184E-01
DAV:   2    -0.192004356234E+03   -0.33409E-02   -0.19955E-02 12360   0.626E-01    0.508E-01
DAV:   3    -0.192001928232E+03    0.24280E-02   -0.59791E-03 11480   0.550E-01    0.163E-01
DAV:   4    -0.192001849478E+03    0.78754E-04   -0.10810E-03  9040   0.206E-01    0.156E-01
DAV:   5    -0.192001708846E+03    0.14063E-03   -0.83045E-04  9080   0.202E-01    0.107E-01
DAV:   6    -0.192001641214E+03    0.67632E-04   -0.36131E-04  8480   0.123E-01
  42 F= -.19200164E+03 E0= -.19190479E+03  d E =-.798971E-02
       N       E                     dE             d eps       ncg     rms          rms(c)
DAV:   1    -0.192004965839E+03   -0.32570E-02   -0.74014E-02  8160   0.617E-01    0.938E-02
DAV:   2    -0.192005626477E+03   -0.66064E-03   -0.34737E-03 12760   0.297E-01    0.234E-01
DAV:   3    -0.192004991570E+03    0.63491E-03   -0.14406E-03 10000   0.278E-01    0.781E-02
DAV:   4    -0.192005047229E+03   -0.55659E-04   -0.39504E-04  7640   0.130E-01
  43 F= -.19200505E+03 E0= -.19190889E+03  d E =-.340601E-02
       N       E                     dE             d eps       ncg     rms          rms(c)
DAV:   1    -0.192006000941E+03   -0.10094E-02   -0.35680E-01  8160   0.129E+00    0.169E-01
DAV:   2    -0.192008321284E+03   -0.23203E-02   -0.18601E-02 12120   0.515E-01    0.390E-01
DAV:   3    -0.192007128407E+03    0.11929E-02   -0.46085E-03 11320   0.467E-01    0.187E-01
DAV:   4    -0.192006880192E+03    0.24822E-03   -0.99521E-04  8720   0.189E-01    0.122E-01
DAV:   5    -0.192006804341E+03    0.75851E-04   -0.55370E-04  8200   0.181E-01
  44 F= -.19200680E+03 E0= -.19191096E+03  d E =-.175711E-02
       N       E                     dE             d eps       ncg     rms          rms(c)
DAV:   1    -0.192022961742E+03   -0.16082E-01   -0.92350E-01  8160   0.212E+00    0.278E-01
DAV:   2    -0.192024957959E+03   -0.19962E-02   -0.28496E-02 12960   0.580E-01    0.432E-01
DAV:   3    -0.192024525969E+03    0.43199E-03   -0.99188E-03 12040   0.658E-01    0.410E-01
DAV:   4    -0.192023030474E+03    0.14955E-02   -0.38418E-03 10880   0.378E-01    0.174E-01
DAV:   5    -0.192023242095E+03   -0.21162E-03   -0.21359E-03 10240   0.341E-01    0.242E-01
DAV:   6    -0.192022694866E+03    0.54723E-03   -0.12267E-03  9560   0.256E-01    0.729E-02
DAV:   7    -0.192022663069E+03    0.31797E-04   -0.30937E-04  7600   0.122E-01
  45 F= -.19202266E+03 E0= -.19192887E+03  d E =-.158587E-01
       N       E                     dE             d eps       ncg     rms          rms(c)
DAV:   1    -0.192028342148E+03   -0.56473E-02   -0.91567E-02  8160   0.670E-01    0.935E-02
DAV:   2    -0.192028727593E+03   -0.38544E-03   -0.34419E-03 12600   0.231E-01    0.174E-01
DAV:   3    -0.192028489539E+03    0.23805E-03   -0.10257E-03 10280   0.246E-01    0.109E-01
DAV:   4    -0.192028405780E+03    0.83759E-04   -0.30080E-04  7240   0.118E-01
  46 F= -.19202841E+03 E0= -.19193576E+03  d E =-.574271E-02
       N       E                     dE             d eps       ncg     rms          rms(c)
DAV:   1    -0.192022295743E+03    0.61938E-02   -0.38059E-01  8160   0.137E+00    0.211E-01
DAV:   2    -0.192025183951E+03   -0.28882E-02   -0.19030E-02 13600   0.630E-01    0.567E-01
DAV:   3    -0.192022465392E+03    0.27186E-02   -0.86446E-03 11720   0.602E-01    0.200E-01
DAV:   4    -0.192022269781E+03    0.19561E-03   -0.16184E-03 10400   0.237E-01    0.174E-01
DAV:   5    -0.192022091387E+03    0.17839E-03   -0.11492E-03 10480   0.266E-01    0.133E-01
DAV:   6    -0.192021940023E+03    0.15136E-03   -0.49794E-04  8160   0.148E-01    0.679E-02
DAV:   7    -0.192021916318E+03    0.23704E-04   -0.22938E-04  7080   0.110E-01
  47 F= -.19202192E+03 E0= -.19192775E+03  d E =0.648946E-02
       N       E                     dE             d eps       ncg     rms          rms(c)
DAV:   1    -0.192050522815E+03   -0.28583E-01   -0.18586E+00  8160   0.298E+00    0.398E-01
DAV:   2    -0.192056803894E+03   -0.62811E-02   -0.59532E-02 12720   0.105E+00    0.764E-01
DAV:   3    -0.192051938926E+03    0.48650E-02   -0.16935E-02 12560   0.101E+00    0.386E-01
DAV:   4    -0.192050741723E+03    0.11972E-02   -0.45604E-03 11280   0.473E-01    0.248E-01
DAV:   5    -0.192050718335E+03    0.23388E-04   -0.40341E-03 12080   0.458E-01    0.301E-01
DAV:   6    -0.192050053580E+03    0.66475E-03   -0.28825E-03 11480   0.356E-01    0.171E-01
DAV:   7    -0.192050006134E+03    0.47447E-04   -0.11779E-03  9640   0.258E-01    0.152E-01
DAV:   8    -0.192049743318E+03    0.26282E-03   -0.38360E-04  8520   0.145E-01    0.235E-02
DAV:   9    -0.192049745613E+03   -0.22955E-05   -0.40425E-05  6520   0.255E-02
  48 F= -.19204975E+03 E0= -.19196036E+03  d E =-.278293E-01
       N       E                     dE             d eps       ncg     rms          rms(c)
DAV:   1    -0.192043136444E+03    0.66069E-02   -0.85273E-02  8160   0.642E-01    0.916E-02
DAV:   2    -0.192043593393E+03   -0.45695E-03   -0.29753E-03 12040   0.265E-01    0.218E-01
DAV:   3    -0.192043170484E+03    0.42291E-03   -0.11611E-03  9840   0.258E-01    0.886E-02
DAV:   4    -0.192043161223E+03    0.92612E-05   -0.29726E-04  6840   0.115E-01
  49 F= -.19204316E+03 E0= -.19195290E+03  d E =0.658439E-02
       N       E                     dE             d eps       ncg     rms          rms(c)
DAV:   1    -0.192047521773E+03   -0.43513E-02   -0.19433E-01  8160   0.969E-01    0.142E-01
DAV:   2    -0.192048698178E+03   -0.11764E-02   -0.10649E-02 10920   0.459E-01    0.295E-01
DAV:   3    -0.192048001237E+03    0.69694E-03   -0.28562E-03 11560   0.393E-01    0.160E-01
DAV:   4    -0.192047867522E+03    0.13372E-03   -0.89316E-04  8440   0.212E-01    0.135E-01
DAV:   5    -0.192047725889E+03    0.14163E-03   -0.50329E-04  8320   0.173E-01    0.822E-02
DAV:   6    -0.192047680544E+03    0.45345E-04   -0.27854E-04  6760   0.110E-01
  50 F= -.19204768E+03 E0= -.19195768E+03  d E =-.451932E-02
       N       E                     dE             d eps       ncg     rms          rms(c)
DAV:   1    -0.192074081209E+03   -0.26355E-01   -0.12145E+00  8160   0.239E+00    0.305E-01
DAV:   2    -0.192079054333E+03   -0.49731E-02   -0.35689E-02 12560   0.845E-01    0.649E-01
DAV:   3    -0.192075352241E+03    0.37021E-02   -0.10526E-02 12360   0.823E-01    0.293E-01
DAV:   4    -0.192074821078E+03    0.53116E-03   -0.26788E-03 11080   0.325E-01    0.198E-01
DAV:   5    -0.192074825125E+03   -0.40476E-05   -0.23063E-03 11000   0.332E-01    0.257E-01
DAV:   6    -0.192074277236E+03    0.54789E-03   -0.14942E-03  9880   0.275E-01    0.857E-02
DAV:   7    -0.192074242744E+03    0.34492E-04   -0.29867E-04  8240   0.103E-01
  51 F= -.19207424E+03 E0= -.19198803E+03  d E =-.265622E-01
       N       E                     dE             d eps       ncg     rms          rms(c)
DAV:   1    -0.192038316381E+03    0.35961E-01   -0.22922E+00  8160   0.329E+00    0.439E-01
DAV:   2    -0.192056450819E+03   -0.18134E-01   -0.82887E-02 12000   0.147E+00    0.137E+00
DAV:   3    -0.192040331521E+03    0.16119E-01   -0.39458E-02 11880   0.137E+00    0.357E-01
DAV:   4    -0.192041691313E+03   -0.13598E-02   -0.89045E-03 11200   0.605E-01    0.526E-01
DAV:   5    -0.192039077868E+03    0.26134E-02   -0.64693E-03 11120   0.583E-01    0.216E-01
DAV:   6    -0.192038690868E+03    0.38700E-03   -0.16762E-03 11520   0.243E-01    0.111E-01
DAV:   7    -0.192038706843E+03   -0.15975E-04   -0.86747E-04 11520   0.224E-01
  52 F= -.19203871E+03 E0= -.19194785E+03  d E =0.355359E-01
       N       E                     dE             d eps       ncg     rms          rms(c)
DAV:   1    -0.191958998633E+03    0.79692E-01   -0.36961E+01  8160   0.136E+01    0.159E+00
DAV:   2    -0.192089341994E+03   -0.13034E+00   -0.11577E+00 12160   0.417E+00    0.311E+00
DAV:   3    -0.192026972052E+03    0.62370E-01   -0.36828E-01 12280   0.417E+00    0.172E+00
DAV:   4    -0.192007411033E+03    0.19561E-01   -0.83584E-02 12440   0.193E+00    0.124E+00
DAV:   5    -0.192000355113E+03    0.70559E-02   -0.78210E-02 11520   0.189E+00    0.128E+00
DAV:   6    -0.191989251813E+03    0.11103E-01   -0.46826E-02 12360   0.135E+00    0.613E-01
DAV:   7    -0.191989506555E+03   -0.25474E-03   -0.17915E-02 11040   0.108E+00    0.644E-01
DAV:   8    -0.191984097025E+03    0.54095E-02   -0.62575E-03 11640   0.637E-01    0.796E-02
DAV:   9    -0.191984127127E+03   -0.30102E-04   -0.63762E-04 10440   0.885E-02
  53 F= -.19198413E+03 E0= -.19188339E+03  d E =0.545797E-01
       N       E                     dE             d eps       ncg     rms          rms(c)
DAV:   1    -0.191989018617E+03   -0.49216E-02   -0.22657E-01  8160   0.102E+00    0.152E-01
DAV:   2    -0.191992524890E+03   -0.35063E-02   -0.12285E-02 12120   0.613E-01    0.586E-01
DAV:   3    -0.191989321264E+03    0.32036E-02   -0.66367E-03 11480   0.557E-01    0.114E-01
DAV:   4    -0.191989381134E+03   -0.59870E-04   -0.50110E-04  8680   0.173E-01
  54 F= -.19198938E+03 E0= -.19188864E+03  d E =-.525401E-02
       N       E                     dE             d eps       ncg     rms          rms(c)
DAV:   1    -0.191990902575E+03   -0.15813E-02   -0.25481E+00  8160   0.346E+00    0.507E-01
DAV:   2    -0.192022225704E+03   -0.31323E-01   -0.12207E-01 12200   0.176E+00    0.188E+00
DAV:   3    -0.191993998682E+03    0.28227E-01   -0.76647E-02 12000   0.172E+00    0.418E-01
DAV:   4    -0.191992663998E+03    0.13347E-02   -0.54449E-03 11440   0.359E-01    0.254E-01
DAV:   5    -0.191992172398E+03    0.49160E-03   -0.31025E-03 12440   0.394E-01    0.248E-01
DAV:   6    -0.191991807588E+03    0.36481E-03   -0.23091E-03 11040   0.379E-01    0.159E-01
DAV:   7    -0.191991616535E+03    0.19105E-03   -0.83461E-04 10480   0.208E-01    0.123E-01
DAV:   8    -0.191991460337E+03    0.15620E-03   -0.35493E-04  8920   0.136E-01    0.337E-02
DAV:   9    -0.191991454280E+03    0.60566E-05   -0.39174E-05  6520   0.351E-02
  55 F= -.19199145E+03 E0= -.19189112E+03  d E =-.207315E-02
       N       E                     dE             d eps       ncg     rms          rms(c)
DAV:   1    -0.191995954466E+03   -0.44941E-02   -0.40295E-01  8160   0.137E+00    0.185E-01
DAV:   2    -0.191999790037E+03   -0.38356E-02   -0.18484E-02 12640   0.637E-01    0.593E-01
DAV:   3    -0.191996648235E+03    0.31418E-02   -0.80631E-03 12200   0.591E-01    0.173E-01
DAV:   4    -0.191996570351E+03    0.77884E-04   -0.10371E-03  9800   0.211E-01    0.142E-01
DAV:   5    -0.191996421206E+03    0.14914E-03   -0.81004E-04 10200   0.210E-01    0.104E-01
DAV:   6    -0.191996351616E+03    0.69590E-04   -0.32405E-04  8800   0.123E-01
  56 F= -.19199635E+03 E0= -.19189622E+03  d E =-.489734E-02
       N       E                     dE             d eps       ncg     rms          rms(c)
DAV:   1    -0.191998084543E+03   -0.16633E-02   -0.44790E-02  8160   0.475E-01    0.933E-02
DAV:   2    -0.191999445961E+03   -0.13614E-02   -0.36994E-03 12360   0.412E-01    0.356E-01
DAV:   3    -0.191998081695E+03    0.13643E-02   -0.23336E-03  9840   0.358E-01    0.758E-02
DAV:   4    -0.191998096507E+03   -0.14812E-04   -0.24440E-04  6920   0.113E-01
  57 F= -.19199810E+03 E0= -.19189810E+03  d E =-.174489E-02
       N       E                     dE             d eps       ncg     rms          rms(c)
DAV:   1    -0.191997396010E+03    0.68569E-03   -0.40281E-02  8160   0.441E-01    0.569E-02
DAV:   2    -0.191997653295E+03   -0.25729E-03   -0.14363E-03 13040   0.165E-01    0.138E-01
DAV:   3    -0.191997452369E+03    0.20093E-03   -0.52898E-04  8880   0.171E-01    0.598E-02
DAV:   4    -0.191997429057E+03    0.23313E-04   -0.10002E-04  5760   0.643E-02
  58 F= -.19199743E+03 E0= -.19189745E+03  d E =0.667450E-03
       N       E                     dE             d eps       ncg     rms          rms(c)
DAV:   1    -0.192001296398E+03   -0.38440E-02   -0.27393E-01  8160   0.113E+00    0.154E-01
DAV:   2    -0.192002532059E+03   -0.12357E-02   -0.83270E-03 12280   0.391E-01    0.366E-01
DAV:   3    -0.192001504546E+03    0.10275E-02   -0.36985E-03 11680   0.407E-01    0.161E-01
DAV:   4    -0.192001278941E+03    0.22560E-03   -0.52360E-04  8440   0.134E-01    0.731E-02
DAV:   5    -0.192001341091E+03   -0.62150E-04   -0.46770E-04  9400   0.159E-01
  59 F= -.19200134E+03 E0= -.19190188E+03  d E =-.391203E-02
       N       E                     dE             d eps       ncg     rms          rms(c)
DAV:   1    -0.191996177321E+03    0.51016E-02   -0.31631E-01  8160   0.123E+00    0.168E-01
DAV:   2    -0.191998713964E+03   -0.25366E-02   -0.12324E-02 12440   0.569E-01    0.482E-01
DAV:   3    -0.191996509311E+03    0.22047E-02   -0.63070E-03 12560   0.537E-01    0.172E-01
DAV:   4    -0.191996490518E+03    0.18793E-04   -0.11525E-03  9640   0.236E-01    0.163E-01
DAV:   5    -0.191996250831E+03    0.23969E-03   -0.64990E-04  8920   0.204E-01    0.797E-02
DAV:   6    -0.191996191706E+03    0.59125E-04   -0.21658E-04  6880   0.944E-02
  60 F= -.19199619E+03 E0= -.19189558E+03  d E =0.514939E-02
       N       E                     dE             d eps       ncg     rms          rms(c)
DAV:   1    -0.191988262432E+03    0.79884E-02   -0.11211E+00  8160   0.229E+00    0.317E-01
DAV:   2    -0.191996614898E+03   -0.83525E-02   -0.43538E-02 12520   0.994E-01    0.902E-01
DAV:   3    -0.191989515026E+03    0.70999E-02   -0.22740E-02 12440   0.957E-01    0.307E-01
DAV:   4    -0.191989821366E+03   -0.30634E-03   -0.38589E-03 10920   0.458E-01    0.340E-01
DAV:   5    -0.191988510540E+03    0.13108E-02   -0.22751E-03 10360   0.386E-01    0.984E-02
DAV:   6    -0.191988445259E+03    0.65282E-04   -0.57527E-04 10560   0.107E-01
  61 F= -.19198845E+03 E0= -.19188781E+03  d E =0.774645E-02
       N       E                     dE             d eps       ncg     rms          rms(c)
DAV:   1    -0.191986656623E+03    0.18539E-02   -0.11672E-01  8160   0.753E-01    0.115E-01
DAV:   2    -0.191987466384E+03   -0.80976E-03   -0.49673E-03 11960   0.339E-01    0.299E-01
DAV:   3    -0.191986724875E+03    0.74151E-03   -0.23564E-03 10240   0.324E-01    0.118E-01
DAV:   4    -0.191986667130E+03    0.57744E-04   -0.47927E-04  8160   0.138E-01
  62 F= -.19198667E+03 E0= -.19188599E+03  d E =0.177813E-02
       N       E                     dE             d eps       ncg     rms          rms(c)
DAV:   1    -0.191990192396E+03   -0.34675E-02   -0.30775E-01  8160   0.120E+00    0.146E-01
DAV:   2    -0.191992229976E+03   -0.20376E-02   -0.11752E-02 12600   0.477E-01    0.429E-01
DAV:   3    -0.191990746194E+03    0.14838E-02   -0.47521E-03 12000   0.446E-01    0.147E-01
DAV:   4    -0.191990539590E+03    0.20660E-03   -0.47001E-04  8320   0.117E-01    0.556E-02
DAV:   5    -0.191990571379E+03   -0.31789E-04   -0.28209E-04  8320   0.112E-01
  63 F= -.19199057E+03 E0= -.19188957E+03  d E =-.390425E-02
       N       E                     dE             d eps       ncg     rms          rms(c)
DAV:   1    -0.191990355918E+03    0.18367E-03   -0.18901E-03 10720   0.141E-01    0.524E-02
DAV:   2    -0.191990939179E+03   -0.58326E-03   -0.12759E-03 10320   0.261E-01    0.236E-01
DAV:   3    -0.191990315220E+03    0.62396E-03   -0.87591E-04  8640   0.227E-01    0.277E-02
DAV:   4    -0.191990322938E+03   -0.77176E-05   -0.32441E-05  5800   0.337E-02
  64 F= -.19199032E+03 E0= -.19188964E+03  d E =0.248441E-03
       N       E                     dE             d eps       ncg     rms          rms(c)
DAV:   1    -0.191993228407E+03   -0.29132E-02   -0.15837E-01  8160   0.864E-01    0.112E-01
DAV:   2    -0.191993989072E+03   -0.76066E-03   -0.55747E-03 12000   0.312E-01    0.256E-01
DAV:   3    -0.191993490674E+03    0.49840E-03   -0.22124E-03 11080   0.306E-01    0.133E-01
DAV:   4    -0.191993408064E+03    0.82611E-04   -0.45378E-04  8160   0.149E-01
  65 F= -.19199341E+03 E0= -.19189263E+03  d E =-.308513E-02
       N       E                     dE             d eps       ncg     rms          rms(c)
DAV:   1    -0.191992542498E+03    0.94818E-03   -0.12047E-02  8160   0.264E-01    0.599E-02
DAV:   2    -0.191993264713E+03   -0.72222E-03   -0.16655E-03 11880   0.296E-01    0.243E-01
DAV:   3    -0.191992528983E+03    0.73573E-03   -0.91445E-04  8960   0.244E-01    0.268E-02
DAV:   4    -0.191992548063E+03   -0.19080E-04   -0.60620E-05  5560   0.492E-02
  66 F= -.19199255E+03 E0= -.19189189E+03  d E =0.860001E-03
       N       E                     dE             d eps       ncg     rms          rms(c)
DAV:   1    -0.191994111776E+03   -0.15828E-02   -0.57372E-02  8160   0.520E-01    0.672E-02
DAV:   2    -0.191994409865E+03   -0.29809E-03   -0.23827E-03 12720   0.182E-01    0.151E-01
DAV:   3    -0.191994239163E+03    0.17070E-03   -0.74592E-04  8760   0.182E-01    0.814E-02
DAV:   4    -0.191994195512E+03    0.43651E-04   -0.13610E-04  5480   0.796E-02
  67 F= -.19199420E+03 E0= -.19189357E+03  d E =-.164745E-02
       N       E                     dE             d eps       ncg     rms          rms(c)
DAV:   1    -0.191994566188E+03   -0.32703E-03   -0.30123E-03  8880   0.142E-01    0.476E-02
DAV:   2    -0.191995017799E+03   -0.45161E-03   -0.95065E-04 10280   0.221E-01    0.218E-01
DAV:   3    -0.191994533885E+03    0.48391E-03   -0.72998E-04  8400   0.196E-01    0.281E-02
DAV:   4    -0.191994555692E+03   -0.21807E-04   -0.61045E-05  5480   0.494E-02
  68 F= -.19199456E+03 E0= -.19189421E+03  d E =-.360180E-03
       N       E                     dE             d eps       ncg     rms          rms(c)
DAV:   1    -0.191995277071E+03   -0.74319E-03   -0.11388E-02  8160   0.237E-01    0.410E-02
DAV:   2    -0.191995364990E+03   -0.87919E-04   -0.48100E-04  9040   0.105E-01
  69 F= -.19199536E+03 E0= -.19189490E+03  d E =-.809298E-03
       N       E                     dE             d eps       ncg     rms          rms(c)
DAV:   1    -0.191996049771E+03   -0.77270E-03   -0.32014E-02  8160   0.419E-01    0.929E-02
DAV:   2    -0.191997391528E+03   -0.13418E-02   -0.37494E-03 11480   0.378E-01    0.392E-01
DAV:   3    -0.191995963994E+03    0.14275E-02   -0.27343E-03  9880   0.352E-01    0.652E-02
DAV:   4    -0.191995958865E+03    0.51286E-05   -0.16614E-04  5800   0.788E-02
  70 F= -.19199596E+03 E0= -.19189561E+03  d E =-.593875E-03
       N       E                     dE             d eps       ncg     rms          rms(c)
DAV:   1    -0.191998687014E+03   -0.27230E-02   -0.14000E-01  8160   0.829E-01    0.138E-01
DAV:   2    -0.192000796806E+03   -0.21098E-02   -0.77551E-03 12280   0.519E-01    0.451E-01
DAV:   3    -0.191998686029E+03    0.21108E-02   -0.36369E-03 11480   0.464E-01    0.804E-02
DAV:   4    -0.191998649374E+03    0.36655E-04   -0.19328E-04  6200   0.816E-02
  71 F= -.19199865E+03 E0= -.19189847E+03  d E =-.269051E-02
       N       E                     dE             d eps       ncg     rms          rms(c)
DAV:   1    -0.191999344373E+03   -0.65834E-03   -0.56190E-03 10000   0.210E-01    0.113E-01
DAV:   2    -0.192003106949E+03   -0.37626E-02   -0.75816E-03 11040   0.603E-01    0.651E-01
DAV:   3    -0.191999186213E+03    0.39207E-02   -0.60048E-03 10000   0.526E-01    0.367E-02
DAV:   4    -0.191999237008E+03   -0.50794E-04   -0.89509E-05  5920   0.722E-02
  72 F= -.19199924E+03 E0= -.19189908E+03  d E =-.587634E-03
       N       E                     dE             d eps       ncg     rms          rms(c)
DAV:   1    -0.192003508397E+03   -0.43222E-02   -0.21227E-01  8160   0.999E-01    0.141E-01
DAV:   2    -0.192005101053E+03   -0.15927E-02   -0.77844E-03 12520   0.437E-01    0.406E-01
DAV:   3    -0.192003672983E+03    0.14281E-02   -0.40386E-03 12000   0.424E-01    0.139E-01
DAV:   4    -0.192003573902E+03    0.99081E-04   -0.55707E-04  8960   0.151E-01
  73 F= -.19200357E+03 E0= -.19190360E+03  d E =-.433689E-02
       N       E                     dE             d eps       ncg     rms          rms(c)
DAV:   1    -0.191995262369E+03    0.84106E-02   -0.85266E-01  8160   0.202E+00    0.284E-01
DAV:   2    -0.192003043203E+03   -0.77808E-02   -0.35525E-02 13280   0.941E-01    0.860E-01
DAV:   3    -0.191996024052E+03    0.70192E-02   -0.21310E-02 11720   0.921E-01    0.281E-01
DAV:   4    -0.191996261712E+03   -0.23766E-03   -0.36003E-03 10880   0.427E-01    0.315E-01
DAV:   5    -0.191995226950E+03    0.10348E-02   -0.18963E-03  9800   0.330E-01    0.101E-01
DAV:   6    -0.191995296133E+03   -0.69183E-04   -0.74328E-04  9280   0.190E-01
  74 F= -.19199530E+03 E0= -.19189561E+03  d E =0.827777E-02
       N       E                     dE             d eps       ncg     rms          rms(c)
DAV:   1    -0.191985285161E+03    0.99418E-02   -0.22221E+00  8160   0.325E+00    0.467E-01
DAV:   2    -0.192002701427E+03   -0.17416E-01   -0.85616E-02 12960   0.140E+00    0.138E+00
DAV:   3    -0.191986804963E+03    0.15896E-01   -0.54364E-02 11840   0.141E+00    0.440E-01
DAV:   4    -0.191987098349E+03   -0.29339E-03   -0.77719E-03 11000   0.623E-01    0.463E-01
DAV:   5    -0.191984679936E+03    0.24184E-02   -0.49131E-03 11400   0.566E-01    0.164E-01
DAV:   6    -0.191984458135E+03    0.22180E-03   -0.13499E-03 11240   0.190E-01    0.114E-01
DAV:   7    -0.191984561907E+03   -0.10377E-03   -0.97295E-04 11520   0.231E-01    0.159E-01
DAV:   8    -0.191984289401E+03    0.27251E-03   -0.43202E-04  8640   0.160E-01    0.265E-02
DAV:   9    -0.191984293740E+03   -0.43397E-05   -0.39819E-05  6080   0.280E-02
  75 F= -.19198429E+03 E0= -.19188358E+03  d E =0.110024E-01
       N       E                     dE             d eps       ncg     rms          rms(c)
DAV:   1    -0.191999431237E+03   -0.15142E-01   -0.32098E+00  8160   0.392E+00    0.575E-01
DAV:   2    -0.192032379954E+03   -0.32949E-01   -0.13497E-01 12240   0.189E+00    0.191E+00
DAV:   3    -0.192001359095E+03    0.31021E-01   -0.81403E-02 12360   0.184E+00    0.511E-01
DAV:   4    -0.192001205546E+03    0.15355E-03   -0.11043E-02 11320   0.714E-01    0.531E-01
DAV:   5    -0.191998474422E+03    0.27311E-02   -0.91034E-03 12080   0.694E-01    0.264E-01
DAV:   6    -0.191998194812E+03    0.27961E-03   -0.32044E-03 11920   0.393E-01    0.251E-01
DAV:   7    -0.191997736644E+03    0.45817E-03   -0.19343E-03 10320   0.352E-01    0.145E-01
DAV:   8    -0.191997487460E+03    0.24918E-03   -0.50531E-04  9280   0.150E-01    0.392E-02
DAV:   9    -0.191997461463E+03    0.25997E-04   -0.71787E-05  6800   0.363E-02
  76 F= -.19199746E+03 E0= -.19189726E+03  d E =-.131677E-01
       N       E                     dE             d eps       ncg     rms          rms(c)
DAV:   1    -0.191999912223E+03   -0.24248E-02   -0.90393E-02  8160   0.655E-01    0.939E-02
DAV:   2    -0.192000629262E+03   -0.71704E-03   -0.40358E-03 12520   0.304E-01    0.252E-01
DAV:   3    -0.192000033518E+03    0.59574E-03   -0.14201E-03 10080   0.274E-01    0.808E-02
DAV:   4    -0.192000036843E+03   -0.33257E-05   -0.27143E-04  6840   0.106E-01
  77 F= -.19200004E+03 E0= -.19189971E+03  d E =-.257538E-02
       N       E                     dE             d eps       ncg     rms          rms(c)
DAV:   1    -0.192003748957E+03   -0.37154E-02   -0.15276E-01  8160   0.856E-01    0.144E-01
DAV:   2    -0.192005971365E+03   -0.22224E-02   -0.79982E-03 12520   0.488E-01    0.490E-01
DAV:   3    -0.192003771334E+03    0.22000E-02   -0.49732E-03 11360   0.474E-01    0.122E-01
DAV:   4    -0.192003763081E+03    0.82528E-05   -0.55617E-04  8520   0.164E-01
  78 F= -.19200376E+03 E0= -.19190372E+03  d E =-.372624E-02
       N       E                     dE             d eps       ncg     rms          rms(c)
DAV:   1    -0.192002887023E+03    0.88431E-03   -0.13291E-02  8160   0.311E-01    0.847E-02
DAV:   2    -0.192004119494E+03   -0.12325E-02   -0.27326E-03 12640   0.394E-01    0.317E-01
DAV:   3    -0.192002819254E+03    0.13002E-02   -0.17059E-03 10120   0.335E-01    0.336E-02
DAV:   4    -0.192002842917E+03   -0.23664E-04   -0.93355E-05  5720   0.580E-02
  79 F= -.19200284E+03 E0= -.19190315E+03  d E =0.920164E-03
       N       E                     dE             d eps       ncg     rms          rms(c)
DAV:   1    -0.192003967156E+03   -0.11479E-02   -0.24307E-02  8160   0.348E-01    0.666E-02
DAV:   2    -0.192004123177E+03   -0.15602E-03   -0.13384E-03 11640   0.188E-01    0.144E-01
DAV:   3    -0.192003942235E+03    0.18094E-03   -0.66940E-04  8840   0.177E-01    0.740E-02
DAV:   4    -0.192003929188E+03    0.13047E-04   -0.21027E-04  6280   0.105E-01
  80 F= -.19200393E+03 E0= -.19190415E+03  d E =-.108627E-02
       N       E                     dE             d eps       ncg     rms          rms(c)
DAV:   1    -0.192007469674E+03   -0.35274E-02   -0.18000E-01  8160   0.949E-01    0.160E-01
DAV:   2    -0.192008965045E+03   -0.14954E-02   -0.92008E-03 11800   0.446E-01    0.417E-01
DAV:   3    -0.192007544513E+03    0.14205E-02   -0.45136E-03 11400   0.451E-01    0.167E-01
DAV:   4    -0.192007320507E+03    0.22401E-03   -0.78212E-04  9480   0.165E-01    0.831E-02
DAV:   5    -0.192007344709E+03   -0.24202E-04   -0.56992E-04  8960   0.168E-01
  81 F= -.19200734E+03 E0= -.19190872E+03  d E =-.341552E-02
       N       E                     dE             d eps       ncg     rms          rms(c)
DAV:   1    -0.192006480093E+03    0.84041E-03   -0.25742E-01  8160   0.118E+00    0.224E-01
DAV:   2    -0.192006536696E+03   -0.56603E-04   -0.13296E-02 11360   0.427E-01    0.292E-01
DAV:   3    -0.192006642621E+03   -0.10593E-03   -0.57509E-03 11360   0.534E-01    0.345E-01
DAV:   4    -0.192005710581E+03    0.93204E-03   -0.32574E-03 11080   0.384E-01    0.190E-01
DAV:   5    -0.192005569271E+03    0.14131E-03   -0.13827E-03  9520   0.296E-01    0.165E-01
DAV:   6    -0.192005271637E+03    0.29763E-03   -0.70430E-04  8840   0.188E-01    0.672E-02
DAV:   7    -0.192005265285E+03    0.63527E-05   -0.26453E-04  7440   0.114E-01
  82 F= -.19200527E+03 E0= -.19190582E+03  d E =0.207942E-02
       N       E                     dE             d eps       ncg     rms          rms(c)
DAV:   1    -0.192007027456E+03   -0.17558E-02   -0.44856E-02  8160   0.466E-01    0.615E-02
DAV:   2    -0.192007252179E+03   -0.22472E-03   -0.14644E-03 11880   0.175E-01    0.134E-01
DAV:   3    -0.192007055959E+03    0.19622E-03   -0.51782E-04  9480   0.166E-01    0.516E-02
DAV:   4    -0.192007067093E+03   -0.11134E-04   -0.11104E-04  5640   0.794E-02
  83 F= -.19200707E+03 E0= -.19190754E+03  d E =-.180181E-02
       N       E                     dE             d eps       ncg     rms          rms(c)
DAV:   1    -0.192010563210E+03   -0.35073E-02   -0.13528E-01  8160   0.819E-01    0.138E-01
DAV:   2    -0.192012189947E+03   -0.16267E-02   -0.74924E-03 12000   0.454E-01    0.425E-01
DAV:   3    -0.192010581262E+03    0.16087E-02   -0.38890E-03 11280   0.427E-01    0.122E-01
DAV:   4    -0.192010512162E+03    0.69100E-04   -0.50410E-04  8360   0.150E-01
  84 F= -.19201051E+03 E0= -.19191100E+03  d E =-.344507E-02
       N       E                     dE             d eps       ncg     rms          rms(c)
DAV:   1    -0.192010604636E+03   -0.23375E-04   -0.97401E-02  8160   0.698E-01    0.158E-01
DAV:   2    -0.192013651878E+03   -0.30472E-02   -0.99722E-03 12240   0.659E-01    0.563E-01
DAV:   3    -0.192010281913E+03    0.33700E-02   -0.57506E-03 11160   0.553E-01    0.787E-02
DAV:   4    -0.192010443148E+03   -0.16123E-03   -0.57549E-04  9120   0.195E-01    0.147E-01
DAV:   5    -0.192010227195E+03    0.21595E-03   -0.47013E-04  8560   0.181E-01    0.693E-02
DAV:   6    -0.192010239192E+03   -0.11997E-04   -0.26855E-04  6520   0.110E-01
  85 F= -.19201024E+03 E0= -.19191087E+03  d E =0.272970E-03
       N       E                     dE             d eps       ncg     rms          rms(c)
DAV:   1    -0.192017625304E+03   -0.73981E-02   -0.42278E-01  8160   0.141E+00    0.188E-01
DAV:   2    -0.192020185279E+03   -0.25600E-02   -0.14299E-02 12160   0.580E-01    0.482E-01
DAV:   3    -0.192017985159E+03    0.22001E-02   -0.58955E-03 11800   0.540E-01    0.184E-01
DAV:   4    -0.192018008804E+03   -0.23645E-04   -0.12394E-03  9680   0.255E-01    0.188E-01
DAV:   5    -0.192017711085E+03    0.29772E-03   -0.94784E-04 10160   0.235E-01    0.102E-01
DAV:   6    -0.192017647921E+03    0.63164E-04   -0.38921E-04  8800   0.138E-01
  86 F= -.19201765E+03 E0= -.19191848E+03  d E =-.740873E-02
       N       E                     dE             d eps       ncg     rms          rms(c)
DAV:   1    -0.192013137368E+03    0.45737E-02   -0.13758E-01  8160   0.818E-01    0.122E-01
DAV:   2    -0.192014630229E+03   -0.14929E-02   -0.62463E-03 12240   0.449E-01    0.368E-01
DAV:   3    -0.192013178080E+03    0.14521E-02   -0.28009E-03 11320   0.406E-01    0.901E-02
DAV:   4    -0.192013128398E+03    0.49682E-04   -0.30754E-04  7920   0.942E-02
  87 F= -.19201313E+03 E0= -.19191369E+03  d E =0.451952E-02
       N       E                     dE             d eps       ncg     rms          rms(c)
DAV:   1    -0.192001627959E+03    0.11550E-01   -0.17742E+00  8160   0.289E+00    0.436E-01
DAV:   2    -0.192015209874E+03   -0.13582E-01   -0.68924E-02 12120   0.136E+00    0.116E+00
DAV:   3    -0.192002168877E+03    0.13041E-01   -0.38294E-02 11800   0.129E+00    0.366E-01
DAV:   4    -0.192003521917E+03   -0.13530E-02   -0.74441E-03 12080   0.656E-01    0.531E-01
DAV:   5    -0.192000866799E+03    0.26551E-02   -0.59259E-03 11400   0.574E-01    0.224E-01
DAV:   6    -0.192000965071E+03   -0.98271E-04   -0.28507E-03 10640   0.367E-01    0.257E-01
DAV:   7    -0.192000406862E+03    0.55821E-03   -0.16750E-03  9960   0.302E-01    0.939E-02
DAV:   8    -0.192000271896E+03    0.13497E-03   -0.23345E-04  7240   0.851E-02    0.214E-02
DAV:   9    -0.192000269476E+03    0.24199E-05   -0.54312E-05  7240   0.281E-02
  88 F= -.19200027E+03 E0= -.19190003E+03  d E =0.128589E-01
       N       E                     dE             d eps       ncg     rms          rms(c)
DAV:   1    -0.191998356587E+03    0.19153E-02   -0.98048E-02  8160   0.677E-01    0.875E-02
DAV:   2    -0.191998690243E+03   -0.33366E-03   -0.26831E-03 10680   0.210E-01    0.180E-01
DAV:   3    -0.191998447625E+03    0.24262E-03   -0.11961E-03 11200   0.225E-01    0.103E-01
DAV:   4    -0.191998445695E+03    0.19299E-05   -0.32856E-04  7360   0.125E-01
  89 F= -.19199845E+03 E0= -.19189858E+03  d E =0.182378E-02
       N       E                     dE             d eps       ncg     rms          rms(c)
DAV:   1    -0.192015987063E+03   -0.17539E-01   -0.28316E+00  8160   0.368E+00    0.532E-01
DAV:   2    -0.192031900794E+03   -0.15914E-01   -0.10659E-01 11240   0.160E+00    0.120E+00
DAV:   3    -0.192017496858E+03    0.14404E-01   -0.37511E-02 11720   0.142E+00    0.494E-01
DAV:   4    -0.192018153663E+03   -0.65680E-03   -0.10540E-02 11200   0.768E-01    0.596E-01
DAV:   5    -0.192015193088E+03    0.29606E-02   -0.89241E-03 10440   0.701E-01    0.291E-01
DAV:   6    -0.192014937242E+03    0.25585E-03   -0.36225E-03 11560   0.425E-01    0.264E-01
DAV:   7    -0.192014358599E+03    0.57864E-03   -0.20493E-03 11280   0.350E-01    0.121E-01
DAV:   8    -0.192014156835E+03    0.20176E-03   -0.35136E-04  8320   0.112E-01    0.269E-02
DAV:   9    -0.192014153796E+03    0.30393E-05   -0.57545E-05  6800   0.299E-02
  90 F= -.19201415E+03 E0= -.19191521E+03  d E =-.157081E-01
       N       E                     dE             d eps       ncg     rms          rms(c)
DAV:   1    -0.192007874787E+03    0.62820E-02   -0.11167E+00  8160   0.228E+00    0.295E-01
DAV:   2    -0.192011791643E+03   -0.39169E-02   -0.29393E-02 12080   0.777E-01    0.597E-01
DAV:   3    -0.192008588615E+03    0.32030E-02   -0.11218E-02 12120   0.762E-01    0.279E-01
DAV:   4    -0.192008997540E+03   -0.40892E-03   -0.39212E-03 11120   0.444E-01    0.354E-01
DAV:   5    -0.192007724131E+03    0.12734E-02   -0.29202E-03 10120   0.392E-01    0.126E-01
DAV:   6    -0.192008010229E+03   -0.28610E-03   -0.12663E-03  9880   0.251E-01    0.208E-01
DAV:   7    -0.192007592112E+03    0.41812E-03   -0.72014E-04  8360   0.212E-01    0.472E-02
DAV:   8    -0.192007564871E+03    0.27242E-04   -0.72990E-05  6160   0.473E-02
  91 F= -.19200756E+03 E0= -.19190844E+03  d E =0.658893E-02
       N       E                     dE             d eps       ncg     rms          rms(c)
DAV:   1    -0.192010842864E+03   -0.32508E-02   -0.52364E-01  8160   0.157E+00    0.191E-01
DAV:   2    -0.192012151952E+03   -0.13091E-02   -0.14694E-02 12080   0.452E-01    0.312E-01
DAV:   3    -0.192011716843E+03    0.43511E-03   -0.38714E-03 12400   0.455E-01    0.251E-01
DAV:   4    -0.192011447423E+03    0.26942E-03   -0.19757E-03  9920   0.289E-01    0.193E-01
DAV:   5    -0.192011146050E+03    0.30137E-03   -0.11491E-03  9680   0.250E-01    0.110E-01
DAV:   6    -0.192011123340E+03    0.22709E-04   -0.53878E-04  8920   0.156E-01
  92 F= -.19201112E+03 E0= -.19191223E+03  d E =-.355847E-02
       N       E                     dE             d eps       ncg     rms          rms(c)
DAV:   1    -0.192012498129E+03   -0.13521E-02   -0.23916E-02  8160   0.361E-01    0.697E-02
DAV:   2    -0.192013297453E+03   -0.79932E-03   -0.21544E-03 12360   0.298E-01    0.280E-01
DAV:   3    -0.192012487808E+03    0.80965E-03   -0.14733E-03  9640   0.269E-01    0.556E-02
DAV:   4    -0.192012497048E+03   -0.92404E-05   -0.15409E-04  5960   0.833E-02
  93 F= -.19201250E+03 E0= -.19191416E+03  d E =-.137371E-02
       N       E                     dE             d eps       ncg     rms          rms(c)
DAV:   1    -0.192016927636E+03   -0.44398E-02   -0.18792E-01  8160   0.945E-01    0.147E-01
DAV:   2    -0.192019470256E+03   -0.25426E-02   -0.87554E-03 12400   0.535E-01    0.502E-01
DAV:   3    -0.192016968836E+03    0.25014E-02   -0.43888E-03 11200   0.487E-01    0.107E-01
DAV:   4    -0.192017150757E+03   -0.18192E-03   -0.82041E-04  8920   0.194E-01    0.172E-01
DAV:   5    -0.192016895893E+03    0.25486E-03   -0.74581E-04  8680   0.194E-01    0.705E-02
DAV:   6    -0.192016864269E+03    0.31624E-04   -0.16503E-04  6400   0.892E-02
  94 F= -.19201686E+03 E0= -.19191909E+03  d E =-.436722E-02
       N       E                     dE             d eps       ncg     rms          rms(c)
DAV:   1    -0.192010102725E+03    0.67932E-02   -0.44965E-01  8160   0.146E+00    0.197E-01
DAV:   2    -0.192013791569E+03   -0.36888E-02   -0.16989E-02 12680   0.647E-01    0.594E-01
DAV:   3    -0.192010552157E+03    0.32394E-02   -0.80782E-03 11720   0.618E-01    0.180E-01
DAV:   4    -0.192010577358E+03   -0.25200E-04   -0.15193E-03  9840   0.243E-01    0.189E-01
DAV:   5    -0.192010320682E+03    0.25668E-03   -0.11813E-03  9920   0.254E-01    0.121E-01
DAV:   6    -0.192010193788E+03    0.12689E-03   -0.43161E-04  8240   0.131E-01    0.666E-02
DAV:   7    -0.192010204739E+03   -0.10950E-04   -0.26143E-04  8680   0.124E-01
  95 F= -.19201020E+03 E0= -.19191144E+03  d E =0.665953E-02
       N       E                     dE             d eps       ncg     rms          rms(c)
DAV:   1    -0.192002307354E+03    0.78864E-02   -0.93501E-01  8160   0.210E+00    0.284E-01
DAV:   2    -0.192009720760E+03   -0.74134E-02   -0.36882E-02 12600   0.923E-01    0.858E-01
DAV:   3    -0.192003266783E+03    0.64540E-02   -0.17841E-02 12320   0.862E-01    0.244E-01
DAV:   4    -0.192003371063E+03   -0.10428E-03   -0.28916E-03 11400   0.340E-01    0.275E-01
DAV:   5    -0.192002834055E+03    0.53701E-03   -0.24330E-03 10120   0.365E-01    0.179E-01
DAV:   6    -0.192002513316E+03    0.32074E-03   -0.88031E-04  9680   0.177E-01    0.592E-02
DAV:   7    -0.192002474513E+03    0.38803E-04   -0.19087E-04  7640   0.717E-02
  96 F= -.19200247E+03 E0= -.19190290E+03  d E =0.773023E-02
       N       E                     dE             d eps       ncg     rms          rms(c)
DAV:   1    -0.192010361531E+03   -0.78482E-02   -0.79306E-01  8160   0.194E+00    0.272E-01
DAV:   2    -0.192018373991E+03   -0.80125E-02   -0.34436E-02 12440   0.960E-01    0.873E-01
DAV:   3    -0.192011102531E+03    0.72715E-02   -0.15141E-02 11960   0.861E-01    0.233E-01
DAV:   4    -0.192011314116E+03   -0.21158E-03   -0.27395E-03 10080   0.368E-01    0.280E-01
DAV:   5    -0.192010645801E+03    0.66831E-03   -0.22828E-03 10480   0.344E-01    0.143E-01
DAV:   6    -0.192010529195E+03    0.11661E-03   -0.76807E-04  9720   0.198E-01    0.111E-01
DAV:   7    -0.192010469221E+03    0.59974E-04   -0.46784E-04  9080   0.174E-01
  97 F= -.19201047E+03 E0= -.19191175E+03  d E =-.799471E-02
       N       E                     dE             d eps       ncg     rms          rms(c)
DAV:   1    -0.192010761290E+03   -0.23209E-03   -0.26103E-02  8160   0.354E-01    0.435E-02
DAV:   2    -0.192010807620E+03   -0.46330E-04   -0.66558E-04 10920   0.972E-02
  98 F= -.19201081E+03 E0= -.19191213E+03  d E =-.338398E-03
       N       E                     dE             d eps       ncg     rms          rms(c)
DAV:   1    -0.192016302503E+03   -0.55412E-02   -0.28896E-01  8160   0.117E+00    0.187E-01
DAV:   2    -0.192020831958E+03   -0.45295E-02   -0.15433E-02 12240   0.706E-01    0.666E-01
DAV:   3    -0.192016446545E+03    0.43854E-02   -0.82078E-03 11360   0.640E-01    0.150E-01
DAV:   4    -0.192016600825E+03   -0.15428E-03   -0.12267E-03  9680   0.255E-01    0.190E-01
DAV:   5    -0.192016262295E+03    0.33853E-03   -0.85140E-04  9440   0.211E-01    0.784E-02
DAV:   6    -0.192016261602E+03    0.69298E-06   -0.32025E-04  8920   0.137E-01
  99 F= -.19201626E+03 E0= -.19191785E+03  d E =-.545398E-02
       N       E                     dE             d eps       ncg     rms          rms(c)
DAV:   1    -0.191996764550E+03    0.19498E-01   -0.46094E+00  8160   0.468E+00    0.659E-01
DAV:   2    -0.192044991707E+03   -0.48227E-01   -0.20262E-01 12240   0.228E+00    0.231E+00
DAV:   3    -0.192001175348E+03    0.43816E-01   -0.14540E-01 12160   0.221E+00    0.561E-01
DAV:   4    -0.192001640100E+03   -0.46475E-03   -0.16093E-02 11120   0.800E-01    0.643E-01
DAV:   5    -0.191998497825E+03    0.31423E-02   -0.12121E-02 11320   0.810E-01    0.392E-01
DAV:   6    -0.191996860478E+03    0.16373E-02   -0.44066E-03 11040   0.407E-01    0.162E-01
DAV:   7    -0.191997145976E+03   -0.28550E-03   -0.21184E-03 11920   0.352E-01    0.219E-01
DAV:   8    -0.191996548456E+03    0.59752E-03   -0.87784E-04 10360   0.239E-01    0.419E-02
DAV:   9    -0.191996523379E+03    0.25077E-04   -0.74044E-05  6240   0.432E-02
 100 F= -.19199652E+03 E0= -.19189625E+03  d E =0.197382E-01
