<?xml version="1.0" encoding="ISO-8859-1"?>
<modeling>
 <generator>
  <i name="program" type="string">vasp </i>
  <i name="version" type="string">5.4.1  </i>
  <i name="subversion" type="string">05Feb16 (build Jul 05 2020 17:13:04) complex                          parallel </i>
  <i name="platform" type="string">IFC91_ompi </i>
  <i name="date" type="string">2024 04 23 </i>
  <i name="time" type="string">07:56:17 </i>
 </generator>
 <incar>
  <i type="int" name="ISTART">     0</i>
  <i type="string" name="PREC">normal</i>
  <i type="string" name="ALGO"> Normal</i>
  <i type="int" name="ISPIN">     1</i>
  <i type="int" name="ICHARG">     2</i>
  <i type="int" name="IBRION">     1</i>
  <i type="int" name="NSW">   100</i>
  <i type="int" name="ISIF">     3</i>
  <i type="int" name="ISYM">     0</i>
  <i name="SYMPREC">      0.00000001</i>
  <i name="POTIM">      0.50000000</i>
  <i type="logical" name="LREAL"> F  </i>
  <i type="logical" name="LPLANE"> F  </i>
  <i type="int" name="ISMEAR">     0</i>
  <i type="logical" name="LWAVE"> F  </i>
  <i type="logical" name="LCHARG"> F  </i>
  <v type="int" name="KPOINT_BSE">    -1     0     0     0</v>
 </incar>
 <kpoints>
  <generation param="Gamma">
   <v type="int" name="divisions">       8        8        1 </v>
   <v name="usershift">      0.00000000       0.00000000       0.00000000 </v>
   <v name="genvec1">      0.12500000       0.00000000       0.00000000 </v>
   <v name="genvec2">     -0.00000000       0.12500000       0.00000000 </v>
   <v name="genvec3">      0.00000000       0.00000000       1.00000000 </v>
   <v name="shift">      0.00000000       0.00000000       0.00000000 </v>
  </generation>
  <varray name="kpointlist" >
   <v>       0.00000000       0.00000000       0.00000000 </v>
   <v>       0.12500000       0.00000000       0.00000000 </v>
   <v>       0.25000000       0.00000000       0.00000000 </v>
   <v>       0.37500000       0.00000000       0.00000000 </v>
   <v>       0.50000000       0.00000000       0.00000000 </v>
   <v>       0.00000000       0.12500000       0.00000000 </v>
   <v>       0.12500000       0.12500000       0.00000000 </v>
   <v>       0.25000000       0.12500000       0.00000000 </v>
   <v>       0.37500000       0.12500000       0.00000000 </v>
   <v>       0.50000000       0.12500000       0.00000000 </v>
   <v>      -0.37500000       0.12500000       0.00000000 </v>
   <v>      -0.25000000       0.12500000       0.00000000 </v>
   <v>      -0.12500000       0.12500000       0.00000000 </v>
   <v>       0.00000000       0.25000000       0.00000000 </v>
   <v>       0.12500000       0.25000000       0.00000000 </v>
   <v>       0.25000000       0.25000000       0.00000000 </v>
   <v>       0.37500000       0.25000000       0.00000000 </v>
   <v>       0.50000000       0.25000000       0.00000000 </v>
   <v>      -0.37500000       0.25000000       0.00000000 </v>
   <v>      -0.25000000       0.25000000       0.00000000 </v>
   <v>      -0.12500000       0.25000000       0.00000000 </v>
   <v>      -0.00000000       0.37500000       0.00000000 </v>
   <v>       0.12500000       0.37500000       0.00000000 </v>
   <v>       0.25000000       0.37500000       0.00000000 </v>
   <v>       0.37500000       0.37500000       0.00000000 </v>
   <v>       0.50000000       0.37500000       0.00000000 </v>
   <v>      -0.37500000       0.37500000       0.00000000 </v>
   <v>      -0.25000000       0.37500000       0.00000000 </v>
   <v>      -0.12500000       0.37500000       0.00000000 </v>
   <v>       0.00000000       0.50000000       0.00000000 </v>
   <v>       0.12500000       0.50000000       0.00000000 </v>
   <v>       0.25000000       0.50000000       0.00000000 </v>
   <v>       0.37500000       0.50000000       0.00000000 </v>
   <v>       0.50000000       0.50000000       0.00000000 </v>
  </varray>
  <varray name="weights" >
   <v>       0.01562500 </v>
   <v>       0.03125000 </v>
   <v>       0.03125000 </v>
   <v>       0.03125000 </v>
   <v>       0.01562500 </v>
   <v>       0.03125000 </v>
   <v>       0.03125000 </v>
   <v>       0.03125000 </v>
   <v>       0.03125000 </v>
   <v>       0.03125000 </v>
   <v>       0.03125000 </v>
   <v>       0.03125000 </v>
   <v>       0.03125000 </v>
   <v>       0.03125000 </v>
   <v>       0.03125000 </v>
   <v>       0.03125000 </v>
   <v>       0.03125000 </v>
   <v>       0.03125000 </v>
   <v>       0.03125000 </v>
   <v>       0.03125000 </v>
   <v>       0.03125000 </v>
   <v>       0.03125000 </v>
   <v>       0.03125000 </v>
   <v>       0.03125000 </v>
   <v>       0.03125000 </v>
   <v>       0.03125000 </v>
   <v>       0.03125000 </v>
   <v>       0.03125000 </v>
   <v>       0.03125000 </v>
   <v>       0.01562500 </v>
   <v>       0.03125000 </v>
   <v>       0.03125000 </v>
   <v>       0.03125000 </v>
   <v>       0.01562500 </v>
  </varray>
 </kpoints>
 <parameters>
  <separator name="general" >
   <i type="string" name="SYSTEM">unknown system</i>
   <i type="logical" name="LCOMPAT"> F  </i>
  </separator>
  <separator name="electronic" >
   <i type="string" name="PREC">normal</i>
   <i name="ENMAX">    280.00000000</i>
   <i name="ENAUG">    373.43800000</i>
   <i name="EDIFF">      0.00010000</i>
   <i type="int" name="IALGO">    38</i>
   <i type="int" name="IWAVPR">    11</i>
   <i type="int" name="NBANDS">   120</i>
   <i name="NELECT">    159.00000000</i>
   <i type="int" name="TURBO">     0</i>
   <i type="int" name="IRESTART">     0</i>
   <i type="int" name="NREBOOT">     0</i>
   <i type="int" name="NMIN">     0</i>
   <i name="EREF">      0.00000000</i>
   <separator name="electronic smearing" >
    <i type="int" name="ISMEAR">     0</i>
    <i name="SIGMA">      0.20000000</i>
    <i name="KSPACING">      0.50000000</i>
    <i type="logical" name="KGAMMA"> T  </i>
   </separator>
   <separator name="electronic projectors" >
    <i type="logical" name="LREAL"> F  </i>
    <v name="ROPT">      0.00000000      0.00000000      0.00000000      0.00000000</v>
    <i type="int" name="LMAXPAW">  -100</i>
    <i type="int" name="LMAXMIX">     2</i>
    <i type="logical" name="NLSPLINE"> F  </i>
   </separator>
   <separator name="electronic startup" >
    <i type="int" name="ISTART">     0</i>
    <i type="int" name="ICHARG">     2</i>
    <i type="int" name="INIWAV">     1</i>
   </separator>
   <separator name="electronic spin" >
    <i type="int" name="ISPIN">     1</i>
    <i type="logical" name="LNONCOLLINEAR"> F  </i>
    <v name="MAGMOM">      1.00000000      1.00000000      1.00000000      1.00000000      1.00000000      1.00000000      1.00000000      1.00000000      1.00000000      1.00000000      1.00000000      1.00000000      1.00000000      1.00000000      1.00000000      1.00000000      1.00000000      1.00000000      1.00000000      1.00000000
      1.00000000      1.00000000      1.00000000      1.00000000      1.00000000      1.00000000      1.00000000</v>
    <i name="NUPDOWN">     -1.00000000</i>
    <i type="logical" name="LSORBIT"> F  </i>
    <v name="SAXIS">      0.00000000      0.00000000      1.00000000</v>
    <i type="logical" name="LSPIRAL"> F  </i>
    <v name="QSPIRAL">      0.00000000      0.00000000      0.00000000</v>
    <i type="logical" name="LZEROZ"> F  </i>
   </separator>
   <separator name="electronic exchange-correlation" >
    <i type="logical" name="LASPH"> F  </i>
    <i type="logical" name="LMETAGGA"> F  </i>
   </separator>
   <separator name="electronic convergence" >
    <i type="int" name="NELM">    60</i>
    <i type="int" name="NELMDL">    -5</i>
    <i type="int" name="NELMIN">     2</i>
    <i name="ENINI">    280.00000000</i>
    <separator name="electronic convergence detail" >
     <i type="logical" name="LDIAG"> T  </i>
     <i type="logical" name="LSUBROT"> F  </i>
     <i name="WEIMIN">      0.00100000</i>
     <i name="EBREAK">      0.00000021</i>
     <i name="DEPER">      0.30000000</i>
     <i type="int" name="NRMM">     4</i>
     <i name="TIME">      0.40000000</i>
    </separator>
   </separator>
   <separator name="electronic mixer" >
    <i name="AMIX">      0.40000000</i>
    <i name="BMIX">      1.00000000</i>
    <i name="AMIN">      0.10000000</i>
    <i name="AMIX_MAG">      1.60000000</i>
    <i name="BMIX_MAG">      1.00000000</i>
    <separator name="electronic mixer details" >
     <i type="int" name="IMIX">     4</i>
     <i type="logical" name="MIXFIRST"> F  </i>
     <i type="int" name="MAXMIX">   -45</i>
     <i name="WC">    100.00000000</i>
     <i type="int" name="INIMIX">     1</i>
     <i type="int" name="MIXPRE">     1</i>
     <i type="int" name="MREMOVE">     5</i>
    </separator>
   </separator>
   <separator name="electronic dipolcorrection" >
    <i type="logical" name="LDIPOL"> F  </i>
    <i type="logical" name="LMONO"> F  </i>
    <i type="int" name="IDIPOL">     0</i>
    <i name="EPSILON">      1.00000000</i>
    <v name="DIPOL">   -100.00000000   -100.00000000   -100.00000000</v>
    <i name="EFIELD">      0.00000000</i>
   </separator>
  </separator>
  <separator name="grids" >
   <i type="int" name="NGX">    42</i>
   <i type="int" name="NGY">    42</i>
   <i type="int" name="NGZ">   126</i>
   <i type="int" name="NGXF">    84</i>
   <i type="int" name="NGYF">    84</i>
   <i type="int" name="NGZF">   252</i>
   <i type="logical" name="ADDGRID"> F  </i>
  </separator>
  <separator name="ionic" >
   <i type="int" name="NSW">   100</i>
   <i type="int" name="IBRION">     1</i>
   <i type="int" name="ISIF">     3</i>
   <i name="PSTRESS">      0.00000000</i>
   <i name="EDIFFG">      0.00100000</i>
   <i type="int" name="NFREE">     0</i>
   <i name="POTIM">      0.50000000</i>
   <i name="SMASS">     -3.00000000</i>
   <i name="SCALEE">      1.00000000</i>
  </separator>
  <separator name="ionic md" >
   <i name="TEBEG">      0.00010000</i>
   <i name="TEEND">      0.00010000</i>
   <i type="int" name="NBLOCK">     1</i>
   <i type="int" name="KBLOCK">   100</i>
   <i type="int" name="NPACO">   256</i>
   <i name="APACO">     16.00000000</i>
  </separator>
  <separator name="symmetry" >
   <i type="int" name="ISYM">     0</i>
   <i name="SYMPREC">      0.00000001</i>
  </separator>
  <separator name="dos" >
   <i type="logical" name="LORBIT"> F  </i>
   <v name="RWIGS">     -1.00000000     -1.00000000     -1.00000000     -1.00000000</v>
   <i type="int" name="NEDOS">   301</i>
   <i name="EMIN">     10.00000000</i>
   <i name="EMAX">    -10.00000000</i>
   <i name="EFERMI">      0.00000000</i>
  </separator>
  <separator name="writing" >
   <i type="int" name="NWRITE">     2</i>
   <i type="logical" name="LWAVE"> F  </i>
   <i type="logical" name="LCHARG"> F  </i>
   <i type="logical" name="LPARD"> F  </i>
   <i type="logical" name="LVTOT"> F  </i>
   <i type="logical" name="LVHAR"> F  </i>
   <i type="logical" name="LELF"> F  </i>
   <i type="logical" name="LOPTICS"> F  </i>
   <v name="STM">      0.00000000      0.00000000      0.00000000      0.00000000      0.00000000      0.00000000      0.00000000</v>
  </separator>
  <separator name="performance" >
   <i type="int" name="NPAR">    40</i>
   <i type="int" name="NSIM">     4</i>
   <i type="int" name="NBLK">    -1</i>
   <i type="logical" name="LPLANE"> F  </i>
   <i type="logical" name="LSCALAPACK"> T  </i>
   <i type="logical" name="LSCAAWARE"> F  </i>
   <i type="logical" name="LSCALU"> F  </i>
   <i type="logical" name="LASYNC"> F  </i>
   <i type="logical" name="LORBITALREAL"> F  </i>
  </separator>
  <separator name="miscellaneous" >
   <i type="int" name="IDIOT">     3</i>
   <i type="logical" name="LMUSIC"> F  </i>
   <v name="POMASS">     50.94100000     95.94000000    183.85000000     32.06600000</v>
   <v name="DARWINR">      0.00000000      0.00000000      0.00000000      0.00000000</v>
   <v name="DARWINV">      1.00000000      1.00000000      1.00000000      1.00000000</v>
   <i type="logical" name="LCORR"> T  </i>
  </separator>
  <i type="logical" name="GGA_COMPAT"> T  </i>
  <i type="logical" name="LBERRY"> F  </i>
  <i type="int" name="ICORELEVEL">     0</i>
  <i type="logical" name="LDAU"> F  </i>
  <i type="int" name="I_CONSTRAINED_M">     0</i>
  <separator name="electronic exchange-correlation" >
   <i type="string" name="GGA">--</i>
   <i type="int" name="VOSKOWN">     0</i>
   <i type="logical" name="LHFCALC"> F  </i>
   <i type="string" name="PRECFOCK"></i>
   <i type="logical" name="LSYMGRAD"> F  </i>
   <i type="logical" name="LHFONE"> F  </i>
   <i type="logical" name="LRHFCALC"> F  </i>
   <i type="logical" name="LTHOMAS"> F  </i>
   <i type="logical" name="LMODELHF"> F  </i>
   <i name="ENCUT4O">     -1.00000000</i>
   <i type="int" name="EXXOEP">     0</i>
   <i type="int" name="FOURORBIT">     0</i>
   <i name="AEXX">      0.00000000</i>
   <i name="HFALPHA">      0.00000000</i>
   <i name="MCALPHA">      0.00000000</i>
   <i name="ALDAX">      1.00000000</i>
   <i name="AGGAX">      1.00000000</i>
   <i name="ALDAC">      1.00000000</i>
   <i name="AGGAC">      1.00000000</i>
   <i type="int" name="NKREDX">     1</i>
   <i type="int" name="NKREDY">     1</i>
   <i type="int" name="NKREDZ">     1</i>
   <i type="logical" name="SHIFTRED"> F  </i>
   <i type="logical" name="ODDONLY"> F  </i>
   <i type="logical" name="EVENONLY"> F  </i>
   <i type="int" name="LMAXFOCK">     0</i>
   <i type="int" name="NMAXFOCKAE">     0</i>
   <i type="logical" name="LFOCKAEDFT"> F  </i>
   <i name="HFSCREEN">      0.00000000</i>
   <i name="HFSCREENC">      0.00000000</i>
   <i type="int" name="NBANDSGWLOW">     0</i>
  </separator>
  <separator name="vdW DFT" >
   <i type="logical" name="LUSE_VDW"> F  </i>
   <i name="Zab_VDW">     -0.84910000</i>
   <i name="PARAM1">      0.12340000</i>
   <i name="PARAM2">      1.00000000</i>
   <i name="PARAM3">      0.00000000</i>
  </separator>
  <separator name="model GW" >
   <i type="int" name="MODEL_GW">     0</i>
   <i name="MODEL_EPS0">     58.26239943</i>
   <i name="MODEL_ALPHA">      1.00000000</i>
  </separator>
  <separator name="linear response parameters" >
   <i type="logical" name="LEPSILON"> F  </i>
   <i type="logical" name="LRPA"> F  </i>
   <i type="logical" name="LNABLA"> F  </i>
   <i type="logical" name="LVEL"> F  </i>
   <i type="int" name="KINTER">     0</i>
   <i name="CSHIFT">      0.10000000</i>
   <i name="OMEGAMAX">     -1.00000000</i>
   <i name="DEG_THRESHOLD">      0.00200000</i>
  </separator>
  <separator name="orbital magnetization" >
   <i type="logical" name="NUCIND"> F  </i>
   <v name="MAGPOS">      0.00000000      0.00000000      0.00000000</v>
   <i type="logical" name="LNICSALL"> T  </i>
   <i type="logical" name="ORBITALMAG"> F  </i>
   <i type="logical" name="LMAGBLOCH"> F  </i>
   <i type="logical" name="LCHIMAG"> F  </i>
   <i type="logical" name="LGAUGE"> T  </i>
   <i type="int" name="MAGATOM">     0</i>
   <v name="MAGDIPOL">      0.00000000      0.00000000      0.00000000</v>
   <v name="AVECCONST">      0.00000000      0.00000000      0.00000000</v>
  </separator>
  <separator name="response functions" >
   <i type="logical" name="LADDER"> F  </i>
   <i type="logical" name="LFXC"> F  </i>
   <i type="logical" name="LHARTREE"> T  </i>
   <i type="int" name="IBSE">     0</i>
   <v type="int" name="KPOINT">    -1     0     0     0</v>
   <i type="logical" name="LTCTE"> F  </i>
   <i type="logical" name="LTETE"> F  </i>
   <i type="logical" name="LTRIPLET"> F  </i>
   <i type="logical" name="LFXCEPS"> F  </i>
   <i type="logical" name="LFXHEG"> F  </i>
   <i type="int" name="NATURALO">     0</i>
   <i type="logical" name="L2ORDER"> F  </i>
   <i type="logical" name="LUSEW"> F  </i>
   <i name="ENCUTGW">     -2.00000000</i>
   <i name="ENCUTGWSOFT">     -2.00000000</i>
   <i name="ENCUTLF">     -1.00000000</i>
   <i type="int" name="LMAXMP2">    -1</i>
   <i name="SCISSOR">      0.00000000</i>
   <i type="int" name="NOMEGA">     0</i>
   <i type="int" name="NOMEGAR">     0</i>
   <i type="int" name="NBANDSGW">    -1</i>
   <i type="int" name="NBANDSO">    -1</i>
   <i type="int" name="NBANDSV">    -1</i>
   <i type="int" name="NELM">     1</i>
   <i type="int" name="NELMHF">     1</i>
   <i type="int" name="DIM">     3</i>
   <i type="int" name="ANTIRES">     0</i>
   <i name="OMEGAMAX">    -30.00000000</i>
   <i name="OMEGAMIN">    -30.00000000</i>
   <i name="OMEGATL">   -200.00000000</i>
   <i type="int" name="OMEGAGRID">     0</i>
   <i name="CSHIFT">     -0.10000000</i>
   <i type="logical" name="SELFENERGY"> F  </i>
   <i type="logical" name="LSPECTRAL"> F  </i>
   <i type="logical" name="LSPECTRALGW"> F  </i>
   <i type="logical" name="LSINGLES"> F  </i>
   <i type="logical" name="LFERMIGW"> F  </i>
   <i type="logical" name="ODDONLYGW"> F  </i>
   <i type="logical" name="EVENONLYGW"> F  </i>
   <i type="int" name="NKREDLFX">     1</i>
   <i type="int" name="NKREDLFY">     1</i>
   <i type="int" name="NKREDLFZ">     1</i>
   <i type="int" name="MAXMEM">  1800</i>
   <i type="int" name="TELESCOPE">     0</i>
   <i type="int" name="TAUPAR">     1</i>
   <i type="int" name="OMEGAPAR">    -1</i>
   <i name="LAMBDA">      1.00000000</i>
  </separator>
  <separator name="External order field" >
   <i name="OFIELD_KAPPA">      0.00000000</i>
   <v name="OFIELD_K">      0.00000000      0.00000000      0.00000000</v>
   <i name="OFIELD_Q6_NEAR">      0.00000000</i>
   <i name="OFIELD_Q6_FAR">      0.00000000</i>
   <i name="OFIELD_A">      0.00000000</i>
  </separator>
 </parameters>
 <atominfo>
  <atoms>      27 </atoms>
  <types>       4 </types>
  <array name="atoms" >
   <dimension dim="1">ion</dimension>
   <field type="string">element</field>
   <field type="int">atomtype</field>
   <set>
    <rc><c>V </c><c>   1</c></rc>
    <rc><c>V </c><c>   1</c></rc>
    <rc><c>V </c><c>   1</c></rc>
    <rc><c>Mo</c><c>   2</c></rc>
    <rc><c>Mo</c><c>   2</c></rc>
    <rc><c>Mo</c><c>   2</c></rc>
    <rc><c>W </c><c>   3</c></rc>
    <rc><c>W </c><c>   3</c></rc>
    <rc><c>W </c><c>   3</c></rc>
    <rc><c>S </c><c>   4</c></rc>
    <rc><c>S </c><c>   4</c></rc>
    <rc><c>S </c><c>   4</c></rc>
    <rc><c>S </c><c>   4</c></rc>
    <rc><c>S </c><c>   4</c></rc>
    <rc><c>S </c><c>   4</c></rc>
    <rc><c>S </c><c>   4</c></rc>
    <rc><c>S </c><c>   4</c></rc>
    <rc><c>S </c><c>   4</c></rc>
    <rc><c>S </c><c>   4</c></rc>
    <rc><c>S </c><c>   4</c></rc>
    <rc><c>S </c><c>   4</c></rc>
    <rc><c>S </c><c>   4</c></rc>
    <rc><c>S </c><c>   4</c></rc>
    <rc><c>S </c><c>   4</c></rc>
    <rc><c>S </c><c>   4</c></rc>
    <rc><c>S </c><c>   4</c></rc>
    <rc><c>S </c><c>   4</c></rc>
   </set>
  </array>
  <array name="atomtypes" >
   <dimension dim="1">type</dimension>
   <field type="int">atomspertype</field>
   <field type="string">element</field>
   <field>mass</field>
   <field>valence</field>
   <field type="string">pseudopotential</field>
   <set>
    <rc><c>   3</c><c>V </c><c>     50.94100000</c><c>      5.00000000</c><c> PAW_PBE V 08Apr2002                    </c></rc>
    <rc><c>   3</c><c>Mo</c><c>     95.94000000</c><c>      6.00000000</c><c> PAW_PBE Mo 08Apr2002                   </c></rc>
    <rc><c>   3</c><c>W </c><c>    183.85000000</c><c>      6.00000000</c><c> PAW_PBE W 08Apr2002                    </c></rc>
    <rc><c>  18</c><c>S </c><c>     32.06600000</c><c>      6.00000000</c><c>  PAW_PBE S 17Jan2003                   </c></rc>
   </set>
  </array>
 </atominfo>
 <structure name="initialpos" >
  <crystal>
   <varray name="basis" >
    <v>       8.66999996       5.03999989       0.00000000 </v>
    <v>      -8.66999982       5.04000013       0.00000000 </v>
    <v>       0.00000000       0.00000000      30.00000000 </v>
   </varray>
   <i name="volume">   2621.80797419 </i>
   <varray name="rec_basis" >
    <v>       0.05767013       0.09920635       0.00000000 </v>
    <v>      -0.05767013       0.09920635       0.00000000 </v>
    <v>       0.00000000       0.00000000       0.03333333 </v>
   </varray>
  </crystal>
  <varray name="positions" >
   <v>       0.33333334       0.66666669       0.00000000 </v>
   <v>       0.66666669       0.33333334       0.00000000 </v>
   <v>       1.00000000       0.33333334       0.00000000 </v>
   <v>       0.00000000       0.66666669       0.00000000 </v>
   <v>       0.33333334       0.33333334       0.00000000 </v>
   <v>       0.00000000       0.00000000       0.00000000 </v>
   <v>       0.33333334       0.00000000       0.00000000 </v>
   <v>       0.66666669       0.00000000       0.00000000 </v>
   <v>       0.66666669       0.66666669       0.00000000 </v>
   <v>       0.11068511       0.22244981       0.95539999 </v>
   <v>       0.22244981       0.11068511       0.04460000 </v>
   <v>       0.11068511       0.55578315       0.95539999 </v>
   <v>       0.22244981       0.44401845       0.04460000 </v>
   <v>       0.11068511       0.88911647       0.95539999 </v>
   <v>       0.22244981       0.77735180       0.04460000 </v>
   <v>       0.44401845       0.22244981       0.95539999 </v>
   <v>       0.55578315       0.11068511       0.04460000 </v>
   <v>       0.44401845       0.55578315       0.95539999 </v>
   <v>       0.55578315       0.44401845       0.04460000 </v>
   <v>       0.44401845       0.88911647       0.95539999 </v>
   <v>       0.55578315       0.77735180       0.04460000 </v>
   <v>       0.77735180       0.22244981       0.95539999 </v>
   <v>       0.88911647       0.11068511       0.04460000 </v>
   <v>       0.77735180       0.55578315       0.95539999 </v>
   <v>       0.88911647       0.44401845       0.04460000 </v>
   <v>       0.77735180       0.88911647       0.95539999 </v>
   <v>       0.88911647       0.77735180       0.04460000 </v>
  </varray>
 </structure>
 <calculation>
  <scstep>
   <time name="dav">   23.22   23.27</time>
   <time name="total">   23.26   23.32</time>
   <energy>
    <i name="alphaZ">     81.65567618 </i>
    <i name="ewald">  41890.23011113 </i>
    <i name="hartreedc"> -47722.86557416 </i>
    <i name="XCdc">   -242.92861158 </i>
    <i name="pawpsdc">   3467.42045192 </i>
    <i name="pawaedc">  -2871.19716117 </i>
    <i name="eentropy">     -0.53236239 </i>
    <i name="bandstr">   -238.64069387 </i>
    <i name="atom">   6761.44252427 </i>
    <i name="e_fr_energy">   1124.58436033 </i>
    <i name="e_wo_entrp">   1125.11672271 </i>
    <i name="e_0_energy">   1124.85054152 </i>
   </energy>
  </scstep>
  <scstep>
   <time name="dav">   29.91   29.98</time>
   <time name="total">   29.91   29.99</time>
   <energy>
    <i name="e_fr_energy">     -1.83842681 </i>
    <i name="e_wo_entrp">     -1.63439453 </i>
    <i name="e_0_energy">     -1.73641067 </i>
   </energy>
  </scstep>
  <scstep>
   <time name="dav">   29.25   29.32</time>
   <time name="total">   29.25   29.33</time>
   <energy>
    <i name="e_fr_energy">   -199.82456071 </i>
    <i name="e_wo_entrp">   -199.53961137 </i>
    <i name="e_0_energy">   -199.68208604 </i>
   </energy>
  </scstep>
  <scstep>
   <time name="dav">   32.04   32.12</time>
   <time name="total">   32.04   32.12</time>
   <energy>
    <i name="e_fr_energy">   -208.96910943 </i>
    <i name="e_wo_entrp">   -208.65222238 </i>
    <i name="e_0_energy">   -208.81066590 </i>
   </energy>
  </scstep>
  <scstep>
   <time name="dav">   30.42   30.49</time>
   <time name="total">   30.88   30.96</time>
   <energy>
    <i name="e_fr_energy">   -209.28889517 </i>
    <i name="e_wo_entrp">   -208.97496403 </i>
    <i name="e_0_energy">   -209.13192960 </i>
   </energy>
  </scstep>
  <scstep>
   <time name="dav">   33.06   33.14</time>
   <time name="total">   33.57   33.66</time>
   <energy>
    <i name="e_fr_energy">   -236.79554492 </i>
    <i name="e_wo_entrp">   -236.50722847 </i>
    <i name="e_0_energy">   -236.65138669 </i>
   </energy>
  </scstep>
  <scstep>
   <time name="dav">   34.44   34.52</time>
   <time name="total">   34.95   35.04</time>
   <energy>
    <i name="e_fr_energy">   -196.66540958 </i>
    <i name="e_wo_entrp">   -196.34351597 </i>
    <i name="e_0_energy">   -196.50446278 </i>
   </energy>
  </scstep>
  <scstep>
   <time name="dav">   31.17   31.25</time>
   <time name="total">   31.68   31.77</time>
   <energy>
    <i name="e_fr_energy">   -190.02825293 </i>
    <i name="e_wo_entrp">   -189.75483688 </i>
    <i name="e_0_energy">   -189.89154491 </i>
   </energy>
  </scstep>
  <scstep>
   <time name="dav">   31.18   31.26</time>
   <time name="total">   31.71   31.79</time>
   <energy>
    <i name="e_fr_energy">   -188.24060035 </i>
    <i name="e_wo_entrp">   -187.90261133 </i>
    <i name="e_0_energy">   -188.07160584 </i>
   </energy>
  </scstep>
  <scstep>
   <time name="dav">   34.60   34.68</time>
   <time name="total">   35.13   35.23</time>
   <energy>
    <i name="e_fr_energy">   -187.05643386 </i>
    <i name="e_wo_entrp">   -186.71295766 </i>
    <i name="e_0_energy">   -186.88469576 </i>
   </energy>
  </scstep>
  <scstep>
   <time name="dav">   32.80   32.88</time>
   <time name="total">   33.34   33.42</time>
   <energy>
    <i name="e_fr_energy">   -186.99597867 </i>
    <i name="e_wo_entrp">   -186.64481810 </i>
    <i name="e_0_energy">   -186.82039838 </i>
   </energy>
  </scstep>
  <scstep>
   <time name="dav">   32.85   32.93</time>
   <time name="total">   33.38   33.47</time>
   <energy>
    <i name="e_fr_energy">   -187.07405661 </i>
    <i name="e_wo_entrp">   -186.74027638 </i>
    <i name="e_0_energy">   -186.90716650 </i>
   </energy>
  </scstep>
  <scstep>
   <time name="dav">   33.55   33.64</time>
   <time name="total">   34.09   34.19</time>
   <energy>
    <i name="e_fr_energy">   -186.90593390 </i>
    <i name="e_wo_entrp">   -186.56797190 </i>
    <i name="e_0_energy">   -186.73695290 </i>
   </energy>
  </scstep>
  <scstep>
   <time name="dav">   33.44   33.52</time>
   <time name="total">   33.98   34.07</time>
   <energy>
    <i name="e_fr_energy">   -186.89410513 </i>
    <i name="e_wo_entrp">   -186.55004716 </i>
    <i name="e_0_energy">   -186.72207614 </i>
   </energy>
  </scstep>
  <scstep>
   <time name="dav">   33.30   33.38</time>
   <time name="total">   33.83   33.92</time>
   <energy>
    <i name="e_fr_energy">   -186.87005274 </i>
    <i name="e_wo_entrp">   -186.52345162 </i>
    <i name="e_0_energy">   -186.69675218 </i>
   </energy>
  </scstep>
  <scstep>
   <time name="dav">   33.18   33.26</time>
   <time name="total">   33.72   33.81</time>
   <energy>
    <i name="e_fr_energy">   -186.86556112 </i>
    <i name="e_wo_entrp">   -186.51986220 </i>
    <i name="e_0_energy">   -186.69271166 </i>
   </energy>
  </scstep>
  <scstep>
   <time name="dav">   33.23   33.31</time>
   <time name="total">   33.76   33.85</time>
   <energy>
    <i name="e_fr_energy">   -186.86360293 </i>
    <i name="e_wo_entrp">   -186.51960659 </i>
    <i name="e_0_energy">   -186.69160476 </i>
   </energy>
  </scstep>
  <scstep>
   <time name="dav">   30.70   30.77</time>
   <time name="total">   31.23   31.32</time>
   <energy>
    <i name="e_fr_energy">   -186.86295986 </i>
    <i name="e_wo_entrp">   -186.51877062 </i>
    <i name="e_0_energy">   -186.69086524 </i>
   </energy>
  </scstep>
  <scstep>
   <time name="dav">   27.22   27.29</time>
   <time name="total">   27.76   27.83</time>
   <energy>
    <i name="e_fr_energy">   -186.86283923 </i>
    <i name="e_wo_entrp">   -186.51841556 </i>
    <i name="e_0_energy">   -186.69062739 </i>
   </energy>
  </scstep>
  <scstep>
   <time name="dav">   24.94   25.00</time>
   <time name="total">   25.48   25.55</time>
   <energy>
    <i name="e_fr_energy">   -186.86368600 </i>
    <i name="e_wo_entrp">   -186.51945012 </i>
    <i name="e_0_energy">   -186.69156806 </i>
   </energy>
  </scstep>
  <scstep>
   <time name="dav">   23.34   23.40</time>
   <time name="total">   23.87   23.94</time>
   <energy>
    <i name="e_fr_energy">   -186.86436817 </i>
    <i name="e_wo_entrp">   -186.52021273 </i>
    <i name="e_0_energy">   -186.69229045 </i>
   </energy>
  </scstep>
  <scstep>
   <time name="dav">   21.64   21.69</time>
   <time name="total">   22.17   22.23</time>
   <energy>
    <i name="e_fr_energy">   -186.86539919 </i>
    <i name="e_wo_entrp">   -186.52109823 </i>
    <i name="e_0_energy">   -186.69324871 </i>
   </energy>
  </scstep>
  <scstep>
   <time name="dav">   21.87   21.92</time>
   <time name="total">   22.41   22.47</time>
   <energy>
    <i name="e_fr_energy">   -186.86654693 </i>
    <i name="e_wo_entrp">   -186.52238618 </i>
    <i name="e_0_energy">   -186.69446656 </i>
   </energy>
  </scstep>
  <scstep>
   <time name="dav">   20.22   20.27</time>
   <time name="total">   20.76   20.82</time>
   <energy>
    <i name="e_fr_energy">   -186.86712209 </i>
    <i name="e_wo_entrp">   -186.52291347 </i>
    <i name="e_0_energy">   -186.69501778 </i>
   </energy>
  </scstep>
  <scstep>
   <time name="dav">   17.70   17.75</time>
   <time name="total">   18.24   18.29</time>
   <energy>
    <i name="e_fr_energy">   -186.86748659 </i>
    <i name="e_wo_entrp">   -186.52325493 </i>
    <i name="e_0_energy">   -186.69537076 </i>
   </energy>
  </scstep>
  <scstep>
   <time name="dav">   20.29   20.34</time>
   <time name="total">   20.82   20.88</time>
   <energy>
    <i name="e_fr_energy">   -186.86773038 </i>
    <i name="e_wo_entrp">   -186.52351645 </i>
    <i name="e_0_energy">   -186.69562342 </i>
   </energy>
  </scstep>
  <scstep>
   <time name="dav">   21.30   21.36</time>
   <time name="total">   21.34   21.40</time>
   <energy>
    <i name="alphaZ">     81.65567618 </i>
    <i name="ewald">  41890.23011113 </i>
    <i name="hartreedc"> -47832.97518138 </i>
    <i name="XCdc">   -231.60457763 </i>
    <i name="pawpsdc">   4192.11557896 </i>
    <i name="pawaedc">  -3610.12941599 </i>
    <i name="eentropy">     -0.34421910 </i>
    <i name="bandstr">  -1437.25831754 </i>
    <i name="atom">   6761.44252427 </i>
    <i name="e_fr_energy">   -186.86782109 </i>
    <i name="e_wo_entrp">   -186.52360199 </i>
    <i name="e_0_energy">   -186.69571154 </i>
   </energy>
  </scstep>
  <structure>
   <crystal>
    <varray name="basis" >
     <v>       8.66999996       5.03999989       0.00000000 </v>
     <v>      -8.66999982       5.04000013       0.00000000 </v>
     <v>       0.00000000       0.00000000      30.00000000 </v>
    </varray>
    <i name="volume">   2621.80797419 </i>
    <varray name="rec_basis" >
     <v>       0.05767013       0.09920635       0.00000000 </v>
     <v>      -0.05767013       0.09920635       0.00000000 </v>
     <v>       0.00000000       0.00000000       0.03333333 </v>
    </varray>
   </crystal>
   <varray name="positions" >
    <v>       0.33333334       0.66666669       0.00000000 </v>
    <v>       0.66666669       0.33333334       0.00000000 </v>
    <v>       1.00000000       0.33333334       0.00000000 </v>
    <v>       0.00000000       0.66666669       0.00000000 </v>
    <v>       0.33333334       0.33333334       0.00000000 </v>
    <v>       0.00000000       0.00000000       0.00000000 </v>
    <v>       0.33333334       0.00000000       0.00000000 </v>
    <v>       0.66666669       0.00000000       0.00000000 </v>
    <v>       0.66666669       0.66666669       0.00000000 </v>
    <v>       0.11068511       0.22244981       0.95539999 </v>
    <v>       0.22244981       0.11068511       0.04460000 </v>
    <v>       0.11068511       0.55578315       0.95539999 </v>
    <v>       0.22244981       0.44401845       0.04460000 </v>
    <v>       0.11068511       0.88911647       0.95539999 </v>
    <v>       0.22244981       0.77735180       0.04460000 </v>
    <v>       0.44401845       0.22244981       0.95539999 </v>
    <v>       0.55578315       0.11068511       0.04460000 </v>
    <v>       0.44401845       0.55578315       0.95539999 </v>
    <v>       0.55578315       0.44401845       0.04460000 </v>
    <v>       0.44401845       0.88911647       0.95539999 </v>
    <v>       0.55578315       0.77735180       0.04460000 </v>
    <v>       0.77735180       0.22244981       0.95539999 </v>
    <v>       0.88911647       0.11068511       0.04460000 </v>
    <v>       0.77735180       0.55578315       0.95539999 </v>
    <v>       0.88911647       0.44401845       0.04460000 </v>
    <v>       0.77735180       0.88911647       0.95539999 </v>
    <v>       0.88911647       0.77735180       0.04460000 </v>
   </varray>
  </structure>
  <varray name="forces" >
   <v>      -0.00439060      -0.31236221       0.07694254 </v>
   <v>      -0.13212109       0.16537361      -0.06388018 </v>
   <v>       0.13176407       0.16309429       0.01988988 </v>
   <v>      -0.17704712       0.10317922       0.03459698 </v>
   <v>      -0.03332513      -0.30393353      -0.01743894 </v>
   <v>       0.24596808       0.13372315      -0.01878427 </v>
   <v>      -0.55141190      -0.31051767      -0.13120362 </v>
   <v>       0.23945763       0.23399457      -0.02188603 </v>
   <v>       0.28383571       0.10064523       0.10359669 </v>
   <v>      -0.74214789       0.00001582      -2.11155739 </v>
   <v>       0.02070341       0.00024249       2.94118132 </v>
   <v>       0.89420646      -0.00201857      -1.46091480 </v>
   <v>      -0.90882905       0.01349808       1.48924925 </v>
   <v>       0.21423237       0.17691997      -2.93874740 </v>
   <v>       0.70204761       0.14433939       2.11799527 </v>
   <v>       0.64137432       0.55910261      -2.17055805 </v>
   <v>      -0.45308041       0.57426838       2.11212960 </v>
   <v>      -0.65963866       0.14365393      -2.06465312 </v>
   <v>       0.63904694       0.16526624       2.09972253 </v>
   <v>       0.45792963      -0.56001897      -2.11607983 </v>
   <v>      -0.47062881      -0.59504318       2.19724085 </v>
   <v>      -0.25944988       0.50924904      -1.43796137 </v>
   <v>      -0.61075175       0.54021491       2.15300981 </v>
   <v>       0.39226883      -0.72083312      -2.19093981 </v>
   <v>       0.31664637      -0.66242135       1.39355340 </v>
   <v>       0.05213620      -0.10236287      -2.89353236 </v>
   <v>      -0.22879531      -0.15726946       2.89902906 </v>
  </varray>
  <varray name="stress" >
   <v>       7.44398890      -0.01325728      -1.61959958 </v>
   <v>      -0.01325717       4.31440640       0.01592526 </v>
   <v>      -1.61959957       0.01592528      30.30403777 </v>
  </varray>
  <energy>
   <i name="e_fr_energy">   -186.86782109 </i>
   <i name="e_wo_entrp">   -186.69571154 </i>
   <i name="e_0_energy">     -0.34421910 </i>
  </energy>
  <time name="totalsc">  827.12  829.33</time>
 </calculation>
 <calculation>
  <scstep>
   <time name="dav">   23.13   23.18</time>
   <time name="total">   23.67   23.73</time>
   <energy>
    <i name="alphaZ">     78.92071394 </i>
    <i name="ewald">  39379.58905609 </i>
    <i name="hartreedc"> -45337.07116250 </i>
    <i name="XCdc">   -239.06178974 </i>
    <i name="pawpsdc">   4192.09681223 </i>
    <i name="pawaedc">  -3610.11077981 </i>
    <i name="eentropy">     -0.28385244 </i>
    <i name="bandstr">  -1413.02838120 </i>
    <i name="atom">   6761.44252427 </i>
    <i name="e_fr_energy">   -187.50685915 </i>
    <i name="e_wo_entrp">   -187.22300671 </i>
    <i name="e_0_energy">   -187.36493293 </i>
   </energy>
  </scstep>
  <scstep>
   <time name="dav">   32.22   32.30</time>
   <time name="total">   32.75   32.84</time>
   <energy>
    <i name="e_fr_energy">   -189.51358248 </i>
    <i name="e_wo_entrp">   -189.17849762 </i>
    <i name="e_0_energy">   -189.34604005 </i>
   </energy>
  </scstep>
  <scstep>
   <time name="dav">   32.48   32.56</time>
   <time name="total">   33.03   33.12</time>
   <energy>
    <i name="e_fr_energy">   -189.36321680 </i>
    <i name="e_wo_entrp">   -189.08455453 </i>
    <i name="e_0_energy">   -189.22388567 </i>
   </energy>
  </scstep>
  <scstep>
   <time name="dav">   32.42   32.50</time>
   <time name="total">   32.97   33.06</time>
   <energy>
    <i name="e_fr_energy">   -188.79116312 </i>
    <i name="e_wo_entrp">   -188.50755276 </i>
    <i name="e_0_energy">   -188.64935794 </i>
   </energy>
  </scstep>
  <scstep>
   <time name="dav">   29.85   29.92</time>
   <time name="total">   30.39   30.47</time>
   <energy>
    <i name="e_fr_energy">   -188.88684938 </i>
    <i name="e_wo_entrp">   -188.59555213 </i>
    <i name="e_0_energy">   -188.74120075 </i>
   </energy>
  </scstep>
  <scstep>
   <time name="dav">   32.95   33.03</time>
   <time name="total">   33.49   33.58</time>
   <energy>
    <i name="e_fr_energy">   -188.75890560 </i>
    <i name="e_wo_entrp">   -188.47106205 </i>
    <i name="e_0_energy">   -188.61498383 </i>
   </energy>
  </scstep>
  <scstep>
   <time name="dav">   28.30   28.37</time>
   <time name="total">   28.85   28.93</time>
   <energy>
    <i name="e_fr_energy">   -188.70465656 </i>
    <i name="e_wo_entrp">   -188.41966268 </i>
    <i name="e_0_energy">   -188.56215962 </i>
   </energy>
  </scstep>
  <scstep>
   <time name="dav">   33.79   33.87</time>
   <time name="total">   34.33   34.42</time>
   <energy>
    <i name="e_fr_energy">   -188.69580079 </i>
    <i name="e_wo_entrp">   -188.41222406 </i>
    <i name="e_0_energy">   -188.55401242 </i>
   </energy>
  </scstep>
  <scstep>
   <time name="dav">   31.03   31.10</time>
   <time name="total">   31.58   31.66</time>
   <energy>
    <i name="e_fr_energy">   -188.68114400 </i>
    <i name="e_wo_entrp">   -188.39734824 </i>
    <i name="e_0_energy">   -188.53924612 </i>
   </energy>
  </scstep>
  <scstep>
   <time name="dav">   32.85   32.93</time>
   <time name="total">   33.39   33.48</time>
   <energy>
    <i name="e_fr_energy">   -188.67747222 </i>
    <i name="e_wo_entrp">   -188.39385047 </i>
    <i name="e_0_energy">   -188.53566135 </i>
   </energy>
  </scstep>
  <scstep>
   <time name="dav">   33.40   33.48</time>
   <time name="total">   33.95   34.04</time>
   <energy>
    <i name="e_fr_energy">   -188.67677392 </i>
    <i name="e_wo_entrp">   -188.39396303 </i>
    <i name="e_0_energy">   -188.53536847 </i>
   </energy>
  </scstep>
  <scstep>
   <time name="dav">   31.69   31.77</time>
   <time name="total">   31.73   31.81</time>
   <energy>
    <i name="alphaZ">     78.92071394 </i>
    <i name="ewald">  39379.58905609 </i>
    <i name="hartreedc"> -45347.98959248 </i>
    <i name="XCdc">   -237.96992797 </i>
    <i name="pawpsdc">   3952.75958798 </i>
    <i name="pawaedc">  -3367.29794517 </i>
    <i name="eentropy">     -0.28263373 </i>
    <i name="bandstr">  -1407.84865412 </i>
    <i name="atom">   6761.44252427 </i>
    <i name="e_fr_energy">   -188.67687118 </i>
    <i name="e_wo_entrp">   -188.39423745 </i>
    <i name="e_0_energy">   -188.53555432 </i>
   </energy>
  </scstep>
  <structure>
   <crystal>
    <varray name="basis" >
     <v>       8.85850922       5.10324218       0.00000000 </v>
     <v>      -8.85889981       5.10391457       0.00000000 </v>
     <v>       0.00000000       0.00000000      30.00000000 </v>
    </varray>
    <i name="volume">   2712.66556337 </i>
    <varray name="rec_basis" >
     <v>       0.05644538       0.09797264       0.00000000 </v>
     <v>      -0.05643794       0.09796832       0.00000000 </v>
     <v>       0.00000000       0.00000000       0.03333333 </v>
    </varray>
   </crystal>
   <varray name="positions" >
    <v>       0.33182617       0.66518394       0.00012373 </v>
    <v>       0.66709058       0.33449240      -0.00010272 </v>
    <v>       1.00114715       0.33374732       0.00003198 </v>
    <v>       0.00000124       0.66765307       0.00005564 </v>
    <v>       0.33178601       0.33197144      -0.00002804 </v>
    <v>       0.00132432      -0.00004433      -0.00003021 </v>
    <v>       0.33031310       0.00004799      -0.00021099 </v>
    <v>       0.66845279       0.00045368      -0.00003519 </v>
    <v>       0.66793805       0.66635870       0.00016659 </v>
    <v>       0.10862041       0.22451466       0.95200442 </v>
    <v>       0.22250857       0.11062867       0.04932968 </v>
    <v>       0.11316327       0.55328567       0.95305071 </v>
    <v>       0.21998590       0.44661156       0.04699484 </v>
    <v>       0.11212787       0.88936717       0.95067422 </v>
    <v>       0.22509382       0.77608939       0.04800592 </v>
    <v>       0.44847871       0.22334126       0.95190954 </v>
    <v>       0.55727105       0.11469409       0.04799649 </v>
    <v>       0.44287076       0.55830590       0.95207985 </v>
    <v>       0.55835204       0.44303148       0.04797654 </v>
    <v>       0.44261225       0.88516219       0.95199715 </v>
    <v>       0.55162592       0.77581330       0.04813336 </v>
    <v>       0.77906722       0.22560889       0.95308762 </v>
    <v>       0.89000271       0.11496978       0.04806223 </v>
    <v>       0.77499326       0.55124191       0.95187677 </v>
    <v>       0.88682709       0.43996716       0.04684096 </v>
    <v>       0.77700694       0.88848151       0.95074693 </v>
    <v>       0.88772723       0.77723565       0.04926189 </v>
   </varray>
  </structure>
  <varray name="forces" >
   <v>       0.03103072      -0.20990468      -0.05502642 </v>
   <v>      -0.15057536       0.14138056       0.07220768 </v>
   <v>       0.12864161       0.11299377       0.00459524 </v>
   <v>      -0.42497447       0.23932626       0.08291221 </v>
   <v>       0.13346583      -0.38431156      -0.08690880 </v>
   <v>       0.40676842       0.09891543      -0.01132260 </v>
   <v>      -0.64450740      -0.34439977      -0.02785588 </v>
   <v>       0.33559817       0.11559093       0.01368551 </v>
   <v>       0.18272342       0.23482205       0.03612519 </v>
   <v>      -0.07166787       0.00351825      -0.08361029 </v>
   <v>       0.13486706      -0.00851501       0.22301733 </v>
   <v>       0.02823439      -0.01815493       0.10043984 </v>
   <v>      -0.04044469      -0.01654099       0.01797592 </v>
   <v>       0.04386403       0.11194328      -0.28598249 </v>
   <v>      -0.02590479       0.11411507      -0.00932550 </v>
   <v>       0.08568478      -0.05584066      -0.01171407 </v>
   <v>       0.05559091      -0.06639491      -0.29243696 </v>
   <v>       0.02657824       0.10511221       0.14934557 </v>
   <v>      -0.01709278       0.09942196      -0.03000375 </v>
   <v>      -0.05810594       0.06741606       0.24899117 </v>
   <v>       0.06245390       0.05258978      -0.10307409 </v>
   <v>       0.06167685      -0.06083116       0.10197919 </v>
   <v>      -0.07449694      -0.04826603      -0.02368506 </v>
   <v>      -0.09406425      -0.06157120      -0.05703556 </v>
   <v>       0.00912575      -0.03307643      -0.14790919 </v>
   <v>      -0.05545209      -0.08753793      -0.00580070 </v>
   <v>      -0.06901749      -0.10180036       0.18041650 </v>
  </varray>
  <varray name="stress" >
   <v>     -19.98942698       0.00546746       0.07048508 </v>
   <v>       0.00546741     -19.53809757      -0.01014124 </v>
   <v>       0.07048523      -0.01014132      -1.74875225 </v>
  </varray>
  <energy>
   <i name="e_fr_energy">   -188.67687118 </i>
   <i name="e_wo_entrp">   -188.53555432 </i>
   <i name="e_0_energy">     -0.28263373 </i>
  </energy>
  <time name="totalsc">  424.74  425.86</time>
 </calculation>
 <calculation>
  <scstep>
   <time name="dav">   25.26   25.32</time>
   <time name="total">   25.79   25.86</time>
   <energy>
    <i name="alphaZ">     82.35577595 </i>
    <i name="ewald">  41308.80515445 </i>
    <i name="hartreedc"> -47307.85506666 </i>
    <i name="XCdc">   -233.83877708 </i>
    <i name="pawpsdc">   3950.50027782 </i>
    <i name="pawaedc">  -3365.01243216 </i>
    <i name="eentropy">     -0.23712955 </i>
    <i name="bandstr">  -1386.76777179 </i>
    <i name="atom">   6761.44252427 </i>
    <i name="e_fr_energy">   -190.60744475 </i>
    <i name="e_wo_entrp">   -190.37031520 </i>
    <i name="e_0_energy">   -190.48887998 </i>
   </energy>
  </scstep>
  <scstep>
   <time name="dav">   29.60   29.67</time>
   <time name="total">   30.13   30.21</time>
   <energy>
    <i name="e_fr_energy">   -190.56713448 </i>
    <i name="e_wo_entrp">   -190.32391199 </i>
    <i name="e_0_energy">   -190.44552323 </i>
   </energy>
  </scstep>
  <scstep>
   <time name="dav">   32.17   32.25</time>
   <time name="total">   32.71   32.79</time>
   <energy>
    <i name="e_fr_energy">   -190.08806285 </i>
    <i name="e_wo_entrp">   -189.83711209 </i>
    <i name="e_0_energy">   -189.96258747 </i>
   </energy>
  </scstep>
  <scstep>
   <time name="dav">   32.95   33.03</time>
   <time name="total">   33.49   33.57</time>
   <energy>
    <i name="e_fr_energy">   -189.88084740 </i>
    <i name="e_wo_entrp">   -189.64184487 </i>
    <i name="e_0_energy">   -189.76134613 </i>
   </energy>
  </scstep>
  <scstep>
   <time name="dav">   32.00   32.08</time>
   <time name="total">   32.53   32.62</time>
   <energy>
    <i name="e_fr_energy">   -189.92054650 </i>
    <i name="e_wo_entrp">   -189.67396546 </i>
    <i name="e_0_energy">   -189.79725598 </i>
   </energy>
  </scstep>
  <scstep>
   <time name="dav">   32.09   32.17</time>
   <time name="total">   32.63   32.71</time>
   <energy>
    <i name="e_fr_energy">   -189.77566173 </i>
    <i name="e_wo_entrp">   -189.53552080 </i>
    <i name="e_0_energy">   -189.65559126 </i>
   </energy>
  </scstep>
  <scstep>
   <time name="dav">   32.65   32.73</time>
   <time name="total">   33.19   33.28</time>
   <energy>
    <i name="e_fr_energy">   -189.76947068 </i>
    <i name="e_wo_entrp">   -189.52933842 </i>
    <i name="e_0_energy">   -189.64940455 </i>
   </energy>
  </scstep>
  <scstep>
   <time name="dav">   30.64   30.71</time>
   <time name="total">   31.17   31.25</time>
   <energy>
    <i name="e_fr_energy">   -189.77050411 </i>
    <i name="e_wo_entrp">   -189.53034025 </i>
    <i name="e_0_energy">   -189.65042218 </i>
   </energy>
  </scstep>
  <scstep>
   <time name="dav">   29.22   29.29</time>
   <time name="total">   29.76   29.84</time>
   <energy>
    <i name="e_fr_energy">   -189.76934222 </i>
    <i name="e_wo_entrp">   -189.52922667 </i>
    <i name="e_0_energy">   -189.64928445 </i>
   </energy>
  </scstep>
  <scstep>
   <time name="dav">   27.64   27.71</time>
   <time name="total">   28.17   28.25</time>
   <energy>
    <i name="e_fr_energy">   -189.76961896 </i>
    <i name="e_wo_entrp">   -189.52938891 </i>
    <i name="e_0_energy">   -189.64950394 </i>
   </energy>
  </scstep>
  <scstep>
   <time name="dav">   24.95   25.01</time>
   <time name="total">   25.49   25.56</time>
   <energy>
    <i name="e_fr_energy">   -189.76940269 </i>
    <i name="e_wo_entrp">   -189.52919096 </i>
    <i name="e_0_energy">   -189.64929682 </i>
   </energy>
  </scstep>
  <scstep>
   <time name="dav">   20.68   20.73</time>
   <time name="total">   20.72   20.79</time>
   <energy>
    <i name="alphaZ">     82.35577595 </i>
    <i name="ewald">  41308.80515445 </i>
    <i name="hartreedc"> -47281.10131160 </i>
    <i name="XCdc">   -235.23626165 </i>
    <i name="pawpsdc">   4039.06917385 </i>
    <i name="pawaedc">  -3454.77935277 </i>
    <i name="eentropy">     -0.24020020 </i>
    <i name="bandstr">  -1410.08492723 </i>
    <i name="atom">   6761.44252427 </i>
    <i name="e_fr_energy">   -189.76942492 </i>
    <i name="e_wo_entrp">   -189.52922472 </i>
    <i name="e_0_energy">   -189.64932482 </i>
   </energy>
  </scstep>
  <structure>
   <crystal>
    <varray name="basis" >
     <v>       8.66969532       4.99696039       0.00000000 </v>
     <v>      -8.67001806       4.99751546       0.00000000 </v>
     <v>       0.00000000       0.00000000      30.00000000 </v>
    </varray>
    <i name="volume">   2599.52019710 </i>
    <varray name="rec_basis" >
     <v>       0.05767428       0.10005713       0.00000000 </v>
     <v>      -0.05766788       0.10005341       0.00000000 </v>
     <v>       0.00000000       0.00000000       0.03333333 </v>
    </varray>
   </crystal>
   <varray name="positions" >
    <v>       0.33150622       0.66480443       0.00009254 </v>
    <v>       0.66718160       0.33487248      -0.00006179 </v>
    <v>       1.00145891       0.33381211       0.00003459 </v>
    <v>      -0.00000795       0.66845972       0.00010264 </v>
    <v>       0.33127379       0.33120303      -0.00007731 </v>
    <v>       0.00187961      -0.00026995      -0.00003663 </v>
    <v>       0.32912057       0.00009279      -0.00022678 </v>
    <v>       0.66896754       0.00032416      -0.00002744 </v>
    <v>       0.66850471       0.66657455       0.00018707 </v>
    <v>       0.10855748       0.22458931       0.95195702 </v>
    <v>       0.22262385       0.11048504       0.04945610 </v>
    <v>       0.11316013       0.55322832       0.95310765 </v>
    <v>       0.21991952       0.44662282       0.04700503 </v>
    <v>       0.11235650       0.88951158       0.95051210 </v>
    <v>       0.22525909       0.77630439       0.04800064 </v>
    <v>       0.44846792       0.22316598       0.95190290 </v>
    <v>       0.55721378       0.11453011       0.04783071 </v>
    <v>       0.44307141       0.55845552       0.95216451 </v>
    <v>       0.55850129       0.44321354       0.04795953 </v>
    <v>       0.44266880       0.88533029       0.95213830 </v>
    <v>       0.55177350       0.77584097       0.04807492 </v>
    <v>       0.77902507       0.22544834       0.95314543 </v>
    <v>       0.88985078       0.11496086       0.04804880 </v>
    <v>       0.77480037       0.55122961       0.95184443 </v>
    <v>       0.88678074       0.43990329       0.04675711 </v>
    <v>       0.77680786       0.88838888       0.95074365 </v>
    <v>       0.88749136       0.77713229       0.04936417 </v>
   </varray>
  </structure>
  <varray name="forces" >
   <v>       0.04389416      -0.14364089      -0.07429040 </v>
   <v>      -0.17329596       0.12375425       0.08500140 </v>
   <v>       0.13411463       0.07770246      -0.00013072 </v>
   <v>      -0.49643709       0.28018811       0.06576328 </v>
   <v>       0.18507132      -0.38696901      -0.07945643 </v>
   <v>       0.45492460       0.06370306      -0.00539156 </v>
   <v>      -0.64984346      -0.35057774       0.00594909 </v>
   <v>       0.36527579       0.05838481       0.02091856 </v>
   <v>       0.13610953       0.27561989       0.00501512 </v>
   <v>      -0.15015996      -0.00925561      -0.57960507 </v>
   <v>       0.04979219      -0.00811714       0.79945256 </v>
   <v>       0.08328507      -0.02083658      -0.33309353 </v>
   <v>      -0.10742807      -0.01792687       0.47297519 </v>
   <v>       0.00253719       0.02705049      -0.87833077 </v>
   <v>       0.07968423       0.05733464       0.48394512 </v>
   <v>       0.08919284       0.07235000      -0.52139293 </v>
   <v>      -0.01994372       0.03115548       0.17729714 </v>
   <v>      -0.07173294       0.04294197      -0.32083493 </v>
   <v>       0.08398376       0.02037021       0.46052990 </v>
   <v>      -0.00041006      -0.05317003      -0.22550093 </v>
   <v>      -0.00561547      -0.08160703       0.40826576 </v>
   <v>      -0.01535925       0.08354462      -0.35858494 </v>
   <v>      -0.05423214       0.09711399       0.47830860 </v>
   <v>       0.02471452      -0.11040810      -0.56134410 </v>
   <v>       0.04666493      -0.08180132       0.28871078 </v>
   <v>       0.00095115      -0.02251428      -0.56854876 </v>
   <v>      -0.03573778      -0.02438939       0.75437259 </v>
  </varray>
  <varray name="stress" >
   <v>     -10.15746430      -0.00291747       0.07241216 </v>
   <v>      -0.00291732      -9.76215626      -0.00830928 </v>
   <v>       0.07241216      -0.00830934       6.51504823 </v>
  </varray>
  <energy>
   <i name="e_fr_energy">   -189.76942492 </i>
   <i name="e_wo_entrp">   -189.64932482 </i>
   <i name="e_0_energy">     -0.24020020 </i>
  </energy>
  <time name="totalsc">  400.18  401.25</time>
 </calculation>
 <calculation>
  <scstep>
   <time name="dav">   23.13   23.19</time>
   <time name="total">   23.66   23.72</time>
   <energy>
    <i name="alphaZ">     85.79576200 </i>
    <i name="ewald">  42819.73366609 </i>
    <i name="hartreedc"> -48836.15475130 </i>
    <i name="XCdc">   -232.99003991 </i>
    <i name="pawpsdc">   4039.15714168 </i>
    <i name="pawaedc">  -3454.86498838 </i>
    <i name="eentropy">     -0.20399673 </i>
    <i name="bandstr">  -1373.22970347 </i>
    <i name="atom">   6761.44252427 </i>
    <i name="e_fr_energy">   -191.31438573 </i>
    <i name="e_wo_entrp">   -191.11038900 </i>
    <i name="e_0_energy">   -191.21238737 </i>
   </energy>
  </scstep>
  <scstep>
   <time name="dav">   34.11   34.20</time>
   <time name="total">   34.63   34.72</time>
   <energy>
    <i name="e_fr_energy">   -191.16482744 </i>
    <i name="e_wo_entrp">   -190.95539523 </i>
    <i name="e_0_energy">   -191.06011134 </i>
   </energy>
  </scstep>
  <scstep>
   <time name="dav">   31.96   32.04</time>
   <time name="total">   32.48   32.56</time>
   <energy>
    <i name="e_fr_energy">   -191.26919109 </i>
    <i name="e_wo_entrp">   -191.04778242 </i>
    <i name="e_0_energy">   -191.15848675 </i>
   </energy>
  </scstep>
  <scstep>
   <time name="dav">   33.65   33.73</time>
   <time name="total">   34.17   34.26</time>
   <energy>
    <i name="e_fr_energy">   -190.87295380 </i>
    <i name="e_wo_entrp">   -190.66563047 </i>
    <i name="e_0_energy">   -190.76929213 </i>
   </energy>
  </scstep>
  <scstep>
   <time name="dav">   31.87   31.95</time>
   <time name="total">   32.39   32.48</time>
   <energy>
    <i name="e_fr_energy">   -190.78660073 </i>
    <i name="e_wo_entrp">   -190.57590799 </i>
    <i name="e_0_energy">   -190.68125436 </i>
   </energy>
  </scstep>
  <scstep>
   <time name="dav">   33.08   33.16</time>
   <time name="total">   33.60   33.69</time>
   <energy>
    <i name="e_fr_energy">   -190.77278316 </i>
    <i name="e_wo_entrp">   -190.56189996 </i>
    <i name="e_0_energy">   -190.66734156 </i>
   </energy>
  </scstep>
  <scstep>
   <time name="dav">   30.93   31.00</time>
   <time name="total">   31.45   31.53</time>
   <energy>
    <i name="e_fr_energy">   -190.75122793 </i>
    <i name="e_wo_entrp">   -190.54115542 </i>
    <i name="e_0_energy">   -190.64619168 </i>
   </energy>
  </scstep>
  <scstep>
   <time name="dav">   30.78   30.85</time>
   <time name="total">   31.30   31.38</time>
   <energy>
    <i name="e_fr_energy">   -190.74810929 </i>
    <i name="e_wo_entrp">   -190.53804629 </i>
    <i name="e_0_energy">   -190.64307779 </i>
   </energy>
  </scstep>
  <scstep>
   <time name="dav">   30.65   30.72</time>
   <time name="total">   31.17   31.25</time>
   <energy>
    <i name="e_fr_energy">   -190.74744952 </i>
    <i name="e_wo_entrp">   -190.53744181 </i>
    <i name="e_0_energy">   -190.64244566 </i>
   </energy>
  </scstep>
  <scstep>
   <time name="dav">   29.91   29.98</time>
   <time name="total">   30.43   30.51</time>
   <energy>
    <i name="e_fr_energy">   -190.74757489 </i>
    <i name="e_wo_entrp">   -190.53729253 </i>
    <i name="e_0_energy">   -190.64243371 </i>
   </energy>
  </scstep>
  <scstep>
   <time name="dav">   27.10   27.17</time>
   <time name="total">   27.62   27.70</time>
   <energy>
    <i name="e_fr_energy">   -190.74736232 </i>
    <i name="e_wo_entrp">   -190.53733827 </i>
    <i name="e_0_energy">   -190.64235030 </i>
   </energy>
  </scstep>
  <scstep>
   <time name="dav">   21.48   21.53</time>
   <time name="total">   21.51   21.57</time>
   <energy>
    <i name="alphaZ">     85.79576200 </i>
    <i name="ewald">  42819.73366609 </i>
    <i name="hartreedc"> -48807.83809079 </i>
    <i name="XCdc">   -234.30452878 </i>
    <i name="pawpsdc">   4063.19549378 </i>
    <i name="pawaedc">  -3479.07594042 </i>
    <i name="eentropy">     -0.21004538 </i>
    <i name="bandstr">  -1399.48619830 </i>
    <i name="atom">   6761.44252427 </i>
    <i name="e_fr_energy">   -190.74735751 </i>
    <i name="e_wo_entrp">   -190.53731214 </i>
    <i name="e_0_energy">   -190.64233483 </i>
   </energy>
  </scstep>
  <structure>
   <crystal>
    <varray name="basis" >
     <v>       8.48824141       4.89886352       0.00000000 </v>
     <v>      -8.48880044       4.89982938       0.00000000 </v>
     <v>       0.00000000       0.00000000      30.00000000 </v>
    </varray>
    <i name="volume">   2495.29228424 </i>
    <varray name="rec_basis" >
     <v>       0.05890888       0.10205779       0.00000000 </v>
     <v>      -0.05889727       0.10205107       0.00000000 </v>
     <v>       0.00000000       0.00000000       0.03333333 </v>
    </varray>
   </crystal>
   <varray name="positions" >
    <v>       0.33094826       0.66389333      -0.00007715 </v>
    <v>       0.66725480       0.33626002       0.00012459 </v>
    <v>       1.00234901       0.33371949       0.00003034 </v>
    <v>      -0.00004637       0.67220464       0.00022408 </v>
    <v>       0.32958784       0.32803560      -0.00023520 </v>
    <v>       0.00389989      -0.00166734      -0.00004278 </v>
    <v>       0.32456193       0.00023551      -0.00018605 </v>
    <v>       0.67055063      -0.00081133       0.00002187 </v>
    <v>       0.67075375       0.66797481       0.00017127 </v>
    <v>       0.10781478       0.22515301       0.95034235 </v>
    <v>       0.22263243       0.11037689       0.05159265 </v>
    <v>       0.11340189       0.55271271       0.95205481 </v>
    <v>       0.21932121       0.44698999       0.04836492 </v>
    <v>       0.11226610       0.88952060       0.94819921 </v>
    <v>       0.22591502       0.77608493       0.04941538 </v>
    <v>       0.44956393       0.22360878       0.95039699 </v>
    <v>       0.55747030       0.11514558       0.04859211 </v>
    <v>       0.44278761       0.55896902       0.95110618 </v>
    <v>       0.55888005       0.44269878       0.04932359 </v>
    <v>       0.44211885       0.88461898       0.95127330 </v>
    <v>       0.55081415       0.77511604       0.04934851 </v>
    <v>       0.77973940       0.22649283       0.95201720 </v>
    <v>       0.89065088       0.11609427       0.04945924 </v>
    <v>       0.77424741       0.55016012       0.95026050 </v>
    <v>       0.88637041       0.43904955       0.04772084 </v>
    <v>       0.77691156       0.88832507       0.94909567 </v>
    <v>       0.88744874       0.77725257       0.05140549 </v>
   </varray>
  </structure>
  <varray name="forces" >
   <v>       0.07164640      -0.07576730      -0.08056733 </v>
   <v>      -0.19581470       0.13858435       0.08088965 </v>
   <v>       0.11331501       0.03204683      -0.00645990 </v>
   <v>      -0.52908442       0.27903556       0.00501312 </v>
   <v>       0.20639074      -0.39657080      -0.04087226 </v>
   <v>       0.46836849       0.00602585       0.00595469 </v>
   <v>      -0.65239273      -0.35454701       0.02650279 </v>
   <v>       0.43473936       0.05168361       0.03604163 </v>
   <v>       0.10083072       0.33640348      -0.02918516 </v>
   <v>      -0.01884477      -0.03762406      -0.40093226 </v>
   <v>      -0.03912967      -0.02554354       0.61121495 </v>
   <v>      -0.04913138      -0.02553920      -0.21652925 </v>
   <v>       0.00253286      -0.03470637       0.35885604 </v>
   <v>      -0.02186538      -0.01608966      -0.69766911 </v>
   <v>      -0.03883787       0.01260356       0.31024661 </v>
   <v>       0.04028176      -0.01368559      -0.38032747 </v>
   <v>      -0.02120640      -0.05651129      -0.00676145 </v>
   <v>       0.04929572      -0.01847345      -0.15175987 </v>
   <v>      -0.01675020      -0.01307391       0.26212267 </v>
   <v>      -0.06118966      -0.00618350      -0.06971233 </v>
   <v>       0.02977084      -0.06029914       0.31142280 </v>
   <v>       0.01758557       0.05101874      -0.23344487 </v>
   <v>       0.05374290       0.07193583       0.31059667 </v>
   <v>       0.02710511       0.00959444      -0.37844523 </v>
   <v>      -0.01991776       0.05770098       0.19342705 </v>
   <v>       0.07995984       0.05150727      -0.41405743 </v>
   <v>      -0.03140038       0.03647433       0.59443527 </v>
  </varray>
  <varray name="stress" >
   <v>      -5.70868808       0.00126328      -0.14247401 </v>
   <v>       0.00126346      -5.93478438       0.00016970 </v>
   <v>      -0.14247390       0.00016986       4.43493597 </v>
  </varray>
  <energy>
   <i name="e_fr_energy">   -190.74735751 </i>
   <i name="e_wo_entrp">   -190.64233483 </i>
   <i name="e_0_energy">     -0.21004538 </i>
  </energy>
  <time name="totalsc">  409.05  410.13</time>
 </calculation>
 <calculation>
  <scstep>
   <time name="dav">   23.13   23.18</time>
   <time name="total">   23.64   23.70</time>
   <energy>
    <i name="alphaZ">     90.21327464 </i>
    <i name="ewald">  44690.50517925 </i>
    <i name="hartreedc"> -50734.24293744 </i>
    <i name="XCdc">   -231.76706437 </i>
    <i name="pawpsdc">   4063.17639649 </i>
    <i name="pawaedc">  -3479.05164908 </i>
    <i name="eentropy">     -0.19634458 </i>
    <i name="bandstr">  -1352.23709618 </i>
    <i name="atom">   6761.44252427 </i>
    <i name="e_fr_energy">   -192.15771701 </i>
    <i name="e_wo_entrp">   -191.96137243 </i>
    <i name="e_0_energy">   -192.05954472 </i>
   </energy>
  </scstep>
  <scstep>
   <time name="dav">   30.02   30.09</time>
   <time name="total">   30.53   30.60</time>
   <energy>
    <i name="e_fr_energy">   -191.86572043 </i>
    <i name="e_wo_entrp">   -191.66270578 </i>
    <i name="e_0_energy">   -191.76421311 </i>
   </energy>
  </scstep>
  <scstep>
   <time name="dav">   31.63   31.70</time>
   <time name="total">   32.14   32.22</time>
   <energy>
    <i name="e_fr_energy">   -192.00804066 </i>
    <i name="e_wo_entrp">   -191.80451973 </i>
    <i name="e_0_energy">   -191.90628019 </i>
   </energy>
  </scstep>
  <scstep>
   <time name="dav">   30.33   30.41</time>
   <time name="total">   30.84   30.92</time>
   <energy>
    <i name="e_fr_energy">   -191.75319417 </i>
    <i name="e_wo_entrp">   -191.55311301 </i>
    <i name="e_0_energy">   -191.65315359 </i>
   </energy>
  </scstep>
  <scstep>
   <time name="dav">   32.09   32.16</time>
   <time name="total">   32.60   32.68</time>
   <energy>
    <i name="e_fr_energy">   -191.58572075 </i>
    <i name="e_wo_entrp">   -191.38205394 </i>
    <i name="e_0_energy">   -191.48388735 </i>
   </energy>
  </scstep>
  <scstep>
   <time name="dav">   32.01   32.09</time>
   <time name="total">   32.52   32.60</time>
   <energy>
    <i name="e_fr_energy">   -191.43612694 </i>
    <i name="e_wo_entrp">   -191.23052017 </i>
    <i name="e_0_energy">   -191.33332356 </i>
   </energy>
  </scstep>
  <scstep>
   <time name="dav">   32.15   32.22</time>
   <time name="total">   32.66   32.75</time>
   <energy>
    <i name="e_fr_energy">   -191.42766096 </i>
    <i name="e_wo_entrp">   -191.22377454 </i>
    <i name="e_0_energy">   -191.32571775 </i>
   </energy>
  </scstep>
  <scstep>
   <time name="dav">   31.63   31.71</time>
   <time name="total">   32.14   32.22</time>
   <energy>
    <i name="e_fr_energy">   -191.42588851 </i>
    <i name="e_wo_entrp">   -191.22120595 </i>
    <i name="e_0_energy">   -191.32354723 </i>
   </energy>
  </scstep>
  <scstep>
   <time name="dav">   32.44   32.52</time>
   <time name="total">   32.95   33.04</time>
   <energy>
    <i name="e_fr_energy">   -191.41934162 </i>
    <i name="e_wo_entrp">   -191.21464863 </i>
    <i name="e_0_energy">   -191.31699512 </i>
   </energy>
  </scstep>
  <scstep>
   <time name="dav">   29.83   29.90</time>
   <time name="total">   30.34   30.43</time>
   <energy>
    <i name="e_fr_energy">   -191.41963168 </i>
    <i name="e_wo_entrp">   -191.21467162 </i>
    <i name="e_0_energy">   -191.31715165 </i>
   </energy>
  </scstep>
  <scstep>
   <time name="dav">   29.80   29.88</time>
   <time name="total">   30.31   30.40</time>
   <energy>
    <i name="e_fr_energy">   -191.41948825 </i>
    <i name="e_wo_entrp">   -191.21467189 </i>
    <i name="e_0_energy">   -191.31708007 </i>
   </energy>
  </scstep>
  <scstep>
   <time name="dav">   20.92   20.97</time>
   <time name="total">   20.96   21.01</time>
   <energy>
    <i name="alphaZ">     90.21327464 </i>
    <i name="ewald">  44690.50517925 </i>
    <i name="hartreedc"> -50699.93199315 </i>
    <i name="XCdc">   -233.31607226 </i>
    <i name="pawpsdc">   4087.59558182 </i>
    <i name="pawaedc">  -3503.59937268 </i>
    <i name="eentropy">     -0.20489795 </i>
    <i name="bandstr">  -1384.12369319 </i>
    <i name="atom">   6761.44252427 </i>
    <i name="e_fr_energy">   -191.41946925 </i>
    <i name="e_wo_entrp">   -191.21457130 </i>
    <i name="e_0_energy">   -191.31702028 </i>
   </energy>
  </scstep>
  <structure>
   <crystal>
    <varray name="basis" >
     <v>       8.28267778       4.77448379       0.00000000 </v>
     <v>      -8.28333036       4.77561105       0.00000000 </v>
     <v>       0.00000000       0.00000000      30.00000000 </v>
    </varray>
    <i name="volume">   2373.10422221 </i>
    <varray name="rec_basis" >
     <v>       0.06037170       0.10471513       0.00000000 </v>
     <v>      -0.06035745       0.10470688       0.00000000 </v>
     <v>       0.00000000       0.00000000       0.03333333 </v>
    </varray>
   </crystal>
   <varray name="positions" >
    <v>       0.33059758       0.66253650      -0.00041538 </v>
    <v>       0.66747794       0.33929391       0.00046331 </v>
    <v>       1.00355040       0.33325498       0.00000322 </v>
    <v>      -0.00033793       0.67959487       0.00025971 </v>
    <v>       0.32624994       0.32163928      -0.00041217 </v>
    <v>       0.00735881      -0.00498847      -0.00001916 </v>
    <v>       0.31555598       0.00050057      -0.00005781 </v>
    <v>       0.67410062      -0.00339603       0.00016527 </v>
    <v>       0.67557822       0.67145484       0.00004216 </v>
    <v>       0.10697357       0.22508973       0.94815702 </v>
    <v>       0.22201506       0.11042614       0.05470399 </v>
    <v>       0.11295691       0.55252987       0.95070220 </v>
    <v>       0.21872049       0.44678496       0.05030736 </v>
    <v>       0.11169600       0.88935080       0.94473002 </v>
    <v>       0.22599337       0.77613882       0.05123212 </v>
    <v>       0.45024440       0.22361253       0.94830083 </v>
    <v>       0.55692650       0.11515005       0.04912143 </v>
    <v>       0.44255546       0.55859367       0.94994935 </v>
    <v>       0.55869238       0.44222214       0.05095800 </v>
    <v>       0.44133824       0.88439982       0.95044801 </v>
    <v>       0.54971736       0.77388951       0.05114675 </v>
    <v>       0.78080075       0.22762221       0.95056587 </v>
    <v>       0.89230583       0.11712586       0.05128271 </v>
    <v>       0.77441287       0.54955282       0.94815489 </v>
    <v>       0.88669327       0.43940367       0.04897261 </v>
    <v>       0.77819391       0.88843721       0.94680545 </v>
    <v>       0.88784652       0.77799419       0.05443215 </v>
   </varray>
  </structure>
  <varray name="forces" >
   <v>       0.10404725      -0.04139658      -0.01717370 </v>
   <v>      -0.24568033       0.19377206       0.02532968 </v>
   <v>       0.07180128       0.00493058      -0.02507805 </v>
   <v>      -0.24383758       0.01778926      -0.04627167 </v>
   <v>       0.08721108      -0.30025617       0.02064913 </v>
   <v>      -0.01662653      -0.09377031       0.02745285 </v>
   <v>      -0.25919133      -0.13382014      -0.03973528 </v>
   <v>       0.53449828       0.05928692       0.05566473 </v>
   <v>       0.02736223       0.37844513       0.04353128 </v>
   <v>       0.13774139      -0.08739880      -0.07394872 </v>
   <v>      -0.10478871      -0.06840095       0.30207957 </v>
   <v>      -0.17544589      -0.01545205       0.05637743 </v>
   <v>       0.09454263      -0.02502594       0.04016230 </v>
   <v>      -0.03889903      -0.03432309      -0.31172993 </v>
   <v>      -0.17443544      -0.00288892      -0.01095861 </v>
   <v>       0.01540831      -0.12341501      -0.07639998 </v>
   <v>       0.01160899      -0.20655502      -0.32243177 </v>
   <v>       0.21584549      -0.06124410       0.11399759 </v>
   <v>      -0.13877081      -0.00105818      -0.06165339 </v>
   <v>      -0.17908057       0.08445092       0.22857657 </v>
   <v>       0.09963963      -0.02544279       0.07894621 </v>
   <v>       0.04068111      -0.02198964       0.06178415 </v>
   <v>       0.16392896       0.01798977       0.07859829 </v>
   <v>      -0.02444388       0.10278710      -0.12713095 </v>
   <v>      -0.10333206       0.20882595      -0.03956253 </v>
   <v>       0.13943263       0.11106763      -0.24341661 </v>
   <v>      -0.03921709       0.06309240       0.26234142 </v>
  </varray>
  <varray name="stress" >
   <v>       0.61998442      -0.08975728      -0.35370537 </v>
   <v>      -0.08975749       0.12553586       0.01754216 </v>
   <v>      -0.35370550       0.01754196      -0.32020928 </v>
  </varray>
  <energy>
   <i name="e_fr_energy">   -191.41946925 </i>
   <i name="e_wo_entrp">   -191.31702028 </i>
   <i name="e_0_energy">     -0.20489795 </i>
  </energy>
  <time name="totalsc">  405.92  406.99</time>
 </calculation>
 <calculation>
  <scstep>
   <time name="dav">   23.13   23.18</time>
   <time name="total">   23.64   23.70</time>
   <energy>
    <i name="alphaZ">     89.93891351 </i>
    <i name="ewald">  44549.41912163 </i>
    <i name="hartreedc"> -50556.49636257 </i>
    <i name="XCdc">   -233.57401645 </i>
    <i name="pawpsdc">   4087.52293337 </i>
    <i name="pawaedc">  -3503.52230450 </i>
    <i name="eentropy">     -0.20888366 </i>
    <i name="bandstr">  -1386.00549323 </i>
    <i name="atom">   6761.44252427 </i>
    <i name="e_fr_energy">   -191.48356764 </i>
    <i name="e_wo_entrp">   -191.27468398 </i>
    <i name="e_0_energy">   -191.37912581 </i>
   </energy>
  </scstep>
  <scstep>
   <time name="dav">   33.69   33.77</time>
   <time name="total">   34.20   34.28</time>
   <energy>
    <i name="e_fr_energy">   -191.54622717 </i>
    <i name="e_wo_entrp">   -191.33283948 </i>
    <i name="e_0_energy">   -191.43953333 </i>
   </energy>
  </scstep>
  <scstep>
   <time name="dav">   32.34   32.42</time>
   <time name="total">   32.85   32.94</time>
   <energy>
    <i name="e_fr_energy">   -191.49306986 </i>
    <i name="e_wo_entrp">   -191.28350221 </i>
    <i name="e_0_energy">   -191.38828604 </i>
   </energy>
  </scstep>
  <scstep>
   <time name="dav">   29.75   29.82</time>
   <time name="total">   30.26   30.34</time>
   <energy>
    <i name="e_fr_energy">   -191.49560690 </i>
    <i name="e_wo_entrp">   -191.28635811 </i>
    <i name="e_0_energy">   -191.39098251 </i>
   </energy>
  </scstep>
  <scstep>
   <time name="dav">   29.91   29.99</time>
   <time name="total">   30.43   30.51</time>
   <energy>
    <i name="e_fr_energy">   -191.49036878 </i>
    <i name="e_wo_entrp">   -191.28043119 </i>
    <i name="e_0_energy">   -191.38539999 </i>
   </energy>
  </scstep>
  <scstep>
   <time name="dav">   29.16   29.23</time>
   <time name="total">   29.68   29.75</time>
   <energy>
    <i name="e_fr_energy">   -191.49007131 </i>
    <i name="e_wo_entrp">   -191.28027601 </i>
    <i name="e_0_energy">   -191.38517366 </i>
   </energy>
  </scstep>
  <scstep>
   <time name="dav">   30.36   30.44</time>
   <time name="total">   30.87   30.96</time>
   <energy>
    <i name="e_fr_energy">   -191.49044941 </i>
    <i name="e_wo_entrp">   -191.28092189 </i>
    <i name="e_0_energy">   -191.38568565 </i>
   </energy>
  </scstep>
  <scstep>
   <time name="dav">   26.33   26.40</time>
   <time name="total">   26.84   26.92</time>
   <energy>
    <i name="e_fr_energy">   -191.48947547 </i>
    <i name="e_wo_entrp">   -191.27973010 </i>
    <i name="e_0_energy">   -191.38460279 </i>
   </energy>
  </scstep>
  <scstep>
   <time name="dav">   18.11   18.15</time>
   <time name="total">   18.15   18.20</time>
   <energy>
    <i name="alphaZ">     89.93891351 </i>
    <i name="ewald">  44549.41912163 </i>
    <i name="hartreedc"> -50559.56329286 </i>
    <i name="XCdc">   -233.46253029 </i>
    <i name="pawpsdc">   4083.14074803 </i>
    <i name="pawaedc">  -3499.08119084 </i>
    <i name="eentropy">     -0.20965369 </i>
    <i name="bandstr">  -1383.11410280 </i>
    <i name="atom">   6761.44252427 </i>
    <i name="e_fr_energy">   -191.48946303 </i>
    <i name="e_wo_entrp">   -191.27980934 </i>
    <i name="e_0_energy">   -191.38463618 </i>
   </energy>
  </scstep>
  <structure>
   <crystal>
    <varray name="basis" >
     <v>       8.29914064       4.77711967       0.00000000 </v>
     <v>      -8.30189741       4.78189558       0.00000000 </v>
     <v>       0.00000000       0.00000000      30.00000000 </v>
    </varray>
    <i name="volume">   2380.34344183 </i>
    <varray name="rec_basis" >
     <v>       0.06026730       0.10463067       0.00000000 </v>
     <v>      -0.06020711       0.10459592       0.00000000 </v>
     <v>       0.00000000       0.00000000       0.03333333 </v>
    </varray>
   </crystal>
   <varray name="positions" >
    <v>       0.33069750       0.66211327      -0.00042675 </v>
    <v>       0.66771649       0.34074820       0.00048690 </v>
    <v>       1.00371873       0.33310412      -0.00003319 </v>
    <v>      -0.00090447       0.68002946       0.00018852 </v>
    <v>       0.32520952       0.32025558      -0.00037360 </v>
    <v>       0.00672833      -0.00524561       0.00002098 </v>
    <v>       0.31459512       0.00056311      -0.00012320 </v>
    <v>       0.67568760      -0.00445623       0.00024276 </v>
    <v>       0.67723469       0.67301578       0.00011300 </v>
    <v>       0.10697742       0.22430039       0.94815220 </v>
    <v>       0.22143521       0.11038413       0.05501003 </v>
    <v>       0.11242071       0.55294645       0.95085568 </v>
    <v>       0.21888923       0.44641272       0.05027363 </v>
    <v>       0.11145850       0.88930533       0.94442457 </v>
    <v>       0.22549796       0.77660638       0.05112510 </v>
    <v>       0.44966205       0.22297744       0.94828848 </v>
    <v>       0.55600038       0.11413163       0.04860144 </v>
    <v>       0.44287211       0.55773021       0.95018281 </v>
    <v>       0.55831623       0.44262507       0.05078229 </v>
    <v>       0.44128944       0.88530761       0.95083934 </v>
    <v>       0.54992872       0.77355774       0.05117577 </v>
    <v>       0.78075538       0.22734465       0.95073237 </v>
    <v>       0.89275615       0.11670890       0.05130939 </v>
    <v>       0.77482729       0.55014232       0.94806743 </v>
    <v>       0.88738886       0.44066527       0.04884869 </v>
    <v>       0.77903950       0.88857570       0.94655260 </v>
    <v>       0.88801583       0.77836481       0.05468265 </v>
   </varray>
  </structure>
  <varray name="forces" >
   <v>       0.07710980      -0.06249913      -0.04591652 </v>
   <v>      -0.27739773       0.24416631       0.03375081 </v>
   <v>       0.07118210       0.02277031      -0.04451220 </v>
   <v>      -0.27635042       0.02114057      -0.02577460 </v>
   <v>       0.12220038      -0.38411943       0.00687204 </v>
   <v>       0.02588120      -0.08114866       0.00120682 </v>
   <v>      -0.40656181      -0.19087662       0.00995327 </v>
   <v>       0.60378171       0.06009506       0.03640857 </v>
   <v>       0.03872220       0.43557146       0.01156795 </v>
   <v>       0.07365380      -0.05914797      -0.06728501 </v>
   <v>      -0.04225946      -0.06476837       0.19924883 </v>
   <v>      -0.10714396      -0.00944353       0.07648691 </v>
   <v>       0.05344557      -0.01966817       0.02911854 </v>
   <v>      -0.04910461      -0.02562809      -0.20394103 </v>
   <v>      -0.10223881      -0.00548975      -0.03627503 </v>
   <v>       0.00272813      -0.06536882      -0.04891565 </v>
   <v>       0.05404268      -0.12100366      -0.35142802 </v>
   <v>       0.16180072      -0.03141070       0.15694731 </v>
   <v>      -0.11131010       0.00913640      -0.07025465 </v>
   <v>      -0.09585993       0.07453162       0.23701767 </v>
   <v>       0.08024028      -0.01446156       0.07643918 </v>
   <v>       0.03549766      -0.03318308       0.10591320 </v>
   <v>       0.08813178       0.02944463       0.11827384 </v>
   <v>      -0.03990509       0.04829488      -0.12697714 </v>
   <v>      -0.06254232       0.12348874      -0.05662897 </v>
   <v>       0.09617817       0.05637288      -0.24589111 </v>
   <v>      -0.01392192       0.04320470       0.22459501 </v>
  </varray>
  <varray name="stress" >
   <v>      -0.27511078      -0.05978392      -0.14409117 </v>
   <v>      -0.05978376      -0.31039369       0.03695279 </v>
   <v>      -0.14409118       0.03695289      -0.95582897 </v>
  </varray>
  <energy>
   <i name="e_fr_energy">   -191.48946303 </i>
   <i name="e_wo_entrp">   -191.38463618 </i>
   <i name="e_0_energy">     -0.20965369 </i>
  </energy>
  <time name="totalsc">  301.59  302.38</time>
 </calculation>
 <calculation>
  <scstep>
   <time name="dav">   23.15   23.21</time>
   <time name="total">   23.66   23.72</time>
   <energy>
    <i name="alphaZ">     90.03662184 </i>
    <i name="ewald">  44590.48313065 </i>
    <i name="hartreedc"> -50601.77539191 </i>
    <i name="XCdc">   -233.40986360 </i>
    <i name="pawpsdc">   4082.84532095 </i>
    <i name="pawaedc">  -3498.78239185 </i>
    <i name="eentropy">     -0.21076196 </i>
    <i name="bandstr">  -1382.16468289 </i>
    <i name="atom">   6761.44252427 </i>
    <i name="e_fr_energy">   -191.53549448 </i>
    <i name="e_wo_entrp">   -191.32473252 </i>
    <i name="e_0_energy">   -191.43011350 </i>
   </energy>
  </scstep>
  <scstep>
   <time name="dav">   34.58   34.66</time>
   <time name="total">   35.10   35.30</time>
   <energy>
    <i name="e_fr_energy">   -191.54926234 </i>
    <i name="e_wo_entrp">   -191.33563839 </i>
    <i name="e_0_energy">   -191.44245036 </i>
   </energy>
  </scstep>
  <scstep>
   <time name="dav">   31.93   32.01</time>
   <time name="total">   32.44   32.52</time>
   <energy>
    <i name="e_fr_energy">   -191.53862654 </i>
    <i name="e_wo_entrp">   -191.32761139 </i>
    <i name="e_0_energy">   -191.43311897 </i>
   </energy>
  </scstep>
  <scstep>
   <time name="dav">   29.45   29.52</time>
   <time name="total">   29.96   30.04</time>
   <energy>
    <i name="e_fr_energy">   -191.53894396 </i>
    <i name="e_wo_entrp">   -191.32805737 </i>
    <i name="e_0_energy">   -191.43350066 </i>
   </energy>
  </scstep>
  <scstep>
   <time name="dav">   29.42   29.50</time>
   <time name="total">   29.93   30.01</time>
   <energy>
    <i name="e_fr_energy">   -191.53740411 </i>
    <i name="e_wo_entrp">   -191.32595326 </i>
    <i name="e_0_energy">   -191.43167868 </i>
   </energy>
  </scstep>
  <scstep>
   <time name="dav">   27.03   27.10</time>
   <time name="total">   27.07   27.14</time>
   <energy>
    <i name="alphaZ">     90.03662184 </i>
    <i name="ewald">  44590.48313065 </i>
    <i name="hartreedc"> -50601.29557276 </i>
    <i name="XCdc">   -233.43258943 </i>
    <i name="pawpsdc">   4083.36267207 </i>
    <i name="pawaedc">  -3499.30653184 </i>
    <i name="eentropy">     -0.21143411 </i>
    <i name="bandstr">  -1382.61613231 </i>
    <i name="atom">   6761.44252427 </i>
    <i name="e_fr_energy">   -191.53731162 </i>
    <i name="e_wo_entrp">   -191.32587751 </i>
    <i name="e_0_energy">   -191.43159456 </i>
   </energy>
  </scstep>
  <structure>
   <crystal>
    <varray name="basis" >
     <v>       8.29458652       4.77363182       0.00000000 </v>
     <v>      -8.29814107       4.77979289       0.00000000 </v>
[...]
      <set comment="kpoint 31">
       <r>  -17.5312    1.0000 </r>
       <r>  -17.2383    1.0000 </r>
       <r>  -16.9270    1.0000 </r>
       <r>  -16.6414    1.0000 </r>
       <r>  -16.4925    1.0000 </r>
       <r>  -16.4062    1.0000 </r>
       <r>  -16.3257    1.0000 </r>
       <r>  -16.1296    1.0000 </r>
       <r>  -16.0461    1.0000 </r>
       <r>  -16.0114    1.0000 </r>
       <r>  -15.9362    1.0000 </r>
       <r>  -15.8809    1.0000 </r>
       <r>  -15.7605    1.0000 </r>
       <r>  -15.7262    1.0000 </r>
       <r>  -15.6573    1.0000 </r>
       <r>  -15.5647    1.0000 </r>
       <r>  -15.4330    1.0000 </r>
       <r>  -15.3669    1.0000 </r>
       <r>   -9.7265    1.0000 </r>
       <r>   -9.4398    1.0000 </r>
       <r>   -9.3418    1.0000 </r>
       <r>   -8.9757    1.0000 </r>
       <r>   -8.8464    1.0000 </r>
       <r>   -8.7491    1.0000 </r>
       <r>   -8.5430    1.0000 </r>
       <r>   -8.4650    1.0000 </r>
       <r>   -8.4123    1.0000 </r>
       <r>   -8.3215    1.0000 </r>
       <r>   -8.2790    1.0000 </r>
       <r>   -8.1928    1.0000 </r>
       <r>   -8.1318    1.0000 </r>
       <r>   -8.0836    1.0000 </r>
       <r>   -7.9608    1.0000 </r>
       <r>   -7.9149    1.0000 </r>
       <r>   -7.7975    1.0000 </r>
       <r>   -7.6844    1.0000 </r>
       <r>   -7.6039    1.0000 </r>
       <r>   -7.4257    1.0000 </r>
       <r>   -7.2855    1.0000 </r>
       <r>   -7.1590    1.0000 </r>
       <r>   -7.1228    1.0000 </r>
       <r>   -7.0900    1.0000 </r>
       <r>   -6.9941    1.0000 </r>
       <r>   -6.9471    1.0000 </r>
       <r>   -6.8424    1.0000 </r>
       <r>   -6.7835    1.0000 </r>
       <r>   -6.6852    1.0000 </r>
       <r>   -6.6212    1.0000 </r>
       <r>   -6.5598    1.0000 </r>
       <r>   -6.5061    1.0000 </r>
       <r>   -6.3997    1.0000 </r>
       <r>   -6.3439    1.0000 </r>
       <r>   -6.2815    1.0000 </r>
       <r>   -6.2120    1.0000 </r>
       <r>   -6.1456    1.0000 </r>
       <r>   -6.0583    1.0000 </r>
       <r>   -6.0176    1.0000 </r>
       <r>   -5.9174    1.0000 </r>
       <r>   -5.8448    1.0000 </r>
       <r>   -5.7860    1.0000 </r>
       <r>   -5.7184    1.0000 </r>
       <r>   -5.6503    1.0000 </r>
       <r>   -5.5878    1.0000 </r>
       <r>   -5.3642    1.0000 </r>
       <r>   -5.3433    1.0000 </r>
       <r>   -5.1681    1.0000 </r>
       <r>   -5.0991    1.0000 </r>
       <r>   -4.8974    1.0000 </r>
       <r>   -4.7883    1.0000 </r>
       <r>   -4.6852    1.0000 </r>
       <r>   -4.5937    1.0000 </r>
       <r>   -4.4661    1.0000 </r>
       <r>   -4.3448    1.0000 </r>
       <r>   -4.2903    1.0000 </r>
       <r>   -4.2373    1.0000 </r>
       <r>   -3.8607    1.0000 </r>
       <r>   -3.7503    1.0000 </r>
       <r>   -3.6156    0.9988 </r>
       <r>   -3.3098    0.8069 </r>
       <r>   -3.1634    0.4329 </r>
       <r>   -2.9453    0.0436 </r>
       <r>   -2.8512    0.0088 </r>
       <r>   -2.8348    0.0063 </r>
       <r>   -2.7223    0.0005 </r>
       <r>   -2.5721    0.0000 </r>
       <r>   -2.4870    0.0000 </r>
       <r>   -2.3233    0.0000 </r>
       <r>   -2.2270    0.0000 </r>
       <r>   -2.1634    0.0000 </r>
       <r>   -2.0073    0.0000 </r>
       <r>   -1.7420    0.0000 </r>
       <r>   -1.6774    0.0000 </r>
       <r>   -1.5231    0.0000 </r>
       <r>   -1.3419    0.0000 </r>
       <r>   -1.2306    0.0000 </r>
       <r>   -1.0973    0.0000 </r>
       <r>   -1.0777    0.0000 </r>
       <r>   -0.9956    0.0000 </r>
       <r>   -0.8758    0.0000 </r>
       <r>   -0.8551    0.0000 </r>
       <r>   -0.8099    0.0000 </r>
       <r>   -0.7166    0.0000 </r>
       <r>   -0.6867    0.0000 </r>
       <r>   -0.5742    0.0000 </r>
       <r>   -0.4500    0.0000 </r>
       <r>   -0.3338    0.0000 </r>
       <r>   -0.2664    0.0000 </r>
       <r>   -0.0916    0.0000 </r>
       <r>   -0.0125    0.0000 </r>
       <r>    0.2026    0.0000 </r>
       <r>    0.3666    0.0000 </r>
       <r>    0.5002    0.0000 </r>
       <r>    0.6998    0.0000 </r>
       <r>    0.9743    0.0000 </r>
       <r>    1.2831    0.0000 </r>
       <r>    1.3619    0.0000 </r>
       <r>    1.4931    0.0000 </r>
       <r>    2.1323    0.0000 </r>
       <r>    2.2923    0.0000 </r>
       <r>    2.3941    0.0000 </r>
      </set>
      <set comment="kpoint 32">
       <r>  -17.5389    1.0000 </r>
       <r>  -17.1656    1.0000 </r>
       <r>  -17.0472    1.0000 </r>
       <r>  -16.6450    1.0000 </r>
       <r>  -16.3929    1.0000 </r>
       <r>  -16.3759    1.0000 </r>
       <r>  -16.2848    1.0000 </r>
       <r>  -16.2049    1.0000 </r>
       <r>  -16.0616    1.0000 </r>
       <r>  -16.0116    1.0000 </r>
       <r>  -15.9324    1.0000 </r>
       <r>  -15.9032    1.0000 </r>
       <r>  -15.7918    1.0000 </r>
       <r>  -15.7206    1.0000 </r>
       <r>  -15.6659    1.0000 </r>
       <r>  -15.5500    1.0000 </r>
       <r>  -15.4456    1.0000 </r>
       <r>  -15.3380    1.0000 </r>
       <r>   -9.6520    1.0000 </r>
       <r>   -9.5543    1.0000 </r>
       <r>   -9.4134    1.0000 </r>
       <r>   -8.9826    1.0000 </r>
       <r>   -8.7391    1.0000 </r>
       <r>   -8.5441    1.0000 </r>
       <r>   -8.4902    1.0000 </r>
       <r>   -8.4448    1.0000 </r>
       <r>   -8.4056    1.0000 </r>
       <r>   -8.3528    1.0000 </r>
       <r>   -8.3081    1.0000 </r>
       <r>   -8.2287    1.0000 </r>
       <r>   -8.1971    1.0000 </r>
       <r>   -8.1379    1.0000 </r>
       <r>   -8.0436    1.0000 </r>
       <r>   -7.9609    1.0000 </r>
       <r>   -7.8167    1.0000 </r>
       <r>   -7.6441    1.0000 </r>
       <r>   -7.5145    1.0000 </r>
       <r>   -7.4501    1.0000 </r>
       <r>   -7.3071    1.0000 </r>
       <r>   -7.2277    1.0000 </r>
       <r>   -7.0963    1.0000 </r>
       <r>   -7.0434    1.0000 </r>
       <r>   -7.0052    1.0000 </r>
       <r>   -6.9239    1.0000 </r>
       <r>   -6.8673    1.0000 </r>
       <r>   -6.8126    1.0000 </r>
       <r>   -6.6716    1.0000 </r>
       <r>   -6.6006    1.0000 </r>
       <r>   -6.5337    1.0000 </r>
       <r>   -6.5069    1.0000 </r>
       <r>   -6.4450    1.0000 </r>
       <r>   -6.3458    1.0000 </r>
       <r>   -6.3043    1.0000 </r>
       <r>   -6.2209    1.0000 </r>
       <r>   -6.1296    1.0000 </r>
       <r>   -6.1114    1.0000 </r>
       <r>   -5.9964    1.0000 </r>
       <r>   -5.9224    1.0000 </r>
       <r>   -5.8416    1.0000 </r>
       <r>   -5.7538    1.0000 </r>
       <r>   -5.6778    1.0000 </r>
       <r>   -5.5530    1.0000 </r>
       <r>   -5.5197    1.0000 </r>
       <r>   -5.4315    1.0000 </r>
       <r>   -5.3147    1.0000 </r>
       <r>   -5.2006    1.0000 </r>
       <r>   -5.1174    1.0000 </r>
       <r>   -5.0460    1.0000 </r>
       <r>   -4.7665    1.0000 </r>
       <r>   -4.6547    1.0000 </r>
       <r>   -4.5718    1.0000 </r>
       <r>   -4.4791    1.0000 </r>
       <r>   -4.4041    1.0000 </r>
       <r>   -4.2645    1.0000 </r>
       <r>   -4.2370    1.0000 </r>
       <r>   -3.8812    1.0000 </r>
       <r>   -3.7463    1.0000 </r>
       <r>   -3.5084    0.9884 </r>
       <r>   -3.4201    0.9501 </r>
       <r>   -3.1491    0.3938 </r>
       <r>   -2.9528    0.0487 </r>
       <r>   -2.8347    0.0063 </r>
       <r>   -2.8016    0.0032 </r>
       <r>   -2.6994    0.0003 </r>
       <r>   -2.5611    0.0000 </r>
       <r>   -2.5159    0.0000 </r>
       <r>   -2.2936    0.0000 </r>
       <r>   -2.2328    0.0000 </r>
       <r>   -2.1110    0.0000 </r>
       <r>   -1.9932    0.0000 </r>
       <r>   -1.7706    0.0000 </r>
       <r>   -1.6808    0.0000 </r>
       <r>   -1.5223    0.0000 </r>
       <r>   -1.3424    0.0000 </r>
       <r>   -1.2535    0.0000 </r>
       <r>   -1.1209    0.0000 </r>
       <r>   -1.0629    0.0000 </r>
       <r>   -0.9753    0.0000 </r>
       <r>   -0.8849    0.0000 </r>
       <r>   -0.8592    0.0000 </r>
       <r>   -0.8087    0.0000 </r>
       <r>   -0.7258    0.0000 </r>
       <r>   -0.6786    0.0000 </r>
       <r>   -0.5672    0.0000 </r>
       <r>   -0.4807    0.0000 </r>
       <r>   -0.3558    0.0000 </r>
       <r>   -0.2391    0.0000 </r>
       <r>   -0.0167    0.0000 </r>
       <r>    0.0327    0.0000 </r>
       <r>    0.1695    0.0000 </r>
       <r>    0.3203    0.0000 </r>
       <r>    0.5402    0.0000 </r>
       <r>    0.7548    0.0000 </r>
       <r>    0.9478    0.0000 </r>
       <r>    1.1806    0.0000 </r>
       <r>    1.3173    0.0000 </r>
       <r>    1.4751    0.0000 </r>
       <r>    2.0986    0.0000 </r>
       <r>    2.2622    0.0000 </r>
       <r>    2.5665    0.0000 </r>
      </set>
      <set comment="kpoint 33">
       <r>  -17.5182    1.0000 </r>
       <r>  -17.2771    1.0000 </r>
       <r>  -16.9029    1.0000 </r>
       <r>  -16.6505    1.0000 </r>
       <r>  -16.4648    1.0000 </r>
       <r>  -16.3930    1.0000 </r>
       <r>  -16.3163    1.0000 </r>
       <r>  -16.1567    1.0000 </r>
       <r>  -16.0463    1.0000 </r>
       <r>  -15.9838    1.0000 </r>
       <r>  -15.9208    1.0000 </r>
       <r>  -15.8872    1.0000 </r>
       <r>  -15.8320    1.0000 </r>
       <r>  -15.7371    1.0000 </r>
       <r>  -15.6536    1.0000 </r>
       <r>  -15.5442    1.0000 </r>
       <r>  -15.4433    1.0000 </r>
       <r>  -15.3497    1.0000 </r>
       <r>   -9.7461    1.0000 </r>
       <r>   -9.4040    1.0000 </r>
       <r>   -9.3479    1.0000 </r>
       <r>   -8.9995    1.0000 </r>
       <r>   -8.8828    1.0000 </r>
       <r>   -8.6521    1.0000 </r>
       <r>   -8.5065    1.0000 </r>
       <r>   -8.4724    1.0000 </r>
       <r>   -8.4165    1.0000 </r>
       <r>   -8.3256    1.0000 </r>
       <r>   -8.2776    1.0000 </r>
       <r>   -8.2199    1.0000 </r>
       <r>   -8.1532    1.0000 </r>
       <r>   -8.0780    1.0000 </r>
       <r>   -8.0243    1.0000 </r>
       <r>   -7.8726    1.0000 </r>
       <r>   -7.8150    1.0000 </r>
       <r>   -7.6206    1.0000 </r>
       <r>   -7.5961    1.0000 </r>
       <r>   -7.4093    1.0000 </r>
       <r>   -7.2667    1.0000 </r>
       <r>   -7.2167    1.0000 </r>
       <r>   -7.1354    1.0000 </r>
       <r>   -7.0702    1.0000 </r>
       <r>   -6.9844    1.0000 </r>
       <r>   -6.9568    1.0000 </r>
       <r>   -6.8697    1.0000 </r>
       <r>   -6.7583    1.0000 </r>
       <r>   -6.6490    1.0000 </r>
       <r>   -6.6316    1.0000 </r>
       <r>   -6.5820    1.0000 </r>
       <r>   -6.5043    1.0000 </r>
       <r>   -6.4084    1.0000 </r>
       <r>   -6.3542    1.0000 </r>
       <r>   -6.2995    1.0000 </r>
       <r>   -6.2242    1.0000 </r>
       <r>   -6.1374    1.0000 </r>
       <r>   -6.0714    1.0000 </r>
       <r>   -6.0153    1.0000 </r>
       <r>   -5.9664    1.0000 </r>
       <r>   -5.8781    1.0000 </r>
       <r>   -5.7692    1.0000 </r>
       <r>   -5.7279    1.0000 </r>
       <r>   -5.6896    1.0000 </r>
       <r>   -5.5358    1.0000 </r>
       <r>   -5.4621    1.0000 </r>
       <r>   -5.2859    1.0000 </r>
       <r>   -5.1379    1.0000 </r>
       <r>   -5.0670    1.0000 </r>
       <r>   -4.9102    1.0000 </r>
       <r>   -4.7596    1.0000 </r>
       <r>   -4.6775    1.0000 </r>
       <r>   -4.5792    1.0000 </r>
       <r>   -4.5278    1.0000 </r>
       <r>   -4.3375    1.0000 </r>
       <r>   -4.2558    1.0000 </r>
       <r>   -4.1976    1.0000 </r>
       <r>   -3.8815    1.0000 </r>
       <r>   -3.7667    1.0000 </r>
       <r>   -3.5998    0.9982 </r>
       <r>   -3.4605    0.9733 </r>
       <r>   -3.1109    0.2947 </r>
       <r>   -2.9499    0.0467 </r>
       <r>   -2.8273    0.0055 </r>
       <r>   -2.7678    0.0015 </r>
       <r>   -2.7203    0.0005 </r>
       <r>   -2.5934    0.0000 </r>
       <r>   -2.4873    0.0000 </r>
       <r>   -2.2949    0.0000 </r>
       <r>   -2.1912    0.0000 </r>
       <r>   -2.0359    0.0000 </r>
       <r>   -1.9721    0.0000 </r>
       <r>   -1.7931    0.0000 </r>
       <r>   -1.6788    0.0000 </r>
       <r>   -1.5129    0.0000 </r>
       <r>   -1.3403    0.0000 </r>
       <r>   -1.2958    0.0000 </r>
       <r>   -1.1461    0.0000 </r>
       <r>   -1.0413    0.0000 </r>
       <r>   -0.9697    0.0000 </r>
       <r>   -0.9233    0.0000 </r>
       <r>   -0.8582    0.0000 </r>
       <r>   -0.8256    0.0000 </r>
       <r>   -0.7314    0.0000 </r>
       <r>   -0.6234    0.0000 </r>
       <r>   -0.5859    0.0000 </r>
       <r>   -0.4860    0.0000 </r>
       <r>   -0.3894    0.0000 </r>
       <r>   -0.2504    0.0000 </r>
       <r>   -0.0553    0.0000 </r>
       <r>    0.0642    0.0000 </r>
       <r>    0.2534    0.0000 </r>
       <r>    0.3212    0.0000 </r>
       <r>    0.5242    0.0000 </r>
       <r>    0.8283    0.0000 </r>
       <r>    0.9461    0.0000 </r>
       <r>    1.1280    0.0000 </r>
       <r>    1.2480    0.0000 </r>
       <r>    1.5038    0.0000 </r>
       <r>    2.1257    0.0000 </r>
       <r>    2.2962    0.0000 </r>
       <r>    2.3844    0.0000 </r>
      </set>
      <set comment="kpoint 34">
       <r>  -17.4926    1.0000 </r>
       <r>  -17.3430    1.0000 </r>
       <r>  -16.7438    1.0000 </r>
       <r>  -16.6852    1.0000 </r>
       <r>  -16.5913    1.0000 </r>
       <r>  -16.4036    1.0000 </r>
       <r>  -16.3009    1.0000 </r>
       <r>  -16.1625    1.0000 </r>
       <r>  -15.9996    1.0000 </r>
       <r>  -15.9830    1.0000 </r>
       <r>  -15.9176    1.0000 </r>
       <r>  -15.8694    1.0000 </r>
       <r>  -15.8376    1.0000 </r>
       <r>  -15.7411    1.0000 </r>
       <r>  -15.6634    1.0000 </r>
       <r>  -15.5446    1.0000 </r>
       <r>  -15.4251    1.0000 </r>
       <r>  -15.3744    1.0000 </r>
       <r>   -9.7866    1.0000 </r>
       <r>   -9.3168    1.0000 </r>
       <r>   -9.1812    1.0000 </r>
       <r>   -9.0890    1.0000 </r>
       <r>   -9.0025    1.0000 </r>
       <r>   -8.7729    1.0000 </r>
       <r>   -8.5191    1.0000 </r>
       <r>   -8.4862    1.0000 </r>
       <r>   -8.4418    1.0000 </r>
       <r>   -8.3185    1.0000 </r>
       <r>   -8.2464    1.0000 </r>
       <r>   -8.1862    1.0000 </r>
       <r>   -8.1256    1.0000 </r>
       <r>   -8.0915    1.0000 </r>
       <r>   -7.9195    1.0000 </r>
       <r>   -7.8958    1.0000 </r>
       <r>   -7.7456    1.0000 </r>
       <r>   -7.6976    1.0000 </r>
       <r>   -7.4635    1.0000 </r>
       <r>   -7.4107    1.0000 </r>
       <r>   -7.3360    1.0000 </r>
       <r>   -7.1780    1.0000 </r>
       <r>   -7.1532    1.0000 </r>
       <r>   -7.0800    1.0000 </r>
       <r>   -7.0152    1.0000 </r>
       <r>   -6.9599    1.0000 </r>
       <r>   -6.8778    1.0000 </r>
       <r>   -6.7286    1.0000 </r>
       <r>   -6.6636    1.0000 </r>
       <r>   -6.6062    1.0000 </r>
       <r>   -6.5892    1.0000 </r>
       <r>   -6.5356    1.0000 </r>
       <r>   -6.3844    1.0000 </r>
       <r>   -6.3660    1.0000 </r>
       <r>   -6.2921    1.0000 </r>
       <r>   -6.1949    1.0000 </r>
       <r>   -6.1360    1.0000 </r>
       <r>   -6.0724    1.0000 </r>
       <r>   -6.0184    1.0000 </r>
       <r>   -5.9584    1.0000 </r>
       <r>   -5.9098    1.0000 </r>
       <r>   -5.8474    1.0000 </r>
       <r>   -5.8145    1.0000 </r>
       <r>   -5.6580    1.0000 </r>
       <r>   -5.5666    1.0000 </r>
       <r>   -5.4563    1.0000 </r>
       <r>   -5.3979    1.0000 </r>
       <r>   -5.0868    1.0000 </r>
       <r>   -4.8965    1.0000 </r>
       <r>   -4.8185    1.0000 </r>
       <r>   -4.7466    1.0000 </r>
       <r>   -4.7057    1.0000 </r>
       <r>   -4.6665    1.0000 </r>
       <r>   -4.5320    1.0000 </r>
       <r>   -4.3292    1.0000 </r>
       <r>   -4.2519    1.0000 </r>
       <r>   -4.1141    1.0000 </r>
       <r>   -3.8827    1.0000 </r>
       <r>   -3.7840    1.0000 </r>
       <r>   -3.6596    0.9996 </r>
       <r>   -3.5091    0.9886 </r>
       <r>   -3.0882    0.2419 </r>
       <r>   -2.9283    0.0335 </r>
       <r>   -2.8351    0.0064 </r>
       <r>   -2.7567    0.0012 </r>
       <r>   -2.7472    0.0009 </r>
       <r>   -2.5973    0.0000 </r>
       <r>   -2.4701    0.0000 </r>
       <r>   -2.3021    0.0000 </r>
       <r>   -2.1660    0.0000 </r>
       <r>   -1.9941    0.0000 </r>
       <r>   -1.9651    0.0000 </r>
       <r>   -1.8008    0.0000 </r>
       <r>   -1.6781    0.0000 </r>
       <r>   -1.5056    0.0000 </r>
       <r>   -1.3507    0.0000 </r>
       <r>   -1.3103    0.0000 </r>
       <r>   -1.1465    0.0000 </r>
       <r>   -1.0230    0.0000 </r>
       <r>   -0.9827    0.0000 </r>
       <r>   -0.9145    0.0000 </r>
       <r>   -0.8640    0.0000 </r>
       <r>   -0.8408    0.0000 </r>
       <r>   -0.7677    0.0000 </r>
       <r>   -0.6272    0.0000 </r>
       <r>   -0.5679    0.0000 </r>
       <r>   -0.4829    0.0000 </r>
       <r>   -0.3539    0.0000 </r>
       <r>   -0.3159    0.0000 </r>
       <r>   -0.0655    0.0000 </r>
       <r>    0.1015    0.0000 </r>
       <r>    0.2171    0.0000 </r>
       <r>    0.3929    0.0000 </r>
       <r>    0.4983    0.0000 </r>
       <r>    0.8657    0.0000 </r>
       <r>    0.9372    0.0000 </r>
       <r>    1.1265    0.0000 </r>
       <r>    1.2268    0.0000 </r>
       <r>    1.5213    0.0000 </r>
       <r>    2.1926    0.0000 </r>
       <r>    2.2505    0.0000 </r>
       <r>    2.3812    0.0000 </r>
      </set>
     </set>
    </set>
   </array>
  </eigenvalues>
  <separator name="orbital magnetization" >
   <v name="MAGDIPOLOUT">      0.00000000      0.00000000      0.00000000</v>
  </separator>
 </calculation>
 <structure name="finalpos" >
  <crystal>
   <varray name="basis" >
    <v>       8.37068974       4.78734954       0.00000000 </v>
    <v>      -8.38795509       4.81724544       0.00000000 </v>
    <v>       0.00000000       0.00000000      30.00000000 </v>
   </varray>
   <i name="volume">   2414.39219593 </i>
   <varray name="rec_basis" >
    <v>       0.05985662       0.10422443       0.00000000 </v>
    <v>      -0.05948515       0.10400990       0.00000000 </v>
    <v>       0.00000000       0.00000000       0.03333333 </v>
   </varray>
  </crystal>
  <varray name="positions" >
   <v>       0.34536319       0.64211843       0.00177907 </v>
   <v>       0.66241529       0.32909255       0.00141033 </v>
   <v>       1.00477598       0.33258728      -0.00044596 </v>
   <v>      -0.01475836       0.68608290      -0.00109408 </v>
   <v>       0.31018516       0.30888590      -0.00016111 </v>
   <v>       0.00317145      -0.00687248       0.00030224 </v>
   <v>       0.30836944       0.01057982      -0.00099377 </v>
   <v>       0.69027969      -0.00451386       0.00011167 </v>
   <v>       0.68922174       0.69437484      -0.00015550 </v>
   <v>       0.10399058       0.22201421       0.94726852 </v>
   <v>       0.21699687       0.10847108       0.05681900 </v>
   <v>       0.11672056       0.56033135       0.95514488 </v>
   <v>       0.21781918       0.44088118       0.05234536 </v>
   <v>       0.10948874       0.89131991       0.94316680 </v>
   <v>       0.22506411       0.77397928       0.04540994 </v>
   <v>       0.44602173       0.22274615       0.94738024 </v>
   <v>       0.55238075       0.10642798       0.04635566 </v>
   <v>       0.44741588       0.55126112       0.95032166 </v>
   <v>       0.55698811       0.44723280       0.04611778 </v>
   <v>       0.44099603       0.88586368       0.95758442 </v>
   <v>       0.55635365       0.77607272       0.05299818 </v>
   <v>       0.78160269       0.22624346       0.95081337 </v>
   <v>       0.89540546       0.12016954       0.05271529 </v>
   <v>       0.77076561       0.55198703       0.94807550 </v>
   <v>       0.88770071       0.44548179       0.04660864 </v>
   <v>       0.78519414       0.89288389       0.94349806 </v>
   <v>       0.88828607       0.78251190       0.05662373 </v>
  </varray>
 </structure>
</modeling>
