unknown system                          
           1
     8.858509    5.103242    0.000000
    -8.858900    5.103915    0.000000
     0.000000    0.000000   30.000000
   V    Mo   W    S 
   3   3   3  18
Direct configuration=     1
   0.33333334  0.66666669  0.00000000
   0.66666669  0.33333334  0.00000000
   1.00000000  0.33333334  0.00000000
   0.00000000  0.66666669  0.00000000
   0.33333334  0.33333334  0.00000000
   0.00000000  0.00000000  0.00000000
   0.33333334  0.00000000  0.00000000
   0.66666669  0.00000000  0.00000000
   0.66666669  0.66666669  0.00000000
   0.11068511  0.22244981  0.95539999
   0.22244981  0.11068511  0.04460000
   0.11068511  0.55578315  0.95539999
   0.22244981  0.44401845  0.04460000
   0.11068511  0.88911647  0.95539999
   0.22244981  0.77735180  0.04460000
   0.44401845  0.22244981  0.95539999
   0.55578315  0.11068511  0.04460000
   0.44401845  0.55578315  0.95539999
   0.55578315  0.44401845  0.04460000
   0.44401845  0.88911647  0.95539999
   0.55578315  0.77735180  0.04460000
   0.77735180  0.22244981  0.95539999
   0.88911647  0.11068511  0.04460000
   0.77735180  0.55578315  0.95539999
   0.88911647  0.44401845  0.04460000
   0.77735180  0.88911647  0.95539999
   0.88911647  0.77735180  0.04460000
unknown system                          
           1
     8.669695    4.996960    0.000000
    -8.670018    4.997515    0.000000
     0.000000    0.000000   30.000000
   V    Mo   W    S 
   3   3   3  18
Direct configuration=     2
   0.33182617  0.66518394  0.00012373
   0.66709058  0.33449240 -0.00010272
   1.00114715  0.33374732  0.00003198
   0.00000124  0.66765307  0.00005564
   0.33178601  0.33197144 -0.00002804
   0.00132432 -0.00004433 -0.00003021
   0.33031310  0.00004799 -0.00021099
   0.66845279  0.00045368 -0.00003519
   0.66793805  0.66635870  0.00016659
   0.10862041  0.22451466  0.95200442
   0.22250857  0.11062867  0.04932968
   0.11316327  0.55328567  0.95305071
   0.21998590  0.44661156  0.04699484
   0.11212787  0.88936717  0.95067422
   0.22509382  0.77608939  0.04800592
   0.44847871  0.22334126  0.95190954
   0.55727105  0.11469409  0.04799649
   0.44287076  0.55830590  0.95207985
   0.55835204  0.44303148  0.04797654
   0.44261225  0.88516219  0.95199715
   0.55162592  0.77581330  0.04813336
   0.77906722  0.22560889  0.95308762
   0.89000271  0.11496978  0.04806223
   0.77499326  0.55124191  0.95187677
   0.88682709  0.43996716  0.04684096
   0.77700694  0.88848151  0.95074693
   0.88772723  0.77723565  0.04926189
unknown system                          
           1
     8.488241    4.898864    0.000000
    -8.488800    4.899829    0.000000
     0.000000    0.000000   30.000000
   V    Mo   W    S 
   3   3   3  18
Direct configuration=     3
   0.33150622  0.66480443  0.00009254
   0.66718160  0.33487248 -0.00006179
   1.00145891  0.33381211  0.00003459
  -0.00000795  0.66845972  0.00010264
   0.33127379  0.33120303 -0.00007731
   0.00187961 -0.00026995 -0.00003663
   0.32912057  0.00009279 -0.00022678
   0.66896754  0.00032416 -0.00002744
   0.66850471  0.66657455  0.00018707
   0.10855748  0.22458931  0.95195702
   0.22262385  0.11048504  0.04945610
   0.11316013  0.55322832  0.95310765
   0.21991952  0.44662282  0.04700503
   0.11235650  0.88951158  0.95051210
   0.22525909  0.77630439  0.04800064
   0.44846792  0.22316598  0.95190290
   0.55721378  0.11453011  0.04783071
   0.44307141  0.55845552  0.95216451
   0.55850129  0.44321354  0.04795953
   0.44266880  0.88533029  0.95213830
   0.55177350  0.77584097  0.04807492
   0.77902507  0.22544834  0.95314543
   0.88985078  0.11496086  0.04804880
   0.77480037  0.55122961  0.95184443
   0.88678074  0.43990329  0.04675711
   0.77680786  0.88838888  0.95074365
   0.88749136  0.77713229  0.04936417
unknown system                          
           1
     8.282678    4.774484    0.000000
    -8.283330    4.775611    0.000000
     0.000000    0.000000   30.000000
   V    Mo   W    S 
   3   3   3  18
Direct configuration=     4
   0.33094826  0.66389333 -0.00007715
   0.66725480  0.33626002  0.00012459
   1.00234901  0.33371949  0.00003034
  -0.00004637  0.67220464  0.00022408
   0.32958784  0.32803560 -0.00023520
   0.00389989 -0.00166734 -0.00004278
   0.32456193  0.00023551 -0.00018605
   0.67055063 -0.00081133  0.00002187
   0.67075375  0.66797481  0.00017127
   0.10781478  0.22515301  0.95034235
   0.22263243  0.11037689  0.05159265
   0.11340189  0.55271271  0.95205481
   0.21932121  0.44698999  0.04836492
   0.11226610  0.88952060  0.94819921
   0.22591502  0.77608493  0.04941538
   0.44956393  0.22360878  0.95039699
   0.55747030  0.11514558  0.04859211
   0.44278761  0.55896902  0.95110618
   0.55888005  0.44269878  0.04932359
   0.44211885  0.88461898  0.95127330
   0.55081415  0.77511604  0.04934851
   0.77973940  0.22649283  0.95201720
   0.89065088  0.11609427  0.04945924
   0.77424741  0.55016012  0.95026050
   0.88637041  0.43904955  0.04772084
   0.77691156  0.88832507  0.94909567
   0.88744874  0.77725257  0.05140549
unknown system                          
           1
     8.299141    4.777120    0.000000
    -8.301897    4.781896    0.000000
     0.000000    0.000000   30.000000
   V    Mo   W    S 
   3   3   3  18
Direct configuration=     5
   0.33059758  0.66253650 -0.00041538
   0.66747794  0.33929391  0.00046331
   1.00355040  0.33325498  0.00000322
  -0.00033793  0.67959487  0.00025971
   0.32624994  0.32163928 -0.00041217
   0.00735881 -0.00498847 -0.00001916
   0.31555598  0.00050057 -0.00005781
   0.67410062 -0.00339603  0.00016527
   0.67557822  0.67145484  0.00004216
   0.10697357  0.22508973  0.94815702
   0.22201506  0.11042614  0.05470399
   0.11295691  0.55252987  0.95070220
   0.21872049  0.44678496  0.05030736
   0.11169600  0.88935080  0.94473002
   0.22599337  0.77613882  0.05123212
   0.45024440  0.22361253  0.94830083
   0.55692650  0.11515005  0.04912143
   0.44255546  0.55859367  0.94994935
   0.55869238  0.44222214  0.05095800
   0.44133824  0.88439982  0.95044801
   0.54971736  0.77388951  0.05114675
   0.78080075  0.22762221  0.95056587
   0.89230583  0.11712586  0.05128271
   0.77441287  0.54955282  0.94815489
   0.88669327  0.43940367  0.04897261
   0.77819391  0.88843721  0.94680545
   0.88784652  0.77799419  0.05443215
unknown system                          
           1
     8.294587    4.773632    0.000000
    -8.298141    4.779793    0.000000
     0.000000    0.000000   30.000000
   V    Mo   W    S 
   3   3   3  18
Direct configuration=     6
   0.33069750  0.66211327 -0.00042675
   0.66771649  0.34074820  0.00048690
   1.00371873  0.33310412 -0.00003319
  -0.00090447  0.68002946  0.00018852
   0.32520952  0.32025558 -0.00037360
   0.00672833 -0.00524561  0.00002098
   0.31459512  0.00056311 -0.00012320
   0.67568760 -0.00445623  0.00024276
   0.67723469  0.67301578  0.00011300
   0.10697742  0.22430039  0.94815220
   0.22143521  0.11038413  0.05501003
   0.11242071  0.55294645  0.95085568
   0.21888923  0.44641272  0.05027363
   0.11145850  0.88930533  0.94442457
   0.22549796  0.77660638  0.05112510
   0.44966205  0.22297744  0.94828848
   0.55600038  0.11413163  0.04860144
   0.44287211  0.55773021  0.95018281
   0.55831623  0.44262507  0.05078229
   0.44128944  0.88530761  0.95083934
   0.54992872  0.77355774  0.05117577
   0.78075538  0.22734465  0.95073237
   0.89275615  0.11670890  0.05130939
   0.77482729  0.55014232  0.94806743
   0.88738886  0.44066527  0.04884869
   0.77903950  0.88857570  0.94655260
   0.88801583  0.77836481  0.05468265
unknown system                          
           1
     8.293193    4.771510    0.000000
    -8.297782    4.779468    0.000000
     0.000000    0.000000   30.000000
   V    Mo   W    S 
   3   3   3  18
Direct configuration=     7
   0.33065060  0.66182042 -0.00046805
   0.66793437  0.34182639  0.00051879
   1.00389725  0.33304888 -0.00006973
  -0.00126479  0.68058685  0.00016708
   0.32436100  0.31900770 -0.00036972
   0.00659504 -0.00553483  0.00002313
   0.31339569  0.00067552 -0.00011484
   0.67678486 -0.00523133  0.00027525
   0.67847614  0.67412672  0.00012194
   0.10692264  0.22403138  0.94806502
   0.22119193  0.11028373  0.05522150
   0.11222754  0.55308153  0.95089793
   0.21891112  0.44627822  0.05032581
   0.11130945  0.88930758  0.94420462
   0.22532928  0.77674709  0.05112266
   0.44950397  0.22280067  0.94821696
   0.55575146  0.11373485  0.04832251
   0.44302705  0.55739757  0.95029277
   0.55816919  0.44280644  0.05074905
   0.44132402  0.88564305  0.95102074
   0.54999329  0.77338080  0.05126545
   0.78073918  0.22722509  0.95079673
   0.89299113  0.11666482  0.05143285
   0.77490038  0.55032035  0.94793194
   0.88762435  0.44109090  0.04882148
   0.77935430  0.88858311  0.94631620
   0.88811402  0.77851096  0.05491180
unknown system                          
           1
     8.294343    4.770902    0.000000
    -8.299397    4.779666    0.000000
     0.000000    0.000000   30.000000
   V    Mo   W    S 
   3   3   3  18
Direct configuration=     8
   0.33055151  0.66143524 -0.00052071
   0.66825390  0.34329616  0.00055599
   1.00414137  0.33300111 -0.00011619
  -0.00176477  0.68104059  0.00013935
   0.32325138  0.31746830 -0.00036492
   0.00630166 -0.00574829  0.00002892
   0.31206484  0.00083401 -0.00011360
   0.67819474 -0.00624146  0.00032549
   0.68002926  0.67554993  0.00013744
   0.10687627  0.22370620  0.94800938
   0.22087469  0.11014551  0.05541571
   0.11200012  0.55324781  0.95099869
   0.21894697  0.44610883  0.05033229
   0.11112312  0.88930775  0.94401999
   0.22512150  0.77692133  0.05105977
   0.44927367  0.22257325  0.94819259
   0.55548333  0.11321308  0.04790757
   0.44325000  0.55696331  0.95049619
   0.55796390  0.44308038  0.05064720
   0.44142145  0.88609282  0.95130473
   0.55012939  0.77319518  0.05132797
   0.78067057  0.22700702  0.95093983
   0.89323647  0.11661026  0.05154997
   0.77497074  0.55056455  0.94780430
   0.88790613  0.44160323  0.04874269
   0.77971346  0.88856276  0.94605018
   0.88822880  0.77867560  0.05512908
unknown system                          
           1
     8.293634    4.771329    0.000000
    -8.298441    4.779664    0.000000
     0.000000    0.000000   30.000000
   V    Mo   W    S 
   3   3   3  18
Direct configuration=     9
   0.33047134  0.66122888 -0.00055056
   0.66841588  0.34404811  0.00057812
   1.00429279  0.33298497 -0.00013313
  -0.00200463  0.68119350  0.00012790
   0.32269776  0.31673657 -0.00036852
   0.00616889 -0.00577324  0.00003788
   0.31149390  0.00091499 -0.00012301
   0.67885888 -0.00673754  0.00036119
   0.68074179  0.67621343  0.00014621
   0.10685268  0.22358556  0.94795768
   0.22071148  0.11009582  0.05554281
   0.11190881  0.55330368  0.95102778
   0.21894935  0.44603489  0.05035037
   0.11102972  0.88929164  0.94390492
   0.22504463  0.77698919  0.05105023
   0.44917429  0.22247449  0.94816616
   0.55538728  0.11298854  0.04771829
   0.44334658  0.55675706  0.95058558
   0.55785226  0.44320651  0.05061528
   0.44147148  0.88628614  0.95142869
   0.55018867  0.77311116  0.05137194
   0.78064176  0.22690858  0.95099382
   0.89334827  0.11662280  0.05162490
   0.77499492  0.55065803  0.94771647
   0.88801942  0.44180161  0.04872118
   0.77987597  0.88853635  0.94589139
   0.88828027  0.77875272  0.05525634
unknown system                          
           1
     8.282729    4.767802    0.000000
    -8.287887    4.776747    0.000000
     0.000000    0.000000   30.000000
   V    Mo   W    S 
   3   3   3  18
Direct configuration=    10
   0.33059162  0.66139878 -0.00052661
   0.66825773  0.34337663  0.00056510
   1.00415268  0.33300036 -0.00011929
  -0.00180678  0.68115333  0.00013327
   0.32314438  0.31729913 -0.00036854
   0.00623846 -0.00582617  0.00003406
   0.31189854  0.00086545 -0.00011827
   0.67840272 -0.00636878  0.00033643
   0.68019084  0.67575931  0.00014475
   0.10687602  0.22366666  0.94799412
   0.22083303  0.11014678  0.05546850
   0.11196603  0.55326682  0.95100309
   0.21894556  0.44608769  0.05034494
   0.11111534  0.88931111  0.94395962
   0.22508313  0.77693292  0.05107351
   0.44925198  0.22254000  0.94816823
   0.55540522  0.11313960  0.04788846
   0.44326160  0.55691242  0.95049761
   0.55794802  0.44309228  0.05065161
   0.44141378  0.88614280  0.95131754
   0.55011567  0.77316489  0.05135141
   0.78069220  0.22701430  0.95092949
   0.89327399  0.11659753  0.05156957
   0.77499428  0.55058909  0.94777453
   0.88796633  0.44168124  0.04874528
   0.77976983  0.88857329  0.94599713
   0.88823226  0.77869699  0.05518435
unknown system                          
           1
     8.267901    4.766673    0.000000
    -8.271429    4.772787    0.000000
     0.000000    0.000000   30.000000
   V    Mo   W    S 
   3   3   3  18
Direct configuration=    11
   0.33141117  0.66176274 -0.00047107
   0.66781994  0.34115258  0.00054869
   1.00343982  0.33302088 -0.00010071
  -0.00145591  0.68176346  0.00011260
   0.32403538  0.31836291 -0.00034919
   0.00568836 -0.00684276  0.00002991
   0.31245653  0.00082449 -0.00011383
   0.67803707 -0.00559165  0.00025589
   0.67938477  0.67567834  0.00014752
   0.10685184  0.22373849  0.94812935
   0.22100085  0.11023026  0.05535538
   0.11199589  0.55323253  0.95100778
   0.21895985  0.44625106  0.05033179
   0.11139382  0.88946924  0.94398782
   0.22502940  0.77682464  0.05113158
   0.44953512  0.22264972  0.94810560
   0.55513167  0.11313466  0.04833317
   0.44313739  0.55731369  0.95020796
   0.55833316  0.44282114  0.05072983
   0.44131379  0.88602844  0.95106355
   0.54972559  0.77324252  0.05136593
   0.78087925  0.22732481  0.95071138
   0.89324292  0.11648999  0.05142468
   0.77498490  0.55045080  0.94797277
   0.88812051  0.44156611  0.04878539
   0.77969152  0.88874103  0.94616510
   0.88806986  0.77857432  0.05513103
unknown system                          
           1
     8.279406    4.764371    0.000000
    -8.283532    4.771513    0.000000
     0.000000    0.000000   30.000000
   V    Mo   W    S 
   3   3   3  18
Direct configuration=    12
   0.33407343  0.66319072 -0.00028162
   0.66552464  0.33215281  0.00051559
   1.00130288  0.33349481 -0.00000799
   0.00065849  0.68262395  0.00011211
   0.32890634  0.32411182 -0.00032933
   0.00554587 -0.00887490  0.00003481
   0.31637390  0.00086479 -0.00006059
   0.67396517 -0.00164133 -0.00001992
   0.67380357  0.67234157  0.00017112
   0.10699802  0.22424931  0.94857917
   0.22183377  0.11070404  0.05470974
   0.11242430  0.55312467  0.95087735
   0.21903013  0.44688771  0.05031617
   0.11233319  0.88985991  0.94424285
   0.22508473  0.77637339  0.05134189
   0.45045326  0.22323524  0.94797325
   0.55471525  0.11381411  0.05021354
   0.44240100  0.55885945  0.94910977
   0.55965690  0.44167340  0.05103376
   0.44087290  0.88502663  0.94996842
   0.54872801  0.77388300  0.05133962
   0.78150743  0.22838067  0.94982070
   0.89274816  0.11601615  0.05093133
   0.77491085  0.54984269  0.94871688
   0.88806047  0.44084763  0.04901307
   0.77899648  0.88926952  0.94694891
   0.88730531  0.77790271  0.05472929
unknown system                          
           1
     8.282219    4.766009    0.000000
    -8.287233    4.774689    0.000000
     0.000000    0.000000   30.000000
   V    Mo   W    S 
   3   3   3  18
Direct configuration=    13
   0.33384651  0.66167110 -0.00045200
   0.66504629  0.33211869  0.00052628
   1.00199685  0.33361754 -0.00004571
   0.00074299  0.68350199  0.00013730
   0.32842564  0.32358044 -0.00035285
   0.00617421 -0.00887032  0.00003468
   0.31530901  0.00127193 -0.00013225
   0.67423171 -0.00189427  0.00003874
   0.67480814  0.67333497  0.00006824
   0.10703927  0.22380263  0.94857009
   0.22124082  0.11075088  0.05491143
   0.11232242  0.55346585  0.95100155
   0.21917924  0.44670910  0.05030214
   0.11210112  0.88988761  0.94400146
   0.22507472  0.77684273  0.05117562
   0.45008381  0.22307101  0.94795577
   0.55480260  0.11317378  0.04969795
   0.44268491  0.55817604  0.94941498
   0.55924996  0.44205263  0.05089119
   0.44109927  0.88550704  0.95046490
   0.54934134  0.77399513  0.05148372
   0.78122458  0.22781449  0.95000484
   0.89287310  0.11586097  0.05103678
   0.77479640  0.55008530  0.94870164
   0.88802311  0.44156648  0.04884767
   0.77933567  0.88918709  0.94673883
   0.88716075  0.77793361  0.05497693
unknown system                          
           1
     8.290086    4.764819    0.000000
    -8.298487    4.779376    0.000000
     0.000000    0.000000   30.000000
   V    Mo   W    S 
   3   3   3  18
Direct configuration=    14
   0.33585401  0.66009787 -0.00035569
   0.66281183  0.32639945  0.00053213
   1.00156475  0.33422120  0.00000186
   0.00171257  0.68571402  0.00017862
   0.33018115  0.32566710 -0.00025423
   0.00610219 -0.01091567  0.00009483
   0.31594925  0.00235986 -0.00015078
   0.67325944 -0.00035107 -0.00006866
   0.67331355  0.67370658  0.00014738
   0.10703042  0.22346557  0.94877820
   0.22105117  0.11106483  0.05483014
   0.11241508  0.55392800  0.95110471
   0.21945567  0.44700345  0.05034431
   0.11239098  0.89021036  0.94374729
   0.22515251  0.77716868  0.05099038
   0.45019581  0.22327120  0.94772274
   0.55414641  0.11248572  0.05028274
   0.44270546  0.55829561  0.94894584
   0.55968783  0.44185407  0.05080563
   0.44086455  0.88548265  0.95047262
   0.54922457  0.77424825  0.05157960
   0.78138861  0.22792458  0.94962803
   0.89292273  0.11547092  0.05088014
   0.77469050  0.55005928  0.94915562
   0.88813392  0.44213569  0.04869314
   0.77945832  0.88962833  0.94686072
   0.88655121  0.77761793  0.05505262
unknown system                          
           1
     8.283965    4.764332    0.000000
    -8.290171    4.775081    0.000000
     0.000000    0.000000   30.000000
   V    Mo   W    S 
   3   3   3  18
Direct configuration=    15
   0.33600077  0.65809031 -0.00040502
   0.66229076  0.32637900  0.00052181
   1.00218675  0.33450326 -0.00004799
   0.00119845  0.68674783  0.00011739
   0.32882627  0.32419648 -0.00026857
   0.00577409 -0.01143583  0.00009419
   0.31461952  0.00339306 -0.00024533
   0.67497452 -0.00110197 -0.00001724
   0.67523883  0.67596709  0.00011972
   0.10692724  0.22310111  0.94879228
   0.22051164  0.11102161  0.05508951
   0.11232688  0.55419765  0.95131303
   0.21949247  0.44685495  0.05044492
   0.11225178  0.89030803  0.94354222
   0.22526562  0.77758097  0.05072575
   0.44990902  0.22323515  0.94765204
   0.55380157  0.11172562  0.04986148
   0.44317872  0.55775391  0.94911661
   0.55952465  0.44221491  0.05055406
   0.44083533  0.88578375  0.95103289
   0.54952043  0.77415230  0.05168624
   0.78124917  0.22762959  0.94981496
   0.89315018  0.11551587  0.05095307
   0.77465189  0.55027609  0.94921609
   0.88812783  0.44266197  0.04841163
   0.77987641  0.88969371  0.94659028
   0.88650368  0.77776802  0.05533389
unknown system                          
           1
     8.283158    4.765939    0.000000
    -8.287263    4.773036    0.000000
     0.000000    0.000000   30.000000
   V    Mo   W    S 
   3   3   3  18
Direct configuration=    16
   0.33555176  0.65989771 -0.00040876
   0.66306014  0.32747039  0.00046865
   1.00181744  0.33404486 -0.00001781
   0.00166885  0.68595733  0.00012769
   0.33000020  0.32536126 -0.00030580
   0.00638457 -0.01083157  0.00005582
   0.31514651  0.00215522 -0.00018826
   0.67340601 -0.00077909 -0.00003442
   0.67387313  0.67387717  0.00006063
   0.10709396  0.22336676  0.94877905
   0.22095821  0.11106860  0.05493071
   0.11233085  0.55399527  0.95113248
   0.21950016  0.44695858  0.05032549
   0.11229570  0.89015533  0.94369570
   0.22515557  0.77723532  0.05102826
   0.45007573  0.22319513  0.94776678
   0.55420742  0.11235378  0.05007063
   0.44275005  0.55806894  0.94909256
   0.55951379  0.44196509  0.05083496
   0.44094942  0.88563527  0.95056495
   0.54938139  0.77420187  0.05161362
   0.78125584  0.22776250  0.94975116
   0.89293439  0.11541299  0.05088212
   0.77469577  0.55010104  0.94912183
   0.88810829  0.44234898  0.04865653
   0.77952407  0.88955159  0.94685463
   0.88657521  0.77768412  0.05514070
unknown system                          
           1
     8.278829    4.762526    0.000000
    -8.283642    4.770854    0.000000
     0.000000    0.000000   30.000000
   V    Mo   W    S 
   3   3   3  18
Direct configuration=    17
   0.33522708  0.66176051 -0.00040704
   0.66378547  0.32839656  0.00045759
   1.00119549  0.33346255  0.00000549
   0.00224183  0.68547191  0.00018610
   0.33161975  0.32685888 -0.00030969
   0.00700765 -0.01050663  0.00007720
   0.31566048  0.00080951 -0.00007392
   0.67170240 -0.00022299 -0.00002406
   0.67236202  0.67147639  0.00006022
   0.10724299  0.22358120  0.94882676
   0.22140695  0.11118279  0.05474976
   0.11222440  0.55376520  0.95099479
   0.21950878  0.44706704  0.05020669
   0.11235669  0.89001790  0.94371393
   0.22496962  0.77695288  0.05134881
   0.45024958  0.22311904  0.94785917
   0.55443496  0.11296187  0.05028890
   0.44235321  0.55841378  0.94896305
   0.55964530  0.44166971  0.05114411
   0.44097162  0.88549464  0.95004437
   0.54920155  0.77420154  0.05154695
   0.78129629  0.22795466  0.94967124
   0.89278866  0.11523126  0.05073579
   0.77478349  0.54987491  0.94903204
   0.88815375  0.44214868  0.04881666
   0.77923325  0.88945986  0.94713444
   0.88659120  0.77761079  0.05495054
unknown system                          
           1
     8.287291    4.765288    0.000000
    -8.293628    4.776262    0.000000
     0.000000    0.000000   30.000000
   V    Mo   W    S 
   3   3   3  18
Direct configuration=    18
   0.33543939  0.66174088 -0.00043772
   0.66381162  0.32921996  0.00044357
   1.00123873  0.33326783 -0.00002776
   0.00235703  0.68632702  0.00015488
   0.33219252  0.32723818 -0.00031305
   0.00735488 -0.01086640  0.00003839
   0.31486068  0.00026428 -0.00013362
   0.67140027 -0.00054721 -0.00002629
   0.67233237  0.67094023  0.00004939
   0.10731259  0.22338817  0.94894258
   0.22140347  0.11129908  0.05478196
   0.11210893  0.55389554  0.95111923
   0.21964961  0.44715540  0.05014861
   0.11231028  0.89003384  0.94361718
   0.22489368  0.77704061  0.05135770
   0.45013190  0.22292950  0.94791982
   0.55419940  0.11282156  0.05013007
   0.44244974  0.55840589  0.94898921
   0.55974586  0.44172138  0.05121536
   0.44084050  0.88554113  0.95014628
   0.54919687  0.77402214  0.05148195
   0.78108192  0.22779503  0.94976403
   0.89285963  0.11498970  0.05065258
   0.77490737  0.54993166  0.94902357
   0.88828238  0.44253222  0.04867612
   0.77929011  0.88944611  0.94726607
   0.88656272  0.77768073  0.05501978
unknown system                          
           1
     8.293554    4.766994    0.000000
    -8.300939    4.779785    0.000000
     0.000000    0.000000   30.000000
   V    Mo   W    S 
   3   3   3  18
Direct configuration=    19
   0.33565277  0.66022811 -0.00042079
   0.66326943  0.32853004  0.00048733
   1.00162134  0.33366022 -0.00004148
   0.00182619  0.68662566  0.00016007
   0.33090694  0.32597710 -0.00027477
   0.00677566 -0.01111009  0.00009012
   0.31453353  0.00143560 -0.00015330
   0.67293000 -0.00086837  0.00000022
   0.67362335  0.67283872  0.00010359
   0.10715403  0.22321453  0.94888384
   0.22102722  0.11120418  0.05492497
   0.11213116  0.55403533  0.95122288
   0.21960718  0.44703353  0.05026527
   0.11223465  0.89013074  0.94349962
   0.22500600  0.77729475  0.05110239
   0.45000643  0.22300293  0.94780575
   0.55396234  0.11234498  0.04993361
   0.44279061  0.55809549  0.94903519
   0.55966309  0.44194503  0.05097271
   0.44078774  0.88566584  0.95052807
   0.54933859  0.77399026  0.05156243
   0.78110345  0.22769354  0.94982216
   0.89302922  0.11516763  0.05076650
   0.77484617  0.55008153  0.94905299
   0.88826547  0.44270155  0.04852034
   0.77957066  0.88953374  0.94697708
   0.88655123  0.77776187  0.05517311
unknown system                          
           1
     8.292367    4.766571    0.000000
    -8.299597    4.779094    0.000000
     0.000000    0.000000   30.000000
   V    Mo   W    S 
   3   3   3  18
Direct configuration=    20
   0.33594706  0.65917956 -0.00042225
   0.66293192  0.32862638  0.00050538
   1.00185947  0.33374886 -0.00007485
   0.00144911  0.68718270  0.00014475
   0.33042575  0.32538901 -0.00025067
   0.00651920 -0.01140832  0.00011881
   0.31390557  0.00199267 -0.00017893
   0.67391878 -0.00121256  0.00001935
   0.67443375  0.67370004  0.00012946
   0.10708741  0.22301587  0.94890122
   0.22079383  0.11120237  0.05503225
   0.11206212  0.55418383  0.95136032
   0.21963314  0.44698271  0.05032479
   0.11213864  0.89020340  0.94335082
   0.22501071  0.77749869  0.05093706
   0.44986207  0.22295725  0.94775010
   0.55366264  0.11196826  0.04971090
   0.44307139  0.55788799  0.94905589
   0.55965792  0.44209344  0.05089021
   0.44067250  0.88575284  0.95081554
   0.54942472  0.77386016  0.05160184
   0.78101393  0.22755030  0.94991600
   0.89318438  0.11518312  0.05081194
   0.77489935  0.55022539  0.94903630
   0.88835454  0.44302861  0.04834527
   0.77976102  0.88954834  0.94684213
   0.88653352  0.77787354  0.05532625
unknown system                          
           1
     8.295027    4.765229    0.000000
    -8.304098    4.780948    0.000000
     0.000000    0.000000   30.000000
   V    Mo   W    S 
   3   3   3  18
Direct configuration=    21
   0.33586784  0.65909767 -0.00042453
   0.66289071  0.32827948  0.00050509
   1.00192640  0.33387415 -0.00006778
   0.00145938  0.68707743  0.00014071
   0.33012793  0.32517053 -0.00025797
   0.00643353 -0.01140004  0.00010879
   0.31402891  0.00216099 -0.00018329
   0.67401117 -0.00120793  0.00001116
   0.67456967  0.67407896  0.00012138
   0.10705464  0.22303492  0.94888263
   0.22076904  0.11116823  0.05503619
   0.11209522  0.55416416  0.95133448
   0.21960364  0.44696020  0.05033931
   0.11216687  0.89020250  0.94339262
   0.22505479  0.77750908  0.05092888
   0.44986651  0.22298888  0.94774201
   0.55370561  0.11195455  0.04975369
   0.44306076  0.55787907  0.94907650
   0.55962227  0.44211171  0.05083812
   0.44071753  0.88576719  0.95081966
   0.54944007  0.77392157  0.05161236
   0.78106835  0.22757225  0.94989323
   0.89317960  0.11523611  0.05082470
   0.77485948  0.55022947  0.94906863
   0.88831961  0.44294974  0.04837460
   0.77977322  0.88958062  0.94681280
   0.88654171  0.77785296  0.05531594
unknown system                          
           1
     8.288545    4.763857    0.000000
    -8.296767    4.778105    0.000000
     0.000000    0.000000   30.000000
   V    Mo   W    S 
   3   3   3  18
Direct configuration=    22
   0.33648011  0.65757754 -0.00042639
   0.66242263  0.32877321  0.00052973
   1.00220614  0.33387477 -0.00013580
   0.00077803  0.68790723  0.00009475
   0.32957385  0.32442574 -0.00023492
   0.00596711 -0.01184142  0.00011909
   0.31299068  0.00292313 -0.00027314
   0.67563490 -0.00180559  0.00002551
   0.67567055  0.67514828  0.00015921
   0.10701962  0.22279801  0.94893114
   0.22044301  0.11119331  0.05518268
   0.11200022  0.55438867  0.95158858
   0.21963886  0.44684723  0.05041490
   0.11200473  0.89035212  0.94325856
   0.22500922  0.77778822  0.05063192
   0.44960656  0.22292147  0.94767979
   0.55328916  0.11137967  0.04936210
   0.44349622  0.55755287  0.94911665
   0.55959695  0.44231990  0.05073994
   0.44059448  0.88591222  0.95130952
   0.54961883  0.77373373  0.05164651
   0.78091592  0.22730177  0.95007132
   0.89335211  0.11528789  0.05092023
   0.77495418  0.55048472  0.94902218
   0.88847489  0.44343856  0.04810051
   0.77997443  0.88952769  0.94664712
   0.88650104  0.77800352  0.05551822
unknown system                          
           1
     8.308555    4.769275    0.000000
    -8.319124    4.787591    0.000000
     0.000000    0.000000   30.000000
   V    Mo   W    S 
   3   3   3  18
Direct configuration=    23
   0.33591038  0.65837230 -0.00043795
   0.66259244  0.32755016  0.00051947
   1.00220805  0.33428242 -0.00006870
   0.00135687  0.68729122  0.00012933
   0.32939622  0.32450261 -0.00026219
   0.00615924 -0.01166547  0.00008937
   0.31390662  0.00273377 -0.00022706
   0.67454939 -0.00141307  0.00000417
   0.67522824  0.67527426  0.00013106
   0.10698329  0.22292850  0.94887521
   0.22058561  0.11111060  0.05510427
   0.11214417  0.55423942  0.95137645
   0.21960602  0.44695353  0.05037307
   0.11220286  0.89025352  0.94340265
   0.22512646  0.77762460  0.05081809
   0.44980333  0.22300841  0.94772842
   0.55360806  0.11175410  0.04970253
   0.44318101  0.55777522  0.94915650
   0.55958571  0.44223389  0.05065931
   0.44069283  0.88580256  0.95099954
   0.54945503  0.77389958  0.05162082
   0.78108751  0.22756368  0.94991477
   0.89325615  0.11529071  0.05084402
   0.77482169  0.55030731  0.94915734
   0.88828016  0.44300283  0.04830510
   0.77993762  0.88967112  0.94671341
   0.88654949  0.77786667  0.05537092
unknown system                          
           1
     8.306251    4.767420    0.000000
    -8.317556    4.787015    0.000000
     0.000000    0.000000   30.000000
   V    Mo   W    S 
   3   3   3  18
Direct configuration=    24
   0.33726146  0.65505253 -0.00039425
   0.66175848  0.32972590  0.00060416
   1.00257144  0.33371400 -0.00022253
  -0.00067331  0.68855310  0.00004438
   0.32829762  0.32294559 -0.00017440
   0.00498489 -0.01200005  0.00020010
   0.31186261  0.00453174 -0.00038628
   0.67875083 -0.00250288  0.00007720
   0.67744356  0.67683685  0.00025170
   0.10688262  0.22255707  0.94891230
   0.21986704  0.11117334  0.05542404
   0.11188832  0.55465537  0.95194491
   0.21953391  0.44650765  0.05058048
   0.11166492  0.89057210  0.94303446
   0.22499718  0.77816263  0.05013729
   0.44928040  0.22294458  0.94751246
   0.55281674  0.11051499  0.04874394
   0.44417250  0.55696396  0.94911543
   0.55949603  0.44263052  0.05058928
   0.44049617  0.88620633  0.95208777