   27   27  100    1
  0.9710400E+02  0.1002848E-08  0.1002848E-08  0.3000000E-08  0.5000000E-15
  1.000000000000000E-004
  CAR 
 unknown system                          
    159     34    120
 
  0.0000000E+00  0.0000000E+00  0.0000000E+00  0.1562500E-01
    1      -17.807040   1.000000
    2      -16.731217   1.000000
    3      -16.670798   1.000000
    4      -16.592603   1.000000
    5      -16.536560   1.000000
    6      -16.489956   1.000000
    7      -16.448134   1.000000
    8      -16.247527   1.000000
    9      -16.139867   1.000000
   10      -16.125641   1.000000
   11      -16.094005   1.000000
   12      -15.981647   1.000000
   13      -15.884177   1.000000
   14      -15.772124   1.000000
   15      -15.618184   1.000000
   16      -15.376321   1.000000
   17      -15.369732   1.000000
   18      -15.226823   1.000000
   19       -9.323557   1.000000
   20       -8.965374   1.000000
   21       -8.943602   1.000000
   22       -8.874982   1.000000
   23       -8.712826   1.000000
   24       -8.693224   1.000000
   25       -8.647787   1.000000
   26       -8.599685   1.000000
   27       -8.497787   1.000000
   28       -8.496124   1.000000
   29       -8.472060   1.000000
   30       -8.467776   1.000000
   31       -8.406078   1.000000
   32       -8.111414   1.000000
   33       -8.054997   1.000000
   34       -8.011646   1.000000
   35       -7.813563   1.000000
   36       -7.750396   1.000000
   37       -7.691323   1.000000
   38       -7.650323   1.000000
   39       -7.433395   1.000000
   40       -7.409451   1.000000
   41       -7.346151   1.000000
   42       -7.225088   1.000000
   43       -7.124353   1.000000
   44       -6.894160   1.000000
   45       -6.811828   1.000000
   46       -6.804339   1.000000
   47       -6.730089   1.000000
   48       -6.647955   1.000000
   49       -6.527165   1.000000
   50       -6.486484   1.000000
   51       -6.414969   1.000000
   52       -6.335195   1.000000
   53       -6.315492   1.000000
   54       -6.274734   1.000000
   55       -6.222542   1.000000
   56       -6.167087   1.000000
   57       -6.089243   1.000000
   58       -5.984085   1.000000
   59       -5.838721   1.000000
   60       -5.543128   1.000000
   61       -5.422042   1.000000
   62       -5.317816   1.000000
   63       -5.263934   1.000000
   64       -5.215321   1.000000
   65       -5.099800   1.000000
   66       -4.982134   1.000000
   67       -4.941092   1.000000
   68       -4.818412   1.000000
   69       -4.817643   1.000000
   70       -4.682057   1.000000
   71       -4.681299   1.000000
   72       -4.595890   1.000000
   73       -4.558627   1.000000
   74       -4.389617   1.000000
   75       -4.094168   1.000000
   76       -3.990528   0.999998
   77       -3.850325   0.999869
   78       -3.573372   0.954719
   79       -3.476115   0.842486
   80       -3.458511   0.810637
   81       -3.220591   0.211247
   82       -2.949372   0.003265
   83       -2.868351   0.000496
   84       -2.729586   0.000010
   85       -2.472569   0.000000
   86       -2.464101   0.000000
   87       -2.404083   0.000000
   88       -2.361524   0.000000
   89       -2.198755   0.000000
   90       -2.184738   0.000000
   91       -1.589494   0.000000
   92       -1.546238   0.000000
   93       -1.449488   0.000000
   94       -1.305038   0.000000
   95       -1.103013   0.000000
   96       -1.082505   0.000000
   97       -0.997749   0.000000
   98       -0.876051   0.000000
   99       -0.771410   0.000000
  100       -0.651171   0.000000
  101       -0.620695   0.000000
  102       -0.549539   0.000000
  103       -0.515224   0.000000
  104       -0.326744   0.000000
  105       -0.212407   0.000000
  106       -0.165145   0.000000
  107       -0.163154   0.000000
  108        0.002614   0.000000
  109        0.037739   0.000000
  110        0.288339   0.000000
  111        0.323448   0.000000
  112        0.647882   0.000000
  113        0.668940   0.000000
  114        0.883439   0.000000
  115        0.950005   0.000000
  116        0.951781   0.000000
  117        1.276342   0.000000
  118        1.646701   0.000000
  119        1.832262   0.000000
  120        2.150773   0.000000
 
  0.1250000E+00  0.2775558E-16  0.0000000E+00  0.3125000E-01
    1      -17.781395   1.000000
    2      -16.792547   1.000000
    3      -16.727135   1.000000
    4      -16.629733   1.000000
    5      -16.562619   1.000000
    6      -16.424905   1.000000
    7      -16.393570   1.000000
    8      -16.307959   1.000000
    9      -16.163584   1.000000
   10      -16.097250   1.000000
   11      -16.016986   1.000000
   12      -15.942871   1.000000
   13      -15.879041   1.000000
   14      -15.755754   1.000000
   15      -15.624834   1.000000
   16      -15.388894   1.000000
   17      -15.376349   1.000000
   18      -15.235235   1.000000
   19       -9.307478   1.000000
   20       -9.165914   1.000000
   21       -9.015007   1.000000
   22       -9.004929   1.000000
   23       -8.755448   1.000000
   24       -8.686126   1.000000
   25       -8.665670   1.000000
   26       -8.562309   1.000000
   27       -8.545347   1.000000
   28       -8.478266   1.000000
   29       -8.396337   1.000000
   30       -8.362281   1.000000
   31       -8.296119   1.000000
   32       -8.019430   1.000000
   33       -7.946972   1.000000
   34       -7.940842   1.000000
   35       -7.820509   1.000000
   36       -7.806759   1.000000
   37       -7.695817   1.000000
   38       -7.502726   1.000000
   39       -7.472787   1.000000
   40       -7.418153   1.000000
   41       -7.295013   1.000000
   42       -7.279089   1.000000
   43       -7.120472   1.000000
   44       -6.954221   1.000000
   45       -6.895685   1.000000
   46       -6.792821   1.000000
   47       -6.723044   1.000000
   48       -6.650710   1.000000
   49       -6.530412   1.000000
   50       -6.515480   1.000000
   51       -6.407445   1.000000
   52       -6.348970   1.000000
   53       -6.336159   1.000000
   54       -6.251389   1.000000
   55       -6.188561   1.000000
   56       -6.156335   1.000000
   57       -6.048285   1.000000
   58       -5.947987   1.000000
   59       -5.783538   1.000000
   60       -5.538067   1.000000
   61       -5.442433   1.000000
   62       -5.377534   1.000000
   63       -5.306079   1.000000
   64       -5.231547   1.000000
   65       -5.168436   1.000000
   66       -5.024352   1.000000
   67       -4.990767   1.000000
   68       -4.899792   1.000000
   69       -4.831672   1.000000
   70       -4.659002   1.000000
   71       -4.588798   1.000000
   72       -4.548970   1.000000
   73       -4.512322   1.000000
   74       -4.356409   1.000000
   75       -4.051349   1.000000
   76       -3.926989   0.999986
   77       -3.884931   0.999951
   78       -3.741064   0.998000
   79       -3.586406   0.962837
   80       -3.330533   0.490149
   81       -3.178661   0.135973
   82       -2.966251   0.004654
   83       -2.832823   0.000197
   84       -2.727743   0.000009
   85       -2.544850   0.000000
   86       -2.421919   0.000000
   87       -2.379613   0.000000
   88       -2.316015   0.000000
   89       -2.197601   0.000000
   90       -2.136998   0.000000
   91       -1.625808   0.000000
   92       -1.525436   0.000000
   93       -1.461880   0.000000
   94       -1.289700   0.000000
   95       -1.112755   0.000000
   96       -1.059779   0.000000
   97       -1.024610   0.000000
   98       -0.882047   0.000000
   99       -0.794594   0.000000
  100       -0.684660   0.000000
  101       -0.662165   0.000000
  102       -0.584008   0.000000
  103       -0.526876   0.000000
  104       -0.413944   0.000000
  105       -0.346753   0.000000
  106       -0.269598   0.000000
  107       -0.218125   0.000000
  108        0.083118   0.000000
  109        0.195100   0.000000
  110        0.236149   0.000000
  111        0.351637   0.000000
  112        0.635271   0.000000
  113        0.689264   0.000000
  114        0.882393   0.000000
  115        0.956808   0.000000
  116        0.977812   0.000000
  117        1.298440   0.000000
  118        1.692274   0.000000
  119        1.869942   0.000000
  120        2.186287   0.000000
 
  0.2500000E+00  0.5551115E-16  0.0000000E+00  0.3125000E-01
    1      -17.705499   1.000000
    2      -16.996031   1.000000
    3      -16.731942   1.000000
    4      -16.698972   1.000000
    5      -16.578523   1.000000
    6      -16.427939   1.000000
    7      -16.350579   1.000000
    8      -16.257363   1.000000
    9      -16.171269   1.000000
   10      -16.054133   1.000000
   11      -15.979989   1.000000
   12      -15.877097   1.000000
   13      -15.835553   1.000000
   14      -15.696796   1.000000
   15      -15.642057   1.000000
   16      -15.426968   1.000000
   17      -15.386883   1.000000
   18      -15.254448   1.000000
   19       -9.496418   1.000000
   20       -9.281645   1.000000
   21       -9.160493   1.000000
   22       -9.104650   1.000000
   23       -8.802975   1.000000
   24       -8.763817   1.000000
   25       -8.677536   1.000000
   26       -8.542493   1.000000
   27       -8.503139   1.000000
   28       -8.433468   1.000000
   29       -8.268734   1.000000
   30       -8.240235   1.000000
   31       -8.121484   1.000000
   32       -8.050374   1.000000
   33       -7.916324   1.000000
   34       -7.839110   1.000000
   35       -7.770622   1.000000
   36       -7.754716   1.000000
   37       -7.578960   1.000000
   38       -7.466396   1.000000
   39       -7.443152   1.000000
   40       -7.403594   1.000000
   41       -7.261001   1.000000
   42       -7.233702   1.000000
   43       -7.152662   1.000000
   44       -6.984263   1.000000
   45       -6.860642   1.000000
   46       -6.858229   1.000000
   47       -6.733759   1.000000
   48       -6.682894   1.000000
   49       -6.535651   1.000000
   50       -6.503823   1.000000
   51       -6.483143   1.000000
   52       -6.355125   1.000000
   53       -6.279432   1.000000
   54       -6.196779   1.000000
   55       -6.132875   1.000000
   56       -6.125154   1.000000
   57       -5.976817   1.000000
   58       -5.900803   1.000000
   59       -5.740239   1.000000
   60       -5.662260   1.000000
   61       -5.559830   1.000000
   62       -5.474167   1.000000
   63       -5.444504   1.000000
   64       -5.329332   1.000000
   65       -5.241583   1.000000
   66       -5.117779   1.000000
   67       -4.922435   1.000000
   68       -4.873564   1.000000
   69       -4.823479   1.000000
   70       -4.692412   1.000000
   71       -4.498120   1.000000
   72       -4.469445   1.000000
   73       -4.366624   1.000000
   74       -4.346492   1.000000
   75       -4.181921   1.000000
   76       -3.978927   0.999997
   77       -3.942990   0.999992
   78       -3.734625   0.997692
   79       -3.600979   0.970463
   80       -3.205303   0.181358
   81       -3.155084   0.102881
   82       -3.011251   0.011234
   83       -2.785022   0.000052
   84       -2.714494   0.000006
   85       -2.588678   0.000000
   86       -2.473623   0.000000
   87       -2.308859   0.000000
   88       -2.201818   0.000000
   89       -2.141789   0.000000
   90       -2.058825   0.000000
   91       -1.683815   0.000000
   92       -1.519757   0.000000
   93       -1.488262   0.000000
   94       -1.257947   0.000000
   95       -1.144529   0.000000
   96       -1.103241   0.000000
   97       -0.999760   0.000000
   98       -0.927055   0.000000
   99       -0.825240   0.000000
  100       -0.809451   0.000000
  101       -0.747539   0.000000
  102       -0.635404   0.000000
  103       -0.573225   0.000000
  104       -0.523862   0.000000
  105       -0.506652   0.000000
  106       -0.387094   0.000000
  107       -0.330382   0.000000
  108        0.104331   0.000000
  109        0.147465   0.000000
  110        0.287862   0.000000
  111        0.349114   0.000000
  112        0.699486   0.000000
  113        0.720333   0.000000
  114        0.898885   0.000000
  115        1.015666   0.000000
  116        1.049506   0.000000
  117        1.338241   0.000000
  118        1.818630   0.000000
  119        1.979352   0.000000
  120        2.291657   0.000000
 
  0.3750000E+00  0.0000000E+00  0.0000000E+00  0.3125000E-01
    1      -17.583090   1.000000
    2      -17.210914   1.000000
    3      -16.778339   1.000000
    4      -16.688979   1.000000
    5      -16.609186   1.000000
    6      -16.460283   1.000000
    7      -16.325169   1.000000
    8      -16.197680   1.000000
    9      -16.162505   1.000000
   10      -16.000738   1.000000
   11      -15.941720   1.000000
   12      -15.842693   1.000000
   13      -15.807305   1.000000
   14      -15.671481   1.000000
   15      -15.644104   1.000000
   16      -15.448007   1.000000
   17      -15.397603   1.000000
   18      -15.272715   1.000000
   19       -9.722691   1.000000
   20       -9.348428   1.000000
   21       -9.272387   1.000000
   22       -9.049964   1.000000
   23       -8.883284   1.000000
   24       -8.791786   1.000000
   25       -8.660622   1.000000
   26       -8.550205   1.000000
   27       -8.423901   1.000000
   28       -8.308358   1.000000
   29       -8.283808   1.000000
   30       -8.157203   1.000000
   31       -8.118749   1.000000
   32       -8.013926   1.000000
   33       -7.901846   1.000000
   34       -7.850371   1.000000
   35       -7.804156   1.000000
   36       -7.699678   1.000000
   37       -7.612045   1.000000
   38       -7.492693   1.000000
   39       -7.409260   1.000000
   40       -7.340319   1.000000
   41       -7.190682   1.000000
   42       -7.100031   1.000000
   43       -7.075205   1.000000
   44       -6.937997   1.000000
   45       -6.852043   1.000000
   46       -6.821084   1.000000
   47       -6.768008   1.000000
   48       -6.595220   1.000000
   49       -6.525297   1.000000
   50       -6.512003   1.000000
   51       -6.405295   1.000000
   52       -6.321979   1.000000
   53       -6.225494   1.000000
   54       -6.172613   1.000000
   55       -6.108712   1.000000
   56       -6.071808   1.000000
   57       -6.008096   1.000000
   58       -5.952791   1.000000
   59       -5.917662   1.000000
   60       -5.759053   1.000000
   61       -5.635946   1.000000
   62       -5.595428   1.000000
   63       -5.546137   1.000000
   64       -5.331147   1.000000
   65       -5.308554   1.000000
   66       -5.133159   1.000000
   67       -4.915581   1.000000
   68       -4.820577   1.000000
   69       -4.785687   1.000000
   70       -4.709834   1.000000
   71       -4.608784   1.000000
   72       -4.426225   1.000000
   73       -4.359807   1.000000
   74       -4.299865   1.000000
   75       -4.226119   1.000000
   76       -4.113827   1.000000
   77       -3.937428   0.999990
   78       -3.562430   0.946851
   79       -3.536220   0.923603
   80       -3.189074   0.152691
   81       -3.111003   0.057397
   82       -3.033423   0.016769
   83       -2.810024   0.000106
   84       -2.680774   0.000002
   85       -2.589658   0.000000
   86       -2.519937   0.000000
   87       -2.234306   0.000000
   88       -2.130333   0.000000
   89       -2.095111   0.000000
   90       -1.957251   0.000000
   91       -1.739480   0.000000
   92       -1.547722   0.000000
   93       -1.487505   0.000000
   94       -1.279997   0.000000
   95       -1.161529   0.000000
   96       -1.155501   0.000000
   97       -0.999282   0.000000
   98       -0.977161   0.000000
   99       -0.894612   0.000000
  100       -0.856586   0.000000
  101       -0.832291   0.000000
  102       -0.703239   0.000000
  103       -0.642958   0.000000
  104       -0.600021   0.000000
  105       -0.534358   0.000000
  106       -0.473971   0.000000
  107       -0.436002   0.000000
  108       -0.019459   0.000000
  109        0.169781   0.000000
  110        0.264811   0.000000
  111        0.308584   0.000000
  112        0.701323   0.000000
  113        0.836185   0.000000
  114        0.944527   0.000000
  115        1.097435   0.000000
  116        1.118297   0.000000
  117        1.372241   0.000000
  118        2.006250   0.000000
  119        2.154163   0.000000
  120        2.464081   0.000000
 
  0.5000000E+00  0.1110223E-15  0.0000000E+00  0.1562500E-01
    1      -17.448659   1.000000
    2      -17.378409   1.000000
    3      -16.796364   1.000000
    4      -16.677568   1.000000
    5      -16.626450   1.000000
    6      -16.470843   1.000000
    7      -16.321154   1.000000
    8      -16.179395   1.000000
    9      -16.153880   1.000000
   10      -15.997083   1.000000
   11      -15.877609   1.000000
   12      -15.834348   1.000000
   13      -15.805943   1.000000
   14      -15.686916   1.000000
   15      -15.655027   1.000000
   16      -15.436339   1.000000
   17      -15.403911   1.000000
   18      -15.280149   1.000000
   19       -9.804061   1.000000
   20       -9.381991   1.000000
   21       -9.313037   1.000000
   22       -9.001526   1.000000
   23       -8.919881   1.000000
   24       -8.744365   1.000000
   25       -8.678413   1.000000
   26       -8.624483   1.000000
   27       -8.335006   1.000000
   28       -8.305562   1.000000
   29       -8.231631   1.000000
   30       -8.125675   1.000000
   31       -8.080000   1.000000
   32       -8.069577   1.000000
   33       -7.930358   1.000000
   34       -7.874975   1.000000
   35       -7.768749   1.000000
   36       -7.750121   1.000000
   37       -7.609331   1.000000
   38       -7.523235   1.000000
   39       -7.433907   1.000000
   40       -7.358131   1.000000
   41       -7.103711   1.000000
   42       -7.042588   1.000000
   43       -6.988536   1.000000
   44       -6.857538   1.000000
   45       -6.854471   1.000000
   46       -6.738718   1.000000
   47       -6.641629   1.000000
   48       -6.638976   1.000000
   49       -6.550928   1.000000
   50       -6.518720   1.000000
   51       -6.480480   1.000000
   52       -6.329883   1.000000
   53       -6.273135   1.000000
   54       -6.208328   1.000000
   55       -6.148232   1.000000
   56       -6.026747   1.000000
   57       -5.979589   1.000000
   58       -5.939441   1.000000
   59       -5.807731   1.000000
   60       -5.734720   1.000000
   61       -5.714567   1.000000
   62       -5.583019   1.000000
   63       -5.576056   1.000000
   64       -5.518908   1.000000
   65       -5.307209   1.000000
   66       -5.127155   1.000000
   67       -5.090564   1.000000
   68       -4.810405   1.000000
   69       -4.752230   1.000000
   70       -4.707016   1.000000
   71       -4.474491   1.000000
   72       -4.471050   1.000000
   73       -4.396701   1.000000
   74       -4.340834   1.000000
   75       -4.226945   1.000000
   76       -4.076564   1.000000
   77       -3.946549   0.999993
   78       -3.554070   0.940140
   79       -3.382294   0.633565
   80       -3.292694   0.385045
   81       -3.099500   0.048624
   82       -2.950207   0.003324
   83       -2.880439   0.000670
   84       -2.651949   0.000001
   85       -2.601714   0.000000
   86       -2.522980   0.000000
   87       -2.199256   0.000000
   88       -2.111046   0.000000
   89       -2.081096   0.000000
   90       -1.912771   0.000000
   91       -1.762755   0.000000
   92       -1.564529   0.000000
   93       -1.481102   0.000000
   94       -1.270992   0.000000
   95       -1.199015   0.000000
   96       -1.187032   0.000000
   97       -1.013278   0.000000
   98       -0.992864   0.000000
   99       -0.894671   0.000000
  100       -0.888439   0.000000
  101       -0.862774   0.000000
  102       -0.728313   0.000000
  103       -0.684278   0.000000
  104       -0.580450   0.000000
  105       -0.578288   0.000000
  106       -0.516121   0.000000
  107       -0.458387   0.000000
  108       -0.066780   0.000000
  109        0.168541   0.000000
  110        0.269352   0.000000
  111        0.272355   0.000000
  112        0.697778   0.000000
  113        0.880630   0.000000
  114        0.968316   0.000000
  115        1.129273   0.000000
  116        1.148146   0.000000
  117        1.385693   0.000000
  118        2.225558   0.000000
  119        2.262819   0.000000
  120        2.383310   0.000000
 
  0.0000000E+00  0.1250000E+00  0.0000000E+00  0.3125000E-01
    1      -17.782642   1.000000
    2      -16.780090   1.000000
    3      -16.726072   1.000000
    4      -16.657524   1.000000
    5      -16.539249   1.000000
    6      -16.451753   1.000000
    7      -16.402112   1.000000
    8      -16.265478   1.000000
    9      -16.144611   1.000000
   10      -16.092327   1.000000
   11      -16.033771   1.000000
   12      -15.965798   1.000000
   13      -15.873371   1.000000
   14      -15.764956   1.000000
   15      -15.628456   1.000000
   16      -15.389246   1.000000
   17      -15.374323   1.000000
   18      -15.230087   1.000000
   19       -9.312851   1.000000
   20       -9.137473   1.000000
   21       -9.010744   1.000000
   22       -8.969795   1.000000
   23       -8.772019   1.000000
   24       -8.734071   1.000000
   25       -8.647890   1.000000
   26       -8.600597   1.000000
   27       -8.533404   1.000000
   28       -8.512594   1.000000
   29       -8.405784   1.000000
   30       -8.300773   1.000000
   31       -8.252771   1.000000
   32       -8.076265   1.000000
   33       -8.018961   1.000000
   34       -7.895717   1.000000
   35       -7.797862   1.000000
   36       -7.749317   1.000000
   37       -7.674976   1.000000
   38       -7.581157   1.000000
   39       -7.503828   1.000000
   40       -7.422547   1.000000
   41       -7.304553   1.000000
   42       -7.215942   1.000000
   43       -7.163435   1.000000
   44       -6.961687   1.000000
   45       -6.845682   1.000000
   46       -6.775747   1.000000
   47       -6.712757   1.000000
   48       -6.665484   1.000000
   49       -6.496087   1.000000
   50       -6.458467   1.000000
   51       -6.424364   1.000000
   52       -6.401264   1.000000
   53       -6.311218   1.000000
   54       -6.279932   1.000000
   55       -6.245923   1.000000
   56       -6.128390   1.000000
   57       -6.060283   1.000000
   58       -5.968478   1.000000
   59       -5.798546   1.000000
   60       -5.521403   1.000000
   61       -5.448482   1.000000
   62       -5.416873   1.000000
   63       -5.326526   1.000000
   64       -5.243310   1.000000
   65       -5.065620   1.000000
   66       -5.035424   1.000000
   67       -4.936492   1.000000
   68       -4.890667   1.000000
   69       -4.804758   1.000000
   70       -4.722106   1.000000
   71       -4.645842   1.000000
   72       -4.569032   1.000000
   73       -4.493164   1.000000
   74       -4.295673   1.000000
   75       -4.082123   1.000000
   76       -3.956198   0.999995
   77       -3.868246   0.999921
   78       -3.690860   0.994185
   79       -3.600400   0.970187
   80       -3.416795   0.720818
   81       -3.122730   0.067577
   82       -2.929280   0.002105
   83       -2.834059   0.000204
   84       -2.716615   0.000006
   85       -2.504357   0.000000
   86       -2.440637   0.000000
   87       -2.381049   0.000000
   88       -2.347930   0.000000
   89       -2.195010   0.000000
   90       -2.149762   0.000000
   91       -1.605219   0.000000
   92       -1.541963   0.000000
   93       -1.444332   0.000000
   94       -1.310675   0.000000
   95       -1.097122   0.000000
   96       -1.071047   0.000000
   97       -0.999544   0.000000
   98       -0.891350   0.000000
   99       -0.809709   0.000000
  100       -0.712918   0.000000
  101       -0.660536   0.000000
  102       -0.594854   0.000000
  103       -0.553177   0.000000
  104       -0.407329   0.000000
  105       -0.328770   0.000000
  106       -0.195090   0.000000
  107       -0.123034   0.000000
  108        0.006217   0.000000
  109        0.123737   0.000000
  110        0.195624   0.000000
  111        0.293294   0.000000
  112        0.681545   0.000000
  113        0.709742   0.000000
  114        0.902870   0.000000
  115        0.950810   0.000000
  116        1.003622   0.000000
  117        1.288005   0.000000
  118        1.688937   0.000000
  119        1.872218   0.000000
  120        2.185589   0.000000
 
  0.1250000E+00  0.1250000E+00  0.0000000E+00  0.3125000E-01
    1      -17.732036   1.000000
    2      -16.920350   1.000000
    3      -16.766962   1.000000
    4      -16.697784   1.000000
    5      -16.523971   1.000000
    6      -16.416875   1.000000
    7      -16.373183   1.000000
    8      -16.272099   1.000000
    9      -16.165164   1.000000
   10      -16.068442   1.000000
   11      -15.993260   1.000000
   12      -15.904158   1.000000
   13      -15.837378   1.000000
   14      -15.730284   1.000000
   15      -15.637736   1.000000
   16      -15.415375   1.000000
   17      -15.380926   1.000000
   18      -15.245789   1.000000
   19       -9.385915   1.000000
   20       -9.270574   1.000000
   21       -9.210824   1.000000
   22       -9.031844   1.000000
   23       -8.797750   1.000000
   24       -8.746383   1.000000
   25       -8.621328   1.000000
   26       -8.541241   1.000000
   27       -8.493724   1.000000
   28       -8.443080   1.000000
   29       -8.374484   1.000000
   30       -8.293157   1.000000
   31       -8.182015   1.000000
   32       -8.042059   1.000000
   33       -7.945203   1.000000
   34       -7.866188   1.000000
   35       -7.736943   1.000000
   36       -7.721929   1.000000
   37       -7.589563   1.000000
   38       -7.511636   1.000000
   39       -7.445022   1.000000
   40       -7.364859   1.000000
   41       -7.343861   1.000000
   42       -7.211043   1.000000
   43       -7.133382   1.000000
   44       -7.051803   1.000000
   45       -6.867687   1.000000
   46       -6.822415   1.000000
   47       -6.736197   1.000000
   48       -6.668844   1.000000
   49       -6.537341   1.000000
   50       -6.488168   1.000000
   51       -6.429451   1.000000
   52       -6.391025   1.000000
   53       -6.307032   1.000000
   54       -6.248719   1.000000
   55       -6.168563   1.000000
   56       -6.126118   1.000000
   57       -5.971335   1.000000
   58       -5.926356   1.000000
   59       -5.738031   1.000000
   60       -5.628084   1.000000
   61       -5.522863   1.000000
   62       -5.442390   1.000000
   63       -5.389682   1.000000
   64       -5.288961   1.000000
   65       -5.217380   1.000000
   66       -5.115096   1.000000
   67       -4.953180   1.000000
   68       -4.881185   1.000000
   69       -4.788841   1.000000
   70       -4.711647   1.000000
   71       -4.586493   1.000000
   72       -4.476321   1.000000
   73       -4.376373   1.000000
   74       -4.290164   1.000000
   75       -4.124596   1.000000
   76       -4.017505   0.999999
   77       -3.846042   0.999853
   78       -3.802828   0.999542
   79       -3.630309   0.981916
   80       -3.302009   0.410449
   81       -3.101327   0.049941
   82       -2.964640   0.004501
   83       -2.785979   0.000053
   84       -2.706645   0.000005
   85       -2.564105   0.000000
   86       -2.453847   0.000000
   87       -2.339006   0.000000
   88       -2.255451   0.000000
   89       -2.164952   0.000000
   90       -2.085166   0.000000
   91       -1.651677   0.000000
   92       -1.523469   0.000000
   93       -1.475376   0.000000
   94       -1.283298   0.000000
   95       -1.119398   0.000000
   96       -1.077481   0.000000
   97       -1.017452   0.000000
   98       -0.913704   0.000000
   99       -0.833846   0.000000
  100       -0.788389   0.000000
  101       -0.722604   0.000000
  102       -0.637897   0.000000
  103       -0.557738   0.000000
  104       -0.529134   0.000000
  105       -0.473332   0.000000
  106       -0.277056   0.000000
  107       -0.230285   0.000000
  108        0.054499   0.000000
  109        0.143937   0.000000
  110        0.248537   0.000000
  111        0.305156   0.000000
  112        0.680648   0.000000
  113        0.730181   0.000000
  114        0.913117   0.000000
  115        0.966410   0.000000
  116        1.070505   0.000000
  117        1.327458   0.000000
  118        1.775025   0.000000
  119        1.945597   0.000000
  120        2.255996   0.000000
 
  0.2500000E+00  0.1250000E+00  0.0000000E+00  0.3125000E-01
    1      -17.633183   1.000000
    2      -17.102527   1.000000
    3      -16.872479   1.000000
    4      -16.691535   1.000000
    5      -16.501777   1.000000
    6      -16.425055   1.000000
    7      -16.339318   1.000000
    8      -16.241326   1.000000
    9      -16.157690   1.000000
   10      -16.033880   1.000000
   11      -15.956011   1.000000
   12      -15.879501   1.000000
   13      -15.803625   1.000000
   14      -15.670778   1.000000
   15      -15.643002   1.000000
   16      -15.445688   1.000000
   17      -15.390745   1.000000
   18      -15.264297   1.000000
   19       -9.611731   1.000000
   20       -9.408525   1.000000
   21       -9.286157   1.000000
   22       -9.055982   1.000000
   23       -8.794932   1.000000
   24       -8.734557   1.000000
   25       -8.613314   1.000000
   26       -8.507492   1.000000
   27       -8.460570   1.000000
   28       -8.370933   1.000000
   29       -8.276955   1.000000
   30       -8.217883   1.000000
   31       -8.129401   1.000000
   32       -8.095502   1.000000
   33       -7.976270   1.000000
   34       -7.896147   1.000000
   35       -7.790140   1.000000
   36       -7.643198   1.000000
   37       -7.562722   1.000000
   38       -7.461162   1.000000
   39       -7.381991   1.000000
   40       -7.292547   1.000000
   41       -7.246550   1.000000
   42       -7.171670   1.000000
   43       -7.126863   1.000000
   44       -6.959655   1.000000
   45       -6.862342   1.000000
   46       -6.799747   1.000000
   47       -6.746859   1.000000