       N       E                     dE             d eps       ncg     rms          rms(c)
DAV:   1     0.112430369404E+04    0.11243E+04   -0.35860E+04  8160   0.577E+02
DAV:   2    -0.254437805185E+01   -0.11268E+04   -0.10860E+04 10920   0.173E+02
DAV:   3    -0.199426785589E+03   -0.19688E+03   -0.18881E+03 10880   0.820E+01
DAV:   4    -0.208938915905E+03   -0.95121E+01   -0.91745E+01 12160   0.263E+01
DAV:   5    -0.209272878329E+03   -0.33396E+00   -0.33294E+00 11640   0.361E+00    0.274E+01
DAV:   6    -0.237428254398E+03   -0.28155E+02   -0.10890E+02 12720   0.605E+01    0.593E+01
DAV:   7    -0.196709662698E+03    0.40719E+02   -0.17839E+02 13280   0.151E+02    0.206E+01
DAV:   8    -0.190358884345E+03    0.63508E+01   -0.21148E+01 11480   0.134E+01    0.140E+01
DAV:   9    -0.188344380686E+03    0.20145E+01   -0.40732E+00 11920   0.633E+00    0.934E+00
DAV:  10    -0.187127641816E+03    0.12167E+01   -0.16148E+00 13240   0.758E+00    0.286E+00
DAV:  11    -0.187114003643E+03    0.13638E-01   -0.63090E-01 12200   0.229E+00    0.299E+00
DAV:  12    -0.187144207818E+03   -0.30204E-01   -0.76266E-01 12120   0.391E+00    0.412E+00
DAV:  13    -0.186990502613E+03    0.15371E+00   -0.36582E-01 13120   0.350E+00    0.175E+00
DAV:  14    -0.186957927392E+03    0.32575E-01   -0.75948E-02 13000   0.162E+00    0.599E-01
DAV:  15    -0.186956883552E+03    0.10438E-02   -0.16733E-02 12840   0.666E-01    0.740E-01
DAV:  16    -0.186953538576E+03    0.33450E-02   -0.11180E-02 13520   0.596E-01    0.397E-01
DAV:  17    -0.186951505771E+03    0.20328E-02   -0.57999E-03 12840   0.369E-01    0.195E-01
DAV:  18    -0.186951234690E+03    0.27108E-03   -0.12313E-03 11960   0.145E-01    0.861E-02
DAV:  19    -0.186951296560E+03   -0.61870E-04   -0.50723E-04  8800   0.668E-02
   1 F= -.18695130E+03 E0= -.18678040E+03  d E =-.186951E+03
       N       E                     dE             d eps       ncg     rms          rms(c)
DAV:   1    -0.187578315926E+03   -0.62708E+00   -0.26882E+02  8160   0.348E+01    0.474E+00
DAV:   2    -0.189801754819E+03   -0.22234E+01   -0.20544E+01 12040   0.164E+01    0.113E+01
DAV:   3    -0.189320058205E+03    0.48170E+00   -0.47607E+00 12240   0.131E+01    0.598E+00
DAV:   4    -0.188829977487E+03    0.49008E+00   -0.58354E-01 12520   0.399E+00    0.201E+00
DAV:   5    -0.188913793294E+03   -0.83816E-01   -0.42342E-01 11880   0.334E+00    0.470E+00
DAV:   6    -0.188840308129E+03    0.73485E-01   -0.71816E-01 12160   0.432E+00    0.308E+00
DAV:   7    -0.188742221597E+03    0.98087E-01   -0.22806E-01 12360   0.197E+00    0.102E+00
DAV:   8    -0.188741320944E+03    0.90065E-03   -0.74667E-02 11600   0.137E+00    0.144E+00
DAV:   9    -0.188727107223E+03    0.14214E-01   -0.38647E-02 11440   0.109E+00    0.591E-01
DAV:  10    -0.188724163662E+03    0.29436E-02   -0.71999E-03 11080   0.357E-01    0.243E-01
DAV:  11    -0.188723928699E+03    0.23496E-03   -0.25986E-03 12000   0.188E-01    0.122E-01
DAV:  12    -0.188723893891E+03    0.34808E-04   -0.11715E-03 10840   0.105E-01    0.767E-02
DAV:  13    -0.188724052656E+03   -0.15876E-03   -0.24208E-04  6040   0.587E-02    0.220E-02
DAV:  14    -0.188724220951E+03   -0.16830E-03   -0.82569E-05  6920   0.292E-02    0.342E-02
DAV:  15    -0.188724317010E+03   -0.96059E-04   -0.38089E-05  6200   0.210E-02
   2 F= -.18872432E+03 E0= -.18858597E+03  d E =-.177302E+01
       N       E                     dE             d eps       ncg     rms          rms(c)
DAV:   1    -0.190668167535E+03   -0.19439E+01   -0.31525E+01  9040   0.143E+01    0.445E+00
DAV:   2    -0.190596167404E+03    0.72000E-01   -0.27570E+00 11840   0.933E+00    0.714E+00
DAV:   3    -0.190154433331E+03    0.44173E+00   -0.13485E+00 12160   0.860E+00    0.435E+00
DAV:   4    -0.189933635235E+03    0.22080E+00   -0.73630E-01 12960   0.432E+00    0.251E+00
DAV:   5    -0.189893261430E+03    0.40374E-01   -0.36913E-01 12240   0.277E+00    0.250E+00
DAV:   6    -0.189835609419E+03    0.57652E-01   -0.12823E-01 12360   0.218E+00    0.776E-01
DAV:   7    -0.189828833730E+03    0.67757E-02   -0.14039E-02 11600   0.553E-01    0.209E-01
DAV:   8    -0.189828791264E+03    0.42466E-04   -0.26490E-03 11240   0.160E-01    0.150E-01
DAV:   9    -0.189829053993E+03   -0.26273E-03   -0.12141E-03 10720   0.184E-01    0.193E-01
DAV:  10    -0.189829393362E+03   -0.33937E-03   -0.17327E-03 10120   0.278E-01    0.243E-01
DAV:  11    -0.189828818394E+03    0.57497E-03   -0.85192E-04  8840   0.175E-01    0.205E-02
DAV:  12    -0.189828866096E+03   -0.47702E-04   -0.81137E-05  5880   0.303E-02
   3 F= -.18982887E+03 E0= -.18971180E+03  d E =-.110455E+01
       N       E                     dE             d eps       ncg     rms          rms(c)
DAV:   1    -0.191435962740E+03   -0.16071E+01   -0.78461E+01  8160   0.202E+01    0.465E+00
DAV:   2    -0.191219467498E+03    0.21650E+00   -0.54058E+00 13320   0.747E+00    0.441E+00
DAV:   3    -0.191439915448E+03   -0.22045E+00   -0.16251E+00 12040   0.911E+00    0.755E+00
DAV:   4    -0.191041863484E+03    0.39805E+00   -0.18838E+00 11680   0.860E+00    0.410E+00
DAV:   5    -0.191029185887E+03    0.12678E-01   -0.85857E-01 11600   0.578E+00    0.367E+00
DAV:   6    -0.190840116631E+03    0.18907E+00   -0.22126E-01 11200   0.310E+00    0.679E-01
DAV:   7    -0.190836824301E+03    0.32923E-02   -0.37326E-02 11600   0.696E-01    0.464E-01
DAV:   8    -0.190834098660E+03    0.27256E-02   -0.73548E-03 10640   0.430E-01    0.284E-01
DAV:   9    -0.190833841060E+03    0.25760E-03   -0.24481E-03 11600   0.330E-01    0.202E-01
DAV:  10    -0.190833944008E+03   -0.10295E-03   -0.13850E-03 11840   0.179E-01    0.103E-01
DAV:  11    -0.190833808177E+03    0.13583E-03   -0.51732E-04  9760   0.906E-02    0.425E-02
DAV:  12    -0.190833813107E+03   -0.49304E-05   -0.10414E-04  6600   0.402E-02
   4 F= -.19083381E+03 E0= -.19073195E+03  d E =-.100495E+01
       N       E                     dE             d eps       ncg     rms          rms(c)
DAV:   1    -0.192160814484E+03   -0.13270E+01   -0.15798E+02  8160   0.280E+01    0.555E+00
DAV:   2    -0.191900128279E+03    0.26069E+00   -0.89593E+00 10840   0.758E+00    0.365E+00
DAV:   3    -0.192183365036E+03   -0.28324E+00   -0.23478E+00 12360   0.920E+00    0.711E+00
DAV:   4    -0.191719784600E+03    0.46358E+00   -0.15497E+00 12360   0.916E+00    0.371E+00
DAV:   5    -0.191536991934E+03    0.18279E+00   -0.43070E-01 11560   0.387E+00    0.155E+00
DAV:   6    -0.191532213292E+03    0.47786E-02   -0.18574E-01 12680   0.297E+00    0.166E+00
DAV:   7    -0.191503942157E+03    0.28271E-01   -0.62060E-02 12520   0.173E+00    0.415E-01
DAV:   8    -0.191500795022E+03    0.31471E-02   -0.75243E-03 11200   0.435E-01    0.245E-01
DAV:   9    -0.191501191726E+03   -0.39670E-03   -0.40033E-03 11840   0.408E-01    0.297E-01
DAV:  10    -0.191500653545E+03    0.53818E-03   -0.27436E-03 11640   0.267E-01    0.713E-02
DAV:  11    -0.191500624692E+03    0.28853E-04   -0.38213E-04  9560   0.752E-02
   5 F= -.19150062E+03 E0= -.19139889E+03  d E =-.666812E+00
       N       E                     dE             d eps       ncg     rms          rms(c)
DAV:   1    -0.191565542443E+03   -0.64889E-01   -0.61858E+00  8160   0.523E+00    0.676E-01
DAV:   2    -0.191630635698E+03   -0.65093E-01   -0.28321E-01 12840   0.292E+00    0.219E+00
DAV:   3    -0.191577676800E+03    0.52959E-01   -0.98830E-02 12680   0.235E+00    0.382E-01
DAV:   4    -0.191578882033E+03   -0.12052E-02   -0.12287E-02 11640   0.616E-01    0.593E-01
DAV:   5    -0.191576083711E+03    0.27983E-02   -0.92111E-03 11720   0.597E-01    0.244E-01
DAV:   6    -0.191575762545E+03    0.32117E-03   -0.22895E-03 10520   0.231E-01    0.128E-01
DAV:   7    -0.191575738962E+03    0.23583E-04   -0.13592E-03 11040   0.193E-01    0.159E-01
DAV:   8    -0.191575514780E+03    0.22418E-03   -0.67479E-04  8920   0.166E-01    0.450E-02
DAV:   9    -0.191575527531E+03   -0.12751E-04   -0.75285E-05  6320   0.460E-02
   6 F= -.19157553E+03 E0= -.19147092E+03  d E =-.749028E-01
       N       E                     dE             d eps       ncg     rms          rms(c)
DAV:   1    -0.191652173886E+03   -0.76659E-01   -0.95736E+00  8160   0.649E+00    0.850E-01
DAV:   2    -0.191761120557E+03   -0.10895E+00   -0.39243E-01 13360   0.384E+00    0.303E+00
DAV:   3    -0.191664392648E+03    0.96728E-01   -0.18999E-01 12360   0.312E+00    0.551E-01
DAV:   4    -0.191669211627E+03   -0.48190E-02   -0.31892E-02 11440   0.103E+00    0.983E-01
DAV:   5    -0.191660907060E+03    0.83046E-02   -0.20020E-02 11600   0.842E-01    0.229E-01
DAV:   6    -0.191660578387E+03    0.32867E-03   -0.28470E-03 10120   0.216E-01    0.131E-01
DAV:   7    -0.191660273393E+03    0.30499E-03   -0.10882E-03 10400   0.112E-01    0.415E-02
DAV:   8    -0.191660292844E+03   -0.19452E-04   -0.19623E-04  7040   0.748E-02
   7 F= -.19166029E+03 E0= -.19155335E+03  d E =-.847653E-01
       N       E                     dE             d eps       ncg     rms          rms(c)
DAV:   1    -0.191694486528E+03   -0.34213E-01   -0.17154E+00  8160   0.276E+00    0.358E-01
DAV:   2    -0.191712048052E+03   -0.17562E-01   -0.68418E-02 13480   0.153E+00    0.120E+00
DAV:   3    -0.191696622138E+03    0.15426E-01   -0.29591E-02 11920   0.124E+00    0.252E-01
DAV:   4    -0.191697704994E+03   -0.10829E-02   -0.65787E-03 11200   0.469E-01    0.436E-01
DAV:   5    -0.191696023527E+03    0.16815E-02   -0.38934E-03 10360   0.379E-01    0.103E-01
DAV:   6    -0.191696150283E+03   -0.12676E-03   -0.93435E-04 10080   0.169E-01    0.147E-01
DAV:   7    -0.191696106864E+03    0.43419E-04   -0.11207E-03  8600   0.218E-01    0.127E-01
DAV:   8    -0.191695931001E+03    0.17586E-03   -0.31185E-04  6800   0.110E-01    0.126E-02
DAV:   9    -0.191695945596E+03   -0.14595E-04   -0.43641E-05  6560   0.227E-02
   8 F= -.19169595E+03 E0= -.19158859E+03  d E =-.356528E-01
       N       E                     dE             d eps       ncg     rms          rms(c)
DAV:   1    -0.191803122862E+03   -0.10719E+00   -0.25849E+01  8160   0.107E+01    0.129E+00
DAV:   2    -0.192019851467E+03   -0.21673E+00   -0.92166E-01 13200   0.541E+00    0.435E+00
DAV:   3    -0.191846734661E+03    0.17312E+00   -0.48626E-01 12280   0.453E+00    0.119E+00
DAV:   4    -0.191851586423E+03   -0.48518E-02   -0.10042E-01 12080   0.190E+00    0.155E+00
DAV:   5    -0.191829438483E+03    0.22148E-01   -0.50118E-02 12240   0.134E+00    0.364E-01
DAV:   6    -0.191828661210E+03    0.77727E-03   -0.92853E-03 11000   0.410E-01    0.289E-01
DAV:   7    -0.191830943835E+03   -0.22826E-02   -0.11387E-02 11600   0.697E-01    0.598E-01
DAV:   8    -0.191827376061E+03    0.35678E-02   -0.63412E-03 10840   0.532E-01    0.625E-02
DAV:   9    -0.191827394800E+03   -0.18739E-04   -0.34741E-04  8400   0.662E-02
   9 F= -.19182739E+03 E0= -.19172086E+03  d E =-.131449E+00
       N       E                     dE             d eps       ncg     rms          rms(c)
DAV:   1    -0.191896897698E+03   -0.69522E-01   -0.12054E+01  8160   0.741E+00    0.945E-01
DAV:   2    -0.191995488898E+03   -0.98591E-01   -0.49936E-01 13280   0.371E+00    0.298E+00
DAV:   3    -0.191921399959E+03    0.74089E-01   -0.23455E-01 12200   0.302E+00    0.978E-01
DAV:   4    -0.191924160759E+03   -0.27608E-02   -0.61707E-02 11200   0.155E+00    0.119E+00
DAV:   5    -0.191909729735E+03    0.14431E-01   -0.28203E-02 12240   0.107E+00    0.267E-01
DAV:   6    -0.191909656860E+03    0.72875E-04   -0.69686E-03 10320   0.367E-01    0.275E-01
DAV:   7    -0.191910495840E+03   -0.83898E-03   -0.71391E-03 11200   0.571E-01    0.428E-01
DAV:   8    -0.191908597042E+03    0.18988E-02   -0.31929E-03  9880   0.378E-01    0.459E-02
DAV:   9    -0.191908607525E+03   -0.10483E-04   -0.19977E-04  6360   0.496E-02
  10 F= -.19190861E+03 E0= -.19180308E+03  d E =-.812127E-01
       N       E                     dE             d eps       ncg     rms          rms(c)
DAV:   1    -0.191961314708E+03   -0.52718E-01   -0.18630E+01  8160   0.920E+00    0.103E+00
DAV:   2    -0.192060962431E+03   -0.99648E-01   -0.67837E-01 13120   0.362E+00    0.274E+00
DAV:   3    -0.192006003854E+03    0.54959E-01   -0.24619E-01 12080   0.300E+00    0.117E+00
DAV:   4    -0.192007353340E+03   -0.13495E-02   -0.68067E-02 11360   0.174E+00    0.128E+00
DAV:   5    -0.191989478770E+03    0.17875E-01   -0.29869E-02 11880   0.124E+00    0.305E-01
DAV:   6    -0.191989239314E+03    0.23946E-03   -0.81998E-03 11680   0.340E-01    0.203E-01
DAV:   7    -0.191988300928E+03    0.93839E-03   -0.25676E-03 10800   0.204E-01    0.938E-02
DAV:   8    -0.191988411548E+03   -0.11062E-03   -0.86521E-04 10520   0.187E-01    0.137E-01
DAV:   9    -0.191988219011E+03    0.19254E-03   -0.40381E-04  7800   0.134E-01    0.390E-02
DAV:  10    -0.191988195531E+03    0.23480E-04   -0.10472E-04  5760   0.397E-02
  11 F= -.19198820E+03 E0= -.19188509E+03  d E =-.795880E-01
       N       E                     dE             d eps       ncg     rms          rms(c)
DAV:   1    -0.191974819050E+03    0.13400E-01   -0.15199E+00  8160   0.260E+00    0.263E-01
DAV:   2    -0.191979393325E+03   -0.45743E-02   -0.40256E-02 11320   0.675E-01    0.548E-01
DAV:   3    -0.191977349259E+03    0.20441E-02   -0.11760E-02 11320   0.688E-01    0.388E-01
DAV:   4    -0.191976486019E+03    0.86324E-03   -0.40605E-03 11400   0.366E-01    0.225E-01
DAV:   5    -0.191976078874E+03    0.40715E-03   -0.14789E-03  9840   0.299E-01    0.129E-01
DAV:   6    -0.191975916152E+03    0.16272E-03   -0.71049E-04 10160   0.159E-01    0.643E-02
DAV:   7    -0.191975864317E+03    0.51835E-04   -0.23842E-04  8440   0.775E-02
  12 F= -.19197586E+03 E0= -.19187181E+03  d E =0.123312E-01
       N       E                     dE             d eps       ncg     rms          rms(c)
DAV:   1    -0.191998475703E+03   -0.22560E-01   -0.17817E+00  8160   0.286E+00    0.310E-01
DAV:   2    -0.192004479625E+03   -0.60039E-02   -0.61355E-02 12480   0.886E-01    0.533E-01
DAV:   3    -0.192002873533E+03    0.16061E-02   -0.11710E-02 12080   0.778E-01    0.385E-01
DAV:   4    -0.192002435275E+03    0.43826E-03   -0.53890E-03 10080   0.481E-01    0.356E-01
DAV:   5    -0.192001205718E+03    0.12296E-02   -0.27012E-03  9840   0.371E-01    0.124E-01
DAV:   6    -0.192001734449E+03   -0.52873E-03   -0.18416E-03 10120   0.272E-01    0.258E-01
DAV:   7    -0.192001115016E+03    0.61943E-03   -0.14260E-03  9640   0.263E-01    0.652E-02
DAV:   8    -0.192001065435E+03    0.49580E-04   -0.11019E-04  5640   0.593E-02
  13 F= -.19200107E+03 E0= -.19189822E+03  d E =-.252011E-01
       N       E                     dE             d eps       ncg     rms          rms(c)
DAV:   1    -0.192015636291E+03   -0.14521E-01   -0.62131E-01  8160   0.170E+00    0.205E-01
DAV:   2    -0.192017081689E+03   -0.14454E-02   -0.23556E-02 11200   0.464E-01    0.201E-01
DAV:   3    -0.192017430528E+03   -0.34884E-03   -0.30050E-03 12120   0.443E-01    0.271E-01
DAV:   4    -0.192016547208E+03    0.88332E-03   -0.15026E-03 10240   0.300E-01    0.107E-01
DAV:   5    -0.192016737951E+03   -0.19074E-03   -0.10152E-03  8720   0.219E-01    0.179E-01
DAV:   6    -0.192016459804E+03    0.27815E-03   -0.73845E-04  8240   0.177E-01    0.595E-02
DAV:   7    -0.192016486045E+03   -0.26241E-04   -0.25089E-04  5800   0.105E-01
  14 F= -.19201649E+03 E0= -.19191426E+03  d E =-.154206E-01
       N       E                     dE             d eps       ncg     rms          rms(c)
DAV:   1    -0.192044003066E+03   -0.27543E-01   -0.26979E+00  8160   0.354E+00    0.405E-01
DAV:   2    -0.192051318333E+03   -0.73153E-02   -0.98000E-02 11760   0.939E-01    0.529E-01
DAV:   3    -0.192053328094E+03   -0.20098E-02   -0.21096E-02 12240   0.978E-01    0.732E-01
DAV:   4    -0.192048689906E+03    0.46382E-02   -0.97044E-03 11040   0.629E-01    0.248E-01
DAV:   5    -0.192048506544E+03    0.18336E-03   -0.22607E-03 10200   0.411E-01    0.217E-01
DAV:   6    -0.192048251721E+03    0.25482E-03   -0.20050E-03 12000   0.281E-01    0.162E-01
DAV:   7    -0.192048038052E+03    0.21367E-03   -0.93004E-04  8960   0.214E-01    0.876E-02
DAV:   8    -0.192047948181E+03    0.89871E-04   -0.16617E-04  5880   0.847E-02
  15 F= -.19204795E+03 E0= -.19194808E+03  d E =-.314621E-01
       N       E                     dE             d eps       ncg     rms          rms(c)
DAV:   1    -0.192068666413E+03   -0.20628E-01   -0.13297E+00  8160   0.249E+00    0.300E-01
DAV:   2    -0.192072820028E+03   -0.41536E-02   -0.48696E-02 11280   0.688E-01    0.472E-01
DAV:   3    -0.192072505944E+03    0.31408E-03   -0.11662E-02 12000   0.729E-01    0.463E-01
DAV:   4    -0.192070453565E+03    0.20524E-02   -0.37797E-03 11040   0.386E-01    0.124E-01
DAV:   5    -0.192070781069E+03   -0.32750E-03   -0.15352E-03 10040   0.301E-01    0.212E-01
DAV:   6    -0.192070373896E+03    0.40717E-03   -0.11222E-03 10560   0.247E-01    0.949E-02
DAV:   7    -0.192070342271E+03    0.31624E-04   -0.48335E-04  8600   0.155E-01
  16 F= -.19207034E+03 E0= -.19197199E+03  d E =-.223941E-01
       N       E                     dE             d eps       ncg     rms          rms(c)
DAV:   1    -0.192077612983E+03   -0.72391E-02   -0.15162E-01  8160   0.841E-01    0.115E-01
DAV:   2    -0.192078748128E+03   -0.11351E-02   -0.68704E-03 11480   0.361E-01    0.311E-01
DAV:   3    -0.192077898983E+03    0.84914E-03   -0.23244E-03 11480   0.333E-01    0.106E-01
DAV:   4    -0.192077861133E+03    0.37851E-04   -0.33492E-04  8000   0.124E-01
  17 F= -.19207786E+03 E0= -.19198007E+03  d E =-.751886E-02
       N       E                     dE             d eps       ncg     rms          rms(c)
DAV:   1    -0.192040632184E+03    0.37267E-01   -0.33027E+00  8160   0.393E+00    0.512E-01
DAV:   2    -0.192063071387E+03   -0.22439E-01   -0.13136E-01 11240   0.154E+00    0.148E+00
DAV:   3    -0.192047068183E+03    0.16003E-01   -0.61415E-02 12000   0.152E+00    0.556E-01
DAV:   4    -0.192047229261E+03   -0.16108E-03   -0.12325E-02 10920   0.771E-01    0.553E-01
DAV:   5    -0.192043503780E+03    0.37255E-02   -0.56435E-03 10960   0.626E-01    0.151E-01
DAV:   6    -0.192043455998E+03    0.47782E-04   -0.17606E-03 12480   0.189E-01    0.131E-01
DAV:   7    -0.192043541918E+03   -0.85920E-04   -0.15133E-03 10840   0.263E-01    0.184E-01
DAV:   8    -0.192043189484E+03    0.35243E-03   -0.64280E-04  8520   0.177E-01    0.285E-02
DAV:   9    -0.192043194956E+03   -0.54720E-05   -0.45960E-05  5840   0.297E-02
  18 F= -.19204319E+03 E0= -.19194279E+03  d E =0.346662E-01
       N       E                     dE             d eps       ncg     rms          rms(c)
DAV:   1    -0.192028096083E+03    0.15093E-01   -0.96371E-01  8160   0.212E+00    0.286E-01
DAV:   2    -0.192037895314E+03   -0.97992E-02   -0.39961E-02 12080   0.103E+00    0.101E+00
DAV:   3    -0.192029408485E+03    0.84868E-02   -0.20992E-02 12040   0.926E-01    0.274E-01
DAV:   4    -0.192029695108E+03   -0.28662E-03   -0.39664E-03 10760   0.440E-01    0.312E-01
DAV:   5    -0.192028644359E+03    0.10507E-02   -0.19728E-03 10000   0.341E-01    0.107E-01
DAV:   6    -0.192028849117E+03   -0.20476E-03   -0.10772E-03  9720   0.221E-01    0.184E-01
DAV:   7    -0.192028561709E+03    0.28741E-03   -0.88123E-04  8880   0.214E-01    0.659E-02
DAV:   8    -0.192028503428E+03    0.58281E-04   -0.11610E-04  5720   0.641E-02
  19 F= -.19202850E+03 E0= -.19192619E+03  d E =0.146915E-01
       N       E                     dE             d eps       ncg     rms          rms(c)
DAV:   1    -0.191989076660E+03    0.39485E-01   -0.11635E+01  8160   0.740E+00    0.948E-01
DAV:   2    -0.192103994822E+03   -0.11492E+00   -0.49062E-01 12160   0.324E+00    0.392E+00
DAV:   3    -0.192010631788E+03    0.93363E-01   -0.30755E-01 12360   0.309E+00    0.962E-01
DAV:   4    -0.192012430492E+03   -0.17987E-02   -0.49692E-02 10640   0.149E+00    0.105E+00
DAV:   5    -0.191998986971E+03    0.13444E-01   -0.21061E-02 11560   0.116E+00    0.347E-01
DAV:   6    -0.192001847561E+03   -0.28606E-02   -0.13313E-02 12160   0.755E-01    0.665E-01
DAV:   7    -0.191998181338E+03    0.36662E-02   -0.11504E-02 11200   0.753E-01    0.236E-01
DAV:   8    -0.191997312285E+03    0.86905E-03   -0.15977E-03 10240   0.215E-01    0.415E-02
DAV:   9    -0.191997308637E+03    0.36486E-05   -0.18853E-04  7680   0.461E-02
  20 F= -.19199731E+03 E0= -.19189326E+03  d E =0.311948E-01
       N       E                     dE             d eps       ncg     rms          rms(c)
DAV:   1    -0.192014986141E+03   -0.17674E-01   -0.36285E+00  8160   0.416E+00    0.509E-01
DAV:   2    -0.192021191613E+03   -0.62055E-02   -0.11686E-01 10880   0.997E-01    0.528E-01
DAV:   3    -0.192025246894E+03   -0.40553E-02   -0.28800E-02 11680   0.116E+00    0.866E-01
DAV:   4    -0.192017704240E+03    0.75427E-02   -0.15595E-02 11720   0.867E-01    0.246E-01
DAV:   5    -0.192017853744E+03   -0.14950E-03   -0.46559E-03 10600   0.438E-01    0.343E-01
DAV:   6    -0.192017370917E+03    0.48283E-03   -0.53130E-03 12080   0.478E-01    0.281E-01
DAV:   7    -0.192017116147E+03    0.25477E-03   -0.27373E-03  9800   0.324E-01    0.217E-01
DAV:   8    -0.192016619242E+03    0.49690E-03   -0.73190E-04  8480   0.194E-01    0.295E-02
DAV:   9    -0.192016610272E+03    0.89697E-05   -0.62841E-05  6640   0.313E-02
  21 F= -.19201661E+03 E0= -.19191202E+03  d E =-.193016E-01
       N       E                     dE             d eps       ncg     rms          rms(c)
DAV:   1    -0.192025127274E+03   -0.85080E-02   -0.46981E-01  8160   0.146E+00    0.172E-01
DAV:   2    -0.192028127263E+03   -0.30000E-02   -0.20911E-02 11320   0.541E-01    0.488E-01
DAV:   3    -0.192026400221E+03    0.17270E-02   -0.66427E-03 11200   0.483E-01    0.189E-01
DAV:   4    -0.192026181530E+03    0.21869E-03   -0.90735E-04  8800   0.167E-01    0.108E-01
DAV:   5    -0.192026181201E+03    0.32928E-06   -0.67421E-04  9280   0.185E-01
  22 F= -.19202618E+03 E0= -.19192211E+03  d E =-.957093E-02
       N       E                     dE             d eps       ncg     rms          rms(c)
DAV:   1    -0.192030443304E+03   -0.42618E-02   -0.10381E-01  8160   0.709E-01    0.102E-01
DAV:   2    -0.192030885249E+03   -0.44194E-03   -0.40916E-03 12360   0.230E-01    0.177E-01
DAV:   3    -0.192030656315E+03    0.22893E-03   -0.13479E-03 11040   0.258E-01    0.127E-01
DAV:   4    -0.192030546247E+03    0.11007E-03   -0.47927E-04  8440   0.142E-01    0.699E-02
DAV:   5    -0.192030530895E+03    0.15352E-04   -0.23126E-04  7800   0.118E-01
  23 F= -.19203053E+03 E0= -.19192683E+03  d E =-.434969E-02
       N       E                     dE             d eps       ncg     rms          rms(c)
DAV:   1    -0.192045998383E+03   -0.15452E-01   -0.14438E+00  8160   0.260E+00    0.313E-01
DAV:   2    -0.192050709929E+03   -0.47115E-02   -0.55038E-02 11680   0.760E-01    0.470E-01
DAV:   3    -0.192050247003E+03    0.46293E-03   -0.11856E-02 12120   0.765E-01    0.432E-01
DAV:   4    -0.192048291789E+03    0.19552E-02   -0.36216E-03 10880   0.407E-01    0.147E-01
DAV:   5    -0.192048936128E+03   -0.64434E-03   -0.24084E-03 10400   0.328E-01    0.308E-01
DAV:   6    -0.192048251351E+03    0.68478E-03   -0.20728E-03  9640   0.289E-01    0.125E-01
DAV:   7    -0.192048105516E+03    0.14584E-03   -0.50979E-04  8400   0.171E-01    0.677E-02
DAV:   8    -0.192048052952E+03    0.52564E-04   -0.95975E-05  7320   0.774E-02
  24 F= -.19204805E+03 E0= -.19194496E+03  d E =-.175221E-01
       N       E                     dE             d eps       ncg     rms          rms(c)
DAV:   1    -0.192053498023E+03   -0.53925E-02   -0.14067E-01  8160   0.810E-01    0.955E-02
DAV:   2    -0.192053828430E+03   -0.33041E-03   -0.51418E-03 10640   0.192E-01    0.823E-02
DAV:   3    -0.192053969802E+03   -0.14137E-03   -0.66004E-04 11440   0.206E-01    0.140E-01
DAV:   4    -0.192053747487E+03    0.22232E-03   -0.34445E-04  8640   0.151E-01    0.492E-02
DAV:   5    -0.192053779581E+03   -0.32094E-04   -0.17553E-04  6280   0.993E-02
  25 F= -.19205378E+03 E0= -.19195096E+03  d E =-.572663E-02
       N       E                     dE             d eps       ncg     rms          rms(c)
DAV:   1    -0.192044063979E+03    0.96835E-02   -0.51033E-01  8160   0.154E+00    0.225E-01
DAV:   2    -0.192053023810E+03   -0.89598E-02   -0.31429E-02 12240   0.931E-01    0.991E-01
DAV:   3    -0.192044934432E+03    0.80894E-02   -0.16946E-02 11160   0.819E-01    0.165E-01
DAV:   4    -0.192045382705E+03   -0.44827E-03   -0.21771E-03  9960   0.315E-01    0.273E-01
DAV:   5    -0.192044622432E+03    0.76027E-03   -0.14452E-03  9680   0.274E-01    0.652E-02
DAV:   6    -0.192044656765E+03   -0.34333E-04   -0.31773E-04  7440   0.898E-02
  26 F= -.19204466E+03 E0= -.19194083E+03  d E =0.912282E-02
       N       E                     dE             d eps       ncg     rms          rms(c)
DAV:   1    -0.192034520990E+03    0.10101E-01   -0.61975E-01  8160   0.170E+00    0.230E-01
DAV:   2    -0.192039760230E+03   -0.52392E-02   -0.27444E-02 12280   0.779E-01    0.696E-01
DAV:   3    -0.192035781349E+03    0.39789E-02   -0.11045E-02 12120   0.684E-01    0.235E-01
DAV:   4    -0.192036133377E+03   -0.35203E-03   -0.31088E-03  9840   0.385E-01    0.294E-01
DAV:   5    -0.192035254710E+03    0.87867E-03   -0.16220E-03  9880   0.292E-01    0.910E-02
DAV:   6    -0.192035471088E+03   -0.21638E-03   -0.83843E-04  9560   0.212E-01    0.168E-01
DAV:   7    -0.192035171955E+03    0.29913E-03   -0.50090E-04  8440   0.161E-01    0.167E-02
DAV:   8    -0.192035182166E+03   -0.10211E-04   -0.44775E-05  6320   0.246E-02
  27 F= -.19203518E+03 E0= -.19193130E+03  d E =0.947460E-02
       N       E                     dE             d eps       ncg     rms          rms(c)
DAV:   1    -0.192041630680E+03   -0.64587E-02   -0.30696E-01  8160   0.120E+00    0.165E-01
DAV:   2    -0.192044152962E+03   -0.25223E-02   -0.14494E-02 12040   0.549E-01    0.494E-01
DAV:   3    -0.192042141945E+03    0.20110E-02   -0.56548E-03 11440   0.476E-01    0.165E-01
DAV:   4    -0.192042249752E+03   -0.10781E-03   -0.14346E-03  9880   0.252E-01    0.192E-01
DAV:   5    -0.192041912393E+03    0.33736E-03   -0.95064E-04  9320   0.225E-01    0.911E-02
DAV:   6    -0.192041917420E+03   -0.50268E-05   -0.44677E-04  8560   0.142E-01
  28 F= -.19204192E+03 E0= -.19193780E+03  d E =-.673525E-02
       N       E                     dE             d eps       ncg     rms          rms(c)
DAV:   1    -0.192043094662E+03   -0.11823E-02   -0.21252E-01  8160   0.101E+00    0.143E-01
DAV:   2    -0.192045359820E+03   -0.22652E-02   -0.92748E-03 12240   0.487E-01    0.499E-01
DAV:   3    -0.192043146509E+03    0.22133E-02   -0.50325E-03 10960   0.459E-01    0.128E-01
DAV:   4    -0.192043059014E+03    0.87495E-04   -0.67136E-04  9240   0.133E-01
  29 F= -.19204306E+03 E0= -.19193958E+03  d E =-.114159E-02
       N       E                     dE             d eps       ncg     rms          rms(c)
DAV:   1    -0.192053316997E+03   -0.10170E-01   -0.60385E-01  8160   0.168E+00    0.231E-01
DAV:   2    -0.192058809031E+03   -0.54920E-02   -0.29238E-02 12400   0.790E-01    0.661E-01
DAV:   3    -0.192054467461E+03    0.43416E-02   -0.10167E-02 11920   0.723E-01    0.171E-01
DAV:   4    -0.192054396824E+03    0.70636E-04   -0.11679E-03  9960   0.212E-01    0.165E-01
DAV:   5    -0.192054253773E+03    0.14305E-03   -0.10470E-03 10800   0.236E-01    0.137E-01
DAV:   6    -0.192054364037E+03   -0.11026E-03   -0.92187E-04  8920   0.194E-01    0.160E-01
DAV:   7    -0.192054111109E+03    0.25293E-03   -0.41485E-04  8280   0.163E-01    0.356E-02
DAV:   8    -0.192054094190E+03    0.16919E-04   -0.51741E-05  6320   0.400E-02
  30 F= -.19205409E+03 E0= -.19195105E+03  d E =-.110352E-01
       N       E                     dE             d eps       ncg     rms          rms(c)
DAV:   1    -0.192053692346E+03    0.41876E-03   -0.31691E-03  8160   0.124E-01    0.197E-02
DAV:   2    -0.192053723512E+03   -0.31167E-04   -0.11483E-04  6520   0.668E-02
  31 F= -.19205372E+03 E0= -.19195009E+03  d E =0.370678E-03
       N       E                     dE             d eps       ncg     rms          rms(c)
DAV:   1    -0.192064849603E+03   -0.11157E-01   -0.75604E-01  8160   0.188E+00    0.215E-01
DAV:   2    -0.192067264869E+03   -0.24153E-02   -0.28287E-02 11560   0.530E-01    0.296E-01
DAV:   3    -0.192067243793E+03    0.21076E-04   -0.49434E-03 11880   0.517E-01    0.313E-01
DAV:   4    -0.192066632081E+03    0.61171E-03   -0.24019E-03  9920   0.343E-01    0.213E-01
DAV:   5    -0.192066282743E+03    0.34934E-03   -0.10357E-03  9440   0.241E-01    0.108E-01
DAV:   6    -0.192066500130E+03   -0.21739E-03   -0.89228E-04  9480   0.205E-01    0.174E-01
DAV:   7    -0.192066191119E+03    0.30901E-03   -0.57935E-04  8520   0.179E-01    0.367E-02
DAV:   8    -0.192066180500E+03    0.10619E-04   -0.55394E-05  5680   0.364E-02
  32 F= -.19206618E+03 E0= -.19196390E+03  d E =-.124570E-01
       N       E                     dE             d eps       ncg     rms          rms(c)
DAV:   1    -0.192066778859E+03   -0.58774E-03   -0.18102E-03  8480   0.937E-02    0.138E-02
DAV:   2    -0.192066783087E+03   -0.42279E-05   -0.66830E-05  6520   0.327E-02
  33 F= -.19206678E+03 E0= -.19196461E+03  d E =-.602587E-03
       N       E                     dE             d eps       ncg     rms          rms(c)
DAV:   1    -0.192081272622E+03   -0.14494E-01   -0.11946E+00  8160   0.238E+00    0.285E-01
DAV:   2    -0.192084947213E+03   -0.36746E-02   -0.32712E-02 12360   0.716E-01    0.524E-01
DAV:   3    -0.192082870893E+03    0.20763E-02   -0.79946E-03 11800   0.679E-01    0.325E-01
DAV:   4    -0.192083358612E+03   -0.48772E-03   -0.46875E-03 11160   0.487E-01    0.400E-01
DAV:   5    -0.192081715034E+03    0.16436E-02   -0.26234E-03  9960   0.405E-01    0.858E-02
DAV:   6    -0.192082112045E+03   -0.39701E-03   -0.10977E-03 10320   0.228E-01    0.206E-01
DAV:   7    -0.192081653206E+03    0.45884E-03   -0.71689E-04  8840   0.202E-01    0.211E-02
DAV:   8    -0.192081666711E+03   -0.13506E-04   -0.39828E-05  5880   0.261E-02
  34 F= -.19208167E+03 E0= -.19198070E+03  d E =-.148836E-01
       N       E                     dE             d eps       ncg     rms          rms(c)
DAV:   1    -0.192067539948E+03    0.14113E-01   -0.13162E+00  8160   0.252E+00    0.341E-01
DAV:   2    -0.192075897353E+03   -0.83574E-02   -0.45073E-02 12280   0.111E+00    0.934E-01
DAV:   3    -0.192068637898E+03    0.72595E-02   -0.18863E-02 11920   0.951E-01    0.345E-01
DAV:   4    -0.192069383006E+03   -0.74511E-03   -0.63311E-03 10840   0.589E-01    0.445E-01
DAV:   5    -0.192067210051E+03    0.21730E-02   -0.34834E-03 10640   0.440E-01    0.111E-01
DAV:   6    -0.192067827486E+03   -0.61744E-03   -0.19933E-03 10440   0.313E-01    0.269E-01
DAV:   7    -0.192067071046E+03    0.75644E-03   -0.13284E-03  9840   0.267E-01    0.332E-02
DAV:   8    -0.192067069886E+03    0.11597E-05   -0.52922E-05  6080   0.329E-02
  35 F= -.19206707E+03 E0= -.19196446E+03  d E =0.145968E-01
       N       E                     dE             d eps       ncg     rms          rms(c)
DAV:   1    -0.192077670211E+03   -0.10599E-01   -0.64044E-01  8160   0.172E+00    0.197E-01
DAV:   2    -0.192079578962E+03   -0.19088E-02   -0.23826E-02 11520   0.485E-01    0.231E-01
DAV:   3    -0.192079662090E+03   -0.83128E-04   -0.30793E-03 12160   0.448E-01    0.260E-01
DAV:   4    -0.192079166404E+03    0.49569E-03   -0.18033E-03 10040   0.301E-01    0.186E-01
DAV:   5    -0.192078933761E+03    0.23264E-03   -0.92314E-04  8560   0.223E-01    0.106E-01
DAV:   6    -0.192078960275E+03   -0.26514E-04   -0.50190E-04  8960   0.141E-01
  36 F= -.19207896E+03 E0= -.19197733E+03  d E =-.118904E-01
       N       E                     dE             d eps       ncg     rms          rms(c)
DAV:   1    -0.192079804963E+03   -0.87120E-03   -0.41787E-03 12360   0.200E-01    0.693E-02
DAV:   2    -0.192080885963E+03   -0.10810E-02   -0.23684E-03 10960   0.352E-01    0.323E-01
DAV:   3    -0.192079751346E+03    0.11346E-02   -0.16467E-03  9920   0.307E-01    0.466E-02
DAV:   4    -0.192079764374E+03   -0.13029E-04   -0.77921E-05  5760   0.621E-02
  37 F= -.19207976E+03 E0= -.19197800E+03  d E =-.804099E-03
       N       E                     dE             d eps       ncg     rms          rms(c)
DAV:   1    -0.192090566382E+03   -0.10815E-01   -0.60469E-01  8160   0.169E+00    0.211E-01
DAV:   2    -0.192091899291E+03   -0.13329E-02   -0.21908E-02 11240   0.395E-01    0.201E-01
DAV:   3    -0.192092806507E+03   -0.90722E-03   -0.42044E-03 12160   0.480E-01    0.386E-01
DAV:   4    -0.192091525028E+03    0.12815E-02   -0.25803E-03  9840   0.358E-01    0.164E-01
DAV:   5    -0.192091406584E+03    0.11844E-03   -0.89576E-04  9040   0.238E-01    0.126E-01
DAV:   6    -0.192091406422E+03    0.16214E-06   -0.65757E-04  8440   0.171E-01
  38 F= -.19209141E+03 E0= -.19199068E+03  d E =-.116420E-01
       N       E                     dE             d eps       ncg     rms          rms(c)
DAV:   1    -0.192096175081E+03   -0.47685E-02   -0.11315E-01  8160   0.739E-01    0.107E-01
DAV:   2    -0.192096909613E+03   -0.73453E-03   -0.52600E-03 11560   0.317E-01    0.229E-01
DAV:   3    -0.192096424511E+03    0.48510E-03   -0.13850E-03 11040   0.294E-01    0.109E-01
DAV:   4    -0.192096465908E+03   -0.41398E-04   -0.55440E-04  8160   0.167E-01
  39 F= -.19209647E+03 E0= -.19199579E+03  d E =-.505949E-02
       N       E                     dE             d eps       ncg     rms          rms(c)
DAV:   1    -0.192105959601E+03   -0.95351E-02   -0.46215E-01  8160   0.147E+00    0.192E-01
DAV:   2    -0.192107903560E+03   -0.19440E-02   -0.17678E-02 12400   0.483E-01    0.350E-01
DAV:   3    -0.192107129469E+03    0.77409E-03   -0.40286E-03 11880   0.472E-01    0.239E-01
DAV:   4    -0.192107010654E+03    0.11881E-03   -0.16745E-03  9680   0.296E-01    0.210E-01
DAV:   5    -0.192106599340E+03    0.41131E-03   -0.97414E-04  9600   0.254E-01    0.892E-02
DAV:   6    -0.192106738876E+03   -0.13954E-03   -0.58351E-04  9360   0.176E-01    0.138E-01
DAV:   7    -0.192106552364E+03    0.18651E-03   -0.42353E-04  8760   0.160E-01    0.392E-02
DAV:   8    -0.192106534713E+03    0.17650E-04   -0.53022E-05  5800   0.384E-02
  40 F= -.19210653E+03 E0= -.19200638E+03  d E =-.100688E-01
       N       E                     dE             d eps       ncg     rms          rms(c)
DAV:   1    -0.192114486816E+03   -0.79345E-02   -0.31409E-01  8160   0.122E+00    0.152E-01
DAV:   2    -0.192115738101E+03   -0.12513E-02   -0.12601E-02 10640   0.360E-01    0.265E-01
DAV:   3    -0.192115450561E+03    0.28754E-03   -0.28181E-03 11600   0.378E-01    0.223E-01
DAV:   4    -0.192115137429E+03    0.31313E-03   -0.93513E-04  8760   0.219E-01    0.129E-01
DAV:   5    -0.192114977993E+03    0.15944E-03   -0.38921E-04  8760   0.170E-01    0.570E-02
DAV:   6    -0.192115003186E+03   -0.25193E-04   -0.22354E-04  6880   0.950E-02
  41 F= -.19211500E+03 E0= -.19201549E+03  d E =-.846847E-02
       N       E                     dE             d eps       ncg     rms          rms(c)
DAV:   1    -0.192121441359E+03   -0.64634E-02   -0.19961E-01  8160   0.971E-01    0.131E-01
DAV:   2    -0.192122943784E+03   -0.15024E-02   -0.91484E-03 11920   0.411E-01    0.335E-01
DAV:   3    -0.192121920388E+03    0.10234E-02   -0.25874E-03 11720   0.378E-01    0.132E-01
DAV:   4    -0.192121985597E+03   -0.65210E-04   -0.67284E-04  8440   0.204E-01
  42 F= -.19212199E+03 E0= -.19202269E+03  d E =-.698241E-02
       N       E                     dE             d eps       ncg     rms          rms(c)
DAV:   1    -0.192127591086E+03   -0.56707E-02   -0.15547E-01  8160   0.873E-01    0.137E-01
DAV:   2    -0.192129255163E+03   -0.16641E-02   -0.81338E-03 12240   0.465E-01    0.388E-01
DAV:   3    -0.192127822073E+03    0.14331E-02   -0.29562E-03 11960   0.405E-01    0.114E-01
DAV:   4    -0.192127952059E+03   -0.12999E-03   -0.64411E-04  8560   0.204E-01    0.157E-01
DAV:   5    -0.192127709903E+03    0.24216E-03   -0.50894E-04  9000   0.182E-01    0.621E-02
DAV:   6    -0.192127776034E+03   -0.66131E-04   -0.29187E-04  8280   0.130E-01
  43 F= -.19212778E+03 E0= -.19202970E+03  d E =-.579044E-02
       N       E                     dE             d eps       ncg     rms          rms(c)
DAV:   1    -0.192141181851E+03   -0.13472E-01   -0.96108E-01  8160   0.212E+00    0.286E-01
DAV:   2    -0.192149260022E+03   -0.80782E-02   -0.45018E-02 12200   0.956E-01    0.777E-01
DAV:   3    -0.192143242559E+03    0.60175E-02   -0.12314E-02 11640   0.835E-01    0.257E-01
DAV:   4    -0.192143565017E+03   -0.32246E-03   -0.28240E-03 10800   0.422E-01    0.302E-01
DAV:   5    -0.192142524179E+03    0.10408E-02   -0.14870E-03 10280   0.337E-01    0.760E-02
DAV:   6    -0.192142645594E+03   -0.12141E-03   -0.62091E-04 10200   0.139E-01    0.111E-01
DAV:   7    -0.192142550957E+03    0.94637E-04   -0.50643E-04  9240   0.169E-01
  44 F= -.19214255E+03 E0= -.19204544E+03  d E =-.147749E-01
       N       E                     dE             d eps       ncg     rms          rms(c)
DAV:   1    -0.192142211755E+03    0.43384E-03   -0.63484E-03  8320   0.190E-01    0.439E-02
DAV:   2    -0.192142253414E+03   -0.41659E-04   -0.42445E-04 10640   0.115E-01
  45 F= -.19214225E+03 E0= -.19204478E+03  d E =0.297543E-03
       N       E                     dE             d eps       ncg     rms          rms(c)
DAV:   1    -0.192142249344E+03   -0.37589E-04   -0.25318E-04  8040   0.116E-01    0.439E-02
DAV:   2    -0.192142709142E+03   -0.45980E-03   -0.83410E-04  9400   0.227E-01    0.221E-01
DAV:   3    -0.192142204007E+03    0.50514E-03   -0.62121E-04  8720   0.194E-01    0.201E-02
DAV:   4    -0.192142229976E+03   -0.25969E-04   -0.38499E-05  5800   0.453E-02
  46 F= -.19214223E+03 E0= -.19204496E+03  d E =0.234375E-04
       N       E                     dE             d eps       ncg     rms          rms(c)
DAV:   1    -0.192153739667E+03   -0.11536E-01   -0.66236E-01  8160   0.176E+00    0.241E-01
DAV:   2    -0.192160229445E+03   -0.64898E-02   -0.29879E-02 12000   0.862E-01    0.732E-01
DAV:   3    -0.192154794489E+03    0.54350E-02   -0.97715E-03 11680   0.748E-01    0.194E-01
DAV:   4    -0.192155046983E+03   -0.25249E-03   -0.17250E-03  9720   0.336E-01    0.239E-01
DAV:   5    -0.192154370775E+03    0.67621E-03   -0.95348E-04 10200   0.275E-01    0.618E-02
DAV:   6    -0.192154461790E+03   -0.91015E-04   -0.40610E-04  9160   0.121E-01
  47 F= -.19215446E+03 E0= -.19205861E+03  d E =-.122318E-01
       N       E                     dE             d eps       ncg     rms          rms(c)
DAV:   1    -0.192155890418E+03   -0.15196E-02   -0.12194E-02 10080   0.284E-01    0.736E-02
DAV:   2    -0.192156881168E+03   -0.99075E-03   -0.23687E-03 12600   0.353E-01    0.307E-01
DAV:   3    -0.192155835589E+03    0.10456E-02   -0.15382E-03  9880   0.308E-01    0.372E-02
DAV:   4    -0.192155857734E+03   -0.22145E-04   -0.77570E-05  5480   0.614E-02
  48 F= -.19215586E+03 E0= -.19205997E+03  d E =-.139594E-02
       N       E                     dE             d eps       ncg     rms          rms(c)
DAV:   1    -0.192154121286E+03    0.17143E-02   -0.37972E-02  8160   0.420E-01    0.770E-02
DAV:   2    -0.192155066544E+03   -0.94526E-03   -0.31675E-03 12280   0.366E-01    0.294E-01
DAV:   3    -0.192154126433E+03    0.94011E-03   -0.14892E-03  9520   0.296E-01    0.344E-02
DAV:   4    -0.192154135392E+03   -0.89583E-05   -0.71440E-05  5440   0.579E-02
  49 F= -.19215414E+03 E0= -.19205811E+03  d E =0.172234E-02
       N       E                     dE             d eps       ncg     rms          rms(c)
DAV:   1    -0.192168028165E+03   -0.13902E-01   -0.95981E-01  8160   0.212E+00    0.317E-01
DAV:   2    -0.192180602551E+03   -0.12574E-01   -0.51487E-02 11920   0.127E+00    0.100E+00
DAV:   3    -0.192169539883E+03    0.11063E-01   -0.17516E-02 12080   0.104E+00    0.234E-01
DAV:   4    -0.192170074392E+03   -0.53451E-03   -0.30460E-03 10600   0.458E-01    0.320E-01
DAV:   5    -0.192168909366E+03    0.11650E-02   -0.15940E-03 10120   0.343E-01    0.798E-02
DAV:   6    -0.192169265369E+03   -0.35600E-03   -0.98442E-04 10440   0.226E-01    0.192E-01
DAV:   7    -0.192168875005E+03    0.39036E-03   -0.73599E-04  8600   0.211E-01    0.393E-02
DAV:   8    -0.192168863228E+03    0.11777E-04   -0.57365E-05  5800   0.394E-02
  50 F= -.19216886E+03 E0= -.19207431E+03  d E =-.147278E-01
       N       E                     dE             d eps       ncg     rms          rms(c)
DAV:   1    -0.192186715464E+03   -0.17840E-01   -0.18613E+00  8160   0.294E+00    0.425E-01
DAV:   2    -0.192208887420E+03   -0.22172E-01   -0.91825E-02 11640   0.161E+00    0.132E+00
DAV:   3    -0.192189481136E+03    0.19406E-01   -0.29249E-02 11560   0.136E+00    0.298E-01
DAV:   4    -0.192190271910E+03   -0.79077E-03   -0.47131E-03 10880   0.567E-01    0.396E-01
DAV:   5    -0.192188406304E+03    0.18656E-02   -0.25684E-03 11680   0.463E-01    0.107E-01
DAV:   6    -0.192188472226E+03   -0.65923E-04   -0.93246E-04 10600   0.158E-01
  51 F= -.19218847E+03 E0= -.19209600E+03  d E =-.196090E-01
       N       E                     dE             d eps       ncg     rms          rms(c)
DAV:   1    -0.192216455495E+03   -0.28049E-01   -0.91389E+00  8160   0.653E+00    0.937E-01
DAV:   2    -0.192312415977E+03   -0.95960E-01   -0.43314E-01 11320   0.349E+00    0.258E+00
DAV:   3    -0.192229905096E+03    0.82511E-01   -0.10980E-01 11560   0.280E+00    0.607E-01
DAV:   4    -0.192234255425E+03   -0.43503E-02   -0.20710E-02 12040   0.125E+00    0.893E-01
DAV:   5    -0.192224815861E+03    0.94396E-02   -0.12273E-02 11480   0.104E+00    0.221E-01
DAV:   6    -0.192224886541E+03   -0.70680E-04   -0.37771E-03 11960   0.287E-01    0.164E-01
DAV:   7    -0.192224320722E+03    0.56582E-03   -0.13577E-03 11960   0.193E-01    0.951E-02
DAV:   8    -0.192224265283E+03    0.55439E-04   -0.34858E-04  8720   0.135E-01
  52 F= -.19222427E+03 E0= -.19213627E+03  d E =-.357931E-01
       N       E                     dE             d eps       ncg     rms          rms(c)
DAV:   1    -0.192232473863E+03   -0.81531E-02   -0.14848E+00  8160   0.260E+00    0.377E-01
DAV:   2    -0.192251493049E+03   -0.19019E-01   -0.77552E-02 11640   0.150E+00    0.121E+00
DAV:   3    -0.192235150114E+03    0.16343E-01   -0.24576E-02 12000   0.128E+00    0.247E-01
DAV:   4    -0.192235352736E+03   -0.20262E-03   -0.29498E-03 11280   0.419E-01    0.280E-01
DAV:   5    -0.192234440202E+03    0.91253E-03   -0.15036E-03 11960   0.362E-01    0.107E-01
DAV:   6    -0.192234414031E+03    0.26171E-04   -0.65249E-04 10520   0.158E-01
  53 F= -.19223441E+03 E0= -.19214772E+03  d E =-.101487E-01
       N       E                     dE             d eps       ncg     rms          rms(c)
DAV:   1    -0.192235981861E+03   -0.15417E-02   -0.51635E-02  8160   0.532E-01    0.156E-01
DAV:   2    -0.192240034724E+03   -0.40529E-02   -0.10489E-02 12160   0.787E-01    0.608E-01
DAV:   3    -0.192235812159E+03    0.42226E-02   -0.59636E-03 11000   0.642E-01    0.807E-02
DAV:   4    -0.192235851082E+03   -0.38923E-04   -0.33686E-04  8320   0.151E-01
  54 F= -.19223585E+03 E0= -.19214941E+03  d E =-.143705E-02
       N       E                     dE             d eps       ncg     rms          rms(c)
DAV:   1    -0.192238863762E+03   -0.30516E-02   -0.26474E-01  8160   0.110E+00    0.174E-01
DAV:   2    -0.192243108195E+03   -0.42444E-02   -0.15330E-02 11360   0.710E-01    0.597E-01
DAV:   3    -0.192239212284E+03    0.38959E-02   -0.54449E-03 11920   0.605E-01    0.105E-01
DAV:   4    -0.192239333775E+03   -0.12149E-03   -0.59218E-04  8920   0.213E-01    0.139E-01
DAV:   5    -0.192239098769E+03    0.23501E-03   -0.34980E-04 10160   0.181E-01    0.479E-02
DAV:   6    -0.192239118136E+03   -0.19367E-04   -0.15190E-04  6400   0.792E-02
  55 F= -.19223912E+03 E0= -.19215347E+03  d E =-.326705E-02
       N       E                     dE             d eps       ncg     rms          rms(c)
DAV:   1    -0.192241490027E+03   -0.23913E-02   -0.23559E-01  8160   0.104E+00    0.145E-01
DAV:   2    -0.192244335046E+03   -0.28450E-02   -0.13066E-02 12040   0.563E-01    0.463E-01
DAV:   3    -0.192242084223E+03    0.22508E-02   -0.36383E-03 11840   0.493E-01    0.931E-02
DAV:   4    -0.192242077136E+03    0.70871E-05   -0.27787E-04  8600   0.128E-01
  56 F= -.19224208E+03 E0= -.19215668E+03  d E =-.295900E-02
       N       E                     dE             d eps       ncg     rms          rms(c)
DAV:   1    -0.192244456100E+03   -0.23719E-02   -0.35470E-01  8160   0.127E+00    0.184E-01
DAV:   2    -0.192247276298E+03   -0.28202E-02   -0.15751E-02 11640   0.583E-01    0.472E-01
DAV:   3    -0.192245051727E+03    0.22246E-02   -0.45050E-03 12360   0.540E-01    0.149E-01
DAV:   4    -0.192244868935E+03    0.18279E-03   -0.58146E-04  9400   0.147E-01    0.821E-02
DAV:   5    -0.192244839925E+03    0.29010E-04   -0.39981E-04 10120   0.151E-01
  57 F= -.19224484E+03 E0= -.19216048E+03  d E =-.276279E-02
       N       E                     dE             d eps       ncg     rms          rms(c)
DAV:   1    -0.192244838569E+03    0.30367E-04   -0.10603E-02  8160   0.242E-01    0.852E-02
DAV:   2    -0.192245433499E+03   -0.59493E-03   -0.19013E-03 11120   0.343E-01    0.237E-01
DAV:   3    -0.192244720055E+03    0.71344E-03   -0.95247E-04 10000   0.285E-01    0.606E-02
DAV:   4    -0.192244705555E+03    0.14500E-04   -0.15243E-04  6080   0.969E-02
  58 F= -.19224471E+03 E0= -.19216009E+03  d E =0.134370E-03
       N       E                     dE             d eps       ncg     rms          rms(c)
DAV:   1    -0.192245664924E+03   -0.94487E-03   -0.71166E-02  8160   0.582E-01    0.859E-02
DAV:   2    -0.192245909085E+03   -0.24416E-03   -0.33766E-03 10920   0.218E-01    0.136E-01
DAV:   3    -0.192245810525E+03    0.98560E-04   -0.67669E-04 11080   0.207E-01
  59 F= -.19224581E+03 E0= -.19216146E+03  d E =-.110497E-02
       N       E                     dE             d eps       ncg     rms          rms(c)
DAV:   1    -0.192246452499E+03   -0.54341E-03   -0.45262E-02  8160   0.465E-01    0.837E-02
DAV:   2    -0.192247033073E+03   -0.58057E-03   -0.23623E-03 11880   0.314E-01    0.213E-01
DAV:   3    -0.192246451590E+03    0.58148E-03   -0.87038E-04 10600   0.262E-01    0.430E-02
DAV:   4    -0.192246498603E+03   -0.47014E-04   -0.13233E-04  5840   0.942E-02
  60 F= -.19224650E+03 E0= -.19216266E+03  d E =-.688078E-03
