<?xml version="1.0" encoding="ISO-8859-1"?>
<modeling>
 <generator>
  <i name="program" type="string">vasp </i>
  <i name="version" type="string">5.4.1  </i>
  <i name="subversion" type="string">05Feb16 (build Jul 05 2020 17:13:04) complex                          parallel </i>
  <i name="platform" type="string">IFC91_ompi </i>
  <i name="date" type="string">2024 04 27 </i>
  <i name="time" type="string">04:29:38 </i>
 </generator>
 <incar>
  <i type="int" name="ISTART">     0</i>
  <i type="string" name="PREC">normal</i>
  <i type="string" name="ALGO"> Normal</i>
  <i type="int" name="ISPIN">     1</i>
  <i type="int" name="ICHARG">     2</i>
  <i type="int" name="IBRION">     1</i>
  <i type="int" name="NSW">   100</i>
  <i type="int" name="ISIF">     3</i>
  <i type="int" name="ISYM">     0</i>
  <i name="SYMPREC">      0.00000001</i>
  <i name="POTIM">      0.50000000</i>
  <i type="logical" name="LREAL"> F  </i>
  <i type="logical" name="LPLANE"> F  </i>
  <i type="int" name="ISMEAR">     0</i>
  <i type="logical" name="LWAVE"> F  </i>
  <i type="logical" name="LCHARG"> F  </i>
  <v type="int" name="KPOINT_BSE">    -1     0     0     0</v>
 </incar>
 <kpoints>
  <generation param="Gamma">
   <v type="int" name="divisions">       8        8        1 </v>
   <v name="usershift">      0.00000000       0.00000000       0.00000000 </v>
   <v name="genvec1">      0.12500000       0.00000000       0.00000000 </v>
   <v name="genvec2">     -0.00000000       0.12500000       0.00000000 </v>
   <v name="genvec3">      0.00000000       0.00000000       1.00000000 </v>
   <v name="shift">      0.00000000       0.00000000       0.00000000 </v>
  </generation>
  <varray name="kpointlist" >
   <v>       0.00000000       0.00000000       0.00000000 </v>
   <v>       0.12500000       0.00000000       0.00000000 </v>
   <v>       0.25000000       0.00000000       0.00000000 </v>
   <v>       0.37500000       0.00000000       0.00000000 </v>
   <v>       0.50000000       0.00000000       0.00000000 </v>
   <v>       0.00000000       0.12500000       0.00000000 </v>
   <v>       0.12500000       0.12500000       0.00000000 </v>
   <v>       0.25000000       0.12500000       0.00000000 </v>
   <v>       0.37500000       0.12500000       0.00000000 </v>
   <v>       0.50000000       0.12500000       0.00000000 </v>
   <v>      -0.37500000       0.12500000       0.00000000 </v>
   <v>      -0.25000000       0.12500000       0.00000000 </v>
   <v>      -0.12500000       0.12500000       0.00000000 </v>
   <v>       0.00000000       0.25000000       0.00000000 </v>
   <v>       0.12500000       0.25000000       0.00000000 </v>
   <v>       0.25000000       0.25000000       0.00000000 </v>
   <v>       0.37500000       0.25000000       0.00000000 </v>
   <v>       0.50000000       0.25000000       0.00000000 </v>
   <v>      -0.37500000       0.25000000       0.00000000 </v>
   <v>      -0.25000000       0.25000000       0.00000000 </v>
   <v>      -0.12500000       0.25000000       0.00000000 </v>
   <v>      -0.00000000       0.37500000       0.00000000 </v>
   <v>       0.12500000       0.37500000       0.00000000 </v>
   <v>       0.25000000       0.37500000       0.00000000 </v>
   <v>       0.37500000       0.37500000       0.00000000 </v>
   <v>       0.50000000       0.37500000       0.00000000 </v>
   <v>      -0.37500000       0.37500000       0.00000000 </v>
   <v>      -0.25000000       0.37500000       0.00000000 </v>
   <v>      -0.12500000       0.37500000       0.00000000 </v>
   <v>       0.00000000       0.50000000       0.00000000 </v>
   <v>       0.12500000       0.50000000       0.00000000 </v>
   <v>       0.25000000       0.50000000       0.00000000 </v>
   <v>       0.37500000       0.50000000       0.00000000 </v>
   <v>       0.50000000       0.50000000       0.00000000 </v>
  </varray>
  <varray name="weights" >
   <v>       0.01562500 </v>
   <v>       0.03125000 </v>
   <v>       0.03125000 </v>
   <v>       0.03125000 </v>
   <v>       0.01562500 </v>
   <v>       0.03125000 </v>
   <v>       0.03125000 </v>
   <v>       0.03125000 </v>
   <v>       0.03125000 </v>
   <v>       0.03125000 </v>
   <v>       0.03125000 </v>
   <v>       0.03125000 </v>
   <v>       0.03125000 </v>
   <v>       0.03125000 </v>
   <v>       0.03125000 </v>
   <v>       0.03125000 </v>
   <v>       0.03125000 </v>
   <v>       0.03125000 </v>
   <v>       0.03125000 </v>
   <v>       0.03125000 </v>
   <v>       0.03125000 </v>
   <v>       0.03125000 </v>
   <v>       0.03125000 </v>
   <v>       0.03125000 </v>
   <v>       0.03125000 </v>
   <v>       0.03125000 </v>
   <v>       0.03125000 </v>
   <v>       0.03125000 </v>
   <v>       0.03125000 </v>
   <v>       0.01562500 </v>
   <v>       0.03125000 </v>
   <v>       0.03125000 </v>
   <v>       0.03125000 </v>
   <v>       0.01562500 </v>
  </varray>
 </kpoints>
 <parameters>
  <separator name="general" >
   <i type="string" name="SYSTEM">unknown system</i>
   <i type="logical" name="LCOMPAT"> F  </i>
  </separator>
  <separator name="electronic" >
   <i type="string" name="PREC">normal</i>
   <i name="ENMAX">    280.00000000</i>
   <i name="ENAUG">    373.43800000</i>
   <i name="EDIFF">      0.00010000</i>
   <i type="int" name="IALGO">    38</i>
   <i type="int" name="IWAVPR">    11</i>
   <i type="int" name="NBANDS">   120</i>
   <i name="NELECT">    159.00000000</i>
   <i type="int" name="TURBO">     0</i>
   <i type="int" name="IRESTART">     0</i>
   <i type="int" name="NREBOOT">     0</i>
   <i type="int" name="NMIN">     0</i>
   <i name="EREF">      0.00000000</i>
   <separator name="electronic smearing" >
    <i type="int" name="ISMEAR">     0</i>
    <i name="SIGMA">      0.20000000</i>
    <i name="KSPACING">      0.50000000</i>
    <i type="logical" name="KGAMMA"> T  </i>
   </separator>
   <separator name="electronic projectors" >
    <i type="logical" name="LREAL"> F  </i>
    <v name="ROPT">      0.00000000      0.00000000      0.00000000      0.00000000</v>
    <i type="int" name="LMAXPAW">  -100</i>
    <i type="int" name="LMAXMIX">     2</i>
    <i type="logical" name="NLSPLINE"> F  </i>
   </separator>
   <separator name="electronic startup" >
    <i type="int" name="ISTART">     0</i>
    <i type="int" name="ICHARG">     2</i>
    <i type="int" name="INIWAV">     1</i>
   </separator>
   <separator name="electronic spin" >
    <i type="int" name="ISPIN">     1</i>
    <i type="logical" name="LNONCOLLINEAR"> F  </i>
    <v name="MAGMOM">      1.00000000      1.00000000      1.00000000      1.00000000      1.00000000      1.00000000      1.00000000      1.00000000      1.00000000      1.00000000      1.00000000      1.00000000      1.00000000      1.00000000      1.00000000      1.00000000      1.00000000      1.00000000      1.00000000      1.00000000
      1.00000000      1.00000000      1.00000000      1.00000000      1.00000000      1.00000000      1.00000000</v>
    <i name="NUPDOWN">     -1.00000000</i>
    <i type="logical" name="LSORBIT"> F  </i>
    <v name="SAXIS">      0.00000000      0.00000000      1.00000000</v>
    <i type="logical" name="LSPIRAL"> F  </i>
    <v name="QSPIRAL">      0.00000000      0.00000000      0.00000000</v>
    <i type="logical" name="LZEROZ"> F  </i>
   </separator>
   <separator name="electronic exchange-correlation" >
    <i type="logical" name="LASPH"> F  </i>
    <i type="logical" name="LMETAGGA"> F  </i>
   </separator>
   <separator name="electronic convergence" >
    <i type="int" name="NELM">    60</i>
    <i type="int" name="NELMDL">    -5</i>
    <i type="int" name="NELMIN">     2</i>
    <i name="ENINI">    280.00000000</i>
    <separator name="electronic convergence detail" >
     <i type="logical" name="LDIAG"> T  </i>
     <i type="logical" name="LSUBROT"> F  </i>
     <i name="WEIMIN">      0.00100000</i>
     <i name="EBREAK">      0.00000021</i>
     <i name="DEPER">      0.30000000</i>
     <i type="int" name="NRMM">     4</i>
     <i name="TIME">      0.40000000</i>
    </separator>
   </separator>
   <separator name="electronic mixer" >
    <i name="AMIX">      0.40000000</i>
    <i name="BMIX">      1.00000000</i>
    <i name="AMIN">      0.10000000</i>
    <i name="AMIX_MAG">      1.60000000</i>
    <i name="BMIX_MAG">      1.00000000</i>
    <separator name="electronic mixer details" >
     <i type="int" name="IMIX">     4</i>
     <i type="logical" name="MIXFIRST"> F  </i>
     <i type="int" name="MAXMIX">   -45</i>
     <i name="WC">    100.00000000</i>
     <i type="int" name="INIMIX">     1</i>
     <i type="int" name="MIXPRE">     1</i>
     <i type="int" name="MREMOVE">     5</i>
    </separator>
   </separator>
   <separator name="electronic dipolcorrection" >
    <i type="logical" name="LDIPOL"> F  </i>
    <i type="logical" name="LMONO"> F  </i>
    <i type="int" name="IDIPOL">     0</i>
    <i name="EPSILON">      1.00000000</i>
    <v name="DIPOL">   -100.00000000   -100.00000000   -100.00000000</v>
    <i name="EFIELD">      0.00000000</i>
   </separator>
  </separator>
  <separator name="grids" >
   <i type="int" name="NGX">    42</i>
   <i type="int" name="NGY">    42</i>
   <i type="int" name="NGZ">   126</i>
   <i type="int" name="NGXF">    84</i>
   <i type="int" name="NGYF">    84</i>
   <i type="int" name="NGZF">   252</i>
   <i type="logical" name="ADDGRID"> F  </i>
  </separator>
  <separator name="ionic" >
   <i type="int" name="NSW">   100</i>
   <i type="int" name="IBRION">     1</i>
   <i type="int" name="ISIF">     3</i>
   <i name="PSTRESS">      0.00000000</i>
   <i name="EDIFFG">      0.00100000</i>
   <i type="int" name="NFREE">     0</i>
   <i name="POTIM">      0.50000000</i>
   <i name="SMASS">     -3.00000000</i>
   <i name="SCALEE">      1.00000000</i>
  </separator>
  <separator name="ionic md" >
   <i name="TEBEG">      0.00010000</i>
   <i name="TEEND">      0.00010000</i>
   <i type="int" name="NBLOCK">     1</i>
   <i type="int" name="KBLOCK">   100</i>
   <i type="int" name="NPACO">   256</i>
   <i name="APACO">     16.00000000</i>
  </separator>
  <separator name="symmetry" >
   <i type="int" name="ISYM">     0</i>
   <i name="SYMPREC">      0.00000001</i>
  </separator>
  <separator name="dos" >
   <i type="logical" name="LORBIT"> F  </i>
   <v name="RWIGS">     -1.00000000     -1.00000000     -1.00000000     -1.00000000</v>
   <i type="int" name="NEDOS">   301</i>
   <i name="EMIN">     10.00000000</i>
   <i name="EMAX">    -10.00000000</i>
   <i name="EFERMI">      0.00000000</i>
  </separator>
  <separator name="writing" >
   <i type="int" name="NWRITE">     2</i>
   <i type="logical" name="LWAVE"> F  </i>
   <i type="logical" name="LCHARG"> F  </i>
   <i type="logical" name="LPARD"> F  </i>
   <i type="logical" name="LVTOT"> F  </i>
   <i type="logical" name="LVHAR"> F  </i>
   <i type="logical" name="LELF"> F  </i>
   <i type="logical" name="LOPTICS"> F  </i>
   <v name="STM">      0.00000000      0.00000000      0.00000000      0.00000000      0.00000000      0.00000000      0.00000000</v>
  </separator>
  <separator name="performance" >
   <i type="int" name="NPAR">    40</i>
   <i type="int" name="NSIM">     4</i>
   <i type="int" name="NBLK">    -1</i>
   <i type="logical" name="LPLANE"> F  </i>
   <i type="logical" name="LSCALAPACK"> T  </i>
   <i type="logical" name="LSCAAWARE"> F  </i>
   <i type="logical" name="LSCALU"> F  </i>
   <i type="logical" name="LASYNC"> F  </i>
   <i type="logical" name="LORBITALREAL"> F  </i>
  </separator>
  <separator name="miscellaneous" >
   <i type="int" name="IDIOT">     3</i>
   <i type="logical" name="LMUSIC"> F  </i>
   <v name="POMASS">     50.94100000     95.94000000    183.85000000     32.06600000</v>
   <v name="DARWINR">      0.00000000      0.00000000      0.00000000      0.00000000</v>
   <v name="DARWINV">      1.00000000      1.00000000      1.00000000      1.00000000</v>
   <i type="logical" name="LCORR"> T  </i>
  </separator>
  <i type="logical" name="GGA_COMPAT"> T  </i>
  <i type="logical" name="LBERRY"> F  </i>
  <i type="int" name="ICORELEVEL">     0</i>
  <i type="logical" name="LDAU"> F  </i>
  <i type="int" name="I_CONSTRAINED_M">     0</i>
  <separator name="electronic exchange-correlation" >
   <i type="string" name="GGA">--</i>
   <i type="int" name="VOSKOWN">     0</i>
   <i type="logical" name="LHFCALC"> F  </i>
   <i type="string" name="PRECFOCK"></i>
   <i type="logical" name="LSYMGRAD"> F  </i>
   <i type="logical" name="LHFONE"> F  </i>
   <i type="logical" name="LRHFCALC"> F  </i>
   <i type="logical" name="LTHOMAS"> F  </i>
   <i type="logical" name="LMODELHF"> F  </i>
   <i name="ENCUT4O">     -1.00000000</i>
   <i type="int" name="EXXOEP">     0</i>
   <i type="int" name="FOURORBIT">     0</i>
   <i name="AEXX">      0.00000000</i>
   <i name="HFALPHA">      0.00000000</i>
   <i name="MCALPHA">      0.00000000</i>
   <i name="ALDAX">      1.00000000</i>
   <i name="AGGAX">      1.00000000</i>
   <i name="ALDAC">      1.00000000</i>
   <i name="AGGAC">      1.00000000</i>
   <i type="int" name="NKREDX">     1</i>
   <i type="int" name="NKREDY">     1</i>
   <i type="int" name="NKREDZ">     1</i>
   <i type="logical" name="SHIFTRED"> F  </i>
   <i type="logical" name="ODDONLY"> F  </i>
   <i type="logical" name="EVENONLY"> F  </i>
   <i type="int" name="LMAXFOCK">     0</i>
   <i type="int" name="NMAXFOCKAE">     0</i>
   <i type="logical" name="LFOCKAEDFT"> F  </i>
   <i name="HFSCREEN">      0.00000000</i>
   <i name="HFSCREENC">      0.00000000</i>
   <i type="int" name="NBANDSGWLOW">     0</i>
  </separator>
  <separator name="vdW DFT" >
   <i type="logical" name="LUSE_VDW"> F  </i>
   <i name="Zab_VDW">     -0.84910000</i>
   <i name="PARAM1">      0.12340000</i>
   <i name="PARAM2">      1.00000000</i>
   <i name="PARAM3">      0.00000000</i>
  </separator>
  <separator name="model GW" >
   <i type="int" name="MODEL_GW">     0</i>
   <i name="MODEL_EPS0">     58.26239943</i>
   <i name="MODEL_ALPHA">      1.00000000</i>
  </separator>
  <separator name="linear response parameters" >
   <i type="logical" name="LEPSILON"> F  </i>
   <i type="logical" name="LRPA"> F  </i>
   <i type="logical" name="LNABLA"> F  </i>
   <i type="logical" name="LVEL"> F  </i>
   <i type="int" name="KINTER">     0</i>
   <i name="CSHIFT">      0.10000000</i>
   <i name="OMEGAMAX">     -1.00000000</i>
   <i name="DEG_THRESHOLD">      0.00200000</i>
  </separator>
  <separator name="orbital magnetization" >
   <i type="logical" name="NUCIND"> F  </i>
   <v name="MAGPOS">      0.00000000      0.00000000      0.00000000</v>
   <i type="logical" name="LNICSALL"> T  </i>
   <i type="logical" name="ORBITALMAG"> F  </i>
   <i type="logical" name="LMAGBLOCH"> F  </i>
   <i type="logical" name="LCHIMAG"> F  </i>
   <i type="logical" name="LGAUGE"> T  </i>
   <i type="int" name="MAGATOM">     0</i>
   <v name="MAGDIPOL">      0.00000000      0.00000000      0.00000000</v>
   <v name="AVECCONST">      0.00000000      0.00000000      0.00000000</v>
  </separator>
  <separator name="response functions" >
   <i type="logical" name="LADDER"> F  </i>
   <i type="logical" name="LFXC"> F  </i>
   <i type="logical" name="LHARTREE"> T  </i>
   <i type="int" name="IBSE">     0</i>
   <v type="int" name="KPOINT">    -1     0     0     0</v>
   <i type="logical" name="LTCTE"> F  </i>
   <i type="logical" name="LTETE"> F  </i>
   <i type="logical" name="LTRIPLET"> F  </i>
   <i type="logical" name="LFXCEPS"> F  </i>
   <i type="logical" name="LFXHEG"> F  </i>
   <i type="int" name="NATURALO">     0</i>
   <i type="logical" name="L2ORDER"> F  </i>
   <i type="logical" name="LUSEW"> F  </i>
   <i name="ENCUTGW">     -2.00000000</i>
   <i name="ENCUTGWSOFT">     -2.00000000</i>
   <i name="ENCUTLF">     -1.00000000</i>
   <i type="int" name="LMAXMP2">    -1</i>
   <i name="SCISSOR">      0.00000000</i>
   <i type="int" name="NOMEGA">     0</i>
   <i type="int" name="NOMEGAR">     0</i>
   <i type="int" name="NBANDSGW">    -1</i>
   <i type="int" name="NBANDSO">    -1</i>
   <i type="int" name="NBANDSV">    -1</i>
   <i type="int" name="NELM">     1</i>
   <i type="int" name="NELMHF">     1</i>
   <i type="int" name="DIM">     3</i>
   <i type="int" name="ANTIRES">     0</i>
   <i name="OMEGAMAX">    -30.00000000</i>
   <i name="OMEGAMIN">    -30.00000000</i>
   <i name="OMEGATL">   -200.00000000</i>
   <i type="int" name="OMEGAGRID">     0</i>
   <i name="CSHIFT">     -0.10000000</i>
   <i type="logical" name="SELFENERGY"> F  </i>
   <i type="logical" name="LSPECTRAL"> F  </i>
   <i type="logical" name="LSPECTRALGW"> F  </i>
   <i type="logical" name="LSINGLES"> F  </i>
   <i type="logical" name="LFERMIGW"> F  </i>
   <i type="logical" name="ODDONLYGW"> F  </i>
   <i type="logical" name="EVENONLYGW"> F  </i>
   <i type="int" name="NKREDLFX">     1</i>
   <i type="int" name="NKREDLFY">     1</i>
   <i type="int" name="NKREDLFZ">     1</i>
   <i type="int" name="MAXMEM">  1800</i>
   <i type="int" name="TELESCOPE">     0</i>
   <i type="int" name="TAUPAR">     1</i>
   <i type="int" name="OMEGAPAR">    -1</i>
   <i name="LAMBDA">      1.00000000</i>
  </separator>
  <separator name="External order field" >
   <i name="OFIELD_KAPPA">      0.00000000</i>
   <v name="OFIELD_K">      0.00000000      0.00000000      0.00000000</v>
   <i name="OFIELD_Q6_NEAR">      0.00000000</i>
   <i name="OFIELD_Q6_FAR">      0.00000000</i>
   <i name="OFIELD_A">      0.00000000</i>
  </separator>
 </parameters>
 <atominfo>
  <atoms>      27 </atoms>
  <types>       4 </types>
  <array name="atoms" >
   <dimension dim="1">ion</dimension>
   <field type="string">element</field>
   <field type="int">atomtype</field>
   <set>
    <rc><c>V </c><c>   1</c></rc>
    <rc><c>V </c><c>   1</c></rc>
    <rc><c>V </c><c>   1</c></rc>
    <rc><c>Mo</c><c>   2</c></rc>
    <rc><c>Mo</c><c>   2</c></rc>
    <rc><c>Mo</c><c>   2</c></rc>
    <rc><c>W </c><c>   3</c></rc>
    <rc><c>W </c><c>   3</c></rc>
    <rc><c>W </c><c>   3</c></rc>
    <rc><c>S </c><c>   4</c></rc>
    <rc><c>S </c><c>   4</c></rc>
    <rc><c>S </c><c>   4</c></rc>
    <rc><c>S </c><c>   4</c></rc>
    <rc><c>S </c><c>   4</c></rc>
    <rc><c>S </c><c>   4</c></rc>
    <rc><c>S </c><c>   4</c></rc>
    <rc><c>S </c><c>   4</c></rc>
    <rc><c>S </c><c>   4</c></rc>
    <rc><c>S </c><c>   4</c></rc>
    <rc><c>S </c><c>   4</c></rc>
    <rc><c>S </c><c>   4</c></rc>
    <rc><c>S </c><c>   4</c></rc>
    <rc><c>S </c><c>   4</c></rc>
    <rc><c>S </c><c>   4</c></rc>
    <rc><c>S </c><c>   4</c></rc>
    <rc><c>S </c><c>   4</c></rc>
    <rc><c>S </c><c>   4</c></rc>
   </set>
  </array>
  <array name="atomtypes" >
   <dimension dim="1">type</dimension>
   <field type="int">atomspertype</field>
   <field type="string">element</field>
   <field>mass</field>
   <field>valence</field>
   <field type="string">pseudopotential</field>
   <set>
    <rc><c>   3</c><c>V </c><c>     50.94100000</c><c>      5.00000000</c><c> PAW_PBE V 08Apr2002                    </c></rc>
    <rc><c>   3</c><c>Mo</c><c>     95.94000000</c><c>      6.00000000</c><c> PAW_PBE Mo 08Apr2002                   </c></rc>
    <rc><c>   3</c><c>W </c><c>    183.85000000</c><c>      6.00000000</c><c> PAW_PBE W 08Apr2002                    </c></rc>
    <rc><c>  18</c><c>S </c><c>     32.06600000</c><c>      6.00000000</c><c>  PAW_PBE S 17Jan2003                   </c></rc>
   </set>
  </array>
 </atominfo>
 <structure name="initialpos" >
  <crystal>
   <varray name="basis" >
    <v>       8.66999996       5.03999989       0.00000000 </v>
    <v>      -8.66999982       5.04000013       0.00000000 </v>
    <v>       0.00000000       0.00000000      30.00000000 </v>
   </varray>
   <i name="volume">   2621.80797419 </i>
   <varray name="rec_basis" >
    <v>       0.05767013       0.09920635       0.00000000 </v>
    <v>      -0.05767013       0.09920635       0.00000000 </v>
    <v>       0.00000000       0.00000000       0.03333333 </v>
   </varray>
  </crystal>
  <varray name="positions" >
   <v>       0.00000000       0.66666669       0.00000000 </v>
   <v>       0.66666669       0.00000000       0.00000000 </v>
   <v>       0.33333334       0.66666669       0.00000000 </v>
   <v>       0.66666669       0.33333334       0.00000000 </v>
   <v>       0.00000000       0.00000000       0.00000000 </v>
   <v>       0.33333334       0.33333334       0.00000000 </v>
   <v>       1.00000000       0.33333334       0.00000000 </v>
   <v>       0.33333334       0.00000000       0.00000000 </v>
   <v>       0.66666669       0.66666669       0.00000000 </v>
   <v>       0.11068511       0.22244981       0.95539999 </v>
   <v>       0.22244981       0.11068511       0.04460000 </v>
   <v>       0.11068511       0.55578315       0.95539999 </v>
   <v>       0.22244981       0.44401845       0.04460000 </v>
   <v>       0.11068511       0.88911647       0.95539999 </v>
   <v>       0.22244981       0.77735180       0.04460000 </v>
   <v>       0.44401845       0.22244981       0.95539999 </v>
   <v>       0.55578315       0.11068511       0.04460000 </v>
   <v>       0.44401845       0.55578315       0.95539999 </v>
   <v>       0.55578315       0.44401845       0.04460000 </v>
   <v>       0.44401845       0.88911647       0.95539999 </v>
   <v>       0.55578315       0.77735180       0.04460000 </v>
   <v>       0.77735180       0.22244981       0.95539999 </v>
   <v>       0.88911647       0.11068511       0.04460000 </v>
   <v>       0.77735180       0.55578315       0.95539999 </v>
   <v>       0.88911647       0.44401845       0.04460000 </v>
   <v>       0.77735180       0.88911647       0.95539999 </v>
   <v>       0.88911647       0.77735180       0.04460000 </v>
  </varray>
 </structure>
 <calculation>
  <scstep>
   <time name="dav">   23.00   23.06</time>
   <time name="total">   23.05   23.11</time>
   <energy>
    <i name="alphaZ">     81.65567618 </i>
    <i name="ewald">  41890.23009643 </i>
    <i name="hartreedc"> -47722.84936371 </i>
    <i name="XCdc">   -242.93160847 </i>
    <i name="pawpsdc">   3467.42045192 </i>
    <i name="pawaedc">  -2871.19716117 </i>
    <i name="eentropy">     -0.53849980 </i>
    <i name="bandstr">   -238.92842162 </i>
    <i name="atom">   6761.44252427 </i>
    <i name="e_fr_energy">   1124.30369404 </i>
    <i name="e_wo_entrp">   1124.84219383 </i>
    <i name="e_0_energy">   1124.57294393 </i>
   </energy>
  </scstep>
  <scstep>
   <time name="dav">   29.14   29.21</time>
   <time name="total">   29.14   29.22</time>
   <energy>
    <i name="e_fr_energy">     -2.54437805 </i>
    <i name="e_wo_entrp">     -2.39059749 </i>
    <i name="e_0_energy">     -2.46748777 </i>
   </energy>
  </scstep>
  <scstep>
   <time name="dav">   29.05   29.12</time>
   <time name="total">   29.05   29.12</time>
   <energy>
    <i name="e_fr_energy">   -199.42678559 </i>
    <i name="e_wo_entrp">   -199.15550085 </i>
    <i name="e_0_energy">   -199.29114322 </i>
   </energy>
  </scstep>
  <scstep>
   <time name="dav">   31.84   31.91</time>
   <time name="total">   31.84   31.92</time>
   <energy>
    <i name="e_fr_energy">   -208.93891590 </i>
    <i name="e_wo_entrp">   -208.64088419 </i>
    <i name="e_0_energy">   -208.78990005 </i>
   </energy>
  </scstep>
  <scstep>
   <time name="dav">   30.65   30.73</time>
   <time name="total">   31.12   31.20</time>
   <energy>
    <i name="e_fr_energy">   -209.27287833 </i>
    <i name="e_wo_entrp">   -208.97845263 </i>
    <i name="e_0_energy">   -209.12566548 </i>
   </energy>
  </scstep>
  <scstep>
   <time name="dav">   32.92   33.00</time>
   <time name="total">   33.42   33.51</time>
   <energy>
    <i name="e_fr_energy">   -237.42825440 </i>
    <i name="e_wo_entrp">   -237.14219668 </i>
    <i name="e_0_energy">   -237.28522554 </i>
   </energy>
  </scstep>
  <scstep>
   <time name="dav">   34.25   34.33</time>
   <time name="total">   34.76   34.85</time>
   <energy>
    <i name="e_fr_energy">   -196.70966270 </i>
    <i name="e_wo_entrp">   -196.38238741 </i>
    <i name="e_0_energy">   -196.54602505 </i>
   </energy>
  </scstep>
  <scstep>
   <time name="dav">   30.22   30.29</time>
   <time name="total">   30.73   30.81</time>
   <energy>
    <i name="e_fr_energy">   -190.35888434 </i>
    <i name="e_wo_entrp">   -190.09373580 </i>
    <i name="e_0_energy">   -190.22631007 </i>
   </energy>
  </scstep>
  <scstep>
   <time name="dav">   31.28   31.35</time>
   <time name="total">   31.80   31.88</time>
   <energy>
    <i name="e_fr_energy">   -188.34438069 </i>
    <i name="e_wo_entrp">   -188.02171771 </i>
    <i name="e_0_energy">   -188.18304920 </i>
   </energy>
  </scstep>
  <scstep>
   <time name="dav">   34.10   34.18</time>
   <time name="total">   34.64   34.73</time>
   <energy>
    <i name="e_fr_energy">   -187.12764182 </i>
    <i name="e_wo_entrp">   -186.78015883 </i>
    <i name="e_0_energy">   -186.95390032 </i>
   </energy>
  </scstep>
  <scstep>
   <time name="dav">   31.91   31.99</time>
   <time name="total">   32.45   32.53</time>
   <energy>
    <i name="e_fr_energy">   -187.11400364 </i>
    <i name="e_wo_entrp">   -186.77351682 </i>
    <i name="e_0_energy">   -186.94376023 </i>
   </energy>
  </scstep>
  <scstep>
   <time name="dav">   31.67   31.75</time>
   <time name="total">   32.21   32.29</time>
   <energy>
    <i name="e_fr_energy">   -187.14420782 </i>
    <i name="e_wo_entrp">   -186.81080852 </i>
    <i name="e_0_energy">   -186.97750817 </i>
   </energy>
  </scstep>
  <scstep>
   <time name="dav">   33.90   33.98</time>
   <time name="total">   34.44   34.53</time>
   <energy>
    <i name="e_fr_energy">   -186.99050261 </i>
    <i name="e_wo_entrp">   -186.65534786 </i>
    <i name="e_0_energy">   -186.82292524 </i>
   </energy>
  </scstep>
  <scstep>
   <time name="dav">   33.60   33.68</time>
   <time name="total">   34.14   34.23</time>
   <energy>
    <i name="e_fr_energy">   -186.95792739 </i>
    <i name="e_wo_entrp">   -186.61463299 </i>
    <i name="e_0_energy">   -186.78628019 </i>
   </energy>
  </scstep>
  <scstep>
   <time name="dav">   33.26   33.34</time>
   <time name="total">   33.80   33.88</time>
   <energy>
    <i name="e_fr_energy">   -186.95688355 </i>
    <i name="e_wo_entrp">   -186.61367253 </i>
    <i name="e_0_energy">   -186.78527804 </i>
   </energy>
  </scstep>
  <scstep>
   <time name="dav">   34.73   34.81</time>
   <time name="total">   35.27   35.36</time>
   <energy>
    <i name="e_fr_energy">   -186.95353858 </i>
    <i name="e_wo_entrp">   -186.61066176 </i>
    <i name="e_0_energy">   -186.78210017 </i>
   </energy>
  </scstep>
  <scstep>
   <time name="dav">   33.22   33.30</time>
   <time name="total">   33.76   33.84</time>
   <energy>
    <i name="e_fr_energy">   -186.95150577 </i>
    <i name="e_wo_entrp">   -186.61028127 </i>
    <i name="e_0_energy">   -186.78089352 </i>
   </energy>
  </scstep>
  <scstep>
   <time name="dav">   31.29   31.37</time>
   <time name="total">   31.83   31.91</time>
   <energy>
    <i name="e_fr_energy">   -186.95123469 </i>
    <i name="e_wo_entrp">   -186.60947880 </i>
    <i name="e_0_energy">   -186.78035675 </i>
   </energy>
  </scstep>
  <scstep>
   <time name="dav">   24.55   24.61</time>
   <time name="total">   24.58   24.65</time>
   <energy>
    <i name="alphaZ">     81.65567618 </i>
    <i name="ewald">  41890.23009643 </i>
    <i name="hartreedc"> -47818.43715085 </i>
    <i name="XCdc">   -231.67365090 </i>
    <i name="pawpsdc">   4194.37348152 </i>
    <i name="pawaedc">  -3612.43659137 </i>
    <i name="eentropy">     -0.34179270 </i>
    <i name="bandstr">  -1451.76388913 </i>
    <i name="atom">   6761.44252427 </i>
    <i name="e_fr_energy">   -186.95129656 </i>
    <i name="e_wo_entrp">   -186.60950386 </i>
    <i name="e_0_energy">   -186.78040021 </i>
   </energy>
  </scstep>
  <structure>
   <crystal>
    <varray name="basis" >
     <v>       8.66999996       5.03999989       0.00000000 </v>
     <v>      -8.66999982       5.04000013       0.00000000 </v>
     <v>       0.00000000       0.00000000      30.00000000 </v>
    </varray>
    <i name="volume">   2621.80797419 </i>
    <varray name="rec_basis" >
     <v>       0.05767013       0.09920635       0.00000000 </v>
     <v>      -0.05767013       0.09920635       0.00000000 </v>
     <v>       0.00000000       0.00000000       0.03333333 </v>
    </varray>
   </crystal>
   <varray name="positions" >
    <v>       0.00000000       0.66666669       0.00000000 </v>
    <v>       0.66666669       0.00000000       0.00000000 </v>
    <v>       0.33333334       0.66666669       0.00000000 </v>
    <v>       0.66666669       0.33333334       0.00000000 </v>
    <v>       0.00000000       0.00000000       0.00000000 </v>
    <v>       0.33333334       0.33333334       0.00000000 </v>
    <v>       1.00000000       0.33333334       0.00000000 </v>
    <v>       0.33333334       0.00000000       0.00000000 </v>
    <v>       0.66666669       0.66666669       0.00000000 </v>
    <v>       0.11068511       0.22244981       0.95539999 </v>
    <v>       0.22244981       0.11068511       0.04460000 </v>
    <v>       0.11068511       0.55578315       0.95539999 </v>
    <v>       0.22244981       0.44401845       0.04460000 </v>
    <v>       0.11068511       0.88911647       0.95539999 </v>
    <v>       0.22244981       0.77735180       0.04460000 </v>
    <v>       0.44401845       0.22244981       0.95539999 </v>
    <v>       0.55578315       0.11068511       0.04460000 </v>
    <v>       0.44401845       0.55578315       0.95539999 </v>
    <v>       0.55578315       0.44401845       0.04460000 </v>
    <v>       0.44401845       0.88911647       0.95539999 </v>
    <v>       0.55578315       0.77735180       0.04460000 </v>
    <v>       0.77735180       0.22244981       0.95539999 </v>
    <v>       0.88911647       0.11068511       0.04460000 </v>
    <v>       0.77735180       0.55578315       0.95539999 </v>
    <v>       0.88911647       0.44401845       0.04460000 </v>
    <v>       0.77735180       0.88911647       0.95539999 </v>
    <v>       0.88911647       0.77735180       0.04460000 </v>
   </varray>
  </structure>
  <varray name="forces" >
   <v>      -0.15135928      -0.06993255      -0.07604685 </v>
   <v>       0.00097122       0.18157042       0.07482266 </v>
   <v>       0.14506835      -0.08880190       0.00195195 </v>
   <v>      -0.26451350      -0.16559262      -0.07862413 </v>
   <v>       0.00166523       0.28331184       0.07465759 </v>
   <v>       0.26980140      -0.14557540       0.00300864 </v>
   <v>       0.21545833      -0.11339748       0.00424111 </v>
   <v>      -0.40585098       0.22032416      -0.00718613 </v>
   <v>       0.20003135      -0.12663080       0.00300767 </v>
   <v>      -0.04666340       0.02940359      -2.88989014 </v>
   <v>       0.02787931      -0.00828591       2.94522133 </v>
   <v>      -0.26665210       0.52651487      -1.42561171 </v>
   <v>      -0.60425487       0.54435255       2.13523143 </v>
   <v>       0.63926463      -0.57562147      -2.14748890 </v>
   <v>       0.24168225      -0.53086605       1.38131093 </v>
   <v>       0.20730391      -0.13071293      -2.93924314 </v>
   <v>       0.70010202      -0.15654979       2.11195206 </v>
   <v>      -0.65454949       0.14221321      -2.09380494 </v>
   <v>      -0.23400131       0.14199754       2.88312151 </v>
   <v>       0.75237546       0.00025743      -1.43017463 </v>
   <v>      -0.75971003       0.01844833       1.47309814 </v>
   <v>       0.59788211      -0.54154865      -2.13668859 </v>
   <v>      -0.61569448      -0.57242160       2.19568289 </v>
   <v>       0.38059819       0.71552978      -2.20880598 </v>
   <v>      -0.36225799       0.70275306       2.10796881 </v>
   <v>      -0.65793713      -0.14799983      -2.05942698 </v>
   <v>       0.64336082      -0.13273978       2.09771541 </v>
  </varray>
  <varray name="stress" >
   <v>       7.51474342      -0.07492935      -1.56185788 </v>
   <v>      -0.07492929       4.48465082      -0.00909450 </v>
   <v>      -1.56185803      -0.00909437      31.03901856 </v>
  </varray>
  <energy>
   <i name="e_fr_energy">   -186.95129656 </i>
   <i name="e_wo_entrp">   -186.78040021 </i>
   <i name="e_0_energy">     -0.34179270 </i>
  </energy>
  <time name="totalsc">  646.60  648.30</time>
 </calculation>
 <calculation>
  <scstep>
   <time name="dav">   22.99   23.05</time>
   <time name="total">   23.54   23.60</time>
   <energy>
    <i name="alphaZ">     78.86597341 </i>
    <i name="ewald">  39351.93115672 </i>
    <i name="hartreedc"> -45300.77358560 </i>
    <i name="XCdc">   -239.12905443 </i>
    <i name="pawpsdc">   4193.09306656 </i>
    <i name="pawaedc">  -3611.13589359 </i>
    <i name="eentropy">     -0.27647322 </i>
    <i name="bandstr">  -1421.59603005 </i>
    <i name="atom">   6761.44252427 </i>
    <i name="e_fr_energy">   -187.57831593 </i>
    <i name="e_wo_entrp">   -187.30184271 </i>
    <i name="e_0_energy">   -187.44007932 </i>
   </energy>
  </scstep>
  <scstep>
   <time name="dav">   31.50   31.58</time>
   <time name="total">   32.04   32.12</time>
   <energy>
    <i name="e_fr_energy">   -189.80175482 </i>
    <i name="e_wo_entrp">   -189.44888550 </i>
    <i name="e_0_energy">   -189.62532016 </i>
   </energy>
  </scstep>
  <scstep>
   <time name="dav">   31.80   31.88</time>
   <time name="total">   32.36   32.45</time>
   <energy>
    <i name="e_fr_energy">   -189.32005820 </i>
    <i name="e_wo_entrp">   -189.05761421 </i>
    <i name="e_0_energy">   -189.18883621 </i>
   </energy>
  </scstep>
  <scstep>
   <time name="dav">   32.45   32.53</time>
   <time name="total">   33.00   33.08</time>
   <energy>
    <i name="e_fr_energy">   -188.82997749 </i>
    <i name="e_wo_entrp">   -188.54999645 </i>
    <i name="e_0_energy">   -188.68998697 </i>
   </energy>
  </scstep>
  <scstep>
   <time name="dav">   31.02   31.10</time>
   <time name="total">   31.57   31.65</time>
   <energy>
    <i name="e_fr_energy">   -188.91379329 </i>
    <i name="e_wo_entrp">   -188.63032791 </i>
    <i name="e_0_energy">   -188.77206060 </i>
   </energy>
  </scstep>
  <scstep>
   <time name="dav">   31.63   31.71</time>
   <time name="total">   32.18   32.26</time>
   <energy>
    <i name="e_fr_energy">   -188.84030813 </i>
    <i name="e_wo_entrp">   -188.55680029 </i>
    <i name="e_0_energy">   -188.69855421 </i>
   </energy>
  </scstep>
  <scstep>
   <time name="dav">   32.09   32.16</time>
   <time name="total">   32.64   32.73</time>
   <energy>
    <i name="e_fr_energy">   -188.74222160 </i>
    <i name="e_wo_entrp">   -188.46474127 </i>
    <i name="e_0_energy">   -188.60348144 </i>
   </energy>
  </scstep>
  <scstep>
   <time name="dav">   30.41   30.48</time>
   <time name="total">   30.96   31.05</time>
   <energy>
    <i name="e_fr_energy">   -188.74132094 </i>
    <i name="e_wo_entrp">   -188.46409196 </i>
    <i name="e_0_energy">   -188.60270645 </i>
   </energy>
  </scstep>
  <scstep>
   <time name="dav">   30.08   30.15</time>
   <time name="total">   30.62   30.71</time>
   <energy>
    <i name="e_fr_energy">   -188.72710722 </i>
    <i name="e_wo_entrp">   -188.44877007 </i>
    <i name="e_0_energy">   -188.58793865 </i>
   </energy>
  </scstep>
  <scstep>
   <time name="dav">   29.31   29.38</time>
   <time name="total">   29.85   29.93</time>
   <energy>
    <i name="e_fr_energy">   -188.72416366 </i>
    <i name="e_wo_entrp">   -188.44686427 </i>
    <i name="e_0_energy">   -188.58551397 </i>
   </energy>
  </scstep>
  <scstep>
   <time name="dav">   31.28   31.35</time>
   <time name="total">   31.83   31.91</time>
   <energy>
    <i name="e_fr_energy">   -188.72392870 </i>
    <i name="e_wo_entrp">   -188.44736906 </i>
    <i name="e_0_energy">   -188.58564888 </i>
   </energy>
  </scstep>
  <scstep>
   <time name="dav">   28.75   28.82</time>
   <time name="total">   29.30   29.38</time>
   <energy>
    <i name="e_fr_energy">   -188.72389389 </i>
    <i name="e_wo_entrp">   -188.44738583 </i>
    <i name="e_0_energy">   -188.58563986 </i>
   </energy>
  </scstep>
  <scstep>
   <time name="dav">   18.53   18.58</time>
   <time name="total">   19.08   19.13</time>
   <energy>
    <i name="e_fr_energy">   -188.72405266 </i>
    <i name="e_wo_entrp">   -188.44741991 </i>
    <i name="e_0_energy">   -188.58573628 </i>
   </energy>
  </scstep>
  <scstep>
   <time name="dav">   20.50   20.55</time>
   <time name="total">   21.05   21.11</time>
   <energy>
    <i name="e_fr_energy">   -188.72422095 </i>
    <i name="e_wo_entrp">   -188.44755882 </i>
    <i name="e_0_energy">   -188.58588988 </i>
   </energy>
  </scstep>
  <scstep>
   <time name="dav">   18.92   18.97</time>
   <time name="total">   18.96   19.01</time>
   <energy>
    <i name="alphaZ">     78.86597341 </i>
    <i name="ewald">  39351.93115672 </i>
    <i name="hartreedc"> -45317.57281123 </i>
    <i name="XCdc">   -238.00716261 </i>
    <i name="pawpsdc">   3948.46535666 </i>
    <i name="pawaedc">  -3362.97213313 </i>
    <i name="eentropy">     -0.27670041 </i>
    <i name="bandstr">  -1410.60052071 </i>
    <i name="atom">   6761.44252427 </i>
    <i name="e_fr_energy">   -188.72431701 </i>
    <i name="e_wo_entrp">   -188.44761660 </i>
    <i name="e_0_energy">   -188.58596681 </i>
   </energy>
  </scstep>
  <structure>
   <crystal>
    <varray name="basis" >
     <v>       8.85939403       5.10418757       0.00000000 </v>
     <v>      -8.86160224       5.10798672       0.00000000 </v>
     <v>       0.00000000       0.00000000      30.00000000 </v>
    </varray>
    <i name="volume">   2714.54841271 </i>
    <varray name="rec_basis" >
     <v>       0.05645123       0.09793455       0.00000000 </v>
     <v>      -0.05640925       0.09791014       0.00000000 </v>
     <v>       0.00000000       0.00000000       0.03333333 </v>
    </varray>
   </crystal>
   <varray name="positions" >
    <v>      -0.00075580       0.66675310      -0.00012229 </v>
    <v>       0.66753838       0.00086629       0.00012032 </v>
    <v>       0.33331194       0.66583808       0.00000314 </v>
    <v>       0.66513825       0.33327674      -0.00012643 </v>
    <v>       0.00136056       0.00135129       0.00012006 </v>
    <v>       0.33338725       0.33188599       0.00000484 </v>
    <v>       1.00005672       0.33219119       0.00000682 </v>
    <v>       0.33325867       0.00218361      -0.00001156 </v>
    <v>       0.66661715       0.66550412       0.00000484 </v>
    <v>       0.11069601       0.22272036       0.95075279 </v>
    <v>       0.22248772       0.11056789       0.04933618 </v>
    <v>       0.11246313       0.55904491       0.95310748 </v>
    <v>       0.22337393       0.44830485       0.04803364 </v>
    <v>       0.10970874       0.88458302       0.95194664 </v>
    <v>       0.22058150       0.77413868       0.04682127 </v>
    <v>       0.44396962       0.22124747       0.95067343 </v>
    <v>       0.55698170       0.10798807       0.04799620 </v>
    <v>       0.44287802       0.55828484       0.95203297 </v>
    <v>       0.55581172       0.44534908       0.04923631 </v>
    <v>       0.44611291       0.88702447       0.95310014 </v>
    <v>       0.55375781       0.77955372       0.04696887 </v>
    <v>       0.77642336       0.21819457       0.95196401 </v>
    <v>       0.88466391       0.10965847       0.04813085 </v>
    <v>       0.78183519       0.55814878       0.95184803 </v>
    <v>       0.89147197       0.44838967       0.04798980 </v>
    <v>       0.77481299       0.89023863       0.95208825 </v>
    <v>       0.89027111       0.77492657       0.04797331 </v>
   </varray>
  </structure>
  <varray name="forces" >
   <v>      -0.14752080      -0.12754237       0.05422630 </v>
   <v>       0.03548023       0.19061734      -0.05673871 </v>
   <v>       0.12736566      -0.06945565       0.00028711 </v>
   <v>      -0.41766349      -0.19562111       0.04708132 </v>
   <v>      -0.03716159       0.46056587      -0.04444226 </v>
   <v>       0.42836699      -0.24769324      -0.00066811 </v>
   <v>       0.30185233      -0.15569272       0.01299480 </v>
   <v>      -0.56476083       0.32936675       0.00474471 </v>
   <v>       0.28627489      -0.18951100      -0.01732989 </v>
   <v>      -0.14131738       0.01249833      -0.12343693 </v>
   <v>       0.14055753       0.00449324       0.25537017 </v>
   <v>       0.05709427      -0.07764785       0.12727180 </v>
   <v>      -0.07241625      -0.06061744      -0.05131782 </v>
   <v>       0.08748344       0.05816140       0.02569764 </v>
   <v>      -0.06379015       0.07980773      -0.24125616 </v>
   <v>       0.05115748      -0.10862731      -0.26490828 </v>
   <v>      -0.02604939      -0.11772651      -0.01785098 </v>
   <v>       0.03108244       0.10531894       0.03573732 </v>
   <v>      -0.06445841       0.10812191       0.13326133 </v>
   <v>      -0.11051293      -0.00073894       0.26488235 </v>
   <v>       0.10737729       0.00574774      -0.14815311 </v>
   <v>       0.07320794       0.05547418       0.05757906 </v>
   <v>      -0.08272584       0.04738143       0.09117962 </v>
   <v>      -0.11030466       0.05604363      -0.07878255 </v>
   <v>       0.11151809       0.04971717      -0.17729932 </v>
   <v>       0.02481208      -0.11136424       0.14900583 </v>
   <v>      -0.02494893      -0.10107728      -0.03713524 </v>
  </varray>
  <varray name="stress" >
   <v>     -19.99284307       0.00943184       0.05885249 </v>
   <v>       0.00943199     -19.53937947       0.03160070 </v>
   <v>       0.05885273       0.03160082      -1.66512447 </v>
  </varray>
  <energy>
   <i name="e_fr_energy">   -188.72431701 </i>
   <i name="e_wo_entrp">   -188.58596681 </i>
   <i name="e_0_energy">     -0.27670041 </i>
  </energy>
  <time name="totalsc">  473.47  474.73</time>
 </calculation>
 <calculation>
  <scstep>
   <time name="dav">   24.83   24.89</time>
   <time name="total">   25.37   25.43</time>
   <energy>
    <i name="alphaZ">     82.30104027 </i>
    <i name="ewald">  41281.55469999 </i>
    <i name="hartreedc"> -47278.05249880 </i>
    <i name="XCdc">   -233.86500244 </i>
    <i name="pawpsdc">   3948.41726146 </i>
    <i name="pawaedc">  -3362.92437900 </i>
    <i name="eentropy">     -0.23298846 </i>
    <i name="bandstr">  -1389.30882484 </i>
    <i name="atom">   6761.44252427 </i>
    <i name="e_fr_energy">   -190.66816754 </i>
    <i name="e_wo_entrp">   -190.43517907 </i>
    <i name="e_0_energy">   -190.55167330 </i>
   </energy>
  </scstep>
  <scstep>
   <time name="dav">   31.04   31.11</time>
   <time name="total">   31.56   31.65</time>
   <energy>
    <i name="e_fr_energy">   -190.59616740 </i>
    <i name="e_wo_entrp">   -190.36863680 </i>
    <i name="e_0_energy">   -190.48240210 </i>
   </energy>
  </scstep>
  <scstep>
   <time name="dav">   31.60   31.68</time>
   <time name="total">   32.13   32.22</time>
   <energy>
    <i name="e_fr_energy">   -190.15443333 </i>
    <i name="e_wo_entrp">   -189.90181331 </i>
    <i name="e_0_energy">   -190.02812332 </i>
   </energy>
  </scstep>
  <scstep>
   <time name="dav">   33.46   33.54</time>
   <time name="total">   34.00   34.09</time>
   <energy>
    <i name="e_fr_energy">   -189.93363523 </i>
    <i name="e_wo_entrp">   -189.70377894 </i>
    <i name="e_0_energy">   -189.81870709 </i>
   </energy>
  </scstep>
  <scstep>
   <time name="dav">   31.76   31.84</time>
   <time name="total">   32.29   32.38</time>
   <energy>
    <i name="e_fr_energy">   -189.89326143 </i>
    <i name="e_wo_entrp">   -189.66315368 </i>
    <i name="e_0_energy">   -189.77820755 </i>
   </energy>
  </scstep>
  <scstep>
   <time name="dav">   32.07   32.15</time>
   <time name="total">   32.60   32.69</time>
   <energy>
    <i name="e_fr_energy">   -189.83560942 </i>
    <i name="e_wo_entrp">   -189.60053827 </i>
    <i name="e_0_energy">   -189.71807384 </i>
   </energy>
  </scstep>
  <scstep>
   <time name="dav">   30.42   30.49</time>
   <time name="total">   30.95   31.04</time>
   <energy>
    <i name="e_fr_energy">   -189.82883373 </i>
    <i name="e_wo_entrp">   -189.59498584 </i>
    <i name="e_0_energy">   -189.71190979 </i>
   </energy>
  </scstep>
  <scstep>
   <time name="dav">   29.66   29.73</time>
   <time name="total">   30.19   30.27</time>
   <energy>
    <i name="e_fr_energy">   -189.82879126 </i>
    <i name="e_wo_entrp">   -189.59481063 </i>
    <i name="e_0_energy">   -189.71180095 </i>
   </energy>
  </scstep>
  <scstep>
   <time name="dav">   28.52   28.59</time>
   <time name="total">   29.06   29.14</time>
   <energy>
    <i name="e_fr_energy">   -189.82905399 </i>
    <i name="e_wo_entrp">   -189.59507144 </i>
    <i name="e_0_energy">   -189.71206272 </i>
   </energy>
  </scstep>
  <scstep>
   <time name="dav">   27.23   27.30</time>
   <time name="total">   27.77   27.84</time>
   <energy>
    <i name="e_fr_energy">   -189.82939336 </i>
    <i name="e_wo_entrp">   -189.59538782 </i>
    <i name="e_0_energy">   -189.71239059 </i>
   </energy>
  </scstep>
  <scstep>
   <time name="dav">   24.53   24.59</time>
   <time name="total">   25.06   25.13</time>
   <energy>
    <i name="e_fr_energy">   -189.82881839 </i>
    <i name="e_wo_entrp">   -189.59471241 </i>
    <i name="e_0_energy">   -189.71176540 </i>
   </energy>
  </scstep>
  <scstep>
   <time name="dav">   18.27   18.31</time>
   <time name="total">   18.30   18.36</time>
   <energy>
    <i name="alphaZ">     82.30104027 </i>
    <i name="ewald">  41281.55469999 </i>
    <i name="hartreedc"> -47252.94520233 </i>
    <i name="XCdc">   -235.25710033 </i>
    <i name="pawpsdc">   4038.21103146 </i>
    <i name="pawaedc">  -3453.92357175 </i>
    <i name="eentropy">     -0.23413623 </i>
    <i name="bandstr">  -1410.97815146 </i>
    <i name="atom">   6761.44252427 </i>
    <i name="e_fr_energy">   -189.82886610 </i>
    <i name="e_wo_entrp">   -189.59472986 </i>
    <i name="e_0_energy">   -189.71179798 </i>
   </energy>
  </scstep>
  <structure>
   <crystal>
    <varray name="basis" >
     <v>       8.67044582       4.99785761       0.00000000 </v>
     <v>      -8.67250415       5.00139921       0.00000000 </v>
     <v>       0.00000000       0.00000000      30.00000000 </v>
    </varray>
    <i name="volume">   2601.24905130 </i>
    <varray name="rec_basis" >
     <v>       0.05768074       0.10001931       0.00000000 </v>
     <v>      -0.05763990       0.09999557       0.00000000 </v>
     <v>       0.00000000       0.00000000       0.03333333 </v>
    </varray>
   </crystal>
   <varray name="positions" >
    <v>      -0.00110981       0.66668225      -0.00009155 </v>
    <v>       0.66788988       0.00114961       0.00008816 </v>
    <v>       0.33331854       0.66560027       0.00000330 </v>
    <v>       0.66441155       0.33335167      -0.00009975 </v>
    <v>       0.00209187       0.00215373       0.00009487 </v>
    <v>       0.33338596       0.33106272       0.00000446 </v>
    <v>       1.00008720       0.33164244       0.00001419 </v>
    <v>       0.33326504       0.00327369      -0.00000887 </v>
    <v>       0.66657636       0.66491400      -0.00000499 </v>
    <v>       0.11058117       0.22287672       0.95068283 </v>
    <v>       0.22263012       0.11044055       0.04948092 </v>
    <v>       0.11238863       0.55886087       0.95317962 </v>
    <v>       0.22320347       0.44827339       0.04800455 </v>
    <v>       0.10988957       0.88459594       0.95196120 </v>
    <v>       0.22065317       0.77433274       0.04668452 </v>
    <v>       0.44383783       0.22101754       0.95052327 </v>
    <v>       0.55676065       0.10781705       0.04798609 </v>
    <v>       0.44308325       0.55843037       0.95205322 </v>
    <v>       0.55592990       0.44559092       0.04931185 </v>
    <v>       0.44600560       0.88712924       0.95325028 </v>
    <v>       0.55387046       0.77946030       0.04688490 </v>
    <v>       0.77658602       0.21821670       0.95199664 </v>
    <v>       0.88466340       0.10981671       0.04818253 </v>
    <v>       0.78182264       0.55834789       0.95180338 </v>
    <v>       0.89166181       0.44836548       0.04788930 </v>
    <v>       0.77465135       0.89002942       0.95217271 </v>
    <v>       0.89007884       0.77478222       0.04795226 </v>
   </varray>
  </structure>
  <varray name="forces" >
   <v>      -0.16367649      -0.15569431       0.07264033 </v>
   <v>       0.05127970       0.21822075      -0.07491551 </v>
   <v>       0.13299189      -0.07543146       0.00045040 </v>
   <v>      -0.46588526      -0.20820583       0.05702779 </v>
   <v>      -0.05337730       0.50661187      -0.05465302 </v>
   <v>       0.47839784      -0.27766324      -0.00085665 </v>
   <v>       0.33198101      -0.17357270       0.01741257 </v>
   <v>      -0.61184860       0.35660897       0.00403019 </v>
   <v>       0.31433310      -0.20833801      -0.02094236 </v>
   <v>      -0.06053333       0.02534591      -0.68187645 </v>
   <v>       0.05753794       0.00598518       0.83723292 </v>
   <v>      -0.01634207       0.04342758      -0.32762852 </v>
   <v>      -0.05285917       0.06428342       0.43717852 </v>
   <v>       0.08433898      -0.06031578      -0.46823298 </v>
   <v>       0.00190330      -0.02954918       0.19582989 </v>
   <v>       0.01053731      -0.03994373      -0.84635785 </v>
   <v>       0.07751723      -0.05380399       0.47608401 </v>
   <v>      -0.06719350       0.02501624      -0.45220625 </v>
   <v>      -0.03698722       0.03356394       0.69146350 </v>
   <v>       0.02091161      -0.00039526      -0.17211387 </v>
   <v>      -0.03757462       0.00966560       0.30671971 </v>
   <v>       0.05601103      -0.06682418      -0.42416549 </v>
   <v>      -0.07113498      -0.08405492       0.60676209 </v>
   <v>       0.01443501       0.11121461      -0.59703596 </v>
   <v>       0.00421185       0.09857368       0.29542921 </v>
   <v>      -0.07158519      -0.04271455      -0.32135983 </v>
   <v>       0.07260993      -0.02201063       0.44408362 </v>
  </varray>
  <varray name="stress" >
   <v>     -10.26225731       0.00456756       0.04478331 </v>
   <v>       0.00456768      -9.90582362       0.03153516 </v>
   <v>       0.04478338       0.03153520       6.48084502 </v>
  </varray>
  <energy>
   <i name="e_fr_energy">   -189.82886610 </i>
   <i name="e_wo_entrp">   -189.71179798 </i>
   <i name="e_0_energy">     -0.23413623 </i>
  </energy>
  <time name="totalsc">  393.92  394.96</time>
 </calculation>
 <calculation>
  <scstep>
   <time name="dav">   22.93   22.99</time>
   <time name="total">   23.45   23.51</time>
   <energy>
    <i name="alphaZ">     85.82284488 </i>
    <i name="ewald">  42837.80192437 </i>
    <i name="hartreedc"> -48854.08301106 </i>
    <i name="XCdc">   -232.91825848 </i>
    <i name="pawpsdc">   4038.28027358 </i>
    <i name="pawaedc">  -3453.99020744 </i>
    <i name="eentropy">     -0.19812692 </i>
    <i name="bandstr">  -1373.59392595 </i>
    <i name="atom">   6761.44252427 </i>
    <i name="e_fr_energy">   -191.43596274 </i>
    <i name="e_wo_entrp">   -191.23783582 </i>
    <i name="e_0_energy">   -191.33689928 </i>
   </energy>
  </scstep>
  <scstep>
   <time name="dav">   34.27   34.35</time>
   <time name="total">   34.78   34.87</time>
   <energy>
    <i name="e_fr_energy">   -191.21946750 </i>
    <i name="e_wo_entrp">   -191.01863435 </i>
    <i name="e_0_energy">   -191.11905093 </i>
   </energy>
  </scstep>
  <scstep>
   <time name="dav">   31.35   31.42</time>
   <time name="total">   31.86   31.95</time>
   <energy>
    <i name="e_fr_energy">   -191.43991545 </i>
    <i name="e_wo_entrp">   -191.21179476 </i>
    <i name="e_0_energy">   -191.32585510 </i>
   </energy>
  </scstep>
  <scstep>
   <time name="dav">   30.56   30.63</time>
   <time name="total">   31.08   31.16</time>
   <energy>
    <i name="e_fr_energy">   -191.04186348 </i>
    <i name="e_wo_entrp">   -190.82586948 </i>
    <i name="e_0_energy">   -190.93386648 </i>
   </energy>
  </scstep>
  <scstep>
   <time name="dav">   30.38   30.45</time>
   <time name="total">   30.90   30.98</time>
   <energy>
    <i name="e_fr_energy">   -191.02918589 </i>
    <i name="e_wo_entrp">   -190.83837279 </i>
    <i name="e_0_energy">   -190.93377934 </i>
   </energy>
  </scstep>
  <scstep>
   <time name="dav">   29.56   29.63</time>
   <time name="total">   30.08   30.16</time>
   <energy>
    <i name="e_fr_energy">   -190.84011663 </i>
    <i name="e_wo_entrp">   -190.63662425 </i>
    <i name="e_0_energy">   -190.73837044 </i>
   </energy>
  </scstep>
  <scstep>
   <time name="dav">   30.46   30.54</time>
   <time name="total">   30.98   31.07</time>
   <energy>
    <i name="e_fr_energy">   -190.83682430 </i>
    <i name="e_wo_entrp">   -190.63345009 </i>
    <i name="e_0_energy">   -190.73513719 </i>
   </energy>
  </scstep>
  <scstep>
   <time name="dav">   28.37   28.44</time>
   <time name="total">   28.89   28.97</time>
   <energy>
    <i name="e_fr_energy">   -190.83409866 </i>
    <i name="e_wo_entrp">   -190.63041358 </i>
    <i name="e_0_energy">   -190.73225612 </i>
   </energy>
  </scstep>
  <scstep>
   <time name="dav">   30.46   30.53</time>
   <time name="total">   30.98   31.06</time>
   <energy>
    <i name="e_fr_energy">   -190.83384106 </i>
    <i name="e_wo_entrp">   -190.63024600 </i>
    <i name="e_0_energy">   -190.73204353 </i>
   </energy>
  </scstep>
  <scstep>
   <time name="dav">   30.96   31.03</time>
   <time name="total">   31.48   31.56</time>
   <energy>
    <i name="e_fr_energy">   -190.83394401 </i>
    <i name="e_wo_entrp">   -190.63044108 </i>
    <i name="e_0_energy">   -190.73219254 </i>
   </energy>
  </scstep>
  <scstep>
   <time name="dav">   26.46   26.52</time>
   <time name="total">   26.97   27.05</time>
   <energy>
    <i name="e_fr_energy">   -190.83380818 </i>
    <i name="e_wo_entrp">   -190.63020113 </i>
    <i name="e_0_energy">   -190.73200465 </i>
   </energy>
  </scstep>
  <scstep>
   <time name="dav">   19.85   19.89</time>
   <time name="total">   19.88   19.94</time>
   <energy>
    <i name="alphaZ">     85.82284488 </i>
    <i name="ewald">  42837.80192437 </i>
    <i name="hartreedc"> -48825.57076358 </i>
    <i name="XCdc">   -234.26832681 </i>
    <i name="pawpsdc">   4064.55422330 </i>
    <i name="pawaedc">  -3480.45936914 </i>
    <i name="eentropy">     -0.20373046 </i>
    <i name="bandstr">  -1399.95313994 </i>
    <i name="atom">   6761.44252427 </i>
    <i name="e_fr_energy">   -190.83381311 </i>
    <i name="e_wo_entrp">   -190.63008265 </i>
    <i name="e_0_energy">   -190.73194788 </i>
   </energy>
  </scstep>
  <structure>
   <crystal>
    <varray name="basis" >
     <v>       8.48586287       4.89711367       0.00000000 </v>
     <v>      -8.48779473       4.90044050       0.00000000 </v>
     <v>       0.00000000       0.00000000      30.00000000 </v>
    </varray>
    <i name="volume">   2494.50485164 </i>
    <varray name="rec_basis" >
     <v>       0.05893483       0.10207791       0.00000000 </v>
     <v>      -0.05889482       0.10205468       0.00000000 </v>
     <v>       0.00000000       0.00000000       0.03333333 </v>
    </varray>
   </crystal>
   <varray name="positions" >
    <v>      -0.00277552       0.66624953       0.00007504 </v>
    <v>       0.66953921       0.00238116      -0.00008295 </v>
    <v>       0.33331968       0.66462170       0.00000438 </v>
    <v>       0.66131355       0.33376934       0.00002717 </v>
    <v>       0.00517362       0.00566857      -0.00002735 </v>
    <v>       0.33337231       0.32743821       0.00000252 </v>
    <v>       1.00019845       0.32926129       0.00005412 </v>
    <v>       0.33328848       0.00786608      -0.00000111 </v>
    <v>       0.66639987       0.66237903      -0.00005156 </v>
    <v>       0.11067100       0.22317008       0.94878774 </v>
    <v>       0.22275920       0.11039424       0.05171860 </v>
    <v>       0.11280097       0.55960505       0.95210879 </v>
    <v>       0.22375945       0.44915525       0.04933163 </v>
    <v>       0.10951267       0.88361735       0.95056499 </v>
    <v>       0.22029400       0.77376883       0.04746648 </v>
    <v>       0.44373933       0.22096088       0.94826701 </v>
    <v>       0.55701554       0.10720918       0.04939860 </v>
    <v>       0.44265128       0.55877104       0.95069542 </v>
    <v>       0.55585852       0.44570759       0.05122663 </v>
    <v>       0.44627096       0.88686085       0.95251763 </v>
    <v>       0.55359404       0.77987767       0.04791230 </v>
    <v>       0.77603550       0.21731061       0.95070237 </v>
    <v>       0.88356275       0.10919788       0.04988489 </v>
    <v>       0.78289431       0.55895198       0.95011892 </v>
    <v>       0.89226351       0.44924859       0.04890861 </v>
    <v>       0.77415665       0.89033371       0.95110160 </v>
    <v>       0.89054515       0.77443874       0.04928743 </v>
   </varray>
  </structure>
  <varray name="forces" >
   <v>      -0.13503900      -0.18179464       0.07727552 </v>
   <v>       0.09294624       0.20807307      -0.07768172 </v>
   <v>       0.09715305      -0.05913824       0.00060336 </v>
   <v>      -0.52559761      -0.19899243       0.02518702 </v>
   <v>      -0.09438706       0.54656735      -0.02744237 </v>
   <v>       0.47918818      -0.27446955       0.00203223 </v>
   <v>       0.37515951      -0.14776209       0.02864153 </v>
   <v>      -0.56646801       0.32626592      -0.00555964 </v>
   <v>       0.31361015      -0.25478254      -0.02301804 </v>
   <v>       0.01912353       0.06546284      -0.52967145 </v>
   <v>      -0.02055167       0.00664635       0.68231888 </v>
   <v>       0.00920776      -0.01685970      -0.23634526 </v>
   <v>       0.05405019      -0.00648528       0.28581336 </v>
   <v>       0.00879763       0.03047316      -0.30434111 </v>
   <v>      -0.05653149       0.04780401       0.10111961 </v>
   <v>      -0.01093820       0.01286132      -0.68167890 </v>
   <v>      -0.03364483      -0.01965051       0.31217098 </v>
   <v>       0.04552846      -0.04282858      -0.29354903 </v>
   <v>      -0.04900825      -0.04538637       0.52998362 </v>
   <v>      -0.06386420       0.01577903      -0.09347777 </v>
   <v>       0.01444753       0.01107621       0.23092526 </v>
   <v>      -0.03643724      -0.00209962      -0.24165826 </v>
   <v>       0.01438794      -0.03727544       0.46965864 </v>
   <v>       0.04347837       0.00653663      -0.46736341 </v>
   <v>       0.00575226      -0.03433928       0.14994551 </v>
   <v>       0.04636721       0.01189593      -0.15988301 </v>
   <v>      -0.02673044       0.03242245       0.24599447 </v>
  </varray>
  <varray name="stress" >
   <v>      -5.62930514      -0.09313594      -0.15751570 </v>
   <v>      -0.09313600      -5.77601669      -0.13110525 </v>
   <v>      -0.15751570      -0.13110526       4.60487531 </v>
  </varray>
  <energy>
   <i name="e_fr_energy">   -190.83381311 </i>
   <i name="e_wo_entrp">   -190.73194788 </i>
   <i name="e_0_energy">     -0.20373046 </i>
  </energy>
  <time name="totalsc">  395.73  396.78</time>
 </calculation>
 <calculation>
  <scstep>
   <time name="dav">   22.95   23.00</time>
   <time name="total">   23.46   23.52</time>
   <energy>
    <i name="alphaZ">     90.04475641 </i>
    <i name="ewald">  44612.92666879 </i>
    <i name="hartreedc"> -50654.32360281 </i>
    <i name="XCdc">   -231.89364297 </i>
    <i name="pawpsdc">   4064.46968189 </i>
    <i name="pawaedc">  -3480.37041253 </i>
    <i name="eentropy">     -0.19289232 </i>
    <i name="bandstr">  -1354.26389521 </i>
    <i name="atom">   6761.44252427 </i>
    <i name="e_fr_energy">   -192.16081448 </i>
    <i name="e_wo_entrp">   -191.96792216 </i>
    <i name="e_0_energy">   -192.06436832 </i>
   </energy>
  </scstep>
  <scstep>
   <time name="dav">   28.74   28.81</time>
   <time name="total">   29.25   29.33</time>
   <energy>
    <i name="e_fr_energy">   -191.90012828 </i>
    <i name="e_wo_entrp">   -191.68863003 </i>
    <i name="e_0_energy">   -191.79437916 </i>
   </energy>
  </scstep>
  <scstep>
   <time name="dav">   32.04   32.11</time>
   <time name="total">   32.54   32.63</time>
   <energy>
    <i name="e_fr_energy">   -192.18336504 </i>
    <i name="e_wo_entrp">   -191.98091754 </i>
    <i name="e_0_energy">   -192.08214129 </i>
   </energy>
  </scstep>
  <scstep>
   <time name="dav">   32.10   32.17</time>
   <time name="total">   32.60   32.69</time>
   <energy>
    <i name="e_fr_energy">   -191.71978460 </i>
    <i name="e_wo_entrp">   -191.51051817 </i>
    <i name="e_0_energy">   -191.61515139 </i>
   </energy>
  </scstep>
  <scstep>
   <time name="dav">   30.38   30.45</time>
   <time name="total">   30.89   30.97</time>
   <energy>
    <i name="e_fr_energy">   -191.53699193 </i>
    <i name="e_wo_entrp">   -191.33104565 </i>
    <i name="e_0_energy">   -191.43401879 </i>
   </energy>
  </scstep>
  <scstep>
   <time name="dav">   32.79   32.87</time>
   <time name="total">   33.29   33.38</time>
   <energy>
    <i name="e_fr_energy">   -191.53221329 </i>
    <i name="e_wo_entrp">   -191.33642173 </i>
    <i name="e_0_energy">   -191.43431751 </i>
   </energy>
  </scstep>
  <scstep>
   <time name="dav">   32.45   32.52</time>
   <time name="total">   32.95   33.04</time>
   <energy>
    <i name="e_fr_energy">   -191.50394216 </i>
    <i name="e_wo_entrp">   -191.29924115 </i>
    <i name="e_0_energy">   -191.40159165 </i>
   </energy>
  </scstep>
  <scstep>
   <time name="dav">   29.56   29.63</time>
   <time name="total">   30.06   30.14</time>
   <energy>
    <i name="e_fr_energy">   -191.50079502 </i>
    <i name="e_wo_entrp">   -191.29747514 </i>
    <i name="e_0_energy">   -191.39913508 </i>
   </energy>
  </scstep>
  <scstep>
   <time name="dav">   30.99   31.07</time>
   <time name="total">   31.50   31.58</time>
   <energy>
    <i name="e_fr_energy">   -191.50119173 </i>
    <i name="e_wo_entrp">   -191.29797801 </i>
    <i name="e_0_energy">   -191.39958487 </i>
   </energy>
  </scstep>
  <scstep>
   <time name="dav">   30.52   30.59</time>
   <time name="total">   31.02   31.10</time>
   <energy>
    <i name="e_fr_energy">   -191.50065355 </i>
    <i name="e_wo_entrp">   -191.29734669 </i>
    <i name="e_0_energy">   -191.39900012 </i>
   </energy>
  </scstep>
  <scstep>
   <time name="dav">   26.05   26.11</time>
   <time name="total">   26.08   26.15</time>
   <energy>
    <i name="alphaZ">     90.04475641 </i>
    <i name="ewald">  44612.92666879 </i>
    <i name="hartreedc"> -50621.44218071 </i>
    <i name="XCdc">   -233.36847339 </i>
    <i name="pawpsdc">   4086.17662175 </i>
    <i name="pawaedc">  -3502.17964355 </i>
    <i name="eentropy">     -0.20346782 </i>
    <i name="bandstr">  -1384.89743042 </i>
    <i name="atom">   6761.44252427 </i>
    <i name="e_fr_energy">   -191.50062469 </i>
    <i name="e_wo_entrp">   -191.29715687 </i>
    <i name="e_0_energy">   -191.39889078 </i>
   </energy>
  </scstep>
  <structure>
   <crystal>
    <varray name="basis" >
     <v>       8.28511132       4.77439025       0.00000000 </v>
     <v>      -8.29237762       4.78695667       0.00000000 </v>
     <v>       0.00000000       0.00000000      30.00000000 </v>
    </varray>
    <i name="volume">   2377.54547274 </i>
    <varray name="rec_basis" >
     <v>       0.06040208       0.10463368       0.00000000 </v>
     <v>      -0.06024352       0.10454199       0.00000000 </v>
     <v>       0.00000000       0.00000000       0.03333333 </v>
    </varray>
   </crystal>
   <varray name="positions" >
    <v>      -0.00596205       0.66502694       0.00039030 </v>
    <v>       0.67274030       0.00432855      -0.00040052 </v>
    <v>       0.33328276       0.66316341       0.00000680 </v>
    <v>       0.65524962       0.33498549       0.00015075 </v>
    <v>       0.01111812       0.01288708      -0.00015757 </v>
    <v>       0.33338933       0.32070091       0.00000876 </v>
    <v>       1.00093683       0.32481886       0.00016382 </v>
    <v>       0.33328618       0.01589530      -0.00001847 </v>
    <v>       0.66558811       0.65715968      -0.00014334 </v>
    <v>       0.11161036       0.22373511       0.94612506 </v>
    <v>       0.22263955       0.11067842       0.05499791 </v>
    <v>       0.11295417       0.55991294       0.95071476 </v>
    <v>       0.22444589       0.44923230       0.05098038 </v>
    <v>       0.10952813       0.88338240       0.94883270 </v>
    <v>       0.22020717       0.77414276       0.04832001 </v>
    <v>       0.44387819       0.22134027       0.94498557 </v>
    <v>       0.55693983       0.10706107       0.05116133 </v>
    <v>       0.44207913       0.55809386       0.94901340 </v>
    <v>       0.55495441       0.44536846       0.05389506 </v>
    <v>       0.44628252       0.88717574       0.95170212 </v>
    <v>       0.55355482       0.78019811       0.04927729 </v>
    <v>       0.77537524       0.21703642       0.94921559 </v>
    <v>       0.88271804       0.10827609       0.05226623 </v>
    <v>       0.78376412       0.55887860       0.94774779 </v>
    <v>       0.89206862       0.44931984       0.05001152 </v>
    <v>       0.77445791       0.89052183       0.94995410 </v>
    <v>       0.89112714       0.77489398       0.05079856 </v>
   </varray>
  </structure>
  <varray name="forces" >
   <v>      -0.05638488      -0.20827825       0.00319409 </v>
   <v>       0.15957618       0.15468419       0.00033492 </v>
   <v>       0.02158257      -0.01881440      -0.00330805 </v>
   <v>      -0.36103857      -0.01823970      -0.07351009 </v>
   <v>      -0.17025283       0.32177971       0.07606122 </v>
   <v>       0.07701478      -0.04485029      -0.00340749 </v>
   <v>       0.39439917      -0.01393265      -0.02183764 </v>
   <v>      -0.21980007       0.12204114       0.00974815 </v>
   <v>       0.20624424      -0.33272043       0.01291113 </v>
   <v>       0.07615809       0.15114574      -0.22469270 </v>
   <v>      -0.05073451      -0.01171873       0.28661165 </v>
   <v>       0.02699370      -0.09448070       0.02797426 </v>
   <v>       0.16532069      -0.08783928       0.03211936 </v>
   <v>      -0.08411849       0.12989618       0.00903232 </v>
   <v>      -0.12535091       0.13372519      -0.11706391 </v>
   <v>      -0.01597869       0.05086618      -0.29198757 </v>
   <v>      -0.15405456       0.00944427      -0.01784834 </v>
   <v>       0.15975158      -0.09829762      -0.02551431 </v>
   <v>      -0.09307623      -0.14098473       0.22879961 </v>
   <v>      -0.17539551       0.04621067       0.11386690 </v>
   <v>       0.09312182       0.02616820      -0.02363745 </v>
   <v>      -0.12823335       0.09121614       0.09909484 </v>
   <v>       0.08669505       0.01560188       0.17588787 </v>
   <v>       0.03262887      -0.08496381      -0.17409581 </v>
   <v>       0.06044522      -0.21823360      -0.11363737 </v>
   <v>       0.21628892       0.05413064       0.11605015 </v>
   <v>      -0.14180227       0.06644408      -0.10114576 </v>
  </varray>
  <varray name="stress" >
   <v>       0.05989943      -0.26429636      -0.29335480 </v>
   <v>      -0.26429651      -0.18585332      -0.49873778 </v>
   <v>      -0.29335482      -0.49873778      -0.37958490 </v>
  </varray>
  <energy>
   <i name="e_fr_energy">   -191.50062469 </i>
   <i name="e_wo_entrp">   -191.39889078 </i>
   <i name="e_0_energy">     -0.20346782 </i>
  </energy>
  <time name="totalsc">  378.07  379.06</time>
 </calculation>
 <calculation>
  <scstep>
   <time name="dav">   22.94   23.00</time>
   <time name="total">   23.45   23.51</time>
   <energy>
    <i name="alphaZ">     90.08389737 </i>
    <i name="ewald">  44611.54347098 </i>
    <i name="hartreedc"> -50621.20280706 </i>
    <i name="XCdc">   -233.42214302 </i>
    <i name="pawpsdc">   4086.27516111 </i>
    <i name="pawaedc">  -3502.27174635 </i>
    <i name="eentropy">     -0.20645347 </i>
    <i name="bandstr">  -1383.80744628 </i>
    <i name="atom">   6761.44252427 </i>
    <i name="e_fr_energy">   -191.56554244 </i>
    <i name="e_wo_entrp">   -191.35908897 </i>
    <i name="e_0_energy">   -191.46231571 </i>
   </energy>
  </scstep>
  <scstep>
   <time name="dav">   33.17   33.25</time>
   <time name="total">   33.67   33.76</time>
   <energy>
    <i name="e_fr_energy">   -191.63063570 </i>
    <i name="e_wo_entrp">   -191.41171837 </i>
    <i name="e_0_energy">   -191.52117704 </i>
   </energy>
  </scstep>
  <scstep>
   <time name="dav">   32.81   32.89</time>
   <time name="total">   33.31   33.40</time>
   <energy>
    <i name="e_fr_energy">   -191.57767680 </i>
    <i name="e_wo_entrp">   -191.37037246 </i>
    <i name="e_0_energy">   -191.47402463 </i>
   </energy>
  </scstep>
  <scstep>
   <time name="dav">   30.49   30.56</time>
   <time name="total">   31.00   31.08</time>
   <energy>
    <i name="e_fr_energy">   -191.57888203 </i>
    <i name="e_wo_entrp">   -191.36765820 </i>
    <i name="e_0_energy">   -191.47327012 </i>
   </energy>
  </scstep>
  <scstep>
   <time name="dav">   30.75   30.82</time>
   <time name="total">   31.25   31.34</time>
   <energy>
    <i name="e_fr_energy">   -191.57608371 </i>
    <i name="e_wo_entrp">   -191.36754967 </i>
    <i name="e_0_energy">   -191.47181669 </i>
   </energy>
  </scstep>
  <scstep>
   <time name="dav">   28.11   28.18</time>
   <time name="total">   28.62   28.70</time>
   <energy>
    <i name="e_fr_energy">   -191.57576254 </i>
    <i name="e_wo_entrp">   -191.36622275 </i>
    <i name="e_0_energy">   -191.47099265 </i>
   </energy>
  </scstep>
  <scstep>
   <time name="dav">   29.25   29.32</time>
   <time name="total">   29.75   29.83</time>
   <energy>
    <i name="e_fr_energy">   -191.57573896 </i>
    <i name="e_wo_entrp">   -191.36649116 </i>
    <i name="e_0_energy">   -191.47111506 </i>
   </energy>
  </scstep>
  <scstep>
   <time name="dav">   24.74   24.80</time>
   <time name="total">   25.24   25.31</time>
   <energy>
    <i name="e_fr_energy">   -191.57551478 </i>
    <i name="e_wo_entrp">   -191.36621673 </i>
    <i name="e_0_energy">   -191.47086576 </i>
   </energy>
  </scstep>
  <scstep>
   <time name="dav">   19.22   19.27</time>
   <time name="total">   19.26   19.31</time>
   <energy>
    <i name="alphaZ">     90.08389737 </i>
    <i name="ewald">  44611.54347098 </i>
    <i name="hartreedc"> -50622.01054694 </i>
    <i name="XCdc">   -233.41096641 </i>
    <i name="pawpsdc">   4084.28094749 </i>
    <i name="pawaedc">  -3500.24379680 </i>
    <i name="eentropy">     -0.20921971 </i>
    <i name="bandstr">  -1383.05183779 </i>
    <i name="atom">   6761.44252427 </i>
    <i name="e_fr_energy">   -191.57552753 </i>
    <i name="e_wo_entrp">   -191.36630782 </i>
    <i name="e_0_energy">   -191.47091768 </i>
   </energy>
  </scstep>
  <structure>
   <crystal>
    <varray name="basis" >
     <v>       8.28266405       4.76592746       0.00000000 </v>
     <v>      -8.29668977       4.79020513       0.00000000 </v>
     <v>       0.00000000       0.00000000      30.00000000 </v>
    </varray>
    <i name="volume">   2376.51244211 </i>
    <varray name="rec_basis" >
     <v>       0.06046935       0.10473360       0.00000000 </v>
     <v>      -0.06016288       0.10455654       0.00000000 </v>
     <v>       0.00000000       0.00000000       0.03333333 </v>
    </varray>
   </crystal>
   <varray name="positions" >
    <v>      -0.00719669       0.66413067       0.00039663 </v>
    <v>       0.67400533       0.00465404      -0.00040115 </v>
    <v>       0.33325036       0.66299941       0.00000145 </v>
    <v>       0.65407671       0.33595288       0.00003233 </v>
    <v>       0.01227457       0.01504353      -0.00003504 </v>
    <v>       0.33338738       0.32022367       0.00000326 </v>
    <v>       1.00202476       0.32357883       0.00012888 </v>
    <v>       0.33326159       0.01718651      -0.00000275 </v>
    <v>       0.66450030       0.65484969      -0.00012279 </v>
    <v>       0.11260465       0.22428116       0.94575052 </v>
    <v>       0.22243073       0.11076847       0.05547488 </v>
    <v>       0.11255476       0.55935715       0.95075386 </v>
    <v>       0.22448790       0.44830480       0.05103958 </v>
    <v>       0.10994022       0.88428528       0.94883976 </v>
    <v>       0.22051782       0.77518768       0.04813482 </v>
    <v>       0.44409031       0.22164682       0.94449988 </v>
    <v>       0.55653687       0.10755855       0.05114012 </v>
    <v>       0.44204528       0.55712593       0.94896476 </v>
    <v>       0.55396226       0.44492370       0.05427627 </v>
    <v>       0.44600370       0.88792341       0.95188230 </v>
    <v>       0.55395990       0.78006047       0.04924509 </v>
    <v>       0.77545922       0.21787198       0.94936923 </v>
    <v>       0.88304717       0.10809752       0.05256068 </v>
    <v>       0.78343263       0.55835219       0.94745628 </v>
    <v>       0.89113726       0.44803733       0.04983292 </v>
    <v>       0.77536757       0.89016566       0.95013644 </v>
    <v>       0.89105189       0.77564709       0.05064170 </v>
   </varray>
  </structure>
  <varray name="forces" >
   <v>      -0.04615365      -0.22358478       0.02101006 </v>
   <v>       0.17813315       0.15083110      -0.01960477 </v>
   <v>       0.00010423      -0.00577843      -0.00087385 </v>
   <v>      -0.39561896       0.00505906      -0.02776643 </v>
   <v>      -0.20126897       0.33820273       0.02591334 </v>
   <v>       0.08863380      -0.05185154       0.00170133 </v>
   <v>       0.43421355      -0.00135365      -0.02363230 </v>
   <v>      -0.24867281       0.13958072      -0.00546825 </v>
   <v>       0.21848421      -0.37386488       0.02778458 </v>
   <v>       0.06315716       0.10272725      -0.18847378 </v>
   <v>      -0.03386495       0.00440044       0.18285502 </v>
   <v>       0.02009736      -0.06615687       0.04814985 </v>
   <v>       0.09369223      -0.04308230       0.04384501 </v>
   <v>      -0.08093361       0.06638281       0.05625880 </v>
   <v>      -0.08330931       0.06493106      -0.13531756 </v>
   <v>      -0.01642522       0.02236470      -0.17891074 </v>
   <v>      -0.09703917       0.03897342      -0.05707785 </v>
   <v>       0.08515226      -0.06056039      -0.04339997 </v>
   <v>      -0.05976600      -0.10382546       0.18465096 </v>
   <v>      -0.09571154       0.04101210       0.13695708 </v>
   <v>       0.06548806       0.01587591      -0.04794022 </v>
   <v>      -0.08349192       0.06902510       0.13431875 </v>
   <v>       0.04702953       0.01906676       0.16118928 </v>
   <v>       0.01255651      -0.05043037      -0.15823027 </v>
   <v>       0.06642513      -0.15638561      -0.14980589 </v>
   <v>       0.16970551       0.01959598       0.14781030 </v>
   <v>      -0.10061656       0.03884514      -0.13594246 </v>
  </varray>
  <varray name="stress" >
   <v>       0.12080911      -0.03822766      -0.18959092 </v>
   <v>      -0.03822766       0.06202545      -0.28576292 </v>
   <v>      -0.18959096      -0.28576312      -1.02622765 </v>
  </varray>
  <energy>
   <i name="e_fr_energy">   -191.57552753 </i>
   <i name="e_wo_entrp">   -191.47091768 </i>
   <i name="e_0_energy">     -0.20921971 </i>
  </energy>
  <time name="totalsc">  300.08  300.87</time>
 </calculation>
 <calculation>
  <scstep>
   <time name="dav">   22.95   23.00</time>
   <time name="total">   23.46   23.52</time>
   <energy>
    <i name="alphaZ">     90.00542184 </i>
    <i name="ewald">  44570.84338616 </i>
    <i name="hartreedc"> -50580.49495912 </i>
    <i name="XCdc">   -233.49024168 </i>
    <i name="pawpsdc">   4084.28882978 </i>
    <i name="pawaedc">  -3500.25191734 </i>
    <i name="eentropy">     -0.20859048 </i>
    <i name="bandstr">  -1383.78662730 </i>
    <i name="atom">   6761.44252427 </i>
    <i name="e_fr_energy">   -191.65217389 </i>
    <i name="e_wo_entrp">   -191.44358341 </i>
    <i name="e_0_energy">   -191.54787865 </i>
   </energy>
  </scstep>
  <scstep>
   <time name="dav">   34.35   34.44</time>
   <time name="total">   34.86   34.95</time>
   <energy>
    <i name="e_fr_energy">   -191.76112056 </i>
    <i name="e_wo_entrp">   -191.52780826 </i>
    <i name="e_0_energy">   -191.64446441 </i>
   </energy>
  </scstep>
  <scstep>
   <time name="dav">   32.04   32.12</time>
   <time name="total">   32.55   32.64</time>
   <energy>
    <i name="e_fr_energy">   -191.66439265 </i>
    <i name="e_wo_entrp">   -191.45408292 </i>
    <i name="e_0_energy">   -191.55923778 </i>
   </energy>
  </scstep>
  <scstep>
   <time name="dav">   30.07   30.14</time>
   <time name="total">   30.58   30.66</time>
   <energy>
    <i name="e_fr_energy">   -191.66921163 </i>
    <i name="e_wo_entrp">   -191.45186044 </i>
    <i name="e_0_energy">   -191.56053604 </i>
   </energy>
  </scstep>
  <scstep>
   <time name="dav">   30.42   30.49</time>
   <time name="total">   30.93   31.01</time>
   <energy>
    <i name="e_fr_energy">   -191.66090706 </i>
    <i name="e_wo_entrp">   -191.44773982 </i>
    <i name="e_0_energy">   -191.55432344 </i>
   </energy>
  </scstep>
  <scstep>
   <time name="dav">   27.19   27.25</time>
   <time name="total">   27.69   27.76</time>
   <energy>
    <i name="e_fr_energy">   -191.66057839 </i>
    <i name="e_wo_entrp">   -191.44638706 </i>
    <i name="e_0_energy">   -191.55348272 </i>
   </energy>
  </scstep>
  <scstep>
   <time name="dav">   27.82   27.89</time>
   <time name="total">   28.33   28.41</time>
   <energy>
    <i name="e_fr_energy">   -191.66027339 </i>
    <i name="e_wo_entrp">   -191.44633587 </i>
    <i name="e_0_energy">   -191.55330463 </i>
   </energy>
  </scstep>
  <scstep>
   <time name="dav">   20.80   20.85</time>
   <time name="total">   20.84   20.89</time>
   <energy>
    <i name="alphaZ">     90.00542184 </i>
    <i name="ewald">  44570.84338616 </i>
    <i name="hartreedc"> -50581.84379985 </i>
    <i name="XCdc">   -233.43274921 </i>
    <i name="pawpsdc">   4085.38436633 </i>
    <i name="pawaedc">  -3501.36194891 </i>
    <i name="eentropy">     -0.21387575 </i>
    <i name="bandstr">  -1382.48361772 </i>
    <i name="atom">   6761.44252427 </i>
    <i name="e_fr_energy">   -191.66029284 </i>
    <i name="e_wo_entrp">   -191.44641710 </i>
    <i name="e_0_energy">   -191.55335497 </i>
   </energy>
  </scstep>
  <structure>
   <crystal>
    <varray name="basis" >
     <v>       8.28649370       4.76658279       0.00000000 </v>
     <v>      -8.30164990       4.79281715       0.00000000 </v>
     <v>       0.00000000       0.00000000      30.00000000 </v>
    </varray>
    <i name="volume">   2378.58451825 </i>
    <varray name="rec_basis" >
     <v>       0.06044961       0.10470492       0.00000000 </v>
     <v>      -0.06011873       0.10451376       0.00000000 </v>
     <v>       0.00000000       0.00000000       0.03333333 </v>
    </varray>
   </crystal>
   <varray name="positions" >
    <v>      -0.00880100       0.66285713       0.00043786 </v>
    <v>       0.67563185       0.00495026      -0.00043949 </v>
    <v>       0.33321344       0.66297626      -0.00000032 </v>
    <v>       0.65267304       0.33746033      -0.00002542 </v>
    <v>       0.01367050       0.01793894       0.00001881 </v>
    <v>       0.33338285       0.31961187       0.00000687 </v>
    <v>       1.00364717       0.32198172       0.00007887 </v>
    <v>       0.33323559       0.01895865      -0.00001433 </v>
    <v>       0.66288931       0.65163942      -0.00006399 </v>
    <v>       0.11349981       0.22470590       0.94538667 </v>
    <v>       0.22233522       0.11092160       0.05582009 </v>
[...]
      <set comment="kpoint 31">
       <r>  -17.5283    1.0000 </r>
       <r>  -17.2524    1.0000 </r>
       <r>  -16.9308    1.0000 </r>
       <r>  -16.6912    1.0000 </r>
       <r>  -16.4882    1.0000 </r>
       <r>  -16.4342    1.0000 </r>
       <r>  -16.3475    1.0000 </r>
       <r>  -16.1626    1.0000 </r>
       <r>  -16.0719    1.0000 </r>
       <r>  -16.0311    1.0000 </r>
       <r>  -15.9446    1.0000 </r>
       <r>  -15.8928    1.0000 </r>
       <r>  -15.7928    1.0000 </r>
       <r>  -15.7323    1.0000 </r>
       <r>  -15.6598    1.0000 </r>
       <r>  -15.4191    1.0000 </r>
       <r>  -15.4031    1.0000 </r>
       <r>  -15.2559    1.0000 </r>
       <r>   -9.7138    1.0000 </r>
       <r>   -9.4277    1.0000 </r>
       <r>   -9.3637    1.0000 </r>
       <r>   -9.0048    1.0000 </r>
       <r>   -8.8825    1.0000 </r>
       <r>   -8.7218    1.0000 </r>
       <r>   -8.5145    1.0000 </r>
       <r>   -8.4883    1.0000 </r>
       <r>   -8.4066    1.0000 </r>
       <r>   -8.3519    1.0000 </r>
       <r>   -8.2918    1.0000 </r>
       <r>   -8.2139    1.0000 </r>
       <r>   -8.1538    1.0000 </r>
       <r>   -8.0997    1.0000 </r>
       <r>   -7.9882    1.0000 </r>
       <r>   -7.8897    1.0000 </r>
       <r>   -7.8299    1.0000 </r>
       <r>   -7.7300    1.0000 </r>
       <r>   -7.6336    1.0000 </r>
       <r>   -7.4496    1.0000 </r>
       <r>   -7.3066    1.0000 </r>
       <r>   -7.2129    1.0000 </r>
       <r>   -7.1099    1.0000 </r>
       <r>   -7.0657    1.0000 </r>
       <r>   -7.0150    1.0000 </r>
       <r>   -6.9331    1.0000 </r>
       <r>   -6.8542    1.0000 </r>
       <r>   -6.8073    1.0000 </r>
       <r>   -6.6774    1.0000 </r>
       <r>   -6.6531    1.0000 </r>
       <r>   -6.5698    1.0000 </r>
       <r>   -6.4800    1.0000 </r>
       <r>   -6.4043    1.0000 </r>
       <r>   -6.3841    1.0000 </r>
       <r>   -6.2907    1.0000 </r>
       <r>   -6.2380    1.0000 </r>
       <r>   -6.1325    1.0000 </r>
       <r>   -6.0875    1.0000 </r>
       <r>   -5.9810    1.0000 </r>
       <r>   -5.9121    1.0000 </r>
       <r>   -5.8856    1.0000 </r>
       <r>   -5.7692    1.0000 </r>
       <r>   -5.7029    1.0000 </r>
       <r>   -5.6172    1.0000 </r>
       <r>   -5.5343    1.0000 </r>
       <r>   -5.3232    1.0000 </r>
       <r>   -5.2586    1.0000 </r>
       <r>   -5.1880    1.0000 </r>
       <r>   -4.9957    1.0000 </r>
       <r>   -4.8954    1.0000 </r>
       <r>   -4.8514    1.0000 </r>
       <r>   -4.6530    1.0000 </r>
       <r>   -4.6022    1.0000 </r>
       <r>   -4.5082    1.0000 </r>
       <r>   -4.3733    1.0000 </r>
       <r>   -4.2746    1.0000 </r>
       <r>   -4.1562    1.0000 </r>
       <r>   -4.0250    1.0000 </r>
       <r>   -3.8316    0.9998 </r>
       <r>   -3.6834    0.9933 </r>
       <r>   -3.4941    0.8711 </r>
       <r>   -3.4641    0.8212 </r>
       <r>   -2.9725    0.0053 </r>
       <r>   -2.8361    0.0002 </r>
       <r>   -2.7276    0.0000 </r>
       <r>   -2.5750    0.0000 </r>
       <r>   -2.5385    0.0000 </r>
       <r>   -2.4333    0.0000 </r>
       <r>   -2.2823    0.0000 </r>
       <r>   -2.2151    0.0000 </r>
       <r>   -2.1118    0.0000 </r>
       <r>   -1.9338    0.0000 </r>
       <r>   -1.6443    0.0000 </r>
       <r>   -1.5586    0.0000 </r>
       <r>   -1.4838    0.0000 </r>
       <r>   -1.3483    0.0000 </r>
       <r>   -1.2587    0.0000 </r>
       <r>   -1.1804    0.0000 </r>
       <r>   -1.0305    0.0000 </r>
       <r>   -1.0133    0.0000 </r>
       <r>   -0.9769    0.0000 </r>
       <r>   -0.9434    0.0000 </r>
       <r>   -0.8132    0.0000 </r>
       <r>   -0.7610    0.0000 </r>
       <r>   -0.6948    0.0000 </r>
       <r>   -0.6020    0.0000 </r>
       <r>   -0.4722    0.0000 </r>
       <r>   -0.3957    0.0000 </r>
       <r>   -0.2732    0.0000 </r>
       <r>   -0.1694    0.0000 </r>
       <r>   -0.0961    0.0000 </r>
       <r>    0.1645    0.0000 </r>
       <r>    0.2699    0.0000 </r>
       <r>    0.6937    0.0000 </r>
       <r>    0.9125    0.0000 </r>
       <r>    0.9280    0.0000 </r>
       <r>    1.0933    0.0000 </r>
       <r>    1.2858    0.0000 </r>
       <r>    1.3680    0.0000 </r>
       <r>    2.1199    0.0000 </r>
       <r>    2.2932    0.0000 </r>
       <r>    2.3869    0.0000 </r>
      </set>
      <set comment="kpoint 32">
       <r>  -17.5422    1.0000 </r>
       <r>  -17.1220    1.0000 </r>
       <r>  -17.1008    1.0000 </r>
       <r>  -16.6918    1.0000 </r>
       <r>  -16.4401    1.0000 </r>
       <r>  -16.3836    1.0000 </r>
       <r>  -16.2919    1.0000 </r>
       <r>  -16.2236    1.0000 </r>
       <r>  -16.0760    1.0000 </r>
       <r>  -16.0732    1.0000 </r>
       <r>  -15.9486    1.0000 </r>
       <r>  -15.8875    1.0000 </r>
       <r>  -15.8044    1.0000 </r>
       <r>  -15.7114    1.0000 </r>
       <r>  -15.6778    1.0000 </r>
       <r>  -15.4115    1.0000 </r>
       <r>  -15.4065    1.0000 </r>
       <r>  -15.2453    1.0000 </r>
       <r>   -9.5993    1.0000 </r>
       <r>   -9.5690    1.0000 </r>
       <r>   -9.4587    1.0000 </r>
       <r>   -8.9987    1.0000 </r>
       <r>   -8.7468    1.0000 </r>
       <r>   -8.5294    1.0000 </r>
       <r>   -8.5215    1.0000 </r>
       <r>   -8.4804    1.0000 </r>
       <r>   -8.4285    1.0000 </r>
       <r>   -8.3378    1.0000 </r>
       <r>   -8.3252    1.0000 </r>
       <r>   -8.2319    1.0000 </r>
       <r>   -8.2208    1.0000 </r>
       <r>   -8.1265    1.0000 </r>
       <r>   -8.0282    1.0000 </r>
       <r>   -7.9326    1.0000 </r>
       <r>   -7.8869    1.0000 </r>
       <r>   -7.7142    1.0000 </r>
       <r>   -7.5475    1.0000 </r>
       <r>   -7.5161    1.0000 </r>
       <r>   -7.3466    1.0000 </r>
       <r>   -7.2560    1.0000 </r>
       <r>   -7.0541    1.0000 </r>
       <r>   -7.0315    1.0000 </r>
       <r>   -6.9803    1.0000 </r>
       <r>   -6.9681    1.0000 </r>
       <r>   -6.8453    1.0000 </r>
       <r>   -6.8447    1.0000 </r>
       <r>   -6.6733    1.0000 </r>
       <r>   -6.6414    1.0000 </r>
       <r>   -6.5337    1.0000 </r>
       <r>   -6.4903    1.0000 </r>
       <r>   -6.3938    1.0000 </r>
       <r>   -6.3557    1.0000 </r>
       <r>   -6.3315    1.0000 </r>
       <r>   -6.2811    1.0000 </r>
       <r>   -6.1012    1.0000 </r>
       <r>   -6.0777    1.0000 </r>
       <r>   -5.9778    1.0000 </r>
       <r>   -5.9355    1.0000 </r>
       <r>   -5.8196    1.0000 </r>
       <r>   -5.7030    1.0000 </r>
       <r>   -5.6967    1.0000 </r>
       <r>   -5.5555    1.0000 </r>
       <r>   -5.5137    1.0000 </r>
       <r>   -5.3617    1.0000 </r>
       <r>   -5.3269    1.0000 </r>
       <r>   -5.1565    1.0000 </r>
       <r>   -5.0904    1.0000 </r>
       <r>   -4.9503    1.0000 </r>
       <r>   -4.8489    1.0000 </r>
       <r>   -4.6235    1.0000 </r>
       <r>   -4.5398    1.0000 </r>
       <r>   -4.5153    1.0000 </r>
       <r>   -4.3787    1.0000 </r>
       <r>   -4.3715    1.0000 </r>
       <r>   -4.1505    1.0000 </r>
       <r>   -4.0238    1.0000 </r>
       <r>   -3.8259    0.9997 </r>
       <r>   -3.6057    0.9726 </r>
       <r>   -3.5185    0.9040 </r>
       <r>   -3.4553    0.8043 </r>
       <r>   -2.9861    0.0069 </r>
       <r>   -2.7846    0.0001 </r>
       <r>   -2.7810    0.0000 </r>
       <r>   -2.5729    0.0000 </r>
       <r>   -2.5254    0.0000 </r>
       <r>   -2.4160    0.0000 </r>
       <r>   -2.2600    0.0000 </r>
       <r>   -2.2568    0.0000 </r>
       <r>   -2.1054    0.0000 </r>
       <r>   -1.9785    0.0000 </r>
       <r>   -1.6168    0.0000 </r>
       <r>   -1.5895    0.0000 </r>
       <r>   -1.4516    0.0000 </r>
       <r>   -1.3502    0.0000 </r>
       <r>   -1.2285    0.0000 </r>
       <r>   -1.2109    0.0000 </r>
       <r>   -1.0258    0.0000 </r>
       <r>   -0.9918    0.0000 </r>
       <r>   -0.9813    0.0000 </r>
       <r>   -0.9559    0.0000 </r>
       <r>   -0.8023    0.0000 </r>
       <r>   -0.7816    0.0000 </r>
       <r>   -0.7126    0.0000 </r>
       <r>   -0.5527    0.0000 </r>
       <r>   -0.4966    0.0000 </r>
       <r>   -0.3629    0.0000 </r>
       <r>   -0.3132    0.0000 </r>
       <r>   -0.1704    0.0000 </r>
       <r>   -0.0756    0.0000 </r>
       <r>    0.1832    0.0000 </r>
       <r>    0.2645    0.0000 </r>
       <r>    0.6920    0.0000 </r>
       <r>    0.8962    0.0000 </r>
       <r>    0.9109    0.0000 </r>
       <r>    1.1385    0.0000 </r>
       <r>    1.2518    0.0000 </r>
       <r>    1.3295    0.0000 </r>
       <r>    2.0897    0.0000 </r>
       <r>    2.2617    0.0000 </r>
       <r>    2.5554    0.0000 </r>
      </set>
      <set comment="kpoint 33">
       <r>  -17.5282    1.0000 </r>
       <r>  -17.2524    1.0000 </r>
       <r>  -16.9310    1.0000 </r>
       <r>  -16.6911    1.0000 </r>
       <r>  -16.4884    1.0000 </r>
       <r>  -16.4342    1.0000 </r>
       <r>  -16.3476    1.0000 </r>
       <r>  -16.1627    1.0000 </r>
       <r>  -16.0717    1.0000 </r>
       <r>  -16.0310    1.0000 </r>
       <r>  -15.9449    1.0000 </r>
       <r>  -15.8928    1.0000 </r>
       <r>  -15.7925    1.0000 </r>
       <r>  -15.7321    1.0000 </r>
       <r>  -15.6602    1.0000 </r>
       <r>  -15.4184    1.0000 </r>
       <r>  -15.4034    1.0000 </r>
       <r>  -15.2560    1.0000 </r>
       <r>   -9.7138    1.0000 </r>
       <r>   -9.4279    1.0000 </r>
       <r>   -9.3639    1.0000 </r>
       <r>   -9.0047    1.0000 </r>
       <r>   -8.8826    1.0000 </r>
       <r>   -8.7223    1.0000 </r>
       <r>   -8.5146    1.0000 </r>
       <r>   -8.4881    1.0000 </r>
       <r>   -8.4066    1.0000 </r>
       <r>   -8.3519    1.0000 </r>
       <r>   -8.2918    1.0000 </r>
       <r>   -8.2136    1.0000 </r>
       <r>   -8.1540    1.0000 </r>
       <r>   -8.0998    1.0000 </r>
       <r>   -7.9883    1.0000 </r>
       <r>   -7.8895    1.0000 </r>
       <r>   -7.8297    1.0000 </r>
       <r>   -7.7299    1.0000 </r>
       <r>   -7.6334    1.0000 </r>
       <r>   -7.4498    1.0000 </r>
       <r>   -7.3065    1.0000 </r>
       <r>   -7.2130    1.0000 </r>
       <r>   -7.1103    1.0000 </r>
       <r>   -7.0660    1.0000 </r>
       <r>   -7.0145    1.0000 </r>
       <r>   -6.9327    1.0000 </r>
       <r>   -6.8546    1.0000 </r>
       <r>   -6.8078    1.0000 </r>
       <r>   -6.6771    1.0000 </r>
       <r>   -6.6531    1.0000 </r>
       <r>   -6.5702    1.0000 </r>
       <r>   -6.4798    1.0000 </r>
       <r>   -6.4038    1.0000 </r>
       <r>   -6.3839    1.0000 </r>
       <r>   -6.2902    1.0000 </r>
       <r>   -6.2376    1.0000 </r>
       <r>   -6.1323    1.0000 </r>
       <r>   -6.0875    1.0000 </r>
       <r>   -5.9808    1.0000 </r>
       <r>   -5.9121    1.0000 </r>
       <r>   -5.8864    1.0000 </r>
       <r>   -5.7690    1.0000 </r>
       <r>   -5.7028    1.0000 </r>
       <r>   -5.6165    1.0000 </r>
       <r>   -5.5345    1.0000 </r>
       <r>   -5.3232    1.0000 </r>
       <r>   -5.2585    1.0000 </r>
       <r>   -5.1885    1.0000 </r>
       <r>   -4.9957    1.0000 </r>
       <r>   -4.8960    1.0000 </r>
       <r>   -4.8517    1.0000 </r>
       <r>   -4.6532    1.0000 </r>
       <r>   -4.6022    1.0000 </r>
       <r>   -4.5086    1.0000 </r>
       <r>   -4.3728    1.0000 </r>
       <r>   -4.2757    1.0000 </r>
       <r>   -4.1560    1.0000 </r>
       <r>   -4.0249    1.0000 </r>
       <r>   -3.8317    0.9998 </r>
       <r>   -3.6829    0.9932 </r>
       <r>   -3.4932    0.8699 </r>
       <r>   -3.4646    0.8221 </r>
       <r>   -2.9728    0.0053 </r>
       <r>   -2.8365    0.0002 </r>
       <r>   -2.7275    0.0000 </r>
       <r>   -2.5754    0.0000 </r>
       <r>   -2.5385    0.0000 </r>
       <r>   -2.4337    0.0000 </r>
       <r>   -2.2830    0.0000 </r>
       <r>   -2.2143    0.0000 </r>
       <r>   -2.1126    0.0000 </r>
       <r>   -1.9339    0.0000 </r>
       <r>   -1.6451    0.0000 </r>
       <r>   -1.5569    0.0000 </r>
       <r>   -1.4836    0.0000 </r>
       <r>   -1.3483    0.0000 </r>
       <r>   -1.2580    0.0000 </r>
       <r>   -1.1803    0.0000 </r>
       <r>   -1.0300    0.0000 </r>
       <r>   -1.0132    0.0000 </r>
       <r>   -0.9774    0.0000 </r>
       <r>   -0.9436    0.0000 </r>
       <r>   -0.8131    0.0000 </r>
       <r>   -0.7610    0.0000 </r>
       <r>   -0.6947    0.0000 </r>
       <r>   -0.6027    0.0000 </r>
       <r>   -0.4733    0.0000 </r>
       <r>   -0.3952    0.0000 </r>
       <r>   -0.2728    0.0000 </r>
       <r>   -0.1699    0.0000 </r>
       <r>   -0.0955    0.0000 </r>
       <r>    0.1644    0.0000 </r>
       <r>    0.2701    0.0000 </r>
       <r>    0.6935    0.0000 </r>
       <r>    0.9123    0.0000 </r>
       <r>    0.9281    0.0000 </r>
       <r>    1.0936    0.0000 </r>
       <r>    1.2854    0.0000 </r>
       <r>    1.3681    0.0000 </r>
       <r>    2.1200    0.0000 </r>
       <r>    2.2933    0.0000 </r>
       <r>    2.3871    0.0000 </r>
      </set>
      <set comment="kpoint 34">
       <r>  -17.5099    1.0000 </r>
       <r>  -17.3140    1.0000 </r>
       <r>  -16.7816    1.0000 </r>
       <r>  -16.6850    1.0000 </r>
       <r>  -16.6411    1.0000 </r>
       <r>  -16.4457    1.0000 </r>
       <r>  -16.3408    1.0000 </r>
       <r>  -16.1648    1.0000 </r>
       <r>  -16.0557    1.0000 </r>
       <r>  -15.9953    1.0000 </r>
       <r>  -15.9383    1.0000 </r>
       <r>  -15.8975    1.0000 </r>
       <r>  -15.7804    1.0000 </r>
       <r>  -15.7474    1.0000 </r>
       <r>  -15.6480    1.0000 </r>
       <r>  -15.4235    1.0000 </r>
       <r>  -15.4032    1.0000 </r>
       <r>  -15.2670    1.0000 </r>
       <r>   -9.7585    1.0000 </r>
       <r>   -9.3475    1.0000 </r>
       <r>   -9.1740    1.0000 </r>
       <r>   -9.0766    1.0000 </r>
       <r>   -9.0275    1.0000 </r>
       <r>   -8.8527    1.0000 </r>
       <r>   -8.5320    1.0000 </r>
       <r>   -8.5089    1.0000 </r>
       <r>   -8.4208    1.0000 </r>
       <r>   -8.3417    1.0000 </r>
       <r>   -8.2413    1.0000 </r>
       <r>   -8.1782    1.0000 </r>
       <r>   -8.1398    1.0000 </r>
       <r>   -8.0533    1.0000 </r>
       <r>   -8.0167    1.0000 </r>
       <r>   -7.8743    1.0000 </r>
       <r>   -7.8069    1.0000 </r>
       <r>   -7.7235    1.0000 </r>
       <r>   -7.5344    1.0000 </r>
       <r>   -7.4329    1.0000 </r>
       <r>   -7.3038    1.0000 </r>
       <r>   -7.2787    1.0000 </r>
       <r>   -7.1237    1.0000 </r>
       <r>   -7.0700    1.0000 </r>
       <r>   -6.9850    1.0000 </r>
       <r>   -6.9646    1.0000 </r>
       <r>   -6.8635    1.0000 </r>
       <r>   -6.7591    1.0000 </r>
       <r>   -6.6907    1.0000 </r>
       <r>   -6.6427    1.0000 </r>
       <r>   -6.5600    1.0000 </r>
       <r>   -6.5079    1.0000 </r>
       <r>   -6.4164    1.0000 </r>
       <r>   -6.3899    1.0000 </r>
       <r>   -6.2913    1.0000 </r>
       <r>   -6.2549    1.0000 </r>
       <r>   -6.1438    1.0000 </r>
       <r>   -6.0789    1.0000 </r>
       <r>   -5.9917    1.0000 </r>
       <r>   -5.9338    1.0000 </r>
       <r>   -5.8494    1.0000 </r>
       <r>   -5.8296    1.0000 </r>
       <r>   -5.7548    1.0000 </r>
       <r>   -5.6351    1.0000 </r>
       <r>   -5.4876    1.0000 </r>
       <r>   -5.3527    1.0000 </r>
       <r>   -5.3094    1.0000 </r>
       <r>   -5.1157    1.0000 </r>
       <r>   -4.8938    1.0000 </r>
       <r>   -4.8656    1.0000 </r>
       <r>   -4.8320    1.0000 </r>
       <r>   -4.7276    1.0000 </r>
       <r>   -4.6117    1.0000 </r>
       <r>   -4.5122    1.0000 </r>
       <r>   -4.3620    1.0000 </r>
       <r>   -4.2197    1.0000 </r>
       <r>   -4.1361    1.0000 </r>
       <r>   -4.0236    1.0000 </r>
       <r>   -3.8478    0.9999 </r>
       <r>   -3.7499    0.9984 </r>
       <r>   -3.5066    0.8889 </r>
       <r>   -3.4513    0.7966 </r>
       <r>   -2.9605    0.0041 </r>
       <r>   -2.8587    0.0004 </r>
       <r>   -2.7000    0.0000 </r>
       <r>   -2.5855    0.0000 </r>
       <r>   -2.5455    0.0000 </r>
       <r>   -2.4515    0.0000 </r>
       <r>   -2.2856    0.0000 </r>
       <r>   -2.1909    0.0000 </r>
       <r>   -2.1156    0.0000 </r>
       <r>   -1.8936    0.0000 </r>
       <r>   -1.6624    0.0000 </r>
       <r>   -1.5352    0.0000 </r>
       <r>   -1.5108    0.0000 </r>
       <r>   -1.3566    0.0000 </r>
       <r>   -1.2697    0.0000 </r>
       <r>   -1.1609    0.0000 </r>
       <r>   -1.0571    0.0000 </r>
       <r>   -1.0188    0.0000 </r>
       <r>   -0.9728    0.0000 </r>
       <r>   -0.9166    0.0000 </r>
       <r>   -0.8142    0.0000 </r>
       <r>   -0.7546    0.0000 </r>
       <r>   -0.6964    0.0000 </r>
       <r>   -0.6329    0.0000 </r>
       <r>   -0.4478    0.0000 </r>
       <r>   -0.4209    0.0000 </r>
       <r>   -0.2449    0.0000 </r>
       <r>   -0.1801    0.0000 </r>
       <r>   -0.1052    0.0000 </r>
       <r>    0.1429    0.0000 </r>
       <r>    0.2755    0.0000 </r>
       <r>    0.6931    0.0000 </r>
       <r>    0.9255    0.0000 </r>
       <r>    0.9660    0.0000 </r>
       <r>    1.0418    0.0000 </r>
       <r>    1.3172    0.0000 </r>
       <r>    1.3994    0.0000 </r>
       <r>    2.1864    0.0000 </r>
       <r>    2.2545    0.0000 </r>
       <r>    2.3742    0.0000 </r>
      </set>
     </set>
    </set>
   </array>
  </eigenvalues>
  <separator name="orbital magnetization" >
   <v name="MAGDIPOLOUT">      0.00000000      0.00000000      0.00000000</v>
  </separator>
 </calculation>
 <structure name="finalpos" >
  <crystal>
   <varray name="basis" >
    <v>       8.35211967       4.78927481       0.00000000 </v>
    <v>      -8.38119321       4.83963955       0.00000000 </v>
    <v>       0.00000000       0.00000000      30.00000000 </v>
   </varray>
   <i name="volume">   2416.83258551 </i>
   <varray name="rec_basis" >
    <v>       0.06007416       0.10403526       0.00000000 </v>
    <v>      -0.05944899       0.10367437       0.00000000 </v>
    <v>       0.00000000       0.00000000       0.03333333 </v>
   </varray>
  </crystal>
  <varray name="positions" >
   <v>      -0.02406907       0.63085392      -0.00136776 </v>
   <v>       0.69055445      -0.01188743       0.00137162 </v>
   <v>       0.33308864       0.64726741      -0.00000805 </v>
   <v>       0.64726560       0.34938722      -0.00025771 </v>
   <v>       0.01934350       0.03538868       0.00025878 </v>
   <v>       0.33328130       0.33138993       0.00000123 </v>
   <v>       1.01361943       0.32190753       0.00014000 </v>
   <v>       0.33329458       0.03542551      -0.00001058 </v>
   <v>       0.65293624       0.64159909      -0.00013215 </v>
   <v>       0.11823997       0.23054674       0.94344106 </v>
   <v>       0.22290581       0.11924058       0.05678643 </v>
   <v>       0.11211854       0.55366952       0.94979039 </v>
   <v>       0.22240602       0.45016200       0.05361223 </v>
   <v>       0.10884867       0.88502635       0.95240788 </v>
   <v>       0.21920710       0.77805688       0.04200162 </v>
   <v>       0.44372513       0.22966966       0.94321167 </v>
   <v>       0.55773330       0.10949070       0.04757775 </v>
   <v>       0.44411133       0.56102468       0.94640248 </v>
   <v>       0.54833684       0.44562600       0.05656605 </v>
   <v>       0.44730194       0.89204252       0.95799261 </v>
   <v>       0.55426436       0.77477649       0.05019424 </v>
   <v>       0.77121444       0.21696240       0.95622231 </v>
   <v>       0.88858453       0.11114831       0.05514694 </v>
   <v>       0.77800033       0.55590018       0.94485452 </v>
   <v>       0.88213574       0.43668379       0.04973322 </v>
   <v>       0.78443250       0.88780121       0.95027156 </v>
   <v>       0.89533322       0.77905458       0.04379157 </v>
  </varray>
 </structure>
</modeling>
