unknown system                          
           1
     8.859394    5.104188    0.000000
    -8.861602    5.107987    0.000000
     0.000000    0.000000   30.000000
   V    Mo   W    S 
   3   3   3  18
Direct configuration=     1
   0.00000000  0.66666669  0.00000000
   0.66666669  0.00000000  0.00000000
   0.33333334  0.66666669  0.00000000
   0.66666669  0.33333334  0.00000000
   0.00000000  0.00000000  0.00000000
   0.33333334  0.33333334  0.00000000
   1.00000000  0.33333334  0.00000000
   0.33333334  0.00000000  0.00000000
   0.66666669  0.66666669  0.00000000
   0.11068511  0.22244981  0.95539999
   0.22244981  0.11068511  0.04460000
   0.11068511  0.55578315  0.95539999
   0.22244981  0.44401845  0.04460000
   0.11068511  0.88911647  0.95539999
   0.22244981  0.77735180  0.04460000
   0.44401845  0.22244981  0.95539999
   0.55578315  0.11068511  0.04460000
   0.44401845  0.55578315  0.95539999
   0.55578315  0.44401845  0.04460000
   0.44401845  0.88911647  0.95539999
   0.55578315  0.77735180  0.04460000
   0.77735180  0.22244981  0.95539999
   0.88911647  0.11068511  0.04460000
   0.77735180  0.55578315  0.95539999
   0.88911647  0.44401845  0.04460000
   0.77735180  0.88911647  0.95539999
   0.88911647  0.77735180  0.04460000
unknown system                          
           1
     8.670446    4.997858    0.000000
    -8.672504    5.001399    0.000000
     0.000000    0.000000   30.000000
   V    Mo   W    S 
   3   3   3  18
Direct configuration=     2
  -0.00075580  0.66675310 -0.00012229
   0.66753838  0.00086629  0.00012032
   0.33331194  0.66583808  0.00000314
   0.66513825  0.33327674 -0.00012643
   0.00136056  0.00135129  0.00012006
   0.33338725  0.33188599  0.00000484
   1.00005672  0.33219119  0.00000682
   0.33325867  0.00218361 -0.00001156
   0.66661715  0.66550412  0.00000484
   0.11069601  0.22272036  0.95075279
   0.22248772  0.11056789  0.04933618
   0.11246313  0.55904491  0.95310748
   0.22337393  0.44830485  0.04803364
   0.10970874  0.88458302  0.95194664
   0.22058150  0.77413868  0.04682127
   0.44396962  0.22124747  0.95067343
   0.55698170  0.10798807  0.04799620
   0.44287802  0.55828484  0.95203297
   0.55581172  0.44534908  0.04923631
   0.44611291  0.88702447  0.95310014
   0.55375781  0.77955372  0.04696887
   0.77642336  0.21819457  0.95196401
   0.88466391  0.10965847  0.04813085
   0.78183519  0.55814878  0.95184803
   0.89147197  0.44838967  0.04798980
   0.77481299  0.89023863  0.95208825
   0.89027111  0.77492657  0.04797331
unknown system                          
           1
     8.485863    4.897114    0.000000
    -8.487795    4.900441    0.000000
     0.000000    0.000000   30.000000
   V    Mo   W    S 
   3   3   3  18
Direct configuration=     3
  -0.00110981  0.66668225 -0.00009155
   0.66788988  0.00114961  0.00008816
   0.33331854  0.66560027  0.00000330
   0.66441155  0.33335167 -0.00009975
   0.00209187  0.00215373  0.00009487
   0.33338596  0.33106272  0.00000446
   1.00008720  0.33164244  0.00001419
   0.33326504  0.00327369 -0.00000887
   0.66657636  0.66491400 -0.00000499
   0.11058117  0.22287672  0.95068283
   0.22263012  0.11044055  0.04948092
   0.11238863  0.55886087  0.95317962
   0.22320347  0.44827339  0.04800455
   0.10988957  0.88459594  0.95196120
   0.22065317  0.77433274  0.04668452
   0.44383783  0.22101754  0.95052327
   0.55676065  0.10781705  0.04798609
   0.44308325  0.55843037  0.95205322
   0.55592990  0.44559092  0.04931185
   0.44600560  0.88712924  0.95325028
   0.55387046  0.77946030  0.04688490
   0.77658602  0.21821670  0.95199664
   0.88466340  0.10981671  0.04818253
   0.78182264  0.55834789  0.95180338
   0.89166181  0.44836548  0.04788930
   0.77465135  0.89002942  0.95217271
   0.89007884  0.77478222  0.04795226
unknown system                          
           1
     8.285111    4.774390    0.000000
    -8.292378    4.786957    0.000000
     0.000000    0.000000   30.000000
   V    Mo   W    S 
   3   3   3  18
Direct configuration=     4
  -0.00277552  0.66624953  0.00007504
   0.66953921  0.00238116 -0.00008295
   0.33331968  0.66462170  0.00000438
   0.66131355  0.33376934  0.00002717
   0.00517362  0.00566857 -0.00002735
   0.33337231  0.32743821  0.00000252
   1.00019845  0.32926129  0.00005412
   0.33328848  0.00786608 -0.00000111
   0.66639987  0.66237903 -0.00005156
   0.11067100  0.22317008  0.94878774
   0.22275920  0.11039424  0.05171860
   0.11280097  0.55960505  0.95210879
   0.22375945  0.44915525  0.04933163
   0.10951267  0.88361735  0.95056499
   0.22029400  0.77376883  0.04746648
   0.44373933  0.22096088  0.94826701
   0.55701554  0.10720918  0.04939860
   0.44265128  0.55877104  0.95069542
   0.55585852  0.44570759  0.05122663
   0.44627096  0.88686085  0.95251763
   0.55359404  0.77987767  0.04791230
   0.77603550  0.21731061  0.95070237
   0.88356275  0.10919788  0.04988489
   0.78289431  0.55895198  0.95011892
   0.89226351  0.44924859  0.04890861
   0.77415665  0.89033371  0.95110160
   0.89054515  0.77443874  0.04928743
unknown system                          
           1
     8.282664    4.765927    0.000000
    -8.296690    4.790205    0.000000
     0.000000    0.000000   30.000000
   V    Mo   W    S 
   3   3   3  18
Direct configuration=     5
  -0.00596205  0.66502694  0.00039030
   0.67274030  0.00432855 -0.00040052
   0.33328276  0.66316341  0.00000680
   0.65524962  0.33498549  0.00015075
   0.01111812  0.01288708 -0.00015757
   0.33338933  0.32070091  0.00000876
   1.00093683  0.32481886  0.00016382
   0.33328618  0.01589530 -0.00001847
   0.66558811  0.65715968 -0.00014334
   0.11161036  0.22373511  0.94612506
   0.22263955  0.11067842  0.05499791
   0.11295417  0.55991294  0.95071476
   0.22444589  0.44923230  0.05098038
   0.10952813  0.88338240  0.94883270
   0.22020717  0.77414276  0.04832001
   0.44387819  0.22134027  0.94498557
   0.55693983  0.10706107  0.05116133
   0.44207913  0.55809386  0.94901340
   0.55495441  0.44536846  0.05389506
   0.44628252  0.88717574  0.95170212
   0.55355482  0.78019811  0.04927729
   0.77537524  0.21703642  0.94921559
   0.88271804  0.10827609  0.05226623
   0.78376412  0.55887860  0.94774779
   0.89206862  0.44931984  0.05001152
   0.77445791  0.89052183  0.94995410
   0.89112714  0.77489398  0.05079856
unknown system                          
           1
     8.286494    4.766583    0.000000
    -8.301650    4.792817    0.000000
     0.000000    0.000000   30.000000
   V    Mo   W    S 
   3   3   3  18
Direct configuration=     6
  -0.00719669  0.66413067  0.00039663
   0.67400533  0.00465404 -0.00040115
   0.33325036  0.66299941  0.00000145
   0.65407671  0.33595288  0.00003233
   0.01227457  0.01504353 -0.00003504
   0.33338738  0.32022367  0.00000326
   1.00202476  0.32357883  0.00012888
   0.33326159  0.01718651 -0.00000275
   0.66450030  0.65484969 -0.00012279
   0.11260465  0.22428116  0.94575052
   0.22243073  0.11076847  0.05547488
   0.11255476  0.55935715  0.95075386
   0.22448790  0.44830480  0.05103958
   0.10994022  0.88428528  0.94883976
   0.22051782  0.77518768  0.04813482
   0.44409031  0.22164682  0.94449988
   0.55653687  0.10755855  0.05114012
   0.44204528  0.55712593  0.94896476
   0.55396226  0.44492370  0.05427627
   0.44600370  0.88792341  0.95188230
   0.55395990  0.78006047  0.04924509
   0.77545922  0.21787198  0.94936923
   0.88304717  0.10809752  0.05256068
   0.78343263  0.55835219  0.94745628
   0.89113726  0.44803733  0.04983292
   0.77536757  0.89016566  0.95013644
   0.89105189  0.77564709  0.05064170
unknown system                          
           1
     8.288638    4.764952    0.000000
    -8.306411    4.795719    0.000000
     0.000000    0.000000   30.000000
   V    Mo   W    S 
   3   3   3  18
Direct configuration=     7
  -0.00880100  0.66285713  0.00043786
   0.67563185  0.00495026 -0.00043949
   0.33321344  0.66297626 -0.00000032
   0.65267304  0.33746033 -0.00002542
   0.01367050  0.01793894  0.00001881
   0.33338285  0.31961187  0.00000687
   1.00364717  0.32198172  0.00007887
   0.33323559  0.01895865 -0.00001433
   0.66288931  0.65163942 -0.00006399
   0.11349981  0.22470590  0.94538667
   0.22233522  0.11092160  0.05582009
   0.11219783  0.55884761  0.95086900
   0.22455173  0.44767603  0.05111351
   0.11006615  0.88502086  0.94897569
   0.22062663  0.77591576  0.04784356
   0.44417063  0.22184767  0.94416312
   0.55642857  0.10817751  0.05100241
   0.44197774  0.55642372  0.94889191
   0.55307243  0.44447681  0.05463193
   0.44591212  0.88854420  0.95217670
   0.55430994  0.77991449  0.04913058
   0.77560318  0.21863572  0.94966475
   0.88335730  0.10805757  0.05287112
   0.78314240  0.55798007  0.94715192
   0.89037315  0.44677130  0.04950868
   0.77612800  0.88965329  0.95045684
   0.89091887  0.77626975  0.05034257
unknown system                          
           1
     8.298414    4.760881    0.000000
    -8.324519    4.806078    0.000000
     0.000000    0.000000   30.000000
   V    Mo   W    S 
   3   3   3  18
Direct configuration=     8
  -0.00952880  0.66222979  0.00046082
   0.67640803  0.00506012 -0.00046194
   0.33321176  0.66299667 -0.00000177
   0.65217638  0.33815492 -0.00006027
   0.01414049  0.01914573  0.00005469
   0.33338142  0.31946346  0.00000599
   1.00439303  0.32134008  0.00007005
   0.33323608  0.01966243 -0.00001052
   0.66211183  0.65026628 -0.00005802
   0.11389444  0.22488868  0.94518571
   0.22227437  0.11096204  0.05596430
   0.11210274  0.55867764  0.95090646
   0.22456699  0.44753314  0.05117048
   0.11007081  0.88524226  0.94903486
   0.22060944  0.77610080  0.04772154
   0.44423378  0.22195190  0.94401635
   0.55642412  0.10839146  0.05093537
   0.44196804  0.55626218  0.94883655
   0.55267798  0.44426715  0.05483357
   0.44594584  0.88875366  0.95230339
   0.55441077  0.77985363  0.04909110
   0.77569754  0.21892095  0.94980727
   0.88345025  0.10805508  0.05301121
   0.78304123  0.55787836  0.94701190
   0.89013601  0.44627968  0.04937725
   0.77635836  0.88940356  0.95058858
   0.89082154  0.77647281  0.05020500
unknown system                          
           1
     8.314338    4.760426    0.000000
    -8.348848    4.820183    0.000000
     0.000000    0.000000   30.000000
   V    Mo   W    S 
   3   3   3  18
Direct configuration=     9
  -0.01262599  0.65945177  0.00053735
   0.67948076  0.00528900 -0.00052634
   0.33310714  0.66304934 -0.00000542
   0.65067444  0.34120528 -0.00016138
   0.01572773  0.02364969  0.00015126
   0.33337051  0.31927736  0.00000806
   1.00768964  0.31924660 -0.00000064
   0.33314450  0.02219527 -0.00001569
   0.65892212  0.64486230  0.00001791
   0.11539797  0.22554699  0.94449740
   0.22204741  0.11113848  0.05637008
   0.11168742  0.55793311  0.95112066
   0.22461852  0.44713203  0.05137977
   0.10995955  0.88601068  0.94941212
   0.22044394  0.77671388  0.04716822
   0.44443869  0.22231425  0.94361271
   0.55652441  0.10927550  0.05055556
   0.44190862  0.55579599  0.94862914
   0.55117770  0.44343938  0.05551496
   0.44611881  0.88953784  0.95285820
   0.55480484  0.77951997  0.04888326
   0.77619054  0.22013716  0.95048566
   0.88392577  0.10819291  0.05351176
   0.78260573  0.55755024  0.94653904
   0.88934794  0.44434267  0.04878620
   0.77718044  0.88822884  0.95115301
   0.89034532  0.77717792  0.04951704
unknown system                          
           1
     8.324896    4.755982    0.000000
    -8.368441    4.831387    0.000000
     0.000000    0.000000   30.000000
   V    Mo   W    S 
   3   3   3  18
Direct configuration=    10
  -0.01513293  0.65700583  0.00056273
   0.68205610  0.00531535 -0.00054877
   0.33306161  0.66291926 -0.00001121
   0.65011849  0.34329934 -0.00024452
   0.01627238  0.02632833  0.00023289
   0.33334998  0.31959135  0.00000021
   1.00999465  0.31816989 -0.00004103
   0.33313754  0.02399400 -0.00000917
   0.65656098  0.64152502  0.00005499
   0.11659689  0.22601413  0.94399099
   0.22180687  0.11127882  0.05655957
   0.11141429  0.55731381  0.95126304
   0.22467901  0.44709165  0.05158562
   0.10969544  0.88637265  0.94976901
   0.22022771  0.77704525  0.04672012
   0.44469687  0.22270067  0.94343202
   0.55677180  0.10990358  0.05016622
   0.44189222  0.55570451  0.94843992
   0.54997529  0.44271501  0.05603209
   0.44635296  0.89009153  0.95332273
   0.55506923  0.77918356  0.04872885
   0.77657128  0.22103054  0.95111208
   0.88438073  0.10846418  0.05382319
   0.78217615  0.55737537  0.94619745
   0.88887977  0.44283772  0.04838751
   0.77764829  0.88721863  0.95155599
   0.88996085  0.77772449  0.04891737
unknown system                          
           1
     8.328874    4.760309    0.000000
    -8.370739    4.832807    0.000000
     0.000000    0.000000   30.000000
   V    Mo   W    S 
   3   3   3  18
Direct configuration=    11
  -0.01863401  0.65329818  0.00055461
   0.68555243  0.00498826 -0.00053446
   0.33296571  0.66223868 -0.00001662
   0.64943097  0.34582352 -0.00024190
   0.01699589  0.02946297  0.00022422
   0.33335836  0.32004814  0.00001823
   1.01286854  0.31738167 -0.00013514
   0.33307839  0.02659719 -0.00001867
   0.65372803  0.63785395  0.00016462
   0.11798305  0.22649034  0.94352148
   0.22148221  0.11161412  0.05666329
   0.11103342  0.55639500  0.95146674
   0.22473614  0.44717521  0.05183630
   0.10930008  0.88670608  0.95038050
   0.21989499  0.77752075  0.04600554
   0.44502512  0.22332906  0.94333049
   0.55718059  0.11064515  0.04954315
   0.44183287  0.55571747  0.94818240
   0.54859668  0.44182552  0.05647853
   0.44667148  0.89089210  0.95404813
   0.55541832  0.77863491  0.04852632
   0.77705909  0.22214352  0.95202947
   0.88513587  0.10903550  0.05420470
   0.78146576  0.55722836  0.94583821
   0.88836961  0.44097401  0.04790470
   0.77820178  0.88585485  0.95201708
   0.88948309  0.77833993  0.04800796
unknown system                          
           1
     8.332242    4.759916    0.000000
    -8.376079    4.835827    0.000000
     0.000000    0.000000   30.000000
   V    Mo   W    S 
   3   3   3  18
Direct configuration=    12
  -0.01794808  0.65387972  0.00053022
   0.68486635  0.00489548 -0.00050988
   0.33298207  0.66206936 -0.00001678
   0.64971998  0.34502556 -0.00024708
   0.01670183  0.02841029  0.00022786
   0.33335100  0.32012026  0.00000712
   1.01202217  0.31785198 -0.00009949
   0.33309251  0.02605252 -0.00001390
   0.65456023  0.63919435  0.00011890
   0.11767602  0.22639626  0.94363656
   0.22150194  0.11161210  0.05663910
   0.11112423  0.55658294  0.95138396
   0.22474160  0.44724139  0.05181027
   0.10934163  0.88651291  0.95025413
   0.21995864  0.77744280  0.04612322
   0.44500800  0.22332521  0.94335582
   0.55713813  0.11040807  0.04966649
   0.44183607  0.55578154  0.94821409
   0.54890336  0.44203325  0.05637941
   0.44661706  0.89075659  0.95392929
   0.55533419  0.77873989  0.04860803
   0.77687663  0.22182547  0.95185869
   0.88503543  0.10899097  0.05410861
   0.78155595  0.55728368  0.94592485
   0.88847813  0.44139744  0.04807863
   0.77808181  0.88617614  0.95184846
   0.88965758  0.77820829  0.04818331
unknown system                          
           1
     8.336131    4.761096    0.000000
    -8.380857    4.838546    0.000000
     0.000000    0.000000   30.000000
   V    Mo   W    S 
   3   3   3  18
Direct configuration=    13
  -0.01915702  0.65236319  0.00049945
   0.68603667  0.00451639 -0.00047272
   0.33293998  0.66132343 -0.00001931
   0.64957172  0.34573744 -0.00023630
   0.01688768  0.02925403  0.00021597
   0.33334677  0.32045830  0.00000847
   1.01279563  0.31784130 -0.00012830
   0.33307230  0.02697837 -0.00001407
   0.65381471  0.63842636  0.00015185
   0.11801728  0.22654929  0.94354825
   0.22137551  0.11182694  0.05665922
   0.11101868  0.55629794  0.95141069
   0.22475846  0.44735191  0.05190868
   0.10920350  0.88650090  0.95046194
   0.21985969  0.77763714  0.04582460
   0.44513610  0.22366128  0.94333721
   0.55727845  0.11053897  0.04944987
   0.44182531  0.55587328  0.94811741
   0.54856935  0.44185700  0.05646664
   0.44671033  0.89104740  0.95423016
   0.55542408  0.77855730  0.04858185
   0.77693415  0.22205447  0.95218205
   0.88538569  0.10926307  0.05419705
   0.78123021  0.55722934  0.94583623
   0.88828164  0.44086075  0.04800620
   0.77829780  0.88583317  0.95191065
   0.88959978  0.77837552  0.04786613
unknown system                          
           1
     8.340765    4.762532    0.000000
    -8.386586    4.841880    0.000000
     0.000000    0.000000   30.000000
   V    Mo   W    S 
   3   3   3  18
Direct configuration=    14
  -0.01984577  0.65136798  0.00047167
   0.68673188  0.00416651 -0.00044357
   0.33292199  0.66062605 -0.00002163
   0.64950987  0.34606215 -0.00023086
   0.01694082  0.02962569  0.00020858
   0.33334723  0.32078063  0.00000941
   1.01312200  0.31792473 -0.00014344
   0.33306596  0.02751804 -0.00001550
   0.65347749  0.63819636  0.00016821
   0.11819436  0.22665849  0.94349488
   0.22131225  0.11200796  0.05667881
   0.11097950  0.55615044  0.95140149
   0.22476723  0.44745922  0.05199047
   0.10914784  0.88647308  0.95058083
   0.21982333  0.77777746  0.04561940
   0.44520762  0.22390689  0.94332012
   0.55734701  0.11057017  0.04932206
   0.44182567  0.55597194  0.94803690
   0.54839663  0.44179650  0.05651941
   0.44675382  0.89122802  0.95444037
   0.55545999  0.77846037  0.04858914
   0.77689815  0.22210840  0.95237845
   0.88561405  0.10944057  0.05425442
   0.78100531  0.55718924  0.94577529
   0.88812147  0.44056481  0.04800993
   0.77846079  0.88570966  0.95190526
   0.88962798  0.77847309  0.04767978
unknown system                          
           1
     8.344336    4.764234    0.000000
    -8.390478    4.844137    0.000000
     0.000000    0.000000   30.000000
   V    Mo   W    S 
   3   3   3  18
Direct configuration=    15
  -0.02123864  0.64927817  0.00040736
   0.68797260  0.00333300 -0.00037001
   0.33286092  0.65885510 -0.00002494
   0.64935744  0.34669494 -0.00021747
   0.01718917  0.03039900  0.00019172
   0.33333667  0.32155304  0.00001031
   1.01382837  0.31820463 -0.00017434
   0.33304372  0.02864358 -0.00001418
   0.65284879  0.63779477  0.00020201
   0.11850216  0.22689456  0.94340862
   0.22120212  0.11242970  0.05670775
   0.11092148  0.55586946  0.95137727
   0.22474440  0.44769429  0.05215953
   0.10902956  0.88641555  0.95081997
   0.21977891  0.77804973  0.04517247
   0.44532319  0.22443415  0.94329279
   0.55746756  0.11064306  0.04907182
   0.44185331  0.55622899  0.94787077
   0.54810090  0.44174671  0.05660551
   0.44678300  0.89153623  0.95488483
   0.55548796  0.77822065  0.04861822
   0.77679299  0.22220458  0.95277185
   0.88612012  0.10982761  0.05436701
   0.78055080  0.55711593  0.94566948
   0.88774454  0.43999507  0.04803918
   0.77887204  0.88549263  0.95185704
   0.88974039  0.77865931  0.04729532
unknown system                          
           1
     8.344960    4.764872    0.000000
    -8.390883    4.844398    0.000000
     0.000000    0.000000   30.000000
   V    Mo   W    S 
   3   3   3  18
Direct configuration=    16
  -0.02211607  0.64782828  0.00035102
   0.68887175  0.00269157 -0.00031427
   0.33284750  0.65736692 -0.00002758
   0.64926093  0.34706621 -0.00020724
   0.01723482  0.03084617  0.00017916
   0.33333254  0.32228536  0.00000961
   1.01405062  0.31832308 -0.00019388
   0.33304608  0.02933490 -0.00001738
   0.65258208  0.63772124  0.00022180
   0.11866852  0.22708022  0.94335072
   0.22118550  0.11279674  0.05674090
   0.11089492  0.55572679  0.95133074
   0.22470254  0.44785820  0.05231012
   0.10896530  0.88634853  0.95095782
   0.21974767  0.77821619  0.04486407
   0.44536099  0.22482797  0.94326551
   0.55755711  0.11065471  0.04892180
   0.44191759  0.55643853  0.94772501
   0.54794368  0.44177695  0.05666422
   0.44681847  0.89173524  0.95519688
   0.55551303  0.77811728  0.04866207
   0.77663385  0.22214222  0.95303162
   0.88642502  0.11007353  0.05443045
   0.78025687  0.55707588  0.94558946
   0.88744470  0.43963676  0.04810661
   0.77917422  0.88546754  0.95179543
   0.88989423  0.77877745  0.04705520
unknown system                          
           1
     8.338604    4.759460    0.000000
    -8.386009    4.841551    0.000000
     0.000000    0.000000   30.000000
   V    Mo   W    S 
   3   3   3  18
Direct configuration=    17
  -0.02237577  0.64734401  0.00033000
   0.68905938  0.00242943 -0.00028907
   0.33283883  0.65676712 -0.00002748
   0.64923713  0.34716018 -0.00020138
   0.01730732  0.03096779  0.00017316
   0.33332909  0.32256013  0.00001137
   1.01410246  0.31841874 -0.00020336
   0.33304318  0.02953778 -0.00001545
   0.65256329  0.63776573  0.00023280
   0.11868797  0.22714890  0.94334483
   0.22120288  0.11294789  0.05673639
   0.11089430  0.55569943  0.95131745
   0.22465591  0.44791266  0.05235871
   0.10894771  0.88632137  0.95100212
   0.21973431  0.77823988  0.04475290
   0.44534310  0.22496183  0.94326686
   0.55757222  0.11065172  0.04887787
   0.44195820  0.55653577  0.94767494
   0.54792757  0.44183423  0.05666779
   0.44681927  0.89176629  0.95530380
   0.55550471  0.77807981  0.04868046
   0.77655153  0.22209196  0.95310632
   0.88651746  0.11015067  0.05445575
   0.78017890  0.55707179  0.94557193
   0.88733582  0.43956755  0.04813785
   0.77929615  0.88548498  0.95175413
   0.88998151  0.77879681  0.04697919
unknown system                          
           1
     8.338849    4.757380    0.000000
    -8.388241    4.842915    0.000000
     0.000000    0.000000   30.000000
   V    Mo   W    S 
   3   3   3  18
Direct configuration=    18
  -0.02129336  0.64947608  0.00043892
   0.68791754  0.00357994 -0.00040020
   0.33282502  0.65954260 -0.00002457
   0.64931168  0.34669328 -0.00021959
   0.01731499  0.03046075  0.00019673
   0.33333284  0.32110752  0.00001283
   1.01410234  0.31817400 -0.00017309
   0.33303797  0.02873980 -0.00001031
   0.65263687  0.63746257  0.00020424
   0.11861625  0.22682795  0.94337899
   0.22111187  0.11224696  0.05671788
   0.11086708  0.55582625  0.95139319
   0.22487476  0.44767478  0.05213307
   0.10902733  0.88644923  0.95082249
   0.21977937  0.77815284  0.04523541
   0.44540968  0.22433020  0.94328286
   0.55743519  0.11068255  0.04907067
   0.44172412  0.55608534  0.94789942
   0.54798835  0.44156657  0.05663053
   0.44676068  0.89162933  0.95481875
   0.55552139  0.77819813  0.04860122
   0.77695167  0.22240880  0.95275822
   0.88613666  0.10982135  0.05438115
   0.78057812  0.55710816  0.94566102
   0.88785879  0.43996361  0.04797272
   0.77878382  0.88531953  0.95191247
   0.88960343  0.77868633  0.04730489
unknown system                          
           1
     8.337975    4.750219    0.000000
    -8.393395    4.846200    0.000000
     0.000000    0.000000   30.000000
   V    Mo   W    S 
   3   3   3  18
Direct configuration=    19
  -0.02101631  0.65036113  0.00050029
   0.68745602  0.00419025 -0.00046219
   0.33277340  0.66124468 -0.00002167
   0.64931819  0.34651499 -0.00022924
   0.01745550  0.03031717  0.00020765
   0.33331830  0.32017266  0.00001353
   1.01443609  0.31811331 -0.00015419
   0.33302751  0.02855209 -0.00000515
   0.65242386  0.63703001  0.00018609
   0.11872654  0.22666399  0.94335117
   0.22096758  0.11185109  0.05674506
   0.11078890  0.55581950  0.95143666
   0.22510364  0.44759180  0.05202779
   0.10901915  0.88648092  0.95076948
   0.21976169  0.77822013  0.04544553
   0.44554622  0.22406191  0.94325724
   0.55738765  0.11072917  0.04913666
   0.44149681  0.55578334  0.94800876
   0.54787825  0.44128732  0.05665674
   0.44672896  0.89169005  0.95459866
   0.55556578  0.77820789  0.04855772
   0.77725294  0.22272690  0.95264038
   0.88604687  0.10972667  0.05437118
   0.78072938  0.55711723  0.94568375
   0.88814219  0.44003932  0.04785431
   0.77853677  0.88505783  0.95201736
   0.88934258  0.77866311  0.04740634
unknown system                          
           1
     8.347799    4.758574    0.000000
    -8.400849    4.850449    0.000000
     0.000000    0.000000   30.000000
   V    Mo   W    S 
   3   3   3  18
Direct configuration=    20
  -0.02022986  0.65313064  0.00066429
   0.68626759  0.00619013 -0.00066129
   0.33262417  0.66772463 -0.00000976
   0.64948642  0.34617748 -0.00026925
   0.01747038  0.02991794  0.00025455
   0.33326076  0.31709981  0.00000056
   1.01543362  0.31764974 -0.00003628
   0.33305619  0.02768613 -0.00000579
   0.65162796  0.63550917  0.00006184
   0.11907715  0.22611297  0.94331161
   0.22046252  0.11056160  0.05686496
   0.11054356  0.55584221  0.95162746
   0.22594147  0.44721523  0.05156122
   0.10900519  0.88651546  0.95060665
   0.21952347  0.77832178  0.04617557
   0.44607866  0.22324964  0.94317422
   0.55728817  0.11081288  0.04934692
   0.44074795  0.55463583  0.94850993
   0.54753953  0.44034857  0.05670464
   0.44680422  0.89192369  0.95384180
   0.55574111  0.77830799  0.04834101
   0.77836707  0.22369456  0.95232159
   0.88581293  0.10947247  0.05419425
   0.78115320  0.55713030  0.94581026
   0.88913867  0.44023454  0.04742794
   0.77762420  0.88424563  0.95247937
   0.88836815  0.77850344  0.04770163
unknown system                          
           1
     8.348765    4.758550    0.000000
    -8.402054    4.850834    0.000000
     0.000000    0.000000   30.000000
   V    Mo   W    S 
   3   3   3  18
Direct configuration=    21
  -0.02113719  0.65110201  0.00054030
   0.68751576  0.00502575 -0.00054378
   0.33268760  0.66478177 -0.00001462
   0.64944175  0.34660344 -0.00025574
   0.01722930  0.03031872  0.00023244
   0.33326853  0.31877658 -0.00000518
   1.01514399  0.31778171 -0.00006305
   0.33307202  0.02831187 -0.00001883
   0.65168721  0.63602453  0.00008151
   0.11908114  0.22645312  0.94328281
   0.22060383  0.11131327  0.05689747
   0.11061518  0.55575006  0.95153395
   0.22567834  0.44745099  0.05179669
   0.10893250  0.88637799  0.95075839
   0.21949062  0.77833946  0.04571164
   0.44597737  0.22390003  0.94315012
   0.55747093  0.11075448  0.04917207
   0.44104557  0.55512983  0.94827683
   0.54754194  0.44069272  0.05674418
   0.44690485  0.89200577  0.95432316
   0.55572153  0.77824771  0.04842731
   0.77788167  0.22323676  0.95265382
   0.88612036  0.10975869  0.05424731
   0.78075010  0.55709086  0.94571640
   0.88856973  0.43983497  0.04763546
   0.77812721  0.88453986  0.95231053
   0.88879260  0.77861149  0.04740872
unknown system                          
           1
     8.349737    4.759057    0.000000
    -8.403047    4.851376    0.000000
     0.000000    0.000000   30.000000
   V    Mo   W    S 
   3   3   3  18
Direct configuration=    22
  -0.02164089  0.65016540  0.00048053
   0.68811470  0.00460286 -0.00047865
   0.33266477  0.66502955 -0.00001229
   0.64928595  0.34681436 -0.00024168
   0.01734814  0.03065751  0.00023477
   0.33329481  0.31881235  0.00002031
   1.01532391  0.31779835 -0.00009677
   0.33307556  0.02870681 -0.00000275
   0.65144926  0.63582788  0.00013354
   0.11912014  0.22655775  0.94329746
   0.22057149  0.11150179  0.05682292
   0.11061484  0.55568904  0.95154774
   0.22576027  0.44753250  0.05178004
   0.10892941  0.88632258  0.95089589
   0.21926808  0.77828863  0.04556371
   0.44603717  0.22415532  0.94319007
   0.55752594  0.11070112  0.04902352
   0.44095249  0.55511963  0.94827462
   0.54751237  0.44077678  0.05670168
   0.44715250  0.89218513  0.95447420
   0.55577138  0.77826534  0.04840609
   0.77778211  0.22309563  0.95287343
   0.88625013  0.10987221  0.05429704
   0.78052803  0.55703453  0.94566877
   0.88836422  0.43958920  0.04766871
   0.77829939  0.88451449  0.95227576
   0.88885828  0.77859772  0.04720124
unknown system                          
           1
     8.353065    4.761788    0.000000
    -8.405703    4.852943    0.000000
     0.000000    0.000000   30.000000
   V    Mo   W    S 
   3   3   3  18
Direct configuration=    23
  -0.02186414  0.64970228  0.00045644
   0.68833442  0.00434294 -0.00045241
   0.33265875  0.66465798 -0.00001392
   0.64928241  0.34692282 -0.00024056
   0.01736163  0.03076490  0.00022978
   0.33329885  0.31901573  0.00001849
   1.01533823  0.31786504 -0.00009953
   0.33307561  0.02888406 -0.00000406
   0.65143997  0.63588824  0.00013412
   0.11913423  0.22661594  0.94329520
   0.22058235  0.11161877  0.05681857
   0.11060993  0.55565763  0.95153404
   0.22571778  0.44757304  0.05180782
   0.10892471  0.88630213  0.95093922
   0.21922912  0.77829571  0.04548141
   0.44602291  0.22426205  0.94319516
   0.55753968  0.11068590  0.04897937
   0.44098956  0.55519791  0.94824614
   0.54749912  0.44082578  0.05670690
   0.44719363  0.89223162  0.95455679
   0.55577693  0.77824725  0.04842292
   0.77769971  0.22303385  0.95294610
   0.88632740  0.10993172  0.05431903
   0.78044150  0.55701827  0.94565461
   0.88825723  0.43951733  0.04769826
   0.77840768  0.88454196  0.95224062
   0.88893528  0.77861361  0.04712938
unknown system                          
           1
     8.353721    4.762217    0.000000
    -8.406260    4.853199    0.000000
     0.000000    0.000000   30.000000
   V    Mo   W    S 
   3   3   3  18
Direct configuration=    24
  -0.02243670  0.64806636  0.00034806
   0.68929498  0.00331344 -0.00034702
   0.33268221  0.66369542 -0.00002361
   0.64905679  0.34717525 -0.00023797
   0.01730435  0.03117623  0.00021290
   0.33334484  0.31966673  0.00000834
   1.01539657  0.31803620 -0.00009415
   0.33310675  0.02955628 -0.00001843
   0.65114530  0.63604015  0.00011901
   0.11921766  0.22686966  0.94326997
   0.22059696  0.11202986  0.05683904
   0.11062194  0.55546664  0.95145071
   0.22563708  0.44778203  0.05188857
   0.10894867  0.88627397  0.95109650
   0.21911174  0.77837541  0.04520928
   0.44602581  0.22468790  0.94318369
   0.55762329  0.11061988  0.04879448
   0.44108406  0.55547121  0.94816326
   0.54741665  0.44099651  0.05674746
   0.44742802  0.89249022  0.95486158