   27   27  100    1
  0.9710400E+02  0.1002848E-08  0.1002848E-08  0.3000000E-08  0.5000000E-15
  1.000000000000000E-004
  CAR 
 unknown system                          
    159     34    120
 
  0.0000000E+00  0.0000000E+00  0.0000000E+00  0.1562500E-01
    1      -17.805063   1.000000
    2      -16.715027   1.000000
    3      -16.679824   1.000000
    4      -16.527861   1.000000
    5      -16.501473   1.000000
    6      -16.496936   1.000000
    7      -16.410613   1.000000
    8      -16.349615   1.000000
    9      -16.141580   1.000000
   10      -16.120917   1.000000
   11      -16.102384   1.000000
   12      -16.016826   1.000000
   13      -15.866132   1.000000
   14      -15.653999   1.000000
   15      -15.631455   1.000000
   16      -15.505906   1.000000
   17      -15.292347   1.000000
   18      -15.251953   1.000000
   19       -9.431735   1.000000
   20       -8.986295   1.000000
   21       -8.871196   1.000000
   22       -8.843444   1.000000
   23       -8.761342   1.000000
   24       -8.714495   1.000000
   25       -8.621266   1.000000
   26       -8.574125   1.000000
   27       -8.509432   1.000000
   28       -8.401923   1.000000
   29       -8.357781   1.000000
   30       -8.346188   1.000000
   31       -8.318938   1.000000
   32       -8.120065   1.000000
   33       -7.997704   1.000000
   34       -7.976279   1.000000
   35       -7.880828   1.000000
   36       -7.797700   1.000000
   37       -7.758776   1.000000
   38       -7.550280   1.000000
   39       -7.452111   1.000000
   40       -7.436667   1.000000
   41       -7.304058   1.000000
   42       -7.287701   1.000000
   43       -7.104554   1.000000
   44       -6.977327   1.000000
   45       -6.822938   1.000000
   46       -6.819873   1.000000
   47       -6.711766   1.000000
   48       -6.611194   1.000000
   49       -6.581691   1.000000
   50       -6.531643   1.000000
   51       -6.419358   1.000000
   52       -6.384369   1.000000
   53       -6.274241   1.000000
   54       -6.252006   1.000000
   55       -6.247957   1.000000
   56       -6.199960   1.000000
   57       -6.035682   1.000000
   58       -5.907256   1.000000
   59       -5.704469   1.000000
   60       -5.588426   1.000000
   61       -5.510359   1.000000
   62       -5.431079   1.000000
   63       -5.243026   1.000000
   64       -5.213029   1.000000
   65       -5.138211   1.000000
   66       -5.000184   1.000000
   67       -4.986540   1.000000
   68       -4.819988   1.000000
   69       -4.813479   1.000000
   70       -4.733159   1.000000
   71       -4.647789   1.000000
   72       -4.579815   1.000000
   73       -4.449660   1.000000
   74       -4.222405   1.000000
   75       -4.154663   1.000000
   76       -4.046105   1.000000
   77       -3.793535   0.999844
   78       -3.559086   0.974223
   79       -3.506396   0.942287
   80       -3.433558   0.855250
   81       -3.301524   0.549975
   82       -2.867705   0.001631
   83       -2.688930   0.000013
   84       -2.616273   0.000001
   85       -2.477668   0.000000
   86       -2.434750   0.000000
   87       -2.305061   0.000000
   88       -2.192522   0.000000
   89       -2.146832   0.000000
   90       -2.040246   0.000000
   91       -1.950905   0.000000
   92       -1.834377   0.000000
   93       -1.294685   0.000000
   94       -1.282943   0.000000
   95       -1.124135   0.000000
   96       -1.055917   0.000000
   97       -1.034831   0.000000
   98       -0.824727   0.000000
   99       -0.749510   0.000000
  100       -0.689188   0.000000
  101       -0.626540   0.000000
  102       -0.459309   0.000000
  103       -0.432793   0.000000
  104       -0.363652   0.000000
  105       -0.268635   0.000000
  106       -0.063264   0.000000
  107       -0.023039   0.000000
  108        0.015310   0.000000
  109        0.096595   0.000000
  110        0.311170   0.000000
  111        0.348007   0.000000
  112        0.436173   0.000000
  113        0.519014   0.000000
  114        0.867458   0.000000
  115        0.944754   0.000000
  116        1.039649   0.000000
  117        1.084812   0.000000
  118        1.621037   0.000000
  119        1.822129   0.000000
  120        2.130729   0.000000
 
  0.1250000E+00  0.2775558E-16  0.0000000E+00  0.3125000E-01
    1      -17.781268   1.000000
    2      -16.789707   1.000000
    3      -16.712086   1.000000
    4      -16.573040   1.000000
    5      -16.548250   1.000000
    6      -16.443270   1.000000
    7      -16.384324   1.000000
    8      -16.293740   1.000000
    9      -16.176282   1.000000
   10      -16.115923   1.000000
   11      -16.050256   1.000000
   12      -15.980863   1.000000
   13      -15.841583   1.000000
   14      -15.670693   1.000000
   15      -15.630295   1.000000
   16      -15.513448   1.000000
   17      -15.297173   1.000000
   18      -15.257330   1.000000
   19       -9.452694   1.000000
   20       -9.075054   1.000000
   21       -8.965105   1.000000
   22       -8.957008   1.000000
   23       -8.772709   1.000000
   24       -8.725921   1.000000
   25       -8.677858   1.000000
   26       -8.531057   1.000000
   27       -8.460792   1.000000
   28       -8.441297   1.000000
   29       -8.386805   1.000000
   30       -8.234808   1.000000
   31       -8.184484   1.000000
   32       -8.049029   1.000000
   33       -8.002757   1.000000
   34       -7.870660   1.000000
   35       -7.830610   1.000000
   36       -7.755472   1.000000
   37       -7.700145   1.000000
   38       -7.569760   1.000000
   39       -7.503127   1.000000
   40       -7.432960   1.000000
   41       -7.276907   1.000000
   42       -7.246238   1.000000
   43       -7.146026   1.000000
   44       -7.019565   1.000000
   45       -6.884365   1.000000
   46       -6.833662   1.000000
   47       -6.726818   1.000000
   48       -6.633106   1.000000
   49       -6.553871   1.000000
   50       -6.474060   1.000000
   51       -6.441511   1.000000
   52       -6.383699   1.000000
   53       -6.314077   1.000000
   54       -6.250229   1.000000
   55       -6.235374   1.000000
   56       -6.159271   1.000000
   57       -5.955998   1.000000
   58       -5.921710   1.000000
   59       -5.707753   1.000000
   60       -5.590295   1.000000
   61       -5.544041   1.000000
   62       -5.447771   1.000000
   63       -5.349263   1.000000
   64       -5.240123   1.000000
   65       -5.177369   1.000000
   66       -5.055891   1.000000
   67       -4.992991   1.000000
   68       -4.853561   1.000000
   69       -4.784663   1.000000
   70       -4.704124   1.000000
   71       -4.617957   1.000000
   72       -4.496175   1.000000
   73       -4.427649   1.000000
   74       -4.202478   1.000000
   75       -4.069386   1.000000
   76       -4.045472   1.000000
   77       -3.920504   0.999997
   78       -3.701598   0.998434
   79       -3.509832   0.945041
   80       -3.416669   0.826338
   81       -3.174585   0.220059
   82       -2.838812   0.000827
   83       -2.669068   0.000007
   84       -2.617998   0.000001
   85       -2.467025   0.000000
   86       -2.424596   0.000000
   87       -2.277901   0.000000
   88       -2.190681   0.000000
   89       -2.122958   0.000000
   90       -2.036612   0.000000
   91       -1.940260   0.000000
   92       -1.851303   0.000000
   93       -1.304031   0.000000
   94       -1.287773   0.000000
   95       -1.103749   0.000000
   96       -1.062666   0.000000
   97       -1.032536   0.000000
   98       -0.855231   0.000000
   99       -0.768107   0.000000
  100       -0.726999   0.000000
  101       -0.680228   0.000000
  102       -0.542055   0.000000
  103       -0.510789   0.000000
  104       -0.417402   0.000000
  105       -0.259947   0.000000
  106       -0.119348   0.000000
  107       -0.030529   0.000000
  108       -0.006100   0.000000
  109        0.086654   0.000000
  110        0.288492   0.000000
  111        0.381859   0.000000
  112        0.463740   0.000000
  113        0.584402   0.000000
  114        0.856952   0.000000
  115        0.952407   0.000000
  116        1.073036   0.000000
  117        1.114329   0.000000
  118        1.665397   0.000000
  119        1.860798   0.000000
  120        2.165682   0.000000
 
  0.2500000E+00  0.5551115E-16  0.0000000E+00  0.3125000E-01
    1      -17.711932   1.000000
    2      -16.982710   1.000000
    3      -16.725944   1.000000
    4      -16.627281   1.000000
    5      -16.604030   1.000000
    6      -16.391290   1.000000
    7      -16.355229   1.000000
    8      -16.243746   1.000000
    9      -16.152401   1.000000
   10      -16.074114   1.000000
   11      -16.027457   1.000000
   12      -15.916786   1.000000
   13      -15.785743   1.000000
   14      -15.700722   1.000000
   15      -15.620395   1.000000
   16      -15.533774   1.000000
   17      -15.310897   1.000000
   18      -15.269816   1.000000
   19       -9.566238   1.000000
   20       -9.240874   1.000000
   21       -9.112605   1.000000
   22       -9.029532   1.000000
   23       -8.823176   1.000000
   24       -8.776207   1.000000
   25       -8.650289   1.000000
   26       -8.511159   1.000000
   27       -8.463554   1.000000
   28       -8.363802   1.000000
   29       -8.308343   1.000000
   30       -8.168291   1.000000
   31       -8.147873   1.000000
   32       -8.034871   1.000000
   33       -7.898431   1.000000
   34       -7.781351   1.000000
   35       -7.740256   1.000000
   36       -7.677332   1.000000
   37       -7.620806   1.000000
   38       -7.499393   1.000000
   39       -7.474282   1.000000
   40       -7.387156   1.000000
   41       -7.309970   1.000000
   42       -7.187234   1.000000
   43       -7.138826   1.000000
   44       -7.035504   1.000000
   45       -6.913784   1.000000
   46       -6.868771   1.000000
   47       -6.762175   1.000000
   48       -6.639652   1.000000
   49       -6.579486   1.000000
   50       -6.472867   1.000000
   51       -6.419011   1.000000
   52       -6.380081   1.000000
   53       -6.300909   1.000000
   54       -6.229306   1.000000
   55       -6.189178   1.000000
   56       -6.064285   1.000000
   57       -5.954717   1.000000
   58       -5.882745   1.000000
   59       -5.742361   1.000000
   60       -5.707306   1.000000
   61       -5.632203   1.000000
   62       -5.585129   1.000000
   63       -5.530283   1.000000
   64       -5.289819   1.000000
   65       -5.205432   1.000000
   66       -5.058068   1.000000
   67       -4.988059   1.000000
   68       -4.888791   1.000000
   69       -4.766608   1.000000
   70       -4.618763   1.000000
   71       -4.530387   1.000000
   72       -4.398851   1.000000
   73       -4.370224   1.000000
   74       -4.268225   1.000000
   75       -4.125753   1.000000
   76       -4.046550   1.000000
   77       -3.967450   0.999999
   78       -3.838136   0.999956
   79       -3.456935   0.889622
   80       -3.422684   0.837032
   81       -3.034584   0.039039
   82       -2.771474   0.000146
   83       -2.641721   0.000003
   84       -2.595220   0.000001
   85       -2.456016   0.000000
   86       -2.397015   0.000000
   87       -2.243230   0.000000
   88       -2.156641   0.000000
   89       -2.073607   0.000000
   90       -2.015462   0.000000
   91       -1.910699   0.000000
   92       -1.864959   0.000000
   93       -1.337497   0.000000
   94       -1.297545   0.000000
   95       -1.098860   0.000000
   96       -1.058867   0.000000
   97       -1.037314   0.000000
   98       -0.965558   0.000000
   99       -0.870660   0.000000
  100       -0.815251   0.000000
  101       -0.725056   0.000000
  102       -0.685844   0.000000
  103       -0.620592   0.000000
  104       -0.496022   0.000000
  105       -0.346653   0.000000
  106       -0.236087   0.000000
  107       -0.103841   0.000000
  108       -0.016025   0.000000
  109        0.095019   0.000000
  110        0.219298   0.000000
  111        0.430868   0.000000
  112        0.512055   0.000000
  113        0.623125   0.000000
  114        0.865740   0.000000
  115        1.042998   0.000000
  116        1.149965   0.000000
  117        1.186380   0.000000
  118        1.788524   0.000000
  119        1.971480   0.000000
  120        2.269158   0.000000
 
  0.3750000E+00  0.0000000E+00  0.0000000E+00  0.3125000E-01
    1      -17.607066   1.000000
    2      -17.178305   1.000000
    3      -16.749114   1.000000
    4      -16.668668   1.000000
    5      -16.611838   1.000000
    6      -16.395446   1.000000
    7      -16.350590   1.000000
    8      -16.189495   1.000000
    9      -16.113876   1.000000
   10      -16.012078   1.000000
   11      -15.982784   1.000000
   12      -15.905164   1.000000
   13      -15.774226   1.000000
   14      -15.742588   1.000000
   15      -15.566899   1.000000
   16      -15.546439   1.000000
   17      -15.335991   1.000000
   18      -15.277819   1.000000
   19       -9.724554   1.000000
   20       -9.321832   1.000000
   21       -9.222015   1.000000
   22       -9.033084   1.000000
   23       -8.882248   1.000000
   24       -8.810098   1.000000
   25       -8.589590   1.000000
   26       -8.449589   1.000000
   27       -8.394151   1.000000
   28       -8.314504   1.000000
   29       -8.281770   1.000000
   30       -8.215353   1.000000
   31       -8.151512   1.000000
   32       -7.995710   1.000000
   33       -7.941846   1.000000
   34       -7.792014   1.000000
   35       -7.745938   1.000000
   36       -7.654572   1.000000
   37       -7.580173   1.000000
   38       -7.466812   1.000000
   39       -7.386677   1.000000
   40       -7.251459   1.000000
   41       -7.226884   1.000000
   42       -7.151153   1.000000
   43       -7.065312   1.000000
   44       -7.017189   1.000000
   45       -6.878109   1.000000
   46       -6.848849   1.000000
   47       -6.693353   1.000000
   48       -6.601247   1.000000
   49       -6.576903   1.000000
   50       -6.514274   1.000000
   51       -6.412232   1.000000
   52       -6.351094   1.000000
   53       -6.259414   1.000000
   54       -6.194022   1.000000
   55       -6.144612   1.000000
   56       -6.063113   1.000000
   57       -6.022537   1.000000
   58       -5.954297   1.000000
   59       -5.862008   1.000000
   60       -5.813400   1.000000
   61       -5.753735   1.000000
   62       -5.679126   1.000000
   63       -5.569206   1.000000
   64       -5.387150   1.000000
   65       -5.183004   1.000000
   66       -4.989031   1.000000
   67       -4.951326   1.000000
   68       -4.879312   1.000000
   69       -4.816102   1.000000
   70       -4.690554   1.000000
   71       -4.524775   1.000000
   72       -4.450875   1.000000
   73       -4.327013   1.000000
   74       -4.243134   1.000000
   75       -4.153533   1.000000
   76       -4.085263   1.000000
   77       -3.984343   1.000000
   78       -3.723028   0.999052
   79       -3.464866   0.899833
   80       -3.408824   0.811740
   81       -2.950032   0.009142
   82       -2.712305   0.000027
   83       -2.627399   0.000002
   84       -2.558672   0.000000
   85       -2.447962   0.000000
   86       -2.347381   0.000000
   87       -2.252632   0.000000
   88       -2.099612   0.000000
   89       -2.055085   0.000000
   90       -1.974430   0.000000
   91       -1.871130   0.000000
   92       -1.819585   0.000000
   93       -1.376895   0.000000
   94       -1.315591   0.000000
   95       -1.181422   0.000000
   96       -1.119851   0.000000
   97       -1.059603   0.000000
   98       -1.000748   0.000000
   99       -0.928992   0.000000
  100       -0.896964   0.000000
  101       -0.835677   0.000000
  102       -0.758251   0.000000
  103       -0.707409   0.000000
  104       -0.531189   0.000000
  105       -0.441198   0.000000
  106       -0.291213   0.000000
  107       -0.186016   0.000000
  108       -0.038996   0.000000
  109        0.052106   0.000000
  110        0.139432   0.000000
  111        0.461232   0.000000
  112        0.546799   0.000000
  113        0.623296   0.000000
  114        0.901913   0.000000
  115        1.149750   0.000000
  116        1.226664   0.000000
  117        1.261369   0.000000
  118        1.971854   0.000000
  119        2.143465   0.000000
  120        2.435519   0.000000
 
  0.5000000E+00  0.1110223E-15  0.0000000E+00  0.1562500E-01
    1      -17.528070   1.000000
    2      -17.289646   1.000000
    3      -16.759977   1.000000
    4      -16.682715   1.000000
    5      -16.609278   1.000000
    6      -16.407706   1.000000
    7      -16.346202   1.000000
    8      -16.171331   1.000000
    9      -16.094678   1.000000
   10      -15.978634   1.000000
   11      -15.937988   1.000000
   12      -15.922782   1.000000
   13      -15.782331   1.000000
   14      -15.771905   1.000000
   15      -15.571350   1.000000
   16      -15.508503   1.000000
   17      -15.355460   1.000000
   18      -15.278962   1.000000
   19       -9.790039   1.000000
   20       -9.349673   1.000000
   21       -9.260186   1.000000
   22       -9.027498   1.000000
   23       -8.903678   1.000000
   24       -8.808250   1.000000
   25       -8.562569   1.000000
   26       -8.426312   1.000000
   27       -8.373391   1.000000
   28       -8.300443   1.000000
   29       -8.275720   1.000000
   30       -8.214800   1.000000
   31       -8.115193   1.000000
   32       -8.047883   1.000000
   33       -7.917198   1.000000
   34       -7.848617   1.000000
   35       -7.808534   1.000000
   36       -7.641933   1.000000
   37       -7.590869   1.000000
   38       -7.444261   1.000000
   39       -7.370132   1.000000
   40       -7.162449   1.000000
   41       -7.152817   1.000000
   42       -7.104574   1.000000
   43       -7.069527   1.000000
   44       -6.986181   1.000000
   45       -6.873939   1.000000
   46       -6.772497   1.000000
   47       -6.638708   1.000000
   48       -6.609993   1.000000
   49       -6.547057   1.000000
   50       -6.477984   1.000000
   51       -6.393217   1.000000
   52       -6.337295   1.000000
   53       -6.297097   1.000000
   54       -6.277689   1.000000
   55       -6.225121   1.000000
   56       -6.112777   1.000000
   57       -6.014713   1.000000
   58       -5.950451   1.000000
   59       -5.870983   1.000000
   60       -5.816504   1.000000
   61       -5.762721   1.000000
   62       -5.627555   1.000000
   63       -5.596771   1.000000
   64       -5.459113   1.000000
   65       -5.217452   1.000000
   66       -5.035924   1.000000
   67       -4.956167   1.000000
   68       -4.917432   1.000000
   69       -4.853519   1.000000
   70       -4.667515   1.000000
   71       -4.511834   1.000000
   72       -4.424396   1.000000
   73       -4.316447   1.000000
   74       -4.241707   1.000000
   75       -4.213148   1.000000
   76       -4.067753   1.000000
   77       -3.957568   0.999999
   78       -3.646537   0.994844
   79       -3.506590   0.942445
   80       -3.391886   0.777732
   81       -2.922372   0.005303
   82       -2.696790   0.000017
   83       -2.607478   0.000001
   84       -2.555394   0.000000
   85       -2.440506   0.000000
   86       -2.305328   0.000000
   87       -2.272270   0.000000
   88       -2.088888   0.000000
   89       -2.042197   0.000000
   90       -1.959564   0.000000
   91       -1.850395   0.000000
   92       -1.779049   0.000000
   93       -1.394414   0.000000
   94       -1.318421   0.000000
   95       -1.253196   0.000000
   96       -1.136693   0.000000
   97       -1.092312   0.000000
   98       -1.025626   0.000000
   99       -0.933966   0.000000
  100       -0.918268   0.000000
  101       -0.870896   0.000000
  102       -0.781969   0.000000
  103       -0.752355   0.000000
  104       -0.550743   0.000000
  105       -0.453841   0.000000
  106       -0.318052   0.000000
  107       -0.220816   0.000000
  108       -0.036976   0.000000
  109        0.007372   0.000000
  110        0.112443   0.000000
  111        0.470924   0.000000
  112        0.558384   0.000000
  113        0.623637   0.000000
  114        0.918516   0.000000
  115        1.188937   0.000000
  116        1.258712   0.000000
  117        1.292919   0.000000
  118        2.189162   0.000000
  119        2.214996   0.000000
  120        2.360769   0.000000
 
  0.0000000E+00  0.1250000E+00  0.0000000E+00  0.3125000E-01
    1      -17.781263   1.000000
    2      -16.788934   1.000000
    3      -16.711953   1.000000
    4      -16.574443   1.000000
    5      -16.547860   1.000000
    6      -16.444387   1.000000
    7      -16.384515   1.000000
    8      -16.292354   1.000000
    9      -16.174837   1.000000
   10      -16.118235   1.000000
   11      -16.049978   1.000000
   12      -15.980858   1.000000
   13      -15.840768   1.000000
   14      -15.671265   1.000000
   15      -15.629642   1.000000
   16      -15.513648   1.000000
   17      -15.297102   1.000000
   18      -15.257458   1.000000
   19       -9.452616   1.000000
   20       -9.073436   1.000000
   21       -8.966524   1.000000
   22       -8.956876   1.000000
   23       -8.772615   1.000000
   24       -8.727072   1.000000
   25       -8.678020   1.000000
   26       -8.530414   1.000000
   27       -8.462247   1.000000
   28       -8.441425   1.000000
   29       -8.386814   1.000000
   30       -8.235191   1.000000
   31       -8.183590   1.000000
   32       -8.051386   1.000000
   33       -8.001565   1.000000
   34       -7.870634   1.000000
   35       -7.828675   1.000000
   36       -7.754228   1.000000
   37       -7.700568   1.000000
   38       -7.569750   1.000000
   39       -7.502940   1.000000
   40       -7.430977   1.000000
   41       -7.276755   1.000000
   42       -7.246623   1.000000
   43       -7.146683   1.000000
   44       -7.019650   1.000000
   45       -6.885487   1.000000
   46       -6.833093   1.000000
   47       -6.728308   1.000000
   48       -6.634659   1.000000
   49       -6.552925   1.000000
   50       -6.473771   1.000000
   51       -6.441108   1.000000
   52       -6.384336   1.000000
   53       -6.316030   1.000000
   54       -6.247782   1.000000
   55       -6.236197   1.000000
   56       -6.158861   1.000000
   57       -5.956534   1.000000
   58       -5.921098   1.000000
   59       -5.705946   1.000000
   60       -5.590643   1.000000
   61       -5.542649   1.000000
   62       -5.447484   1.000000
   63       -5.348175   1.000000
   64       -5.244807   1.000000
   65       -5.174704   1.000000
   66       -5.052649   1.000000
   67       -4.998761   1.000000
   68       -4.854892   1.000000
   69       -4.788596   1.000000
   70       -4.701182   1.000000
   71       -4.615830   1.000000
   72       -4.496337   1.000000
   73       -4.426419   1.000000
   74       -4.202732   1.000000
   75       -4.070665   1.000000
   76       -4.042184   1.000000
   77       -3.918281   0.999996
   78       -3.702876   0.998480
   79       -3.514766   0.948813
   80       -3.414274   0.821960
   81       -3.171349   0.213343
   82       -2.840986   0.000871
   83       -2.670131   0.000007
   84       -2.619327   0.000001
   85       -2.466869   0.000000
   86       -2.424061   0.000000
   87       -2.277171   0.000000
   88       -2.192988   0.000000
   89       -2.122383   0.000000
   90       -2.039063   0.000000
   91       -1.938838   0.000000
   92       -1.848628   0.000000
   93       -1.306783   0.000000
   94       -1.284819   0.000000
   95       -1.103921   0.000000
   96       -1.063251   0.000000
   97       -1.030965   0.000000
   98       -0.855072   0.000000
   99       -0.766813   0.000000
  100       -0.726935   0.000000
  101       -0.681344   0.000000
  102       -0.543687   0.000000
  103       -0.510603   0.000000
  104       -0.415822   0.000000
  105       -0.263994   0.000000
  106       -0.113970   0.000000
  107       -0.030302   0.000000
  108       -0.008579   0.000000
  109        0.086746   0.000000
  110        0.286907   0.000000
  111        0.380683   0.000000
  112        0.460184   0.000000
  113        0.588241   0.000000
  114        0.849193   0.000000
  115        0.960655   0.000000
  116        1.074858   0.000000
  117        1.113835   0.000000
  118        1.665496   0.000000
  119        1.860768   0.000000
  120        2.165710   0.000000
 
  0.1250000E+00  0.1250000E+00  0.0000000E+00  0.3125000E-01
    1      -17.734946   1.000000
    2      -16.908506   1.000000
    3      -16.763327   1.000000
    4      -16.663551   1.000000
    5      -16.483058   1.000000
    6      -16.405321   1.000000
    7      -16.386814   1.000000
    8      -16.258717   1.000000
    9      -16.157869   1.000000
   10      -16.116562   1.000000
   11      -15.994054   1.000000
   12      -15.956238   1.000000
   13      -15.783997   1.000000
   14      -15.706205   1.000000
   15      -15.612207   1.000000
   16      -15.539997   1.000000
   17      -15.312804   1.000000
   18      -15.257958   1.000000
   19       -9.528213   1.000000
   20       -9.212055   1.000000
   21       -9.114433   1.000000
   22       -9.010067   1.000000
   23       -8.770465   1.000000
   24       -8.699628   1.000000
   25       -8.687797   1.000000
   26       -8.500409   1.000000
   27       -8.484046   1.000000
   28       -8.350616   1.000000
   29       -8.284058   1.000000
   30       -8.283525   1.000000
   31       -8.125491   1.000000
   32       -8.074139   1.000000
   33       -7.850646   1.000000
   34       -7.839443   1.000000
   35       -7.812573   1.000000
   36       -7.737278   1.000000
   37       -7.595402   1.000000
   38       -7.509886   1.000000
   39       -7.428432   1.000000
   40       -7.396969   1.000000
   41       -7.307640   1.000000
   42       -7.192154   1.000000
   43       -7.180969   1.000000
   44       -7.087416   1.000000
   45       -6.882811   1.000000
   46       -6.858226   1.000000
   47       -6.761096   1.000000
   48       -6.704034   1.000000
   49       -6.531696   1.000000
   50       -6.502453   1.000000
   51       -6.400262   1.000000
   52       -6.362055   1.000000
   53       -6.346561   1.000000
   54       -6.233827   1.000000
   55       -6.203188   1.000000
   56       -6.068688   1.000000
   57       -5.927933   1.000000
   58       -5.894205   1.000000
   59       -5.693460   1.000000
   60       -5.689916   1.000000
   61       -5.614659   1.000000
   62       -5.600037   1.000000
   63       -5.380350   1.000000
   64       -5.292410   1.000000
   65       -5.177921   1.000000
   66       -5.157366   1.000000
   67       -5.009014   1.000000
   68       -4.805595   1.000000
   69       -4.801136   1.000000
   70       -4.649547   1.000000
   71       -4.529243   1.000000
   72       -4.398021   1.000000
   73       -4.383428   1.000000
   74       -4.173980   1.000000
   75       -4.130970   1.000000
   76       -4.041289   1.000000
   77       -4.005496   1.000000
   78       -3.845801   0.999965
   79       -3.485996   0.923643
   80       -3.391317   0.776532
   81       -3.086362   0.081383
   82       -2.798458   0.000300
   83       -2.631377   0.000002
   84       -2.607385   0.000001
   85       -2.444721   0.000000
   86       -2.416879   0.000000
   87       -2.220244   0.000000
   88       -2.206967   0.000000
   89       -2.058400   0.000000
   90       -2.017156   0.000000
   91       -1.917271   0.000000
   92       -1.881382   0.000000
   93       -1.330406   0.000000
   94       -1.300212   0.000000
   95       -1.068054   0.000000
   96       -1.063067   0.000000
   97       -1.048171   0.000000
   98       -0.934392   0.000000
   99       -0.866711   0.000000
  100       -0.769234   0.000000
  101       -0.708755   0.000000
  102       -0.692100   0.000000
  103       -0.565589   0.000000
  104       -0.536588   0.000000
  105       -0.294460   0.000000
  106       -0.116922   0.000000
  107       -0.111379   0.000000
  108       -0.035656   0.000000
  109        0.065955   0.000000
  110        0.258017   0.000000
  111        0.382666   0.000000
  112        0.519817   0.000000
  113        0.628964   0.000000
  114        0.920288   0.000000
  115        0.953529   0.000000
  116        1.150620   0.000000
  117        1.163995   0.000000
  118        1.750129   0.000000
  119        1.935847   0.000000
  120        2.235165   0.000000
 
  0.2500000E+00  0.1250000E+00  0.0000000E+00  0.3125000E-01
    1      -17.646924   1.000000
    2      -17.077781   1.000000
    3      -16.863488   1.000000
    4      -16.659381   1.000000
    5      -16.476764   1.000000
    6      -16.385003   1.000000
    7      -16.368287   1.000000
    8      -16.228920   1.000000
    9      -16.117848   1.000000
   10      -16.079239   1.000000
   11      -15.971204   1.000000
   12      -15.911736   1.000000
   13      -15.758126   1.000000
   14      -15.738021   1.000000
   15      -15.578559   1.000000
   16      -15.557607   1.000000
   17      -15.332042   1.000000
   18      -15.265337   1.000000
   19       -9.655256   1.000000
   20       -9.386663   1.000000
   21       -9.206311   1.000000
   22       -9.055927   1.000000
   23       -8.803709   1.000000
   24       -8.672889   1.000000
   25       -8.600668   1.000000
   26       -8.462240   1.000000
   27       -8.408823   1.000000
   28       -8.344483   1.000000
   29       -8.248634   1.000000
   30       -8.220793   1.000000
   31       -8.179148   1.000000
   32       -8.074504   1.000000
   33       -7.954071   1.000000
   34       -7.843784   1.000000
   35       -7.781903   1.000000
   36       -7.615447   1.000000
   37       -7.544105   1.000000
   38       -7.426050   1.000000
   39       -7.383528   1.000000
   40       -7.348691   1.000000
   41       -7.210633   1.000000
   42       -7.152859   1.000000
   43       -7.087804   1.000000
   44       -7.046896   1.000000
   45       -6.913070   1.000000
   46       -6.835372   1.000000
   47       -6.776914   1.000000