       N       E                     dE             d eps       ncg     rms          rms(c)
DAV:   1     0.112373481025E+04    0.11237E+04   -0.35857E+04  8160   0.577E+02
DAV:   2    -0.409561061611E+01   -0.11278E+04   -0.10859E+04 11280   0.173E+02
DAV:   3    -0.199869792457E+03   -0.19577E+03   -0.18816E+03 10880   0.819E+01
DAV:   4    -0.208941662952E+03   -0.90719E+01   -0.87890E+01 12000   0.261E+01
DAV:   5    -0.209288052426E+03   -0.34639E+00   -0.34543E+00 11560   0.373E+00    0.275E+01
DAV:   6    -0.236914118373E+03   -0.27626E+02   -0.11024E+02 12480   0.602E+01    0.594E+01
DAV:   7    -0.196546993150E+03    0.40367E+02   -0.17638E+02 13480   0.152E+02    0.202E+01
DAV:   8    -0.189541911098E+03    0.70051E+01   -0.17296E+01 12000   0.128E+01    0.127E+01
DAV:   9    -0.188239229067E+03    0.13027E+01   -0.35993E+00 12520   0.613E+00    0.930E+00
DAV:  10    -0.187050155649E+03    0.11891E+01   -0.18753E+00 13360   0.759E+00    0.289E+00
DAV:  11    -0.187015659559E+03    0.34496E-01   -0.64187E-01 13560   0.270E+00    0.308E+00
DAV:  12    -0.187177088989E+03   -0.16143E+00   -0.10674E+00 12240   0.536E+00    0.494E+00
DAV:  13    -0.186926702203E+03    0.25039E+00   -0.47761E-01 12760   0.394E+00    0.211E+00
DAV:  14    -0.186877674168E+03    0.49028E-01   -0.10073E-01 13000   0.138E+00    0.718E-01
DAV:  15    -0.186871752923E+03    0.59212E-02   -0.28753E-02 11880   0.913E-01    0.610E-01
DAV:  16    -0.186867989348E+03    0.37636E-02   -0.14254E-02 12640   0.591E-01    0.261E-01
DAV:  17    -0.186868750421E+03   -0.76107E-03   -0.43461E-03 13040   0.391E-01    0.431E-01
DAV:  18    -0.186867057097E+03    0.16933E-02   -0.27607E-03 11080   0.317E-01    0.606E-02
DAV:  19    -0.186867745086E+03   -0.68799E-03   -0.79404E-04  9440   0.597E-02    0.562E-02
DAV:  20    -0.186868673029E+03   -0.92794E-03   -0.34481E-04  7880   0.669E-02    0.496E-02
DAV:  21    -0.186869094745E+03   -0.42172E-03   -0.13168E-04  6960   0.350E-02    0.363E-02
DAV:  22    -0.186870538117E+03   -0.14434E-02   -0.21176E-04  7640   0.461E-02    0.179E-02
DAV:  23    -0.186871187105E+03   -0.64899E-03   -0.36263E-05  6720   0.186E-02    0.124E-02
DAV:  24    -0.186871433656E+03   -0.24655E-03   -0.17604E-05  5840   0.120E-02    0.698E-03
DAV:  25    -0.186871833676E+03   -0.40002E-03   -0.15691E-05  5520   0.120E-02    0.676E-03
DAV:  26    -0.186872068806E+03   -0.23513E-03   -0.93858E-06  6800   0.941E-03    0.188E-03
DAV:  27    -0.186872170375E+03   -0.10157E-03   -0.45903E-06  7040   0.480E-03    0.146E-03
DAV:  28    -0.186872213314E+03   -0.42938E-04   -0.19574E-06  7160   0.402E-03
   1 F= -.18687221E+03 E0= -.18670005E+03  d E =-.186872E+03
       N       E                     dE             d eps       ncg     rms          rms(c)
DAV:   1    -0.187510423325E+03   -0.63825E+00   -0.27186E+02  8160   0.350E+01    0.465E+00
DAV:   2    -0.189496352695E+03   -0.19859E+01   -0.20301E+01 12240   0.155E+01    0.969E+00
DAV:   3    -0.189361422663E+03    0.13493E+00   -0.50129E+00 12400   0.126E+01    0.627E+00
DAV:   4    -0.188780405974E+03    0.58102E+00   -0.56945E-01 11680   0.437E+00    0.199E+00
DAV:   5    -0.188894616650E+03   -0.11421E+00   -0.45751E-01 12520   0.374E+00    0.492E+00
DAV:   6    -0.188765343504E+03    0.12927E+00   -0.62258E-01 12640   0.415E+00    0.255E+00
DAV:   7    -0.188706531062E+03    0.58812E-01   -0.20836E-01 11120   0.147E+00    0.115E+00
DAV:   8    -0.188684172126E+03    0.22359E-01   -0.47342E-02 11600   0.683E-01    0.451E-01
DAV:   9    -0.188682730875E+03    0.14413E-02   -0.61724E-03 11840   0.265E-01    0.227E-01
DAV:  10    -0.188682360891E+03    0.36998E-03   -0.28590E-03 13040   0.239E-01    0.199E-01
DAV:  11    -0.188682427303E+03   -0.66412E-04   -0.16457E-03 12160   0.236E-01    0.219E-01
DAV:  12    -0.188682265553E+03    0.16175E-03   -0.91648E-04 10320   0.170E-01    0.100E-01
DAV:  13    -0.188682179805E+03    0.85748E-04   -0.23124E-04  7600   0.658E-02
   2 F= -.18868218E+03 E0= -.18854181E+03  d E =-.180997E+01
       N       E                     dE             d eps       ncg     rms          rms(c)
DAV:   1    -0.190602104393E+03   -0.19198E+01   -0.31162E+01  9240   0.142E+01    0.444E+00
DAV:   2    -0.190552618558E+03    0.49486E-01   -0.27776E+00 11280   0.945E+00    0.720E+00
DAV:   3    -0.190085368440E+03    0.46725E+00   -0.13224E+00 12320   0.860E+00    0.421E+00
DAV:   4    -0.189874107523E+03    0.21126E+00   -0.72001E-01 12880   0.424E+00    0.245E+00
DAV:   5    -0.189783573438E+03    0.90534E-01   -0.28012E-01 11840   0.189E+00    0.734E-01
DAV:   6    -0.189771764718E+03    0.11809E-01   -0.33802E-02 10480   0.604E-01    0.200E-01
DAV:   7    -0.189771934310E+03   -0.16959E-03   -0.46170E-03  9520   0.195E-01    0.131E-01
DAV:   8    -0.189772356050E+03   -0.42174E-03   -0.10489E-03 10680   0.143E-01    0.170E-01
DAV:   9    -0.189772454496E+03   -0.98446E-04   -0.13814E-03 10680   0.236E-01    0.205E-01
DAV:  10    -0.189772131346E+03    0.32315E-03   -0.71724E-04  9280   0.176E-01    0.606E-02
DAV:  11    -0.189772117679E+03    0.13667E-04   -0.14684E-04  6080   0.561E-02
   3 F= -.18977212E+03 E0= -.18965351E+03  d E =-.108994E+01
       N       E                     dE             d eps       ncg     rms          rms(c)
DAV:   1    -0.191351610972E+03   -0.15795E+01   -0.76986E+01  8160   0.200E+01    0.464E+00
DAV:   2    -0.191206969286E+03    0.14464E+00   -0.55046E+00 13200   0.807E+00    0.494E+00
DAV:   3    -0.191319041819E+03   -0.11207E+00   -0.16433E+00 12000   0.921E+00    0.714E+00
DAV:   4    -0.190979066035E+03    0.33998E+00   -0.17584E+00 12240   0.825E+00    0.431E+00
DAV:   5    -0.190952027491E+03    0.27039E-01   -0.93357E-01 11200   0.593E+00    0.363E+00
DAV:   6    -0.190766880313E+03    0.18515E+00   -0.22614E-01 11480   0.305E+00    0.696E-01
DAV:   7    -0.190762470473E+03    0.44098E-02   -0.42235E-02 11240   0.813E-01    0.538E-01
DAV:   8    -0.190762938548E+03   -0.46808E-03   -0.15958E-02 11680   0.834E-01    0.664E-01
DAV:   9    -0.190758793554E+03    0.41450E-02   -0.61542E-03 11040   0.582E-01    0.152E-01
DAV:  10    -0.190759031252E+03   -0.23770E-03   -0.11523E-03 10200   0.127E-01    0.119E-01
DAV:  11    -0.190758938124E+03    0.93128E-04   -0.73945E-04 10520   0.967E-02
   4 F= -.19075894E+03 E0= -.19065586E+03  d E =-.986820E+00
       N       E                     dE             d eps       ncg     rms          rms(c)
DAV:   1    -0.192097608932E+03   -0.13386E+01   -0.16016E+02  8160   0.283E+01    0.571E+00
DAV:   2    -0.191929988186E+03    0.16762E+00   -0.96588E+00 11920   0.905E+00    0.493E+00
DAV:   3    -0.192385709228E+03   -0.45572E+00   -0.27658E+00 12240   0.115E+01    0.962E+00
DAV:   4    -0.191586075713E+03    0.79963E+00   -0.26404E+00 12200   0.110E+01    0.321E+00
DAV:   5    -0.191407171787E+03    0.17890E+00   -0.41569E-01 12000   0.276E+00    0.928E-01
DAV:   6    -0.191397178726E+03    0.99931E-02   -0.11017E-01 11320   0.142E+00    0.918E-01
DAV:   7    -0.191401177779E+03   -0.39991E-02   -0.66515E-02 11840   0.173E+00    0.112E+00
DAV:   8    -0.191386965644E+03    0.14212E-01   -0.18353E-02 11880   0.967E-01    0.216E-01
DAV:   9    -0.191387791975E+03   -0.82633E-03   -0.34581E-03 11920   0.402E-01    0.322E-01
DAV:  10    -0.191387285581E+03    0.50639E-03   -0.34096E-03 11600   0.332E-01    0.115E-01
DAV:  11    -0.191387126694E+03    0.15889E-03   -0.76204E-04 10320   0.110E-01    0.551E-02
DAV:  12    -0.191387093733E+03    0.32960E-04   -0.14484E-04  7400   0.414E-02
   5 F= -.19138709E+03 E0= -.19128593E+03  d E =-.628156E+00
       N       E                     dE             d eps       ncg     rms          rms(c)
DAV:   1    -0.191425027968E+03   -0.37901E-01   -0.31929E+00  8160   0.379E+00    0.476E-01
DAV:   2    -0.191451429070E+03   -0.26401E-01   -0.18002E-01 12600   0.194E+00    0.123E+00
DAV:   3    -0.191436576997E+03    0.14852E-01   -0.44060E-02 12200   0.143E+00    0.407E-01
DAV:   4    -0.191436706136E+03   -0.12914E-03   -0.96658E-03 11280   0.607E-01    0.502E-01
DAV:   5    -0.191434573520E+03    0.21326E-02   -0.56359E-03 11240   0.514E-01    0.202E-01
DAV:   6    -0.191434269637E+03    0.30388E-03   -0.14725E-03 11080   0.187E-01    0.915E-02
DAV:   7    -0.191434163342E+03    0.10630E-03   -0.71696E-04 10040   0.101E-01    0.538E-02
DAV:   8    -0.191434172049E+03   -0.87070E-05   -0.19857E-04  7000   0.955E-02
   6 F= -.19143417E+03 E0= -.19133110E+03  d E =-.470783E-01
       N       E                     dE             d eps       ncg     rms          rms(c)
DAV:   1    -0.191475310197E+03   -0.41147E-01   -0.42674E+00  8160   0.438E+00    0.499E-01
DAV:   2    -0.191489849929E+03   -0.14540E-01   -0.13609E-01 13280   0.132E+00    0.876E-01
DAV:   3    -0.191484660910E+03    0.51890E-02   -0.40498E-02 12040   0.132E+00    0.640E-01
DAV:   4    -0.191481632115E+03    0.30288E-02   -0.11954E-02 11760   0.664E-01    0.415E-01
DAV:   5    -0.191480639021E+03    0.99309E-03   -0.60599E-03 11120   0.550E-01    0.307E-01
DAV:   6    -0.191479736331E+03    0.90269E-03   -0.25504E-03 11000   0.307E-01    0.105E-01
DAV:   7    -0.191479688788E+03    0.47542E-04   -0.85328E-04  9880   0.136E-01
   7 F= -.19147969E+03 E0= -.19137539E+03  d E =-.455167E-01
       N       E                     dE             d eps       ncg     rms          rms(c)
DAV:   1    -0.191498075942E+03   -0.18340E-01   -0.56810E-01  8160   0.164E+00    0.243E-01
DAV:   2    -0.191501588724E+03   -0.35128E-02   -0.25763E-02 12600   0.741E-01    0.559E-01
DAV:   3    -0.191498774738E+03    0.28140E-02   -0.89615E-03 11720   0.668E-01    0.230E-01
DAV:   4    -0.191498677199E+03    0.97539E-04   -0.25492E-03 10280   0.333E-01    0.231E-01
DAV:   5    -0.191498216381E+03    0.46082E-03   -0.16799E-03 10200   0.292E-01    0.126E-01
DAV:   6    -0.191498049027E+03    0.16735E-03   -0.60145E-04  9320   0.133E-01    0.425E-02
DAV:   7    -0.191498055825E+03   -0.67988E-05   -0.17154E-04  5840   0.730E-02
   8 F= -.19149806E+03 E0= -.19139342E+03  d E =-.183670E-01
       N       E                     dE             d eps       ncg     rms          rms(c)
DAV:   1    -0.191492493071E+03    0.55560E-02   -0.60860E-02  8160   0.529E-01    0.560E-02
DAV:   2    -0.191492870735E+03   -0.37766E-03   -0.21323E-03 12840   0.185E-01    0.168E-01
DAV:   3    -0.191492597517E+03    0.27322E-03   -0.66024E-04  8480   0.176E-01    0.542E-02
DAV:   4    -0.191492607947E+03   -0.10429E-04   -0.13426E-04  5880   0.738E-02
   9 F= -.19149261E+03 E0= -.19138796E+03  d E =0.544788E-02
       N       E                     dE             d eps       ncg     rms          rms(c)
DAV:   1    -0.191494620375E+03   -0.20229E-02   -0.17073E-01  8160   0.984E-01    0.265E-01
DAV:   2    -0.191493757003E+03    0.86337E-03   -0.10710E-02 11360   0.465E-01    0.356E-01
DAV:   3    -0.191493345797E+03    0.41121E-03   -0.70103E-03 11320   0.583E-01    0.317E-01
DAV:   4    -0.191492556032E+03    0.78977E-03   -0.43384E-03 10120   0.399E-01    0.255E-01
DAV:   5    -0.191492445694E+03    0.11034E-03   -0.28217E-03 10240   0.367E-01    0.236E-01
DAV:   6    -0.191491790186E+03    0.65551E-03   -0.11093E-03  9520   0.214E-01    0.244E-02
DAV:   7    -0.191491818340E+03   -0.28154E-04   -0.86200E-05  6040   0.492E-02
  10 F= -.19149182E+03 E0= -.19138700E+03  d E =0.789607E-03
       N       E                     dE             d eps       ncg     rms          rms(c)
DAV:   1    -0.191462267482E+03    0.29523E-01   -0.13343E+00  8160   0.246E+00    0.277E-01
DAV:   2    -0.191467774949E+03   -0.55075E-02   -0.45824E-02 13120   0.837E-01    0.529E-01
DAV:   3    -0.191465173368E+03    0.26016E-02   -0.98957E-03 12160   0.724E-01    0.278E-01
DAV:   4    -0.191464615083E+03    0.55828E-03   -0.25176E-03 11280   0.314E-01    0.197E-01
DAV:   5    -0.191464464528E+03    0.15056E-03   -0.17318E-03 10040   0.271E-01    0.174E-01
DAV:   6    -0.191464222513E+03    0.24201E-03   -0.87179E-04  9320   0.170E-01    0.653E-02
DAV:   7    -0.191464235141E+03   -0.12628E-04   -0.29189E-04  7920   0.974E-02
  11 F= -.19146424E+03 E0= -.19135981E+03  d E =0.275832E-01
       N       E                     dE             d eps       ncg     rms          rms(c)
DAV:   1    -0.191463596686E+03    0.62583E-03   -0.82093E-04 10440   0.111E-01    0.298E-02
DAV:   2    -0.191463795454E+03   -0.19877E-03   -0.42455E-04  8800   0.143E-01    0.141E-01
DAV:   3    -0.191463578987E+03    0.21647E-03   -0.30753E-04  7360   0.128E-01    0.162E-02
DAV:   4    -0.191463591823E+03   -0.12836E-04   -0.16407E-05  5840   0.187E-02
  12 F= -.19146359E+03 E0= -.19135915E+03  d E =0.643318E-03
       N       E                     dE             d eps       ncg     rms          rms(c)
DAV:   1    -0.191465645979E+03   -0.20670E-02   -0.82159E-02  8160   0.600E-01    0.104E-01
DAV:   2    -0.191468158145E+03   -0.25122E-02   -0.63557E-03 12880   0.528E-01    0.500E-01
DAV:   3    -0.191465619581E+03    0.25386E-02   -0.38970E-03  9840   0.450E-01    0.477E-02
DAV:   4    -0.191465631002E+03   -0.11421E-04   -0.10498E-04  5680   0.506E-02
  13 F= -.19146563E+03 E0= -.19136114E+03  d E =-.203918E-02
       N       E                     dE             d eps       ncg     rms          rms(c)
DAV:   1    -0.191463338049E+03    0.22815E-02   -0.77204E-01  8160   0.186E+00    0.319E-01
DAV:   2    -0.191485205539E+03   -0.21867E-01   -0.57508E-02 13240   0.155E+00    0.146E+00
DAV:   3    -0.191463667391E+03    0.21538E-01   -0.35270E-02 10480   0.134E+00    0.189E-01
DAV:   4    -0.191463634348E+03    0.33043E-04   -0.21412E-03 11360   0.282E-01    0.205E-01
DAV:   5    -0.191463411864E+03    0.22248E-03   -0.15886E-03 10240   0.272E-01    0.155E-01
DAV:   6    -0.191463276663E+03    0.13520E-03   -0.84472E-04  8640   0.179E-01    0.119E-01
DAV:   7    -0.191463177368E+03    0.99295E-04   -0.50889E-04  8480   0.153E-01
  14 F= -.19146318E+03 E0= -.19135852E+03  d E =0.245363E-02
       N       E                     dE             d eps       ncg     rms          rms(c)
DAV:   1    -0.191495005020E+03   -0.31728E-01   -0.51094E+00  8160   0.480E+00    0.726E-01
DAV:   2    -0.191589714495E+03   -0.94709E-01   -0.27946E-01 13600   0.329E+00    0.304E+00
DAV:   3    -0.191498318700E+03    0.91396E-01   -0.17113E-01 11600   0.290E+00    0.549E-01
DAV:   4    -0.191497527184E+03    0.79152E-03   -0.15060E-02 11360   0.815E-01    0.587E-01
DAV:   5    -0.191495318379E+03    0.22088E-02   -0.11188E-02 11880   0.715E-01    0.375E-01
DAV:   6    -0.191494690428E+03    0.62795E-03   -0.61005E-03 10160   0.480E-01    0.320E-01
DAV:   7    -0.191493791174E+03    0.89925E-03   -0.32446E-03 11880   0.393E-01    0.129E-01
DAV:   8    -0.191493565244E+03    0.22593E-03   -0.54249E-04  9840   0.120E-01    0.287E-02
DAV:   9    -0.191493564454E+03    0.78976E-06   -0.75706E-05  7200   0.326E-02
  15 F= -.19149356E+03 E0= -.19138912E+03  d E =-.303871E-01
       N       E                     dE             d eps       ncg     rms          rms(c)
DAV:   1    -0.191528831084E+03   -0.35266E-01   -0.85732E+00  8160   0.619E+00    0.105E+00
DAV:   2    -0.191783953447E+03   -0.25512E+00   -0.73607E-01 13080   0.520E+00    0.528E+00
DAV:   3    -0.191544721551E+03    0.23923E+00   -0.53112E-01 11360   0.477E+00    0.781E-01
DAV:   4    -0.191542071574E+03    0.26500E-02   -0.32448E-02 11440   0.120E+00    0.884E-01
DAV:   5    -0.191535588203E+03    0.64834E-02   -0.17781E-02 11560   0.869E-01    0.317E-01
DAV:   6    -0.191535075552E+03    0.51265E-03   -0.60783E-03 11400   0.462E-01    0.320E-01
DAV:   7    -0.191534693338E+03    0.38221E-03   -0.46226E-03 11960   0.479E-01    0.234E-01
DAV:   8    -0.191533958955E+03    0.73438E-03   -0.13767E-03 11680   0.218E-01    0.341E-02
DAV:   9    -0.191533973625E+03   -0.14671E-04   -0.12862E-04  6680   0.407E-02
  16 F= -.19153397E+03 E0= -.19142983E+03  d E =-.404092E-01
       N       E                     dE             d eps       ncg     rms          rms(c)
DAV:   1    -0.191545573724E+03   -0.11615E-01   -0.29019E-01  8160   0.116E+00    0.158E-01
DAV:   2    -0.191547910215E+03   -0.23365E-02   -0.12362E-02 13600   0.540E-01    0.464E-01
DAV:   3    -0.191545863979E+03    0.20462E-02   -0.55999E-03 11200   0.499E-01    0.135E-01
DAV:   4    -0.191545759310E+03    0.10467E-03   -0.73544E-04  9720   0.161E-01    0.978E-02
DAV:   5    -0.191545729046E+03    0.30264E-04   -0.52857E-04  9400   0.162E-01
  17 F= -.19154573E+03 E0= -.19144168E+03  d E =-.117554E-01
       N       E                     dE             d eps       ncg     rms          rms(c)
DAV:   1    -0.191513395579E+03    0.32364E-01   -0.64286E+00  8160   0.547E+00    0.887E-01
DAV:   2    -0.191621494497E+03   -0.10810E+00   -0.39203E-01 13400   0.365E+00    0.310E+00
DAV:   3    -0.191517538644E+03    0.10396E+00   -0.18877E-01 12240   0.316E+00    0.651E-01
DAV:   4    -0.191515977774E+03    0.15609E-02   -0.21676E-02 11120   0.990E-01    0.648E-01
DAV:   5    -0.191513194689E+03    0.27831E-02   -0.16464E-02 12040   0.921E-01    0.478E-01
DAV:   6    -0.191511733691E+03    0.14610E-02   -0.87969E-03 11560   0.586E-01    0.390E-01
DAV:   7    -0.191510824037E+03    0.90965E-03   -0.60399E-03 10880   0.499E-01    0.232E-01
DAV:   8    -0.191510221166E+03    0.60287E-03   -0.13657E-03 10080   0.207E-01    0.366E-02
DAV:   9    -0.191510221957E+03   -0.79140E-06   -0.10909E-04  6560   0.380E-02
  18 F= -.19151022E+03 E0= -.19140592E+03  d E =0.355071E-01
       N       E                     dE             d eps       ncg     rms          rms(c)
DAV:   1    -0.191606363718E+03   -0.96143E-01   -0.17954E+01  8160   0.927E+00    0.133E+00
DAV:   2    -0.191786317064E+03   -0.17995E+00   -0.87204E-01 13600   0.459E+00    0.449E+00
DAV:   3    -0.191625134315E+03    0.16118E+00   -0.51755E-01 11920   0.457E+00    0.109E+00
DAV:   4    -0.191620282430E+03    0.48519E-02   -0.55269E-02 12080   0.148E+00    0.120E+00
DAV:   5    -0.191610295470E+03    0.99870E-02   -0.48207E-02 11640   0.156E+00    0.810E-01
DAV:   6    -0.191602952946E+03    0.73425E-02   -0.19670E-02 11520   0.793E-01    0.245E-01
DAV:   7    -0.191602765713E+03    0.18723E-03   -0.56770E-03 11960   0.385E-01    0.251E-01
DAV:   8    -0.191602108889E+03    0.65682E-03   -0.21035E-03 11960   0.321E-01    0.111E-01
DAV:   9    -0.191601934787E+03    0.17410E-03   -0.38999E-04  9320   0.122E-01    0.395E-02
DAV:  10    -0.191601915669E+03    0.19118E-04   -0.15726E-04  6360   0.448E-02
  19 F= -.19160192E+03 E0= -.19150020E+03  d E =-.916937E-01
       N       E                     dE             d eps       ncg     rms          rms(c)
DAV:   1    -0.191619273174E+03   -0.17338E-01   -0.14844E+01  8160   0.823E+00    0.133E+00
DAV:   2    -0.191892185977E+03   -0.27291E+00   -0.94083E-01 13560   0.574E+00    0.503E+00
DAV:   3    -0.191634573703E+03    0.25761E+00   -0.55235E-01 12120   0.517E+00    0.116E+00
DAV:   4    -0.191626858824E+03    0.77149E-02   -0.52007E-02 11680   0.167E+00    0.109E+00
DAV:   5    -0.191619142024E+03    0.77168E-02   -0.38435E-02 12400   0.136E+00    0.691E-01
DAV:   6    -0.191616930580E+03    0.22114E-02   -0.19921E-02 10320   0.919E-01    0.586E-01
DAV:   7    -0.191613561935E+03    0.33686E-02   -0.10516E-02 12520   0.712E-01    0.229E-01
DAV:   8    -0.191612904692E+03    0.65724E-03   -0.20177E-03 12400   0.221E-01    0.491E-02
DAV:   9    -0.191612899100E+03    0.55919E-05   -0.23266E-04  8200   0.517E-02
  20 F= -.19161290E+03 E0= -.19151272E+03  d E =-.109834E-01
       N       E                     dE             d eps       ncg     rms          rms(c)
DAV:   1    -0.191662727202E+03   -0.49823E-01   -0.97372E+00  8160   0.673E+00    0.100E+00
DAV:   2    -0.191810799972E+03   -0.14807E+00   -0.56862E-01 13600   0.414E+00    0.380E+00
DAV:   3    -0.191672439135E+03    0.13836E+00   -0.33511E-01 12000   0.388E+00    0.750E-01
DAV:   4    -0.191671378688E+03    0.10604E-02   -0.27470E-02 11320   0.115E+00    0.914E-01
DAV:   5    -0.191665173875E+03    0.62048E-02   -0.22299E-02 11760   0.109E+00    0.468E-01
DAV:   6    -0.191663423794E+03    0.17501E-02   -0.91455E-03 11480   0.614E-01    0.372E-01
DAV:   7    -0.191662699775E+03    0.72402E-03   -0.58006E-03 11800   0.557E-01    0.252E-01
DAV:   8    -0.191661880671E+03    0.81910E-03   -0.17255E-03 11720   0.260E-01    0.405E-02
DAV:   9    -0.191661867133E+03    0.13538E-04   -0.12929E-04  6560   0.405E-02
  21 F= -.19166187E+03 E0= -.19156437E+03  d E =-.489680E-01
       N       E                     dE             d eps       ncg     rms          rms(c)
DAV:   1    -0.191718361600E+03   -0.56481E-01   -0.37155E+00  8160   0.416E+00    0.436E-01
DAV:   2    -0.191724302078E+03   -0.59405E-02   -0.10520E-01 12280   0.887E-01    0.327E-01
DAV:   3    -0.191727753738E+03   -0.34517E-02   -0.15862E-02 11680   0.870E-01    0.673E-01
DAV:   4    -0.191722659289E+03    0.50944E-02   -0.94643E-03 11040   0.712E-01    0.184E-01
DAV:   5    -0.191723127580E+03   -0.46829E-03   -0.29375E-03 11120   0.364E-01    0.274E-01
DAV:   6    -0.191722480544E+03    0.64704E-03   -0.26343E-03 11600   0.379E-01    0.139E-01
DAV:   7    -0.191722238812E+03    0.24173E-03   -0.59738E-04  8560   0.156E-01    0.680E-02
DAV:   8    -0.191722212027E+03    0.26785E-04   -0.14836E-04  6640   0.969E-02
  22 F= -.19172221E+03 E0= -.19162898E+03  d E =-.603449E-01
       N       E                     dE             d eps       ncg     rms          rms(c)
DAV:   1    -0.191674552270E+03    0.47687E-01   -0.28625E+00  8160   0.362E+00    0.406E-01
DAV:   2    -0.191689797288E+03   -0.15245E-01   -0.97271E-02 13520   0.135E+00    0.109E+00
DAV:   3    -0.191678517557E+03    0.11280E-01   -0.36475E-02 12160   0.124E+00    0.335E-01
DAV:   4    -0.191677486410E+03    0.10311E-02   -0.37859E-03 11480   0.337E-01    0.192E-01
DAV:   5    -0.191677720398E+03   -0.23399E-03   -0.27831E-03 12280   0.375E-01    0.299E-01
DAV:   6    -0.191677047299E+03    0.67310E-03   -0.21546E-03 10920   0.345E-01    0.124E-01
DAV:   7    -0.191676846854E+03    0.20044E-03   -0.42116E-04  8800   0.110E-01    0.161E-02
DAV:   8    -0.191676857945E+03   -0.11090E-04   -0.60710E-05  7560   0.320E-02
  23 F= -.19167686E+03 E0= -.19158044E+03  d E =0.453541E-01
       N       E                     dE             d eps       ncg     rms          rms(c)
DAV:   1    -0.191653194218E+03    0.23653E-01   -0.50686E+00  8160   0.481E+00    0.638E-01
DAV:   2    -0.191703380091E+03   -0.50186E-01   -0.22926E-01 13600   0.249E+00    0.212E+00
DAV:   3    -0.191657644743E+03    0.45735E-01   -0.11493E-01 12280   0.223E+00    0.489E-01
DAV:   4    -0.191657501398E+03    0.14334E-03   -0.11955E-02 11360   0.756E-01    0.546E-01
DAV:   5    -0.191655380860E+03    0.21205E-02   -0.87652E-03 12520   0.717E-01    0.341E-01
DAV:   6    -0.191654651226E+03    0.72963E-03   -0.42093E-03 11240   0.441E-01    0.266E-01
DAV:   7    -0.191654345202E+03    0.30602E-03   -0.29669E-03 11360   0.394E-01    0.183E-01
DAV:   8    -0.191653906158E+03    0.43904E-03   -0.79569E-04  9560   0.176E-01    0.226E-02
DAV:   9    -0.191653918684E+03   -0.12526E-04   -0.76696E-05  6480   0.295E-02
  24 F= -.19165392E+03 E0= -.19155633E+03  d E =0.229393E-01
       N       E                     dE             d eps       ncg     rms          rms(c)
DAV:   1    -0.191721015852E+03   -0.67110E-01   -0.73441E+00  8160   0.585E+00    0.653E-01
DAV:   2    -0.191746082266E+03   -0.25066E-01   -0.23697E-01 13440   0.183E+00    0.123E+00
DAV:   3    -0.191734359039E+03    0.11723E-01   -0.66784E-02 12120   0.176E+00    0.698E-01
DAV:   4    -0.191728800464E+03    0.55586E-02   -0.12301E-02 12320   0.694E-01    0.258E-01
DAV:   5    -0.191729068777E+03   -0.26831E-03   -0.56127E-03 11840   0.496E-01    0.366E-01
DAV:   6    -0.191728272963E+03    0.79581E-03   -0.51274E-03 11880   0.544E-01    0.238E-01
DAV:   7    -0.191727689805E+03    0.58316E-03   -0.14956E-03 11160   0.282E-01    0.149E-01
DAV:   8    -0.191727492966E+03    0.19684E-03   -0.50356E-04  8440   0.167E-01    0.470E-02
DAV:   9    -0.191727464832E+03    0.28134E-04   -0.73613E-05  6600   0.487E-02
  25 F= -.19172746E+03 E0= -.19163491E+03  d E =-.735461E-01
       N       E                     dE             d eps       ncg     rms          rms(c)
DAV:   1    -0.191748198444E+03   -0.20705E-01   -0.10066E+00  8160   0.215E+00    0.255E-01
DAV:   2    -0.191753856564E+03   -0.56581E-02   -0.35561E-02 13560   0.855E-01    0.667E-01
DAV:   3    -0.191749363877E+03    0.44927E-02   -0.13455E-02 12320   0.795E-01    0.208E-01
DAV:   4    -0.191749015360E+03    0.34852E-03   -0.15274E-03 10400   0.222E-01    0.131E-01
DAV:   5    -0.191749072013E+03   -0.56653E-04   -0.10162E-03 11360   0.250E-01    0.178E-01
DAV:   6    -0.191748810596E+03    0.26142E-03   -0.66870E-04  8480   0.207E-01    0.745E-02
DAV:   7    -0.191748836933E+03   -0.26337E-04   -0.33067E-04  8280   0.131E-01
  26 F= -.19174884E+03 E0= -.19165767E+03  d E =-.213721E-01
       N       E                     dE             d eps       ncg     rms          rms(c)
DAV:   1    -0.191755138341E+03   -0.63277E-02   -0.62911E+00  8160   0.533E+00    0.669E-01
DAV:   2    -0.191801344477E+03   -0.46206E-01   -0.22576E-01 13600   0.254E+00    0.197E+00
DAV:   3    -0.191758531713E+03    0.42813E-01   -0.94618E-02 12200   0.222E+00    0.450E-01
DAV:   4    -0.191757214561E+03    0.13172E-02   -0.92874E-03 10920   0.585E-01    0.363E-01
DAV:   5    -0.191757289254E+03   -0.74693E-04   -0.73608E-03 11480   0.681E-01    0.435E-01
DAV:   6    -0.191755584033E+03    0.17052E-02   -0.40363E-03 11720   0.488E-01    0.195E-01
DAV:   7    -0.191755919122E+03   -0.33509E-03   -0.24523E-03  9960   0.380E-01    0.251E-01
DAV:   8    -0.191755168308E+03    0.75081E-03   -0.10669E-03  9840   0.246E-01    0.254E-02
DAV:   9    -0.191755186103E+03   -0.17794E-04   -0.67212E-05  6320   0.292E-02
  27 F= -.19175519E+03 E0= -.19166497E+03  d E =-.634917E-02
       N       E                     dE             d eps       ncg     rms          rms(c)
DAV:   1    -0.191748498673E+03    0.66696E-02   -0.10116E-01  8160   0.679E-01    0.795E-02
DAV:   2    -0.191748960633E+03   -0.46196E-03   -0.31698E-03 13600   0.262E-01    0.193E-01
DAV:   3    -0.191748577632E+03    0.38300E-03   -0.11567E-03 10280   0.236E-01    0.645E-02
DAV:   4    -0.191748547122E+03    0.30510E-04   -0.12837E-04  5600   0.751E-02
  28 F= -.19174855E+03 E0= -.19165791E+03  d E =0.663898E-02
       N       E                     dE             d eps       ncg     rms          rms(c)
DAV:   1    -0.191681426633E+03    0.67151E-01   -0.51184E+00  8160   0.485E+00    0.528E-01
DAV:   2    -0.191689643454E+03   -0.82168E-02   -0.13687E-01 12280   0.111E+00    0.588E-01
DAV:   3    -0.191692805695E+03   -0.31622E-02   -0.34566E-02 12080   0.124E+00    0.835E-01
DAV:   4    -0.191685142573E+03    0.76631E-02   -0.14697E-02 11360   0.811E-01    0.178E-01
DAV:   5    -0.191685634158E+03   -0.49159E-03   -0.34742E-03 11240   0.351E-01    0.303E-01
DAV:   6    -0.191685127882E+03    0.50628E-03   -0.30818E-03 11560   0.435E-01    0.215E-01
DAV:   7    -0.191684661096E+03    0.46679E-03   -0.10261E-03  9160   0.222E-01    0.779E-02
DAV:   8    -0.191684632710E+03    0.28385E-04   -0.25662E-04  8040   0.115E-01
  29 F= -.19168463E+03 E0= -.19159010E+03  d E =0.639144E-01
       N       E                     dE             d eps       ncg     rms          rms(c)
DAV:   1    -0.191786492792E+03   -0.10183E+00   -0.15319E+01  8160   0.847E+00    0.976E-01
DAV:   2    -0.191839685357E+03   -0.53193E-01   -0.50469E-01 12840   0.269E+00    0.188E+00
DAV:   3    -0.191812963429E+03    0.26722E-01   -0.14741E-01 12160   0.267E+00    0.100E+00
DAV:   4    -0.191801310424E+03    0.11653E-01   -0.23576E-02 12240   0.100E+00    0.488E-01
DAV:   5    -0.191803179521E+03   -0.18691E-02   -0.15656E-02 12600   0.102E+00    0.741E-01
DAV:   6    -0.191798554175E+03    0.46253E-02   -0.11368E-02 12000   0.845E-01    0.268E-01
DAV:   7    -0.191797855711E+03    0.69846E-03   -0.35878E-03 11240   0.385E-01    0.207E-01
DAV:   8    -0.191797399156E+03    0.45656E-03   -0.12845E-03 10760   0.275E-01    0.749E-02
DAV:   9    -0.191797329202E+03    0.69953E-04   -0.17020E-04  6040   0.761E-02
  30 F= -.19179733E+03 E0= -.19170975E+03  d E =-.112696E+00
       N       E                     dE             d eps       ncg     rms          rms(c)
DAV:   1    -0.191832206868E+03   -0.34808E-01   -0.15401E+00  8160   0.266E+00    0.266E-01
DAV:   2    -0.191835477868E+03   -0.32710E-02   -0.41330E-02 12320   0.636E-01    0.344E-01
DAV:   3    -0.191835465930E+03    0.11938E-04   -0.69724E-03 11480   0.620E-01    0.362E-01
DAV:   4    -0.191834163113E+03    0.13028E-02   -0.26054E-03 11200   0.385E-01    0.136E-01
DAV:   5    -0.191834219882E+03   -0.56768E-04   -0.11720E-03 10040   0.255E-01    0.166E-01
DAV:   6    -0.191834051698E+03    0.16818E-03   -0.85725E-04 10160   0.230E-01    0.970E-02
DAV:   7    -0.191833963879E+03    0.87819E-04   -0.29503E-04  8320   0.132E-01
  31 F= -.19183396E+03 E0= -.19174818E+03  d E =-.366347E-01
       N       E                     dE             d eps       ncg     rms          rms(c)
DAV:   1    -0.191834831675E+03   -0.77998E-03   -0.12257E+00  8160   0.234E+00    0.261E-01
DAV:   2    -0.191840920434E+03   -0.60888E-02   -0.36074E-02 13600   0.936E-01    0.695E-01
DAV:   3    -0.191835899331E+03    0.50211E-02   -0.12796E-02 12320   0.819E-01    0.189E-01
DAV:   4    -0.191835781761E+03    0.11757E-03   -0.14064E-03 10720   0.250E-01    0.172E-01
DAV:   5    -0.191835657752E+03    0.12401E-03   -0.10921E-03 11280   0.277E-01    0.151E-01
DAV:   6    -0.191835506725E+03    0.15103E-03   -0.57483E-04  9360   0.187E-01    0.826E-02
DAV:   7    -0.191835524302E+03   -0.17578E-04   -0.36790E-04  8520   0.153E-01
  32 F= -.19183552E+03 E0= -.19174993E+03  d E =-.156042E-02
       N       E                     dE             d eps       ncg     rms          rms(c)
DAV:   1    -0.191897080261E+03   -0.61574E-01   -0.81846E+00  8160   0.611E+00    0.618E-01
DAV:   2    -0.191915989773E+03   -0.18910E-01   -0.21943E-01 12360   0.159E+00    0.913E-01
DAV:   3    -0.191912359662E+03    0.36301E-02   -0.41310E-02 12240   0.152E+00    0.747E-01
DAV:   4    -0.191906282784E+03    0.60769E-02   -0.11427E-02 12360   0.786E-01    0.269E-01
DAV:   5    -0.191907043153E+03   -0.76037E-03   -0.55809E-03 11440   0.554E-01    0.418E-01
DAV:   6    -0.191905844635E+03    0.11985E-02   -0.47041E-03 12120   0.580E-01    0.222E-01
DAV:   7    -0.191905161372E+03    0.68326E-03   -0.11368E-03 10480   0.235E-01    0.763E-02
DAV:   8    -0.191905135016E+03    0.26356E-04   -0.27843E-04  9160   0.118E-01
  33 F= -.19190514E+03 E0= -.19182095E+03  d E =-.696107E-01
       N       E                     dE             d eps       ncg     rms          rms(c)
DAV:   1    -0.192004063999E+03   -0.98903E-01   -0.15056E+01  8160   0.831E+00    0.828E-01
DAV:   2    -0.192028295031E+03   -0.24231E-01   -0.40065E-01 12240   0.176E+00    0.679E-01
DAV:   3    -0.192040094595E+03   -0.11800E-01   -0.58331E-02 12720   0.178E+00    0.128E+00
DAV:   4    -0.192021532022E+03    0.18563E-01   -0.32675E-02 12280   0.144E+00    0.334E-01
DAV:   5    -0.192022625062E+03   -0.10930E-02   -0.89103E-03 11600   0.607E-01    0.472E-01
DAV:   6    -0.192021226378E+03    0.13987E-02   -0.77614E-03 12440   0.733E-01    0.329E-01
DAV:   7    -0.192019894069E+03    0.13323E-02   -0.19465E-03 11040   0.357E-01    0.117E-01
DAV:   8    -0.192019807136E+03    0.86933E-04   -0.51800E-04  9520   0.170E-01
  34 F= -.19201981E+03 E0= -.19193397E+03  d E =-.114672E+00
       N       E                     dE             d eps       ncg     rms          rms(c)
DAV:   1    -0.192108918254E+03   -0.89024E-01   -0.13098E+01  8160   0.769E+00    0.766E-01
DAV:   2    -0.192129104530E+03   -0.20186E-01   -0.34638E-01 12240   0.160E+00    0.535E-01
DAV:   3    -0.192136582905E+03   -0.74784E-02   -0.33130E-02 12920   0.136E+00    0.101E+00
DAV:   4    -0.192124605685E+03    0.11977E-01   -0.17634E-02 12000   0.118E+00    0.338E-01
DAV:   5    -0.192126457023E+03   -0.18513E-02   -0.84720E-03 11240   0.689E-01    0.529E-01
DAV:   6    -0.192123918146E+03    0.25389E-02   -0.67564E-03 10920   0.687E-01    0.221E-01
DAV:   7    -0.192123060362E+03    0.85778E-03   -0.13973E-03 10760   0.233E-01    0.375E-02
DAV:   8    -0.192123103819E+03   -0.43457E-04   -0.25302E-04  8840   0.794E-02
  35 F= -.19212310E+03 E0= -.19203483E+03  d E =-.103297E+00
       N       E                     dE             d eps       ncg     rms          rms(c)
DAV:   1    -0.192212731194E+03   -0.89671E-01   -0.17112E+01  8160   0.879E+00    0.916E-01
DAV:   2    -0.192244421918E+03   -0.31691E-01   -0.47056E-01 12240   0.218E+00    0.986E-01
DAV:   3    -0.192246423912E+03   -0.20020E-02   -0.62775E-02 12480   0.200E+00    0.107E+00
DAV:   4    -0.192230835912E+03    0.15588E-01   -0.21417E-02 12360   0.120E+00    0.369E-01
DAV:   5    -0.192234755629E+03   -0.39197E-02   -0.14273E-02 11720   0.925E-01    0.729E-01
DAV:   6    -0.192229804738E+03    0.49509E-02   -0.10528E-02 11120   0.844E-01    0.214E-01
DAV:   7    -0.192228873123E+03    0.93161E-03   -0.16124E-03 11080   0.214E-01    0.498E-02
DAV:   8    -0.192228963830E+03   -0.90707E-04   -0.39215E-04 10440   0.127E-01
  36 F= -.19222896E+03 E0= -.19214046E+03  d E =-.105860E+00
       N       E                     dE             d eps       ncg     rms          rms(c)
DAV:   1    -0.192293125056E+03   -0.64252E-01   -0.20604E+01  8160   0.957E+00    0.954E-01
DAV:   2    -0.192334266610E+03   -0.41142E-01   -0.56612E-01 12240   0.229E+00    0.976E-01
DAV:   3    -0.192340792514E+03   -0.65259E-02   -0.69197E-02 12280   0.215E+00    0.124E+00
DAV:   4    -0.192322001879E+03    0.18791E-01   -0.24958E-02 12000   0.137E+00    0.419E-01
DAV:   5    -0.192324646261E+03   -0.26444E-02   -0.15617E-02 12200   0.933E-01    0.670E-01
DAV:   6    -0.192320477521E+03    0.41687E-02   -0.10870E-02 11240   0.831E-01    0.219E-01
DAV:   7    -0.192319456766E+03    0.10208E-02   -0.18696E-03 11760   0.238E-01    0.506E-02
DAV:   8    -0.192319549057E+03   -0.92292E-04   -0.39123E-04 10200   0.127E-01
  37 F= -.19231955E+03 E0= -.19223485E+03  d E =-.905852E-01
       N       E                     dE             d eps       ncg     rms          rms(c)
DAV:   1    -0.192331307587E+03   -0.11851E-01   -0.56129E-01  8160   0.166E+00    0.294E-01
DAV:   2    -0.192334621755E+03   -0.33142E-02   -0.31991E-02 11360   0.902E-01    0.573E-01
DAV:   3    -0.192331297668E+03    0.33241E-02   -0.93081E-03 12160   0.771E-01    0.222E-01
DAV:   4    -0.192330954702E+03    0.34297E-03   -0.25386E-03 11800   0.356E-01    0.215E-01
DAV:   5    -0.192330692799E+03    0.26190E-03   -0.18757E-03 10560   0.360E-01    0.173E-01
DAV:   6    -0.192330317331E+03    0.37547E-03   -0.83931E-04 10080   0.195E-01    0.387E-02
DAV:   7    -0.192330302000E+03    0.15331E-04   -0.10743E-04  6840   0.488E-02
  38 F= -.19233030E+03 E0= -.19224559E+03  d E =-.107529E-01
       N       E                     dE             d eps       ncg     rms          rms(c)
DAV:   1    -0.192345761135E+03   -0.15444E-01   -0.13349E+00  8160   0.242E+00    0.241E-01
DAV:   2    -0.192348821689E+03   -0.30606E-02   -0.38177E-02 12240   0.640E-01    0.283E-01
DAV:   3    -0.192349194201E+03   -0.37251E-03   -0.50769E-03 12200   0.593E-01    0.348E-01
DAV:   4    -0.192347837415E+03    0.13568E-02   -0.17321E-03 10360   0.353E-01    0.774E-02
DAV:   5    -0.192347915651E+03   -0.78236E-04   -0.60825E-04 10160   0.107E-01
  39 F= -.19234792E+03 E0= -.19226447E+03  d E =-.176137E-01
       N       E                     dE             d eps       ncg     rms          rms(c)
DAV:   1    -0.192357266931E+03   -0.94295E-02   -0.44320E-01  8160   0.141E+00    0.223E-01
DAV:   2    -0.192361228200E+03   -0.39613E-02   -0.20809E-02 12600   0.902E-01    0.562E-01
DAV:   3    -0.192357430976E+03    0.37972E-02   -0.60384E-03 12200   0.670E-01    0.109E-01
DAV:   4    -0.192357413293E+03    0.17683E-04   -0.79230E-04 11080   0.177E-01
  40 F= -.19235741E+03 E0= -.19227496E+03  d E =-.949764E-02
       N       E                     dE             d eps       ncg     rms          rms(c)
DAV:   1    -0.192378777866E+03   -0.21347E-01   -0.64025E+00  8160   0.538E+00    0.623E-01
DAV:   2    -0.192392046263E+03   -0.13268E-01   -0.20032E-01 12280   0.155E+00    0.722E-01
DAV:   3    -0.192391184171E+03    0.86209E-03   -0.27804E-02 12280   0.137E+00    0.664E-01
DAV:   4    -0.192384952501E+03    0.62317E-02   -0.94241E-03 12200   0.759E-01    0.244E-01
DAV:   5    -0.192386860129E+03   -0.19076E-02   -0.69219E-03 12080   0.654E-01    0.486E-01
DAV:   6    -0.192384422149E+03    0.24380E-02   -0.48583E-03 11480   0.569E-01    0.115E-01
DAV:   7    -0.192384195522E+03    0.22663E-03   -0.52085E-04 10200   0.120E-01    0.382E-02
DAV:   8    -0.192384201230E+03   -0.57087E-05   -0.11083E-04  8160   0.708E-02
  41 F= -.19238420E+03 E0= -.19230473E+03  d E =-.267879E-01
       N       E                     dE             d eps       ncg     rms          rms(c)
DAV:   1    -0.192388595873E+03   -0.44004E-02   -0.25380E-01  8160   0.109E+00    0.174E-01
DAV:   2    -0.192391194137E+03   -0.25983E-02   -0.14360E-02 12800   0.695E-01    0.453E-01
DAV:   3    -0.192388895249E+03    0.22989E-02   -0.40763E-03 11400   0.536E-01    0.113E-01
DAV:   4    -0.192388892835E+03    0.24134E-05   -0.65009E-04  8480   0.199E-01
  42 F= -.19238889E+03 E0= -.19231016E+03  d E =-.469161E-02
       N       E                     dE             d eps       ncg     rms          rms(c)
DAV:   1    -0.192393355783E+03   -0.44605E-02   -0.47744E-01  8160   0.147E+00    0.170E-01
DAV:   2    -0.192395660494E+03   -0.23047E-02   -0.16371E-02 12640   0.526E-01    0.360E-01
DAV:   3    -0.192394335357E+03    0.13251E-02   -0.36974E-03 12120   0.485E-01    0.148E-01
DAV:   4    -0.192394221511E+03    0.11385E-03   -0.63966E-04  9720   0.177E-01    0.103E-01
DAV:   5    -0.192394156993E+03    0.64517E-04   -0.37429E-04  9480   0.164E-01
  43 F= -.19239416E+03 E0= -.19231644E+03  d E =-.526416E-02
       N       E                     dE             d eps       ncg     rms          rms(c)
DAV:   1    -0.192396883923E+03   -0.26624E-02   -0.17459E-01  8160   0.889E-01    0.125E-01
DAV:   2    -0.192397947735E+03   -0.10638E-02   -0.68789E-03 12760   0.462E-01    0.283E-01
DAV:   3    -0.192397043958E+03    0.90378E-03   -0.17374E-03 11720   0.354E-01    0.861E-02
DAV:   4    -0.192397052594E+03   -0.86361E-05   -0.40238E-04  9120   0.150E-01
  44 F= -.19239705E+03 E0= -.19232000E+03  d E =-.289560E-02
       N       E                     dE             d eps       ncg     rms          rms(c)
DAV:   1    -0.192400077873E+03   -0.30339E-02   -0.39378E-01  8160   0.133E+00    0.138E-01
DAV:   2    -0.192400935924E+03   -0.85805E-03   -0.11189E-02 11920   0.293E-01    0.138E-01
DAV:   3    -0.192401132709E+03   -0.19678E-03   -0.15618E-03 12480   0.319E-01    0.199E-01
DAV:   4    -0.192400700705E+03    0.43200E-03   -0.64488E-04  8360   0.213E-01    0.570E-02
DAV:   5    -0.192400764679E+03   -0.63974E-04   -0.28013E-04  8200   0.125E-01
  45 F= -.19240076E+03 E0= -.19232465E+03  d E =-.371209E-02
       N       E                     dE             d eps       ncg     rms          rms(c)
DAV:   1    -0.192402727780E+03   -0.20271E-02   -0.18687E-01  8160   0.918E-01    0.121E-01
DAV:   2    -0.192404108237E+03   -0.13805E-02   -0.73939E-03 13040   0.472E-01    0.306E-01
DAV:   3    -0.192403020314E+03    0.10879E-02   -0.21203E-03 11520   0.389E-01    0.939E-02
DAV:   4    -0.192402977175E+03    0.43139E-04   -0.32473E-04  8160   0.131E-01
  46 F= -.19240298E+03 E0= -.19232711E+03  d E =-.221250E-02
       N       E                     dE             d eps       ncg     rms          rms(c)
DAV:   1    -0.192404390563E+03   -0.13702E-02   -0.10212E-01  8160   0.682E-01    0.967E-02
DAV:   2    -0.192405035833E+03   -0.64527E-03   -0.39058E-03 12880   0.318E-01    0.211E-01
DAV:   3    -0.192404504958E+03    0.53087E-03   -0.10021E-03 10840   0.267E-01    0.639E-02
DAV:   4    -0.192404507394E+03   -0.24356E-05   -0.17466E-04  7280   0.964E-02
  47 F= -.19240451E+03 E0= -.19232910E+03  d E =-.153022E-02
       N       E                     dE             d eps       ncg     rms          rms(c)
DAV:   1    -0.192406387628E+03   -0.18827E-02   -0.32731E-01  8160   0.122E+00    0.133E-01
DAV:   2    -0.192407454070E+03   -0.10664E-02   -0.10068E-02 11520   0.344E-01    0.222E-01
DAV:   3    -0.192407099003E+03    0.35507E-03   -0.19729E-03 12040   0.355E-01    0.145E-01
DAV:   4    -0.192406870628E+03    0.22837E-03   -0.35164E-04  8400   0.136E-01    0.434E-02
DAV:   5    -0.192406904666E+03   -0.34038E-04   -0.15761E-04  7480   0.857E-02
  48 F= -.19240690E+03 E0= -.19233220E+03  d E =-.239727E-02
       N       E                     dE             d eps       ncg     rms          rms(c)
DAV:   1    -0.192407706162E+03   -0.83553E-03   -0.52549E-02  8160   0.492E-01    0.864E-02
DAV:   2    -0.192408517510E+03   -0.81135E-03   -0.30393E-03 12120   0.363E-01    0.252E-01
DAV:   3    -0.192407715752E+03    0.80176E-03   -0.10600E-03 10280   0.288E-01    0.426E-02
DAV:   4    -0.192407748596E+03   -0.32845E-04   -0.12740E-04  6480   0.925E-02
  49 F= -.19240775E+03 E0= -.19233316E+03  d E =-.843930E-03
       N       E                     dE             d eps       ncg     rms          rms(c)
DAV:   1    -0.192408534654E+03   -0.81890E-03   -0.84901E-02  8160   0.622E-01    0.652E-02
DAV:   2    -0.192408735953E+03   -0.20130E-03   -0.25199E-03 12280   0.153E-01    0.722E-02
DAV:   3    -0.192408750313E+03   -0.14361E-04   -0.31378E-04  9720   0.149E-01
  50 F= -.19240875E+03 E0= -.19233465E+03  d E =-.100172E-02
       N       E                     dE             d eps       ncg     rms          rms(c)
DAV:   1    -0.192409732918E+03   -0.99697E-03   -0.23245E-01  8160   0.102E+00    0.108E-01
DAV:   2    -0.192410378524E+03   -0.64561E-03   -0.65706E-03 12640   0.318E-01    0.169E-01
DAV:   3    -0.192410182884E+03    0.19564E-03   -0.10647E-03 11120   0.265E-01    0.111E-01
DAV:   4    -0.192410061428E+03    0.12146E-03   -0.26170E-04  8240   0.128E-01    0.564E-02
DAV:   5    -0.192410080082E+03   -0.18654E-04   -0.17056E-04  7360   0.116E-01
  51 F= -.19241008E+03 E0= -.19233611E+03  d E =-.132977E-02
       N       E                     dE             d eps       ncg     rms          rms(c)
DAV:   1    -0.192410566471E+03   -0.50504E-03   -0.63030E-02  8160   0.535E-01    0.668E-02
DAV:   2    -0.192410802131E+03   -0.23566E-03   -0.24174E-03 11840   0.207E-01    0.113E-01
DAV:   3    -0.192410703621E+03    0.98510E-04   -0.44608E-04  9760   0.177E-01
  52 F= -.19241070E+03 E0= -.19233715E+03  d E =-.623539E-03
