<?xml version="1.0" encoding="ISO-8859-1"?>
<modeling>
 <generator>
  <i name="program" type="string">vasp </i>
  <i name="version" type="string">5.4.1  </i>
  <i name="subversion" type="string">05Feb16 (build Jul 05 2020 17:13:04) complex                          parallel </i>
  <i name="platform" type="string">IFC91_ompi </i>
  <i name="date" type="string">2024 04 24 </i>
  <i name="time" type="string">17:27:03 </i>
 </generator>
 <incar>
  <i type="int" name="ISTART">     0</i>
  <i type="string" name="PREC">normal</i>
  <i type="string" name="ALGO"> Normal</i>
  <i type="int" name="ISPIN">     1</i>
  <i type="int" name="ICHARG">     2</i>
  <i type="int" name="IBRION">     1</i>
  <i type="int" name="NSW">   100</i>
  <i type="int" name="ISIF">     3</i>
  <i type="int" name="ISYM">     0</i>
  <i name="SYMPREC">      0.00000001</i>
  <i name="POTIM">      0.50000000</i>
  <i type="logical" name="LREAL"> F  </i>
  <i type="logical" name="LPLANE"> F  </i>
  <i type="int" name="ISMEAR">     0</i>
  <i type="logical" name="LWAVE"> F  </i>
  <i type="logical" name="LCHARG"> F  </i>
  <v type="int" name="KPOINT_BSE">    -1     0     0     0</v>
 </incar>
 <kpoints>
  <generation param="Gamma">
   <v type="int" name="divisions">       8        8        1 </v>
   <v name="usershift">      0.00000000       0.00000000       0.00000000 </v>
   <v name="genvec1">      0.12500000       0.00000000       0.00000000 </v>
   <v name="genvec2">     -0.00000000       0.12500000       0.00000000 </v>
   <v name="genvec3">      0.00000000       0.00000000       1.00000000 </v>
   <v name="shift">      0.00000000       0.00000000       0.00000000 </v>
  </generation>
  <varray name="kpointlist" >
   <v>       0.00000000       0.00000000       0.00000000 </v>
   <v>       0.12500000       0.00000000       0.00000000 </v>
   <v>       0.25000000       0.00000000       0.00000000 </v>
   <v>       0.37500000       0.00000000       0.00000000 </v>
   <v>       0.50000000       0.00000000       0.00000000 </v>
   <v>       0.00000000       0.12500000       0.00000000 </v>
   <v>       0.12500000       0.12500000       0.00000000 </v>
   <v>       0.25000000       0.12500000       0.00000000 </v>
   <v>       0.37500000       0.12500000       0.00000000 </v>
   <v>       0.50000000       0.12500000       0.00000000 </v>
   <v>      -0.37500000       0.12500000       0.00000000 </v>
   <v>      -0.25000000       0.12500000       0.00000000 </v>
   <v>      -0.12500000       0.12500000       0.00000000 </v>
   <v>       0.00000000       0.25000000       0.00000000 </v>
   <v>       0.12500000       0.25000000       0.00000000 </v>
   <v>       0.25000000       0.25000000       0.00000000 </v>
   <v>       0.37500000       0.25000000       0.00000000 </v>
   <v>       0.50000000       0.25000000       0.00000000 </v>
   <v>      -0.37500000       0.25000000       0.00000000 </v>
   <v>      -0.25000000       0.25000000       0.00000000 </v>
   <v>      -0.12500000       0.25000000       0.00000000 </v>
   <v>      -0.00000000       0.37500000       0.00000000 </v>
   <v>       0.12500000       0.37500000       0.00000000 </v>
   <v>       0.25000000       0.37500000       0.00000000 </v>
   <v>       0.37500000       0.37500000       0.00000000 </v>
   <v>       0.50000000       0.37500000       0.00000000 </v>
   <v>      -0.37500000       0.37500000       0.00000000 </v>
   <v>      -0.25000000       0.37500000       0.00000000 </v>
   <v>      -0.12500000       0.37500000       0.00000000 </v>
   <v>       0.00000000       0.50000000       0.00000000 </v>
   <v>       0.12500000       0.50000000       0.00000000 </v>
   <v>       0.25000000       0.50000000       0.00000000 </v>
   <v>       0.37500000       0.50000000       0.00000000 </v>
   <v>       0.50000000       0.50000000       0.00000000 </v>
  </varray>
  <varray name="weights" >
   <v>       0.01562500 </v>
   <v>       0.03125000 </v>
   <v>       0.03125000 </v>
   <v>       0.03125000 </v>
   <v>       0.01562500 </v>
   <v>       0.03125000 </v>
   <v>       0.03125000 </v>
   <v>       0.03125000 </v>
   <v>       0.03125000 </v>
   <v>       0.03125000 </v>
   <v>       0.03125000 </v>
   <v>       0.03125000 </v>
   <v>       0.03125000 </v>
   <v>       0.03125000 </v>
   <v>       0.03125000 </v>
   <v>       0.03125000 </v>
   <v>       0.03125000 </v>
   <v>       0.03125000 </v>
   <v>       0.03125000 </v>
   <v>       0.03125000 </v>
   <v>       0.03125000 </v>
   <v>       0.03125000 </v>
   <v>       0.03125000 </v>
   <v>       0.03125000 </v>
   <v>       0.03125000 </v>
   <v>       0.03125000 </v>
   <v>       0.03125000 </v>
   <v>       0.03125000 </v>
   <v>       0.03125000 </v>
   <v>       0.01562500 </v>
   <v>       0.03125000 </v>
   <v>       0.03125000 </v>
   <v>       0.03125000 </v>
   <v>       0.01562500 </v>
  </varray>
 </kpoints>
 <parameters>
  <separator name="general" >
   <i type="string" name="SYSTEM">unknown system</i>
   <i type="logical" name="LCOMPAT"> F  </i>
  </separator>
  <separator name="electronic" >
   <i type="string" name="PREC">normal</i>
   <i name="ENMAX">    280.00000000</i>
   <i name="ENAUG">    373.43800000</i>
   <i name="EDIFF">      0.00010000</i>
   <i type="int" name="IALGO">    38</i>
   <i type="int" name="IWAVPR">    11</i>
   <i type="int" name="NBANDS">   120</i>
   <i name="NELECT">    159.00000000</i>
   <i type="int" name="TURBO">     0</i>
   <i type="int" name="IRESTART">     0</i>
   <i type="int" name="NREBOOT">     0</i>
   <i type="int" name="NMIN">     0</i>
   <i name="EREF">      0.00000000</i>
   <separator name="electronic smearing" >
    <i type="int" name="ISMEAR">     0</i>
    <i name="SIGMA">      0.20000000</i>
    <i name="KSPACING">      0.50000000</i>
    <i type="logical" name="KGAMMA"> T  </i>
   </separator>
   <separator name="electronic projectors" >
    <i type="logical" name="LREAL"> F  </i>
    <v name="ROPT">      0.00000000      0.00000000      0.00000000      0.00000000</v>
    <i type="int" name="LMAXPAW">  -100</i>
    <i type="int" name="LMAXMIX">     2</i>
    <i type="logical" name="NLSPLINE"> F  </i>
   </separator>
   <separator name="electronic startup" >
    <i type="int" name="ISTART">     0</i>
    <i type="int" name="ICHARG">     2</i>
    <i type="int" name="INIWAV">     1</i>
   </separator>
   <separator name="electronic spin" >
    <i type="int" name="ISPIN">     1</i>
    <i type="logical" name="LNONCOLLINEAR"> F  </i>
    <v name="MAGMOM">      1.00000000      1.00000000      1.00000000      1.00000000      1.00000000      1.00000000      1.00000000      1.00000000      1.00000000      1.00000000      1.00000000      1.00000000      1.00000000      1.00000000      1.00000000      1.00000000      1.00000000      1.00000000      1.00000000      1.00000000
      1.00000000      1.00000000      1.00000000      1.00000000      1.00000000      1.00000000      1.00000000</v>
    <i name="NUPDOWN">     -1.00000000</i>
    <i type="logical" name="LSORBIT"> F  </i>
    <v name="SAXIS">      0.00000000      0.00000000      1.00000000</v>
    <i type="logical" name="LSPIRAL"> F  </i>
    <v name="QSPIRAL">      0.00000000      0.00000000      0.00000000</v>
    <i type="logical" name="LZEROZ"> F  </i>
   </separator>
   <separator name="electronic exchange-correlation" >
    <i type="logical" name="LASPH"> F  </i>
    <i type="logical" name="LMETAGGA"> F  </i>
   </separator>
   <separator name="electronic convergence" >
    <i type="int" name="NELM">    60</i>
    <i type="int" name="NELMDL">    -5</i>
    <i type="int" name="NELMIN">     2</i>
    <i name="ENINI">    280.00000000</i>
    <separator name="electronic convergence detail" >
     <i type="logical" name="LDIAG"> T  </i>
     <i type="logical" name="LSUBROT"> F  </i>
     <i name="WEIMIN">      0.00100000</i>
     <i name="EBREAK">      0.00000021</i>
     <i name="DEPER">      0.30000000</i>
     <i type="int" name="NRMM">     4</i>
     <i name="TIME">      0.40000000</i>
    </separator>
   </separator>
   <separator name="electronic mixer" >
    <i name="AMIX">      0.40000000</i>
    <i name="BMIX">      1.00000000</i>
    <i name="AMIN">      0.10000000</i>
    <i name="AMIX_MAG">      1.60000000</i>
    <i name="BMIX_MAG">      1.00000000</i>
    <separator name="electronic mixer details" >
     <i type="int" name="IMIX">     4</i>
     <i type="logical" name="MIXFIRST"> F  </i>
     <i type="int" name="MAXMIX">   -45</i>
     <i name="WC">    100.00000000</i>
     <i type="int" name="INIMIX">     1</i>
     <i type="int" name="MIXPRE">     1</i>
     <i type="int" name="MREMOVE">     5</i>
    </separator>
   </separator>
   <separator name="electronic dipolcorrection" >
    <i type="logical" name="LDIPOL"> F  </i>
    <i type="logical" name="LMONO"> F  </i>
    <i type="int" name="IDIPOL">     0</i>
    <i name="EPSILON">      1.00000000</i>
    <v name="DIPOL">   -100.00000000   -100.00000000   -100.00000000</v>
    <i name="EFIELD">      0.00000000</i>
   </separator>
  </separator>
  <separator name="grids" >
   <i type="int" name="NGX">    42</i>
   <i type="int" name="NGY">    42</i>
   <i type="int" name="NGZ">   126</i>
   <i type="int" name="NGXF">    84</i>
   <i type="int" name="NGYF">    84</i>
   <i type="int" name="NGZF">   252</i>
   <i type="logical" name="ADDGRID"> F  </i>
  </separator>
  <separator name="ionic" >
   <i type="int" name="NSW">   100</i>
   <i type="int" name="IBRION">     1</i>
   <i type="int" name="ISIF">     3</i>
   <i name="PSTRESS">      0.00000000</i>
   <i name="EDIFFG">      0.00100000</i>
   <i type="int" name="NFREE">     0</i>
   <i name="POTIM">      0.50000000</i>
   <i name="SMASS">     -3.00000000</i>
   <i name="SCALEE">      1.00000000</i>
  </separator>
  <separator name="ionic md" >
   <i name="TEBEG">      0.00010000</i>
   <i name="TEEND">      0.00010000</i>
   <i type="int" name="NBLOCK">     1</i>
   <i type="int" name="KBLOCK">   100</i>
   <i type="int" name="NPACO">   256</i>
   <i name="APACO">     16.00000000</i>
  </separator>
  <separator name="symmetry" >
   <i type="int" name="ISYM">     0</i>
   <i name="SYMPREC">      0.00000001</i>
  </separator>
  <separator name="dos" >
   <i type="logical" name="LORBIT"> F  </i>
   <v name="RWIGS">     -1.00000000     -1.00000000     -1.00000000     -1.00000000</v>
   <i type="int" name="NEDOS">   301</i>
   <i name="EMIN">     10.00000000</i>
   <i name="EMAX">    -10.00000000</i>
   <i name="EFERMI">      0.00000000</i>
  </separator>
  <separator name="writing" >
   <i type="int" name="NWRITE">     2</i>
   <i type="logical" name="LWAVE"> F  </i>
   <i type="logical" name="LCHARG"> F  </i>
   <i type="logical" name="LPARD"> F  </i>
   <i type="logical" name="LVTOT"> F  </i>
   <i type="logical" name="LVHAR"> F  </i>
   <i type="logical" name="LELF"> F  </i>
   <i type="logical" name="LOPTICS"> F  </i>
   <v name="STM">      0.00000000      0.00000000      0.00000000      0.00000000      0.00000000      0.00000000      0.00000000</v>
  </separator>
  <separator name="performance" >
   <i type="int" name="NPAR">    40</i>
   <i type="int" name="NSIM">     4</i>
   <i type="int" name="NBLK">    -1</i>
   <i type="logical" name="LPLANE"> F  </i>
   <i type="logical" name="LSCALAPACK"> T  </i>
   <i type="logical" name="LSCAAWARE"> F  </i>
   <i type="logical" name="LSCALU"> F  </i>
   <i type="logical" name="LASYNC"> F  </i>
   <i type="logical" name="LORBITALREAL"> F  </i>
  </separator>
  <separator name="miscellaneous" >
   <i type="int" name="IDIOT">     3</i>
   <i type="logical" name="LMUSIC"> F  </i>
   <v name="POMASS">     50.94100000     95.94000000    183.85000000     32.06600000</v>
   <v name="DARWINR">      0.00000000      0.00000000      0.00000000      0.00000000</v>
   <v name="DARWINV">      1.00000000      1.00000000      1.00000000      1.00000000</v>
   <i type="logical" name="LCORR"> T  </i>
  </separator>
  <i type="logical" name="GGA_COMPAT"> T  </i>
  <i type="logical" name="LBERRY"> F  </i>
  <i type="int" name="ICORELEVEL">     0</i>
  <i type="logical" name="LDAU"> F  </i>
  <i type="int" name="I_CONSTRAINED_M">     0</i>
  <separator name="electronic exchange-correlation" >
   <i type="string" name="GGA">--</i>
   <i type="int" name="VOSKOWN">     0</i>
   <i type="logical" name="LHFCALC"> F  </i>
   <i type="string" name="PRECFOCK"></i>
   <i type="logical" name="LSYMGRAD"> F  </i>
   <i type="logical" name="LHFONE"> F  </i>
   <i type="logical" name="LRHFCALC"> F  </i>
   <i type="logical" name="LTHOMAS"> F  </i>
   <i type="logical" name="LMODELHF"> F  </i>
   <i name="ENCUT4O">     -1.00000000</i>
   <i type="int" name="EXXOEP">     0</i>
   <i type="int" name="FOURORBIT">     0</i>
   <i name="AEXX">      0.00000000</i>
   <i name="HFALPHA">      0.00000000</i>
   <i name="MCALPHA">      0.00000000</i>
   <i name="ALDAX">      1.00000000</i>
   <i name="AGGAX">      1.00000000</i>
   <i name="ALDAC">      1.00000000</i>
   <i name="AGGAC">      1.00000000</i>
   <i type="int" name="NKREDX">     1</i>
   <i type="int" name="NKREDY">     1</i>
   <i type="int" name="NKREDZ">     1</i>
   <i type="logical" name="SHIFTRED"> F  </i>
   <i type="logical" name="ODDONLY"> F  </i>
   <i type="logical" name="EVENONLY"> F  </i>
   <i type="int" name="LMAXFOCK">     0</i>
   <i type="int" name="NMAXFOCKAE">     0</i>
   <i type="logical" name="LFOCKAEDFT"> F  </i>
   <i name="HFSCREEN">      0.00000000</i>
   <i name="HFSCREENC">      0.00000000</i>
   <i type="int" name="NBANDSGWLOW">     0</i>
  </separator>
  <separator name="vdW DFT" >
   <i type="logical" name="LUSE_VDW"> F  </i>
   <i name="Zab_VDW">     -0.84910000</i>
   <i name="PARAM1">      0.12340000</i>
   <i name="PARAM2">      1.00000000</i>
   <i name="PARAM3">      0.00000000</i>
  </separator>
  <separator name="model GW" >
   <i type="int" name="MODEL_GW">     0</i>
   <i name="MODEL_EPS0">     58.26239943</i>
   <i name="MODEL_ALPHA">      1.00000000</i>
  </separator>
  <separator name="linear response parameters" >
   <i type="logical" name="LEPSILON"> F  </i>
   <i type="logical" name="LRPA"> F  </i>
   <i type="logical" name="LNABLA"> F  </i>
   <i type="logical" name="LVEL"> F  </i>
   <i type="int" name="KINTER">     0</i>
   <i name="CSHIFT">      0.10000000</i>
   <i name="OMEGAMAX">     -1.00000000</i>
   <i name="DEG_THRESHOLD">      0.00200000</i>
  </separator>
  <separator name="orbital magnetization" >
   <i type="logical" name="NUCIND"> F  </i>
   <v name="MAGPOS">      0.00000000      0.00000000      0.00000000</v>
   <i type="logical" name="LNICSALL"> T  </i>
   <i type="logical" name="ORBITALMAG"> F  </i>
   <i type="logical" name="LMAGBLOCH"> F  </i>
   <i type="logical" name="LCHIMAG"> F  </i>
   <i type="logical" name="LGAUGE"> T  </i>
   <i type="int" name="MAGATOM">     0</i>
   <v name="MAGDIPOL">      0.00000000      0.00000000      0.00000000</v>
   <v name="AVECCONST">      0.00000000      0.00000000      0.00000000</v>
  </separator>
  <separator name="response functions" >
   <i type="logical" name="LADDER"> F  </i>
   <i type="logical" name="LFXC"> F  </i>
   <i type="logical" name="LHARTREE"> T  </i>
   <i type="int" name="IBSE">     0</i>
   <v type="int" name="KPOINT">    -1     0     0     0</v>
   <i type="logical" name="LTCTE"> F  </i>
   <i type="logical" name="LTETE"> F  </i>
   <i type="logical" name="LTRIPLET"> F  </i>
   <i type="logical" name="LFXCEPS"> F  </i>
   <i type="logical" name="LFXHEG"> F  </i>
   <i type="int" name="NATURALO">     0</i>
   <i type="logical" name="L2ORDER"> F  </i>
   <i type="logical" name="LUSEW"> F  </i>
   <i name="ENCUTGW">     -2.00000000</i>
   <i name="ENCUTGWSOFT">     -2.00000000</i>
   <i name="ENCUTLF">     -1.00000000</i>
   <i type="int" name="LMAXMP2">    -1</i>
   <i name="SCISSOR">      0.00000000</i>
   <i type="int" name="NOMEGA">     0</i>
   <i type="int" name="NOMEGAR">     0</i>
   <i type="int" name="NBANDSGW">    -1</i>
   <i type="int" name="NBANDSO">    -1</i>
   <i type="int" name="NBANDSV">    -1</i>
   <i type="int" name="NELM">     1</i>
   <i type="int" name="NELMHF">     1</i>
   <i type="int" name="DIM">     3</i>
   <i type="int" name="ANTIRES">     0</i>
   <i name="OMEGAMAX">    -30.00000000</i>
   <i name="OMEGAMIN">    -30.00000000</i>
   <i name="OMEGATL">   -200.00000000</i>
   <i type="int" name="OMEGAGRID">     0</i>
   <i name="CSHIFT">     -0.10000000</i>
   <i type="logical" name="SELFENERGY"> F  </i>
   <i type="logical" name="LSPECTRAL"> F  </i>
   <i type="logical" name="LSPECTRALGW"> F  </i>
   <i type="logical" name="LSINGLES"> F  </i>
   <i type="logical" name="LFERMIGW"> F  </i>
   <i type="logical" name="ODDONLYGW"> F  </i>
   <i type="logical" name="EVENONLYGW"> F  </i>
   <i type="int" name="NKREDLFX">     1</i>
   <i type="int" name="NKREDLFY">     1</i>
   <i type="int" name="NKREDLFZ">     1</i>
   <i type="int" name="MAXMEM">  1800</i>
   <i type="int" name="TELESCOPE">     0</i>
   <i type="int" name="TAUPAR">     1</i>
   <i type="int" name="OMEGAPAR">    -1</i>
   <i name="LAMBDA">      1.00000000</i>
  </separator>
  <separator name="External order field" >
   <i name="OFIELD_KAPPA">      0.00000000</i>
   <v name="OFIELD_K">      0.00000000      0.00000000      0.00000000</v>
   <i name="OFIELD_Q6_NEAR">      0.00000000</i>
   <i name="OFIELD_Q6_FAR">      0.00000000</i>
   <i name="OFIELD_A">      0.00000000</i>
  </separator>
 </parameters>
 <atominfo>
  <atoms>      27 </atoms>
  <types>       4 </types>
  <array name="atoms" >
   <dimension dim="1">ion</dimension>
   <field type="string">element</field>
   <field type="int">atomtype</field>
   <set>
    <rc><c>V </c><c>   1</c></rc>
    <rc><c>V </c><c>   1</c></rc>
    <rc><c>V </c><c>   1</c></rc>
    <rc><c>Mo</c><c>   2</c></rc>
    <rc><c>Mo</c><c>   2</c></rc>
    <rc><c>Mo</c><c>   2</c></rc>
    <rc><c>W </c><c>   3</c></rc>
    <rc><c>W </c><c>   3</c></rc>
    <rc><c>W </c><c>   3</c></rc>
    <rc><c>S </c><c>   4</c></rc>
    <rc><c>S </c><c>   4</c></rc>
    <rc><c>S </c><c>   4</c></rc>
    <rc><c>S </c><c>   4</c></rc>
    <rc><c>S </c><c>   4</c></rc>
    <rc><c>S </c><c>   4</c></rc>
    <rc><c>S </c><c>   4</c></rc>
    <rc><c>S </c><c>   4</c></rc>
    <rc><c>S </c><c>   4</c></rc>
    <rc><c>S </c><c>   4</c></rc>
    <rc><c>S </c><c>   4</c></rc>
    <rc><c>S </c><c>   4</c></rc>
    <rc><c>S </c><c>   4</c></rc>
    <rc><c>S </c><c>   4</c></rc>
    <rc><c>S </c><c>   4</c></rc>
    <rc><c>S </c><c>   4</c></rc>
    <rc><c>S </c><c>   4</c></rc>
    <rc><c>S </c><c>   4</c></rc>
   </set>
  </array>
  <array name="atomtypes" >
   <dimension dim="1">type</dimension>
   <field type="int">atomspertype</field>
   <field type="string">element</field>
   <field>mass</field>
   <field>valence</field>
   <field type="string">pseudopotential</field>
   <set>
    <rc><c>   3</c><c>V </c><c>     50.94100000</c><c>      5.00000000</c><c> PAW_PBE V 08Apr2002                    </c></rc>
    <rc><c>   3</c><c>Mo</c><c>     95.94000000</c><c>      6.00000000</c><c> PAW_PBE Mo 08Apr2002                   </c></rc>
    <rc><c>   3</c><c>W </c><c>    183.85000000</c><c>      6.00000000</c><c> PAW_PBE W 08Apr2002                    </c></rc>
    <rc><c>  18</c><c>S </c><c>     32.06600000</c><c>      6.00000000</c><c>  PAW_PBE S 17Jan2003                   </c></rc>
   </set>
  </array>
 </atominfo>
 <structure name="initialpos" >
  <crystal>
   <varray name="basis" >
    <v>       8.66999996       5.03999989       0.00000000 </v>
    <v>      -8.66999982       5.04000013       0.00000000 </v>
    <v>       0.00000000       0.00000000      30.00000000 </v>
   </varray>
   <i name="volume">   2621.80797419 </i>
   <varray name="rec_basis" >
    <v>       0.05767013       0.09920635       0.00000000 </v>
    <v>      -0.05767013       0.09920635       0.00000000 </v>
    <v>       0.00000000       0.00000000       0.03333333 </v>
   </varray>
  </crystal>
  <varray name="positions" >
   <v>       1.00000000       0.33333334       0.00000000 </v>
   <v>       0.66666669       0.33333334       0.00000000 </v>
   <v>       0.66666669       0.66666669       0.00000000 </v>
   <v>       0.00000000       0.66666669       0.00000000 </v>
   <v>       0.33333334       0.66666669       0.00000000 </v>
   <v>       0.00000000       0.00000000       0.00000000 </v>
   <v>       0.33333334       0.00000000       0.00000000 </v>
   <v>       0.33333334       0.33333334       0.00000000 </v>
   <v>       0.66666669       0.00000000       0.00000000 </v>
   <v>       0.11068511       0.22244981       0.95539999 </v>
   <v>       0.22244981       0.11068511       0.04460000 </v>
   <v>       0.11068511       0.55578315       0.95539999 </v>
   <v>       0.22244981       0.44401845       0.04460000 </v>
   <v>       0.11068511       0.88911647       0.95539999 </v>
   <v>       0.22244981       0.77735180       0.04460000 </v>
   <v>       0.44401845       0.22244981       0.95539999 </v>
   <v>       0.55578315       0.11068511       0.04460000 </v>
   <v>       0.44401845       0.55578315       0.95539999 </v>
   <v>       0.55578315       0.44401845       0.04460000 </v>
   <v>       0.44401845       0.88911647       0.95539999 </v>
   <v>       0.55578315       0.77735180       0.04460000 </v>
   <v>       0.77735180       0.22244981       0.95539999 </v>
   <v>       0.88911647       0.11068511       0.04460000 </v>
   <v>       0.77735180       0.55578315       0.95539999 </v>
   <v>       0.88911647       0.44401845       0.04460000 </v>
   <v>       0.77735180       0.88911647       0.95539999 </v>
   <v>       0.88911647       0.77735180       0.04460000 </v>
  </varray>
 </structure>
 <calculation>
  <scstep>
   <time name="dav">   22.88   23.24</time>
   <time name="total">   22.93   23.29</time>
   <energy>
    <i name="alphaZ">     81.65567618 </i>
    <i name="ewald">  41890.25210247 </i>
    <i name="hartreedc"> -47722.88705958 </i>
    <i name="XCdc">   -242.92852211 </i>
    <i name="pawpsdc">   3467.42045192 </i>
    <i name="pawaedc">  -2871.19716117 </i>
    <i name="eentropy">     -0.53533941 </i>
    <i name="bandstr">   -239.48786231 </i>
    <i name="atom">   6761.44252427 </i>
    <i name="e_fr_energy">   1123.73481025 </i>
    <i name="e_wo_entrp">   1124.27014967 </i>
    <i name="e_0_energy">   1124.00247996 </i>
   </energy>
  </scstep>
  <scstep>
   <time name="dav">   30.00   30.51</time>
   <time name="total">   30.00   30.52</time>
   <energy>
    <i name="e_fr_energy">     -4.09561062 </i>
    <i name="e_wo_entrp">     -3.89377232 </i>
    <i name="e_0_energy">     -3.99469147 </i>
   </energy>
  </scstep>
  <scstep>
   <time name="dav">   29.13   29.60</time>
   <time name="total">   29.14   29.60</time>
   <energy>
    <i name="e_fr_energy">   -199.86979246 </i>
    <i name="e_wo_entrp">   -199.59801859 </i>
    <i name="e_0_energy">   -199.73390552 </i>
   </energy>
  </scstep>
  <scstep>
   <time name="dav">   31.58   32.09</time>
   <time name="total">   31.58   32.10</time>
   <energy>
    <i name="e_fr_energy">   -208.94166295 </i>
    <i name="e_wo_entrp">   -208.64394488 </i>
    <i name="e_0_energy">   -208.79280392 </i>
   </energy>
  </scstep>
  <scstep>
   <time name="dav">   30.53   31.02</time>
   <time name="total">   31.08   31.58</time>
   <energy>
    <i name="e_fr_energy">   -209.28805243 </i>
    <i name="e_wo_entrp">   -208.99414478 </i>
    <i name="e_0_energy">   -209.14109860 </i>
   </energy>
  </scstep>
  <scstep>
   <time name="dav">   32.45   33.01</time>
   <time name="total">   33.03   33.61</time>
   <energy>
    <i name="e_fr_energy">   -236.91411837 </i>
    <i name="e_wo_entrp">   -236.63727054 </i>
    <i name="e_0_energy">   -236.77569446 </i>
   </energy>
  </scstep>
  <scstep>
   <time name="dav">   34.85   35.43</time>
   <time name="total">   35.45   36.04</time>
   <energy>
    <i name="e_fr_energy">   -196.54699315 </i>
    <i name="e_wo_entrp">   -196.23110168 </i>
    <i name="e_0_energy">   -196.38904741 </i>
   </energy>
  </scstep>
  <scstep>
   <time name="dav">   31.53   32.09</time>
   <time name="total">   32.13   32.70</time>
   <energy>
    <i name="e_fr_energy">   -189.54191110 </i>
    <i name="e_wo_entrp">   -189.25388973 </i>
    <i name="e_0_energy">   -189.39790042 </i>
   </energy>
  </scstep>
  <scstep>
   <time name="dav">   32.71   33.24</time>
   <time name="total">   33.31   33.87</time>
   <energy>
    <i name="e_fr_energy">   -188.23922907 </i>
    <i name="e_wo_entrp">   -187.91009086 </i>
    <i name="e_0_energy">   -188.07465996 </i>
   </energy>
  </scstep>
  <scstep>
   <time name="dav">   34.60   35.17</time>
   <time name="total">   35.21   35.79</time>
   <energy>
    <i name="e_fr_energy">   -187.05015565 </i>
    <i name="e_wo_entrp">   -186.69939589 </i>
    <i name="e_0_energy">   -186.87477577 </i>
   </energy>
  </scstep>
  <scstep>
   <time name="dav">   35.02   35.63</time>
   <time name="total">   35.63   36.26</time>
   <energy>
    <i name="e_fr_energy">   -187.01565956 </i>
    <i name="e_wo_entrp">   -186.67018930 </i>
    <i name="e_0_energy">   -186.84292443 </i>
   </energy>
  </scstep>
  <scstep>
   <time name="dav">   32.01   32.56</time>
   <time name="total">   32.61   33.19</time>
   <energy>
    <i name="e_fr_energy">   -187.17708899 </i>
    <i name="e_wo_entrp">   -186.84058200 </i>
    <i name="e_0_energy">   -187.00883549 </i>
   </energy>
  </scstep>
  <scstep>
   <time name="dav">   33.19   33.73</time>
   <time name="total">   33.80   34.36</time>
   <energy>
    <i name="e_fr_energy">   -186.92670220 </i>
    <i name="e_wo_entrp">   -186.58932887 </i>
    <i name="e_0_energy">   -186.75801554 </i>
   </energy>
  </scstep>
  <scstep>
   <time name="dav">   33.76   34.35</time>
   <time name="total">   34.37   34.98</time>
   <energy>
    <i name="e_fr_energy">   -186.87767417 </i>
    <i name="e_wo_entrp">   -186.53442087 </i>
    <i name="e_0_energy">   -186.70604752 </i>
   </energy>
  </scstep>
  <scstep>
   <time name="dav">   31.21   31.74</time>
   <time name="total">   31.82   32.37</time>
   <energy>
    <i name="e_fr_energy">   -186.87175292 </i>
    <i name="e_wo_entrp">   -186.52540519 </i>
    <i name="e_0_energy">   -186.69857905 </i>
   </energy>
  </scstep>
  <scstep>
   <time name="dav">   32.82   33.39</time>
   <time name="total">   33.43   34.02</time>
   <energy>
    <i name="e_fr_energy">   -186.86798935 </i>
    <i name="e_wo_entrp">   -186.52384175 </i>
    <i name="e_0_energy">   -186.69591555 </i>
   </energy>
  </scstep>
  <scstep>
   <time name="dav">   33.83   34.41</time>
   <time name="total">   34.44   35.04</time>
   <energy>
    <i name="e_fr_energy">   -186.86875042 </i>
    <i name="e_wo_entrp">   -186.52442984 </i>
    <i name="e_0_energy">   -186.69659013 </i>
   </energy>
  </scstep>
  <scstep>
   <time name="dav">   29.36   29.89</time>
   <time name="total">   29.97   30.51</time>
   <energy>
    <i name="e_fr_energy">   -186.86705710 </i>
    <i name="e_wo_entrp">   -186.52250766 </i>
    <i name="e_0_energy">   -186.69478238 </i>
   </energy>
  </scstep>
  <scstep>
   <time name="dav">   25.68   26.12</time>
   <time name="total">   26.29   26.75</time>
   <energy>
    <i name="e_fr_energy">   -186.86774509 </i>
    <i name="e_wo_entrp">   -186.52338658 </i>
    <i name="e_0_energy">   -186.69556583 </i>
   </energy>
  </scstep>
  <scstep>
   <time name="dav">   22.32   22.71</time>
   <time name="total">   22.93   23.34</time>
   <energy>
    <i name="e_fr_energy">   -186.86867303 </i>
    <i name="e_wo_entrp">   -186.52427786 </i>
    <i name="e_0_energy">   -186.69647544 </i>
   </energy>
  </scstep>
  <scstep>
   <time name="dav">   20.48   20.81</time>
   <time name="total">   21.09   21.44</time>
   <energy>
    <i name="e_fr_energy">   -186.86909475 </i>
    <i name="e_wo_entrp">   -186.52470358 </i>
    <i name="e_0_energy">   -186.69689916 </i>
   </energy>
  </scstep>
  <scstep>
   <time name="dav">   21.84   22.19</time>
   <time name="total">   22.45   22.82</time>
   <energy>
    <i name="e_fr_energy">   -186.87053812 </i>
    <i name="e_wo_entrp">   -186.52626810 </i>
    <i name="e_0_energy">   -186.69840311 </i>
   </energy>
  </scstep>
  <scstep>
   <time name="dav">   19.90   20.25</time>
   <time name="total">   20.51   20.88</time>
   <energy>
    <i name="e_fr_energy">   -186.87118711 </i>
    <i name="e_wo_entrp">   -186.52688955 </i>
    <i name="e_0_energy">   -186.69903833 </i>
   </energy>
  </scstep>
  <scstep>
   <time name="dav">   18.00   18.29</time>
   <time name="total">   18.60   18.91</time>
   <energy>
    <i name="e_fr_energy">   -186.87143366 </i>
    <i name="e_wo_entrp">   -186.52711134 </i>
    <i name="e_0_energy">   -186.69927250 </i>
   </energy>
  </scstep>
  <scstep>
   <time name="dav">   17.28   17.59</time>
   <time name="total">   17.90   18.22</time>
   <energy>
    <i name="e_fr_energy">   -186.87183368 </i>
    <i name="e_wo_entrp">   -186.52747244 </i>
    <i name="e_0_energy">   -186.69965306 </i>
   </energy>
  </scstep>
  <scstep>
   <time name="dav">   20.09   20.42</time>
   <time name="total">   20.70   21.05</time>
   <energy>
    <i name="e_fr_energy">   -186.87206881 </i>
    <i name="e_wo_entrp">   -186.52773087 </i>
    <i name="e_0_energy">   -186.69989984 </i>
   </energy>
  </scstep>
  <scstep>
   <time name="dav">   20.64   21.03</time>
   <time name="total">   21.25   21.65</time>
   <energy>
    <i name="e_fr_energy">   -186.87217038 </i>
    <i name="e_wo_entrp">   -186.52783330 </i>
    <i name="e_0_energy">   -186.70000184 </i>
   </energy>
  </scstep>
  <scstep>
   <time name="dav">   20.95   21.34</time>
   <time name="total">   20.99   21.39</time>
   <energy>
    <i name="alphaZ">     81.65567618 </i>
    <i name="ewald">  41890.25210247 </i>
    <i name="hartreedc"> -47833.06881495 </i>
    <i name="XCdc">   -231.60073607 </i>
    <i name="pawpsdc">   4192.09200513 </i>
    <i name="pawaedc">  -3610.11125692 </i>
    <i name="eentropy">     -0.34433576 </i>
    <i name="bandstr">  -1437.18937766 </i>
    <i name="atom">   6761.44252427 </i>
    <i name="e_fr_energy">   -186.87221331 </i>
    <i name="e_wo_entrp">   -186.52787755 </i>
    <i name="e_0_energy">   -186.70004543 </i>
   </energy>
  </scstep>
  <structure>
   <crystal>
    <varray name="basis" >
     <v>       8.66999996       5.03999989       0.00000000 </v>
     <v>      -8.66999982       5.04000013       0.00000000 </v>
     <v>       0.00000000       0.00000000      30.00000000 </v>
    </varray>
    <i name="volume">   2621.80797419 </i>
    <varray name="rec_basis" >
     <v>       0.05767013       0.09920635       0.00000000 </v>
     <v>      -0.05767013       0.09920635       0.00000000 </v>
     <v>       0.00000000       0.00000000       0.03333333 </v>
    </varray>
   </crystal>
   <varray name="positions" >
    <v>       1.00000000       0.33333334       0.00000000 </v>
    <v>       0.66666669       0.33333334       0.00000000 </v>
    <v>       0.66666669       0.66666669       0.00000000 </v>
    <v>       0.00000000       0.66666669       0.00000000 </v>
    <v>       0.33333334       0.66666669       0.00000000 </v>
    <v>       0.00000000       0.00000000       0.00000000 </v>
    <v>       0.33333334       0.00000000       0.00000000 </v>
    <v>       0.33333334       0.33333334       0.00000000 </v>
    <v>       0.66666669       0.00000000       0.00000000 </v>
    <v>       0.11068511       0.22244981       0.95539999 </v>
    <v>       0.22244981       0.11068511       0.04460000 </v>
    <v>       0.11068511       0.55578315       0.95539999 </v>
    <v>       0.22244981       0.44401845       0.04460000 </v>
    <v>       0.11068511       0.88911647       0.95539999 </v>
    <v>       0.22244981       0.77735180       0.04460000 </v>
    <v>       0.44401845       0.22244981       0.95539999 </v>
    <v>       0.55578315       0.11068511       0.04460000 </v>
    <v>       0.44401845       0.55578315       0.95539999 </v>
    <v>       0.55578315       0.44401845       0.04460000 </v>
    <v>       0.44401845       0.88911647       0.95539999 </v>
    <v>       0.55578315       0.77735180       0.04460000 </v>
    <v>       0.77735180       0.22244981       0.95539999 </v>
    <v>       0.88911647       0.11068511       0.04460000 </v>
    <v>       0.77735180       0.55578315       0.95539999 </v>
    <v>       0.88911647       0.44401845       0.04460000 </v>
    <v>       0.77735180       0.88911647       0.95539999 </v>
    <v>       0.88911647       0.77735180       0.04460000 </v>
   </varray>
  </structure>
  <varray name="forces" >
   <v>      -0.07043906       0.19860393      -0.07970867 </v>
   <v>       0.00000738       0.31384228      -0.00000030 </v>
   <v>       0.07042473       0.19858077       0.07970818 </v>
   <v>       0.00003291       0.20921342      -0.00000611 </v>
   <v>      -0.26651454      -0.14264079       0.05554142 </v>
   <v>       0.26649822      -0.14260987      -0.05555203 </v>
   <v>       0.00000630      -0.64637593      -0.00001079 </v>
   <v>      -0.29685875      -0.08111624      -0.00586505 </v>
   <v>       0.29683068      -0.08109840       0.00586200 </v>
   <v>      -0.67967491       0.15198739      -2.14511575 </v>
   <v>      -0.03486975       0.16067966       2.88949857 </v>
   <v>       0.53261989      -0.72432731      -2.15974345 </v>
   <v>      -0.36440738      -0.67948518       2.17387538 </v>
   <v>       0.18496983       0.17792577      -2.95099816 </v>
   <v>      -0.18492516       0.17790788       2.95098292 </v>
   <v>       0.46913866       0.56207218      -2.12961368 </v>
   <v>      -0.46914132       0.56206661       2.12962377 </v>
   <v>       0.62443151       0.55012490      -2.10995183 </v>
   <v>       0.23192921       0.55099023       1.43305829 </v>
   <v>       0.03487712       0.16065085      -2.88948823 </v>
   <v>       0.67963384       0.15193196       2.14513987 </v>
   <v>      -0.23193231       0.55104276      -1.43304732 </v>
   <v>      -0.62449959       0.55017245       2.10996285 </v>
   <v>      -0.31734483      -0.66316795      -1.40949402 </v>
   <v>       0.31740787      -0.66315825       1.40945834 </v>
   <v>       0.36437482      -0.67948253      -2.17394540 </v>
   <v>      -0.53257536      -0.72433058       2.15982920 </v>
  </varray>
  <varray name="stress" >
   <v>       7.28994228       0.00001766      -1.60188677 </v>
   <v>       0.00001761       4.46090772       0.00000303 </v>
   <v>      -1.60188689       0.00000284      30.30988548 </v>
  </varray>
  <energy>
   <i name="e_fr_energy">   -186.87221331 </i>
   <i name="e_wo_entrp">   -186.70004543 </i>
   <i name="e_0_energy">     -0.34433576 </i>
  </energy>
  <time name="totalsc">  836.40  850.89</time>
 </calculation>
 <calculation>
  <scstep>
   <time name="dav">   22.87   23.25</time>
   <time name="total">   23.49   23.88</time>
   <energy>
    <i name="alphaZ">     78.92213358 </i>
    <i name="ewald">  39380.02720622 </i>
    <i name="hartreedc"> -45337.57224413 </i>
    <i name="XCdc">   -239.05781369 </i>
    <i name="pawpsdc">   4192.09417834 </i>
    <i name="pawaedc">  -3610.11342978 </i>
    <i name="eentropy">     -0.28288430 </i>
    <i name="bandstr">  -1412.97009385 </i>
    <i name="atom">   6761.44252427 </i>
    <i name="e_fr_energy">   -187.51042332 </i>
    <i name="e_wo_entrp">   -187.22753903 </i>
    <i name="e_0_energy">   -187.36898118 </i>
   </energy>
  </scstep>
  <scstep>
   <time name="dav">   32.12   32.67</time>
   <time name="total">   32.73   33.30</time>
   <energy>
    <i name="e_fr_energy">   -189.49635270 </i>
    <i name="e_wo_entrp">   -189.16267389 </i>
    <i name="e_0_energy">   -189.32951329 </i>
   </energy>
  </scstep>
  <scstep>
   <time name="dav">   32.25   32.83</time>
   <time name="total">   32.87   33.47</time>
   <energy>
    <i name="e_fr_energy">   -189.36142266 </i>
    <i name="e_wo_entrp">   -189.09473062 </i>
    <i name="e_0_energy">   -189.22807664 </i>
   </energy>
  </scstep>
  <scstep>
   <time name="dav">   30.69   31.21</time>
   <time name="total">   31.31   31.84</time>
   <energy>
    <i name="e_fr_energy">   -188.78040597 </i>
    <i name="e_wo_entrp">   -188.49653460 </i>
    <i name="e_0_energy">   -188.63847029 </i>
   </energy>
  </scstep>
  <scstep>
   <time name="dav">   32.55   33.15</time>
   <time name="total">   33.17   33.78</time>
   <energy>
    <i name="e_fr_energy">   -188.89461665 </i>
    <i name="e_wo_entrp">   -188.60861000 </i>
    <i name="e_0_energy">   -188.75161332 </i>
   </energy>
  </scstep>
  <scstep>
   <time name="dav">   32.85   33.42</time>
   <time name="total">   33.47   34.05</time>
   <energy>
    <i name="e_fr_energy">   -188.76534350 </i>
    <i name="e_wo_entrp">   -188.47787478 </i>
    <i name="e_0_energy">   -188.62160914 </i>
   </energy>
  </scstep>
  <scstep>
   <time name="dav">   29.46   29.96</time>
   <time name="total">   30.08   30.60</time>
   <energy>
    <i name="e_fr_energy">   -188.70653106 </i>
    <i name="e_wo_entrp">   -188.42366260 </i>
    <i name="e_0_energy">   -188.56509683 </i>
   </energy>
  </scstep>
  <scstep>
   <time name="dav">   30.58   31.09</time>
   <time name="total">   31.20   31.73</time>
   <energy>
    <i name="e_fr_energy">   -188.68417213 </i>
    <i name="e_wo_entrp">   -188.40171589 </i>
    <i name="e_0_energy">   -188.54294401 </i>
   </energy>
  </scstep>
  <scstep>
   <time name="dav">   31.18   31.72</time>
   <time name="total">   31.80   32.35</time>
   <energy>
    <i name="e_fr_energy">   -188.68273087 </i>
    <i name="e_wo_entrp">   -188.40111538 </i>
    <i name="e_0_energy">   -188.54192313 </i>
   </energy>
  </scstep>
  <scstep>
   <time name="dav">   33.77   34.37</time>
   <time name="total">   34.38   35.00</time>
   <energy>
    <i name="e_fr_energy">   -188.68236089 </i>
    <i name="e_wo_entrp">   -188.40193770 </i>
    <i name="e_0_energy">   -188.54214930 </i>
   </energy>
  </scstep>
  <scstep>
   <time name="dav">   31.91   32.48</time>
   <time name="total">   32.53   33.12</time>
   <energy>
    <i name="e_fr_energy">   -188.68242730 </i>
    <i name="e_wo_entrp">   -188.40200340 </i>
    <i name="e_0_energy">   -188.54221535 </i>
   </energy>
  </scstep>
  <scstep>
   <time name="dav">   27.81   28.28</time>
   <time name="total">   28.43   28.92</time>
   <energy>
    <i name="e_fr_energy">   -188.68226555 </i>
    <i name="e_wo_entrp">   -188.40169579 </i>
    <i name="e_0_energy">   -188.54198067 </i>
   </energy>
  </scstep>
  <scstep>
   <time name="dav">   21.97   22.36</time>
   <time name="total">   22.01   22.41</time>
   <energy>
    <i name="alphaZ">     78.92213358 </i>
    <i name="ewald">  39380.02720622 </i>
    <i name="hartreedc"> -45348.26044649 </i>
    <i name="XCdc">   -237.97261212 </i>
    <i name="pawpsdc">   3950.22952300 </i>
    <i name="pawaedc">  -3364.74059263 </i>
    <i name="eentropy">     -0.28074724 </i>
    <i name="bandstr">  -1408.04916842 </i>
    <i name="atom">   6761.44252427 </i>
    <i name="e_fr_energy">   -188.68217980 </i>
    <i name="e_wo_entrp">   -188.40143257 </i>
    <i name="e_0_energy">   -188.54180619 </i>
   </energy>
  </scstep>
  <structure>
   <crystal>
    <varray name="basis" >
     <v>       8.85479978       5.10573759       0.00000000 </v>
     <v>      -8.85479911       5.10573693       0.00000000 </v>
     <v>       0.00000000       0.00000000      30.00000000 </v>
    </varray>
    <i name="volume">   2712.61676816 </i>
    <varray name="rec_basis" >
     <v>       0.05646655       0.09792905       0.00000000 </v>
     <v>      -0.05646656       0.09792905       0.00000000 </v>
     <v>       0.00000000       0.00000000       0.03333333 </v>
    </varray>
   </crystal>
   <varray name="positions" >
    <v>       1.00075454       0.33447983      -0.00012818 </v>
    <v>       0.66816875       0.33483536      -0.00000000 </v>
    <v>       0.66781302       0.66742116       0.00012818 </v>
    <v>       0.00100138       0.66766789      -0.00000001 </v>
    <v>       0.33190918       0.66672550       0.00008932 </v>
    <v>       0.00005891      -0.00142397      -0.00008933 </v>
    <v>       0.33023982      -0.00309356      -0.00000002 </v>
    <v>       0.33211921       0.33377103      -0.00000943 </v>
    <v>       0.66710438      -0.00121397       0.00000943 </v>
    <v>       0.10952155       0.22506818       0.95195045 </v>
    <v>       0.22312181       0.11155113       0.04924657 </v>
    <v>       0.10870033       0.55083470       0.95192693 </v>
    <v>       0.21818397       0.44178029       0.04809578 </v>
    <v>       0.11205127       0.88945340       0.95065452 </v>
    <v>       0.22278678       0.77871775       0.04934544 </v>
    <v>       0.44801374       0.22383466       0.95197538 </v>
    <v>       0.55716796       0.11468037       0.04802462 </v>
    <v>       0.44838861       0.55667877       0.95200700 </v>
    <v>       0.55906544       0.44601022       0.04690448 </v>
    <v>       0.44488436       0.88978830       0.95075344 </v>
    <v>       0.55840115       0.77618809       0.04804957 </v>
    <v>       0.77934380       0.22573236       0.95309552 </v>
    <v>       0.89001212       0.11505568       0.04799301 </v>
    <v>       0.77329499       0.55349215       0.95313340 </v>
    <v>       0.88682569       0.43996151       0.04686653 </v>
    <v>       0.77511356       0.88485073       0.95190409 </v>
    <v>       0.88416813       0.77536688       0.04807320 </v>
   </varray>
  </structure>
  <varray name="forces" >
   <v>      -0.00462774       0.18943713      -0.02692771 </v>
   <v>       0.00051967       0.22604542      -0.00000414 </v>
   <v>       0.00475796       0.18959449       0.02694224 </v>
   <v>       0.00042343       0.56793016       0.00001289 </v>
   <v>      -0.36205164      -0.01569912      -0.05840707 </v>
   <v>       0.36152848      -0.01493513       0.05839381 </v>
   <v>      -0.00003502      -0.71721709       0.00003566 </v>
   <v>      -0.23131201      -0.16613957      -0.11101646 </v>
   <v>       0.23065300      -0.16512270       0.11100536 </v>
   <v>       0.01056305       0.10273332      -0.01789568 </v>
   <v>       0.08037692       0.10992374      -0.00627073 </v>
   <v>       0.02004030      -0.08131468      -0.08465862 </v>
   <v>       0.09361340      -0.05623857       0.05034777 </v>
   <v>       0.05348385       0.09638264      -0.27892577 </v>
   <v>      -0.05360962       0.09648548       0.27903456 </v>
   <v>      -0.06227591      -0.07190922       0.26250743 </v>
   <v>       0.06223923      -0.07198698      -0.26244895 </v>
   <v>       0.08332061      -0.05593003       0.14943789 </v>
   <v>      -0.07155551      -0.05762817      -0.12038189 </v>
   <v>      -0.08029416       0.10995973       0.00622153 </v>
   <v>      -0.01081308       0.10268373       0.01744860 </v>
   <v>       0.07145599      -0.05734499       0.12021880 </v>
   <v>      -0.08348512      -0.05600714      -0.14906256 </v>
   <v>      -0.00270239      -0.03338797       0.07460446 </v>
   <v>       0.00323069      -0.03371598      -0.07447452 </v>
   <v>      -0.09370144      -0.05598901      -0.04994495 </v>
   <v>      -0.01974291      -0.08060950       0.08420807 </v>
  </varray>
  <varray name="stress" >
   <v>     -19.90101014      -0.00025630      -0.00180661 </v>
   <v>      -0.00025626     -19.47828779      -0.00019458 </v>
   <v>      -0.00180651      -0.00019467      -1.71764568 </v>
  </varray>
  <energy>
   <i name="e_fr_energy">   -188.68217980 </i>
   <i name="e_wo_entrp">   -188.54180619 </i>
   <i name="e_0_energy">     -0.28074724 </i>
  </energy>
  <time name="totalsc">  441.13  449.00</time>
 </calculation>
 <calculation>
  <scstep>
   <time name="dav">   25.23   25.68</time>
   <time name="total">   25.84   26.30</time>
   <energy>
    <i name="alphaZ">     82.34278167 </i>
    <i name="ewald">  41301.34106081 </i>
    <i name="hartreedc"> -47299.96337436 </i>
    <i name="XCdc">   -233.85514808 </i>
    <i name="pawpsdc">   3949.34711846 </i>
    <i name="pawaedc">  -3363.85156956 </i>
    <i name="eentropy">     -0.23496345 </i>
    <i name="bandstr">  -1387.17053415 </i>
    <i name="atom">   6761.44252427 </i>
    <i name="e_fr_energy">   -190.60210439 </i>
    <i name="e_wo_entrp">   -190.36714094 </i>
    <i name="e_0_energy">   -190.48462267 </i>
   </energy>
  </scstep>
  <scstep>
   <time name="dav">   29.81   30.33</time>
   <time name="total">   30.41   30.95</time>
   <energy>
    <i name="e_fr_energy">   -190.55261856 </i>
    <i name="e_wo_entrp">   -190.32009346 </i>
    <i name="e_0_energy">   -190.43635601 </i>
   </energy>
  </scstep>
  <scstep>
   <time name="dav">   32.08   32.62</time>
   <time name="total">   32.68   33.24</time>
   <energy>
    <i name="e_fr_energy">   -190.08536844 </i>
    <i name="e_wo_entrp">   -189.83503240 </i>
    <i name="e_0_energy">   -189.96020042 </i>
   </energy>
  </scstep>
  <scstep>
   <time name="dav">   33.38   33.99</time>
   <time name="total">   33.99   34.62</time>
   <energy>
    <i name="e_fr_energy">   -189.87410752 </i>
    <i name="e_wo_entrp">   -189.64084697 </i>
    <i name="e_0_energy">   -189.75747725 </i>
   </energy>
  </scstep>
  <scstep>
   <time name="dav">   30.98   31.54</time>
   <time name="total">   31.59   32.17</time>
   <energy>
    <i name="e_fr_energy">   -189.78357344 </i>
    <i name="e_wo_entrp">   -189.54652955 </i>
    <i name="e_0_energy">   -189.66505149 </i>
   </energy>
  </scstep>
  <scstep>
   <time name="dav">   28.08   28.58</time>
   <time name="total">   28.70   29.32</time>
   <energy>
    <i name="e_fr_energy">   -189.77176472 </i>
    <i name="e_wo_entrp">   -189.53446977 </i>
    <i name="e_0_energy">   -189.65311724 </i>
   </energy>
  </scstep>
  <scstep>
   <time name="dav">   25.91   26.33</time>
   <time name="total">   26.52   26.96</time>
   <energy>
    <i name="e_fr_energy">   -189.77193431 </i>
    <i name="e_wo_entrp">   -189.53480253 </i>
    <i name="e_0_energy">   -189.65336842 </i>
   </energy>
  </scstep>
  <scstep>
   <time name="dav">   28.52   29.02</time>
   <time name="total">   29.13   29.65</time>
   <energy>
    <i name="e_fr_energy">   -189.77235605 </i>
    <i name="e_wo_entrp">   -189.53488370 </i>
    <i name="e_0_energy">   -189.65361988 </i>
   </energy>
  </scstep>
  <scstep>
   <time name="dav">   28.43   28.95</time>
   <time name="total">   29.04   29.57</time>
   <energy>
    <i name="e_fr_energy">   -189.77245450 </i>
    <i name="e_wo_entrp">   -189.53558153 </i>
    <i name="e_0_energy">   -189.65401801 </i>
   </energy>
  </scstep>
  <scstep>
   <time name="dav">   25.52   25.95</time>
   <time name="total">   26.14   26.58</time>
   <energy>
    <i name="e_fr_energy">   -189.77213135 </i>
    <i name="e_wo_entrp">   -189.53473191 </i>
    <i name="e_0_energy">   -189.65343163 </i>
   </energy>
  </scstep>
  <scstep>
   <time name="dav">   18.54   18.88</time>
   <time name="total">   18.58   18.92</time>
   <energy>
    <i name="alphaZ">     82.34278167 </i>
    <i name="ewald">  41301.34106081 </i>
    <i name="hartreedc"> -47273.42671689 </i>
    <i name="XCdc">   -235.24317306 </i>
    <i name="pawpsdc">   4038.26419024 </i>
    <i name="pawaedc">  -3453.96953864 </i>
    <i name="eentropy">     -0.23721518 </i>
    <i name="bandstr">  -1410.28603089 </i>
    <i name="atom">   6761.44252427 </i>
    <i name="e_fr_energy">   -189.77211768 </i>
    <i name="e_wo_entrp">   -189.53490250 </i>
    <i name="e_0_energy">   -189.65351009 </i>
   </energy>
  </scstep>
  <structure>
   <crystal>
    <varray name="basis" >
     <v>       8.66693140       4.99971075       0.00000000 </v>
     <v>      -8.66693354       4.99971495       0.00000000 </v>
     <v>       0.00000000       0.00000000      30.00000000 </v>
    </varray>
    <i name="volume">   2599.93042006 </i>
    <varray name="rec_basis" >
     <v>       0.05769056       0.10000576       0.00000000 </v>
     <v>      -0.05769051       0.10000573       0.00000000 </v>
     <v>       0.00000000       0.00000000       0.03333333 </v>
    </varray>
   </crystal>
   <varray name="positions" >
    <v>       1.00106550       0.33479967      -0.00014344 </v>
    <v>       0.66854560       0.33521121      -0.00000000 </v>
    <v>       0.66813325       0.66773225       0.00014345 </v>
    <v>       0.00194735       0.66861304      -0.00000000 </v>
    <v>       0.33153547       0.66704693       0.00005622 </v>
    <v>       0.00038112      -0.00179590      -0.00005624 </v>
    <v>       0.32904568      -0.00428764       0.00000000 </v>
    <v>       0.33162054       0.33371648      -0.00007235 </v>
    <v>       0.66705089      -0.00171031       0.00007233 </v>
    <v>       0.10970274       0.22522908       0.95194031 </v>
    <v>       0.22338198       0.11165698       0.04924301 </v>
    <v>       0.10858419       0.55068008       0.95187895 </v>
    <v>       0.21818021       0.44159679       0.04812432 </v>
    <v>       0.11226309       0.88956252       0.95049645 </v>
    <v>       0.22289596       0.77892986       0.04950357 </v>
    <v>       0.44783423       0.22377472       0.95212415 </v>
    <v>       0.55710786       0.11450077       0.04787589 </v>
    <v>       0.44837548       0.55650566       0.95209169 </v>
    <v>       0.55890080       0.44598296       0.04683626 </v>
    <v>       0.44499035       0.89004846       0.95075696 </v>
    <v>       0.55856173       0.77636943       0.04805946 </v>
    <v>       0.77931693       0.22556829       0.95316365 </v>
    <v>       0.88983873       0.11504258       0.04790853 </v>
    <v>       0.77323680       0.55343916       0.95317568 </v>
    <v>       0.88677265       0.43990228       0.04682433 </v>
    <v>       0.77493039       0.88484747       0.95187579 </v>
    <v>       0.88401496       0.77525162       0.04812092 </v>
   </varray>
  </structure>
  <varray name="forces" >
   <v>       0.03745960       0.18947452      -0.00555659 </v>
   <v>       0.00025224       0.18977058      -0.00000466 </v>
   <v>      -0.03726976       0.18923970       0.00579762 </v>
   <v>       0.00061810       0.67409047       0.00003830 </v>
   <v>      -0.39560021       0.01914790      -0.06157904 </v>
   <v>       0.39503724       0.02006030       0.06163777 </v>
   <v>       0.00012854      -0.74158877      -0.00021593 </v>
   <v>      -0.20859002      -0.19928747      -0.10503350 </v>
   <v>       0.20810674      -0.19874694       0.10501067 </v>
   <v>      -0.10575897       0.01034517      -0.52365753 </v>
   <v>       0.04576367       0.05771638       0.54850909 </v>
   <v>       0.04252950      -0.14554290      -0.58063834 </v>
   <v>      -0.03570750      -0.11388754       0.55294503 </v>
   <v>       0.01375940       0.01392941      -0.86731765 </v>
   <v>      -0.01375080       0.01388845       0.86743483 </v>
   <v>       0.02188058       0.03401463      -0.21420274 </v>
   <v>      -0.02193243       0.03400375       0.21438247 </v>
   <v>       0.07265027       0.08241223      -0.33547199 </v>
   <v>      -0.00278149       0.06554214       0.33459962 </v>
   <v>      -0.04581633       0.05775647      -0.54847044 </v>
   <v>       0.10557650       0.01047768       0.52370083 </v>
   <v>       0.00286064       0.06574172      -0.33457670 </v>
   <v>      -0.07277850       0.08256868       0.33520230 </v>
   <v>      -0.03357469      -0.07596257      -0.36330355 </v>
   <v>       0.03370954      -0.07596023       0.36321910 </v>
   <v>       0.03562236      -0.11369394      -0.55305096 </v>
   <v>      -0.04239422      -0.14550984       0.58060197 </v>
  </varray>
  <varray name="stress" >
   <v>     -10.20553253       0.00046911      -0.00919535 </v>
   <v>       0.00046898      -9.84497155       0.00046777 </v>
   <v>      -0.00919533       0.00046780       6.52317618 </v>
  </varray>
  <energy>
   <i name="e_fr_energy">   -189.77211768 </i>
   <i name="e_wo_entrp">   -189.65351009 </i>
   <i name="e_0_energy">     -0.23721518 </i>
  </energy>
  <time name="totalsc">  356.28  362.83</time>
 </calculation>
 <calculation>
  <scstep>
   <time name="dav">   22.87   23.27</time>
   <time name="total">   23.47   23.88</time>
   <energy>
    <i name="alphaZ">     85.83900316 </i>
    <i name="ewald">  42841.55187059 </i>
    <i name="hartreedc"> -48858.31214700 </i>
    <i name="XCdc">   -232.94226453 </i>
    <i name="pawpsdc">   4038.65874922 </i>
    <i name="pawaedc">  -3454.36515265 </i>
    <i name="eentropy">     -0.19992651 </i>
    <i name="bandstr">  -1373.02426751 </i>
    <i name="atom">   6761.44252427 </i>
    <i name="e_fr_energy">   -191.35161097 </i>
    <i name="e_wo_entrp">   -191.15168446 </i>
    <i name="e_0_energy">   -191.25164772 </i>
   </energy>
  </scstep>
  <scstep>
   <time name="dav">   34.15   34.76</time>
   <time name="total">   34.74   35.37</time>
   <energy>
    <i name="e_fr_energy">   -191.20696929 </i>
    <i name="e_wo_entrp">   -191.00076928 </i>
    <i name="e_0_energy">   -191.10386928 </i>
   </energy>
  </scstep>
  <scstep>
   <time name="dav">   31.35   31.92</time>
   <time name="total">   31.95   32.54</time>
   <energy>
    <i name="e_fr_energy">   -191.31904182 </i>
    <i name="e_wo_entrp">   -191.10029847 </i>
    <i name="e_0_energy">   -191.20967014 </i>
   </energy>
  </scstep>
  <scstep>
   <time name="dav">   31.89   32.45</time>
   <time name="total">   32.49   33.06</time>
   <energy>
    <i name="e_fr_energy">   -190.97906603 </i>
    <i name="e_wo_entrp">   -190.75703982 </i>
    <i name="e_0_energy">   -190.86805293 </i>
   </energy>
  </scstep>
  <scstep>
   <time name="dav">   29.54   30.08</time>
   <time name="total">   30.14   30.70</time>
   <energy>
    <i name="e_fr_energy">   -190.95202749 </i>
    <i name="e_wo_entrp">   -190.75871787 </i>
    <i name="e_0_energy">   -190.85537268 </i>
   </energy>
  </scstep>
  <scstep>
   <time name="dav">   30.16   30.70</time>
   <time name="total">   30.76   31.32</time>
   <energy>
    <i name="e_fr_energy">   -190.76688031 </i>
    <i name="e_wo_entrp">   -190.56068437 </i>
    <i name="e_0_energy">   -190.66378234 </i>
   </energy>
  </scstep>
  <scstep>
   <time name="dav">   29.73   30.22</time>
   <time name="total">   30.32   30.84</time>
   <energy>
    <i name="e_fr_energy">   -190.76247047 </i>
    <i name="e_wo_entrp">   -190.55658440 </i>
    <i name="e_0_energy">   -190.65952744 </i>
   </energy>
  </scstep>
  <scstep>
   <time name="dav">   30.72   31.24</time>
   <time name="total">   31.31   31.85</time>
   <energy>
    <i name="e_fr_energy">   -190.76293855 </i>
    <i name="e_wo_entrp">   -190.55650171 </i>
    <i name="e_0_energy">   -190.65972013 </i>
   </energy>
  </scstep>
  <scstep>
   <time name="dav">   29.28   29.76</time>
   <time name="total">   29.88   30.38</time>
   <energy>
    <i name="e_fr_energy">   -190.75879355 </i>
    <i name="e_wo_entrp">   -190.55252827 </i>
    <i name="e_0_energy">   -190.65566091 </i>
   </energy>
  </scstep>
  <scstep>
   <time name="dav">   27.40   27.87</time>
   <time name="total">   27.99   28.48</time>
   <energy>
    <i name="e_fr_energy">   -190.75903125 </i>
    <i name="e_wo_entrp">   -190.55289746 </i>
    <i name="e_0_energy">   -190.65596435 </i>
   </energy>
  </scstep>
  <scstep>
   <time name="dav">   28.13   28.61</time>
   <time name="total">   28.17   28.66</time>
   <energy>
    <i name="alphaZ">     85.83900316 </i>
    <i name="ewald">  42841.55187059 </i>
    <i name="hartreedc"> -48829.36439434 </i>
    <i name="XCdc">   -234.27652543 </i>
    <i name="pawpsdc">   4063.21692941 </i>
    <i name="pawaedc">  -3479.10550127 </i>
    <i name="eentropy">     -0.20616110 </i>
    <i name="bandstr">  -1399.85668341 </i>
    <i name="atom">   6761.44252427 </i>
    <i name="e_fr_energy">   -190.75893812 </i>
    <i name="e_wo_entrp">   -190.55277702 </i>
    <i name="e_0_energy">   -190.65585757 </i>
   </energy>
  </scstep>
  <structure>
   <crystal>
    <varray name="basis" >
     <v>       8.48343427       4.89984551       0.00000000 </v>
     <v>      -8.48340729       4.89979921       0.00000000 </v>
     <v>       0.00000000       0.00000000      30.00000000 </v>
    </varray>
    <i name="volume">   2494.03528755 </i>
    <varray name="rec_basis" >
     <v>       0.05893821       0.10204435       0.00000000 </v>
     <v>      -0.05893877       0.10204468       0.00000000 </v>
     <v>       0.00000000       0.00000000       0.03333333 </v>
    </varray>
   </crystal>
   <varray name="positions" >
    <v>       1.00245123       0.33579211      -0.00013667 </v>
    <v>       0.66964576       0.33631033      -0.00000001 </v>
    <v>       0.66912400       0.66911475       0.00013737 </v>
    <v>       0.00644685       0.67310750       0.00000010 </v>
    <v>       0.33026228       0.66873568      -0.00007420 </v>
    <v>       0.00207387      -0.00306090       0.00007436 </v>
    <v>       0.32433148      -0.00900323      -0.00000066 </v>
    <v>       0.32956434       0.33310486      -0.00028505 </v>
    <v>       0.66643997      -0.00376282       0.00028498 </v>
    <v>       0.10898379       0.22561326       0.95042147 </v>
    <v>       0.22372841       0.11177238       0.05085534 </v>
    <v>       0.10769597       0.54941869       0.95025032 </v>
    <v>       0.21700381       0.44105395       0.04970118 </v>
    <v>       0.11213540       0.88945039       0.94819420 </v>
    <v>       0.22278343       0.77880133       0.05180608 </v>
    <v>       0.44851524       0.22405327       0.95127193 </v>
    <v>       0.55738630       0.11518210       0.04872858 </v>
    <v>       0.44948805       0.55712309       0.95098096 </v>
    <v>       0.55971143       0.44661431       0.04791957 </v>
    <v>       0.44510563       0.89039553       0.94914479 </v>
    <v>       0.55894663       0.77565234       0.04957881 </v>
    <v>       0.77994986       0.22637941       0.95208056 </v>
    <v>       0.89045731       0.11615713       0.04901815 </v>
    <v>       0.77248675       0.55302175       0.95204746 </v>
    <v>       0.88635601       0.43915315       0.04795219 </v>
    <v>       0.77438831       0.88367245       0.95029826 </v>
    <v>       0.88275234       0.77436167       0.04974983 </v>
   </varray>
  </structure>
  <varray name="forces" >
   <v>       0.05235029       0.16450186       0.04107581 </v>
   <v>      -0.00027197       0.22364333      -0.00001820 </v>
   <v>      -0.05258302       0.16466020      -0.04136896 </v>
   <v>      -0.00023823       0.66815899       0.00000933 </v>
   <v>      -0.42241098       0.04585190      -0.03161069 </v>
   <v>       0.42274109       0.04503259       0.03158113 </v>
   <v>       0.00003756      -0.72193659       0.00033966 </v>
   <v>      -0.18710776      -0.18948630      -0.06185974 </v>
   <v>       0.18760355      -0.18994803       0.06181129 </v>
   <v>      -0.04603086      -0.07856873      -0.37925901 </v>
   <v>       0.03682993       0.00854410       0.36683828 </v>
   <v>      -0.04224904      -0.02502663      -0.42460962 </v>
   <v>      -0.06320381      -0.01741829       0.34414639 </v>
   <v>      -0.00974634      -0.03640410      -0.69862998 </v>
   <v>       0.00963211      -0.03622212       0.69872808 </v>
   <v>       0.03273709      -0.06967051      -0.07973019 </v>
   <v>      -0.03277269      -0.06982385       0.07959219 </v>
   <v>      -0.03300903       0.02945136      -0.17487248 </v>
   <v>      -0.03866003       0.01648108       0.23956140 </v>
   <v>      -0.03660116       0.00845849      -0.36702221 </v>
   <v>       0.04654154      -0.07875858       0.37843264 </v>
   <v>       0.03844646       0.01611304      -0.24020269 </v>
   <v>       0.03319565       0.02880230       0.17584819 </v>
   <v>       0.02040931       0.06835135      -0.25793663 </v>
   <v>      -0.02102106       0.06837851       0.25860324 </v>
   <v>       0.06358379      -0.01795696      -0.34313536 </v>
   <v>       0.04179758      -0.02520842       0.42368811 </v>
  </varray>
  <varray name="stress" >
   <v>      -5.80765392      -0.00089897       0.03578570 </v>
   <v>      -0.00089877      -5.65305452      -0.00031477 </v>
   <v>       0.03578564      -0.00031494       4.60774859 </v>
  </varray>
  <energy>
   <i name="e_fr_energy">   -190.75893812 </i>
   <i name="e_wo_entrp">   -190.65585757 </i>
   <i name="e_0_energy">     -0.20616110 </i>
  </energy>
  <time name="totalsc">  374.73  381.39</time>
 </calculation>
 <calculation>
  <scstep>
   <time name="dav">   22.88   23.27</time>
   <time name="total">   23.47   23.87</time>
   <energy>
    <i name="alphaZ">     90.17957825 </i>
    <i name="ewald">  44664.35805019 </i>
    <i name="hartreedc"> -50707.51903761 </i>
    <i name="XCdc">   -231.84458270 </i>
    <i name="pawpsdc">   4063.94298154 </i>
    <i name="pawaedc">  -3479.83395592 </i>
    <i name="eentropy">     -0.19317460 </i>
    <i name="bandstr">  -1352.62999236 </i>
    <i name="atom">   6761.44252427 </i>
    <i name="e_fr_energy">   -192.09760893 </i>
    <i name="e_wo_entrp">   -191.90443433 </i>
    <i name="e_0_energy">   -192.00102163 </i>
   </energy>
  </scstep>
  <scstep>
   <time name="dav">   31.22   31.72</time>
   <time name="total">   31.81   32.33</time>
   <energy>
    <i name="e_fr_energy">   -191.92998819 </i>
    <i name="e_wo_entrp">   -191.72053444 </i>
    <i name="e_0_energy">   -191.82526131 </i>
   </energy>
  </scstep>
  <scstep>
   <time name="dav">   31.88   32.42</time>
   <time name="total">   32.47   33.02</time>
   <energy>
    <i name="e_fr_energy">   -192.38570923 </i>
    <i name="e_wo_entrp">   -192.17709723 </i>
    <i name="e_0_energy">   -192.28140323 </i>
   </energy>
  </scstep>
  <scstep>
   <time name="dav">   31.80   32.34</time>
   <time name="total">   32.39   32.95</time>
   <energy>
    <i name="e_fr_energy">   -191.58607571 </i>
    <i name="e_wo_entrp">   -191.37961108 </i>
    <i name="e_0_energy">   -191.48284340 </i>
   </energy>
  </scstep>
  <scstep>
   <time name="dav">   31.33   31.88</time>
   <time name="total">   31.92   32.48</time>
   <energy>
    <i name="e_fr_energy">   -191.40717179 </i>
    <i name="e_wo_entrp">   -191.20705185 </i>
    <i name="e_0_energy">   -191.30711182 </i>
   </energy>
  </scstep>
  <scstep>
   <time name="dav">   29.96   30.46</time>
   <time name="total">   30.55   31.07</time>
   <energy>
    <i name="e_fr_energy">   -191.39717873 </i>
    <i name="e_wo_entrp">   -191.19147780 </i>
    <i name="e_0_energy">   -191.29432826 </i>
   </energy>
  </scstep>
  <scstep>
   <time name="dav">   31.01   31.59</time>
   <time name="total">   31.59   32.20</time>
   <energy>
    <i name="e_fr_energy">   -191.40117778 </i>
    <i name="e_wo_entrp">   -191.20152945 </i>
    <i name="e_0_energy">   -191.30135362 </i>
   </energy>
  </scstep>
  <scstep>
   <time name="dav">   31.15   31.69</time>
   <time name="total">   31.74   32.30</time>
   <energy>
    <i name="e_fr_energy">   -191.38696564 </i>
    <i name="e_wo_entrp">   -191.18487873 </i>
    <i name="e_0_energy">   -191.28592219 </i>
   </energy>
  </scstep>
  <scstep>
   <time name="dav">   31.18   31.72</time>
   <time name="total">   31.77   32.33</time>
   <energy>
    <i name="e_fr_energy">   -191.38779197 </i>
    <i name="e_wo_entrp">   -191.18475641 </i>
    <i name="e_0_energy">   -191.28627419 </i>
   </energy>
  </scstep>
  <scstep>
   <time name="dav">   30.52   31.08</time>
   <time name="total">   31.11   31.69</time>
   <energy>
    <i name="e_fr_energy">   -191.38728558 </i>
    <i name="e_wo_entrp">   -191.18542978 </i>
    <i name="e_0_energy">   -191.28635768 </i>
   </energy>
  </scstep>
  <scstep>
   <time name="dav">   27.70   28.16</time>
   <time name="total">   28.28   28.77</time>
   <energy>
    <i name="e_fr_energy">   -191.38712669 </i>
    <i name="e_wo_entrp">   -191.18485565 </i>
    <i name="e_0_energy">   -191.28599117 </i>
   </energy>
  </scstep>
  <scstep>
   <time name="dav">   21.52   21.89</time>
   <time name="total">   21.56   21.94</time>
   <energy>
    <i name="alphaZ">     90.17957825 </i>
    <i name="ewald">  44664.35805019 </i>
    <i name="hartreedc"> -50674.03030521 </i>
    <i name="XCdc">   -233.36043901 </i>
    <i name="pawpsdc">   4085.53203190 </i>
    <i name="pawaedc">  -3501.51620741 </i>
    <i name="eentropy">     -0.20232109 </i>
    <i name="bandstr">  -1383.79000564 </i>
    <i name="atom">   6761.44252427 </i>
    <i name="e_fr_energy">   -191.38709373 </i>
    <i name="e_wo_entrp">   -191.18477265 </i>
    <i name="e_0_energy">   -191.28593319 </i>
   </energy>
  </scstep>
  <structure>
   <crystal>
    <varray name="basis" >
     <v>       8.27210106       4.78311724       0.00000000 </v>
     <v>      -8.27211000       4.78313303       0.00000000 </v>
     <v>       0.00000000       0.00000000      30.00000000 </v>
    </varray>
    <i name="volume">   2373.99095329 </i>
    <varray name="rec_basis" >
     <v>       0.06044420       0.10453422       0.00000000 </v>
     <v>      -0.06044400       0.10453411       0.00000000 </v>
     <v>       0.00000000       0.00000000       0.03333333 </v>
    </varray>
   </crystal>
   <varray name="positions" >
    <v>       1.00494684       0.33743080       0.00002414 </v>
    <v>       0.67223431       0.33890264      -0.00000008 </v>
    <v>       0.67076169       0.67161166      -0.00002410 </v>
    <v>       0.01499086       0.68165260       0.00000018 </v>
    <v>       0.32784983       0.67239035      -0.00022034 </v>
    <v>       0.00572319      -0.00548153       0.00022050 </v>
    <v>       0.31534084      -0.01799516       0.00000015 </v>
    <v>       0.32580569       0.33197210      -0.00055059 </v>
    <v>       0.66530469      -0.00752974       0.00055033 </v>
    <v>       0.10731613       0.22510703       0.94832030 </v>
    <v>       0.22397647       0.11159574       0.05297543 </v>
    <v>       0.10681778       0.54890108       0.94797063 </v>
    <v>       0.21581920       0.44114930       0.05169312 </v>
    <v>       0.11141837       0.88895981       0.94471670 </v>
    <v>       0.22229383       0.77808620       0.05528399 </v>
    <v>       0.44850425       0.22331501       0.95040659 </v>
    <v>       0.55664630       0.11516994       0.04959367 </v>
    <v>       0.45019278       0.55812792       0.94971169 </v>
    <v>       0.56023131       0.44738311       0.04938328 </v>
    <v>       0.44492927       0.89064164       0.94702417 </v>
    <v>       0.55844220       0.77398033       0.05167762 </v>
    <v>       0.78071391       0.22689640       0.95061481 </v>
    <v>       0.89145726       0.11685482       0.05029002 </v>
    <v>       0.77300227       0.55345562       0.95052139 </v>
    <v>       0.88678685       0.43967422       0.04948031 </v>
    <v>       0.77448035       0.88248001       0.94830928 </v>
    <v>       0.88222798       0.77348255       0.05202671 </v>
   </varray>
  </structure>
  <varray name="forces" >
   <v>      -0.01081262       0.11862862      -0.01893341 </v>
   <v>      -0.00022449       0.33886793      -0.00004211 </v>
   <v>       0.01042325       0.11897760       0.01884770 </v>
   <v>      -0.00038670       0.05496461      -0.00011581 </v>
   <v>      -0.18519904       0.03590566       0.06861309 </v>
   <v>       0.18522128       0.03533421      -0.06853317 </v>
   <v>       0.00005156      -0.18609979      -0.00004772 </v>
   <v>      -0.08686814      -0.16858864      -0.02662856 </v>
   <v>       0.08722578      -0.16900779       0.02678395 </v>
   <v>       0.01433381      -0.12295134      -0.05774026 </v>
   <v>       0.09974833      -0.00687277       0.08136540 </v>
   <v>      -0.14052594       0.10088624      -0.06844164 </v>
   <v>      -0.05132185       0.06448362       0.03768433 </v>
   <v>      -0.03541020      -0.02479204      -0.30827222 </v>
   <v>       0.03557321      -0.02492407       0.30828744 </v>
   <v>       0.04855558      -0.22316622       0.20333913 </v>
   <v>      -0.04830549      -0.22291493      -0.20358099 </v>
   <v>      -0.16458674      -0.05773302       0.09621619 </v>
   <v>      -0.08004340      -0.02752488      -0.04780371 </v>
   <v>      -0.09986939      -0.00679250      -0.08165449 </v>
   <v>      -0.01439667      -0.12305799       0.05871509 </v>
   <v>       0.08004099      -0.02752334       0.04865308 </v>
   <v>       0.16446337      -0.05738871      -0.09688760 </v>
   <v>       0.05398142       0.20799167      -0.02583633 </v>
   <v>      -0.05377252       0.20775104       0.02568153 </v>
   <v>       0.05128558       0.06459035      -0.03853016 </v>
   <v>       0.14081901       0.10095647       0.06886125 </v>
  </varray>
  <varray name="stress" >
   <v>      -0.12981469       0.00021886       0.43043193 </v>
   <v>       0.00021867       0.44822802      -0.00043958 </v>
   <v>       0.43043204      -0.00043946      -0.64826376 </v>
  </varray>
  <energy>
   <i name="e_fr_energy">   -191.38709373 </i>
   <i name="e_wo_entrp">   -191.28593319 </i>
   <i name="e_0_energy">     -0.20232109 </i>
  </energy>
  <time name="totalsc">  402.34  409.47</time>
 </calculation>
 <calculation>
  <scstep>
   <time name="dav">   22.85   23.25</time>
   <time name="total">   23.44   23.85</time>
   <energy>
    <i name="alphaZ">     90.10564231 </i>
    <i name="ewald">  44609.13106592 </i>
    <i name="hartreedc"> -50618.84013282 </i>
    <i name="XCdc">   -233.49993138 </i>
    <i name="pawpsdc">   4085.40128540 </i>
    <i name="pawaedc">  -3501.38078795 </i>
    <i name="eentropy">     -0.20558853 </i>
    <i name="bandstr">  -1383.57910519 </i>
    <i name="atom">   6761.44252427 </i>
    <i name="e_fr_energy">   -191.42502797 </i>
    <i name="e_wo_entrp">   -191.21943944 </i>
    <i name="e_0_energy">   -191.32223370 </i>
   </energy>
  </scstep>
  <scstep>
   <time name="dav">   32.84   33.37</time>
   <time name="total">   33.43   33.97</time>
   <energy>
    <i name="e_fr_energy">   -191.45142907 </i>
    <i name="e_wo_entrp">   -191.24142931 </i>
    <i name="e_0_energy">   -191.34642919 </i>
   </energy>
  </scstep>
  <scstep>
   <time name="dav">   31.81   32.37</time>
   <time name="total">   32.39   32.97</time>
   <energy>
    <i name="e_fr_energy">   -191.43657700 </i>
    <i name="e_wo_entrp">   -191.23232262 </i>
    <i name="e_0_energy">   -191.33444981 </i>
   </energy>
  </scstep>
  <scstep>
   <time name="dav">   29.82   30.34</time>
   <time name="total">   30.41   30.95</time>
   <energy>
    <i name="e_fr_energy">   -191.43670614 </i>
    <i name="e_wo_entrp">   -191.22920188 </i>
    <i name="e_0_energy">   -191.33295401 </i>
   </energy>
  </scstep>
  <scstep>
   <time name="dav">   29.68   30.22</time>
   <time name="total">   30.26   30.82</time>
   <energy>
    <i name="e_fr_energy">   -191.43457352 </i>
    <i name="e_wo_entrp">   -191.22843262 </i>
    <i name="e_0_energy">   -191.33150307 </i>
   </energy>
  </scstep>
  <scstep>
   <time name="dav">   29.58   29.80</time>
   <time name="total">   30.10   30.32</time>
   <energy>
    <i name="e_fr_energy">   -191.43426964 </i>
    <i name="e_wo_entrp">   -191.22814847 </i>
    <i name="e_0_energy">   -191.33120905 </i>
   </energy>
  </scstep>
  <scstep>
   <time name="dav">   27.34   27.40</time>
   <time name="total">   27.85   27.92</time>
   <energy>
    <i name="e_fr_energy">   -191.43416334 </i>
    <i name="e_wo_entrp">   -191.22808927 </i>
    <i name="e_0_energy">   -191.33112630 </i>
   </energy>
  </scstep>
  <scstep>
   <time name="dav">   21.01   21.06</time>
   <time name="total">   21.05   21.32</time>
   <energy>
    <i name="alphaZ">     90.10564231 </i>
    <i name="ewald">  44609.13106592 </i>
    <i name="hartreedc"> -50620.31069656 </i>
    <i name="XCdc">   -233.45590081 </i>
    <i name="pawpsdc">   4081.35758590 </i>
    <i name="pawaedc">  -3497.28348252 </i>
    <i name="eentropy">     -0.20613685 </i>
    <i name="bandstr">  -1382.21477371 </i>
    <i name="atom">   6761.44252427 </i>
    <i name="e_fr_energy">   -191.43417205 </i>
    <i name="e_wo_entrp">   -191.22803520 </i>
    <i name="e_0_energy">   -191.33110363 </i>
   </energy>
  </scstep>
  <structure>
   <crystal>
    <varray name="basis" >
     <v>       8.26915740       4.78875250       0.00000000 </v>
     <v>      -8.26916080       4.78875874       0.00000000 </v>
     <v>       0.00000000       0.00000000      30.00000000 </v>
    </varray>
    <i name="volume">   2375.93892503 </i>
    <varray name="rec_basis" >
     <v>       0.06046568       0.10441128       0.00000000 </v>
     <v>      -0.06046560       0.10441124       0.00000000 </v>
     <v>       0.00000000       0.00000000       0.03333333 </v>
    </varray>
   </crystal>
   <varray name="positions" >
    <v>       1.00551638       0.33806273      -0.00000622 </v>
    <v>       0.67394686       0.34061650      -0.00000015 </v>
    <v>       0.67139425       0.67218410       0.00000612 </v>
    <v>       0.01527434       0.68193834      -0.00000001 </v>
    <v>       0.32748845       0.67311542      -0.00010999 </v>
    <v>       0.00644543      -0.00584585       0.00011028 </v>
    <v>       0.31439394      -0.01894236       0.00000008 </v>
    <v>       0.32469764       0.33137343      -0.00059369 </v>
    <v>       0.66470495      -0.00864097       0.00059368 </v>
    <v>       0.10673556       0.22444396       0.94822532 </v>
    <v>       0.22423315       0.11126962       0.05310850 </v>
    <v>       0.10691606       0.54982016       0.94785828 </v>
    <v>       0.21599374       0.44162478       0.05175573 </v>
    <v>       0.11118909       0.88893755       0.94421714 </v>
    <v>       0.22227138       0.77785579       0.05578357 </v>
    <v>       0.44751941       0.22204589       0.95073302 </v>
    <v>       0.55537917       0.11418564       0.04926684 </v>
    <v>       0.44942154       0.55831798       0.94986529 </v>
    <v>       0.55985933       0.44747861       0.04930775 </v>
    <v>       0.44460321       0.89089908       0.94689063 </v>
    <v>       0.55777842       0.77339941       0.05177417 </v>
    <v>       0.78080940       0.22652443       0.95069171 </v>
    <v>       0.89164871       0.11608568       0.05013534 </v>
    <v>       0.77421036       0.55434852       0.95047830 </v>
    <v>       0.88767914       0.44088049       0.04952316 </v>
    <v>       0.77495627       0.88265519       0.94824531 </v>
    <v>       0.88314827       0.77358033       0.05213973 </v>
   </varray>
  </structure>
  <varray name="forces" >
   <v>      -0.03978800       0.14641442      -0.02567476 </v>
   <v>      -0.00726938       0.38671485      -0.00022033 </v>
   <v>       0.03491115       0.15040588       0.02392683 </v>
   <v>      -0.00606509       0.12158004       0.00060956 </v>
   <v>      -0.20342661       0.05959158       0.03407213 </v>
   <v>       0.20886783       0.04589050      -0.03368383 </v>
   <v>       0.00061429      -0.30359539       0.00050183 </v>
   <v>      -0.07646224      -0.20855431      -0.02831646 </v>
   <v>       0.08684902      -0.22077132       0.02813170 </v>
   <v>      -0.00397792      -0.08520536      -0.03801869 </v>
   <v>       0.04680710      -0.00885464       0.03565330 </v>
   <v>      -0.06761332       0.06937080      -0.03644228 </v>
   <v>      -0.03566556       0.02664872       0.02019769 </v>
   <v>       0.00820283      -0.02049605      -0.15914156 </v>
   <v>      -0.00802450      -0.02055718       0.15827379 </v>
   <v>       0.04047031      -0.11973012       0.20365400 </v>
   <v>      -0.04007444      -0.11919439      -0.20520346 </v>
   <v>      -0.09453349      -0.04798221       0.13945919 </v>
   <v>      -0.05966251      -0.01455043      -0.08125596 </v>
   <v>      -0.04693752      -0.00911935      -0.03691345 </v>
   <v>       0.00821655      -0.08551192       0.03613530 </v>
   <v>       0.05770306      -0.01807293       0.07961758 </v>
   <v>       0.09697439      -0.05140616      -0.13582884 </v>
   <v>       0.01634112       0.11886392      -0.03807561 </v>
   <v>      -0.01988996       0.11945518       0.04195298 </v>
   <v>       0.03738060       0.02279452      -0.01686272 </v>
   <v>       0.06605230       0.06587135       0.03345211 </v>
  </varray>
  <varray name="stress" >
   <v>      -0.10169991      -0.00188081       0.11547059 </v>
   <v>      -0.00188093      -0.20578381      -0.00234270 </v>
   <v>       0.11547014      -0.00234284      -1.40223485 </v>
  </varray>
  <energy>
   <i name="e_fr_energy">   -191.43417205 </i>
   <i name="e_wo_entrp">   -191.33110363 </i>
   <i name="e_0_energy">     -0.20613685 </i>
  </energy>
  <time name="totalsc">  273.63  276.96</time>
 </calculation>
 <calculation>
  <scstep>
   <time name="dav">   22.90   22.95</time>
   <time name="total">   23.41   23.46</time>
   <energy>
    <i name="alphaZ">     90.22662505 </i>
    <i name="ewald">  44669.72173816 </i>
    <i name="hartreedc"> -50681.98878012 </i>
    <i name="XCdc">   -233.35345731 </i>
    <i name="pawpsdc">   4081.30746814 </i>
    <i name="pawaedc">  -3497.23271485 </i>
    <i name="eentropy">     -0.20755255 </i>
    <i name="bandstr">  -1381.39116099 </i>
    <i name="atom">   6761.44252427 </i>
    <i name="e_fr_energy">   -191.47531020 </i>
    <i name="e_wo_entrp">   -191.26775765 </i>
    <i name="e_0_energy">   -191.37153392 </i>
   </energy>
  </scstep>
  <scstep>
   <time name="dav">   34.00   34.08</time>
   <time name="total">   34.51   34.60</time>
   <energy>
    <i name="e_fr_energy">   -191.48984993 </i>
    <i name="e_wo_entrp">   -191.27810599 </i>
    <i name="e_0_energy">   -191.38397796 </i>
   </energy>
  </scstep>
  <scstep>
   <time name="dav">   31.23   31.31</time>
   <time name="total">   31.74   31.83</time>
   <energy>
    <i name="e_fr_energy">   -191.48466091 </i>
    <i name="e_wo_entrp">   -191.27898557 </i>
    <i name="e_0_energy">   -191.38182324 </i>
   </energy>
  </scstep>
  <scstep>
   <time name="dav">   30.59   30.66</time>
   <time name="total">   31.09   31.18</time>
   <energy>
    <i name="e_fr_energy">   -191.48163212 </i>
    <i name="e_wo_entrp">   -191.27277085 </i>
    <i name="e_0_energy">   -191.37720148 </i>
   </energy>
  </scstep>
  <scstep>
   <time name="dav">   29.24   29.31</time>
   <time name="total">   29.75   29.83</time>
   <energy>
    <i name="e_fr_energy">   -191.48063902 </i>
    <i name="e_wo_entrp">   -191.27220450 </i>
    <i name="e_0_energy">   -191.37642176 </i>
   </energy>
  </scstep>
  <scstep>
   <time name="dav">   29.01   29.08</time>
   <time name="total">   29.52   29.60</time>
   <energy>
    <i name="e_fr_energy">   -191.47973633 </i>
    <i name="e_wo_entrp">   -191.27130887 </i>
    <i name="e_0_energy">   -191.37552260 </i>
   </energy>
  </scstep>
  <scstep>
   <time name="dav">   26.58   26.64</time>
   <time name="total">   26.62   26.69</time>
   <energy>
    <i name="alphaZ">     90.22662505 </i>
    <i name="ewald">  44669.72173816 </i>
    <i name="hartreedc"> -50681.61656451 </i>
    <i name="XCdc">   -233.37589863 </i>
    <i name="pawpsdc">   4084.23044535 </i>
    <i name="pawaedc">  -3500.19732693 </i>
    <i name="eentropy">     -0.20859316 </i>
    <i name="bandstr">  -1381.70263841 </i>
    <i name="atom">   6761.44252427 </i>
    <i name="e_fr_energy">   -191.47968879 </i>
    <i name="e_wo_entrp">   -191.27109563 </i>
    <i name="e_0_energy">   -191.37539221 </i>
   </energy>
  </scstep>
  <structure>
   <crystal>
    <varray name="basis" >
     <v>       8.26460002       4.78490745       0.00000000 </v>
     <v>      -8.26465639       4.78500514       0.00000000 </v>
[...]
      <set comment="kpoint 31">
       <r>  -17.5395    1.0000 </r>
       <r>  -17.2395    1.0000 </r>
       <r>  -16.9129    1.0000 </r>
       <r>  -16.6388    1.0000 </r>
       <r>  -16.5027    1.0000 </r>
       <r>  -16.3948    1.0000 </r>
       <r>  -16.3518    1.0000 </r>
       <r>  -16.1804    1.0000 </r>
       <r>  -16.0989    1.0000 </r>
       <r>  -16.0374    1.0000 </r>
       <r>  -15.9395    1.0000 </r>
       <r>  -15.9104    1.0000 </r>
       <r>  -15.7940    1.0000 </r>
       <r>  -15.7503    1.0000 </r>
       <r>  -15.5801    1.0000 </r>
       <r>  -15.4960    1.0000 </r>
       <r>  -15.3575    1.0000 </r>
       <r>  -15.2716    1.0000 </r>
       <r>   -9.7537    1.0000 </r>
       <r>   -9.4338    1.0000 </r>
       <r>   -9.3256    1.0000 </r>
       <r>   -9.0170    1.0000 </r>
       <r>   -8.8089    1.0000 </r>
       <r>   -8.7160    1.0000 </r>
       <r>   -8.5488    1.0000 </r>
       <r>   -8.4110    1.0000 </r>
       <r>   -8.3626    1.0000 </r>
       <r>   -8.3260    1.0000 </r>
       <r>   -8.3173    1.0000 </r>
       <r>   -8.1941    1.0000 </r>
       <r>   -8.1244    1.0000 </r>
       <r>   -8.0589    1.0000 </r>
       <r>   -8.0078    1.0000 </r>
       <r>   -7.8567    1.0000 </r>
       <r>   -7.8189    1.0000 </r>
       <r>   -7.6660    1.0000 </r>
       <r>   -7.5832    1.0000 </r>
       <r>   -7.4816    1.0000 </r>
       <r>   -7.2732    1.0000 </r>
       <r>   -7.2265    1.0000 </r>
       <r>   -7.1429    1.0000 </r>
       <r>   -7.1101    1.0000 </r>
       <r>   -7.0397    1.0000 </r>
       <r>   -6.9866    1.0000 </r>
       <r>   -6.8523    1.0000 </r>
       <r>   -6.7915    1.0000 </r>
       <r>   -6.6501    1.0000 </r>
       <r>   -6.5852    1.0000 </r>
       <r>   -6.5465    1.0000 </r>
       <r>   -6.4686    1.0000 </r>
       <r>   -6.4230    1.0000 </r>
       <r>   -6.3650    1.0000 </r>
       <r>   -6.3102    1.0000 </r>
       <r>   -6.2288    1.0000 </r>
       <r>   -6.1892    1.0000 </r>
       <r>   -6.0790    1.0000 </r>
       <r>   -6.0236    1.0000 </r>
       <r>   -5.9425    1.0000 </r>
       <r>   -5.8587    1.0000 </r>
       <r>   -5.7987    1.0000 </r>
       <r>   -5.7302    1.0000 </r>
       <r>   -5.6267    1.0000 </r>
       <r>   -5.5813    1.0000 </r>
       <r>   -5.4068    1.0000 </r>
       <r>   -5.2493    1.0000 </r>
       <r>   -5.1489    1.0000 </r>
       <r>   -5.0222    1.0000 </r>
       <r>   -4.9063    1.0000 </r>
       <r>   -4.7807    1.0000 </r>
       <r>   -4.7450    1.0000 </r>
       <r>   -4.5243    1.0000 </r>
       <r>   -4.4507    1.0000 </r>
       <r>   -4.3562    1.0000 </r>
       <r>   -4.2346    1.0000 </r>
       <r>   -4.1641    1.0000 </r>
       <r>   -4.0544    1.0000 </r>
       <r>   -3.9531    1.0000 </r>
       <r>   -3.6339    0.9934 </r>
       <r>   -3.4993    0.9362 </r>
       <r>   -3.3305    0.6295 </r>
       <r>   -2.9320    0.0064 </r>
       <r>   -2.7106    0.0000 </r>
       <r>   -2.6131    0.0000 </r>
       <r>   -2.5487    0.0000 </r>
       <r>   -2.4322    0.0000 </r>
       <r>   -2.3409    0.0000 </r>
       <r>   -2.2699    0.0000 </r>
       <r>   -2.1175    0.0000 </r>
       <r>   -2.0409    0.0000 </r>
       <r>   -1.9671    0.0000 </r>
       <r>   -1.8485    0.0000 </r>
       <r>   -1.7775    0.0000 </r>
       <r>   -1.4012    0.0000 </r>
       <r>   -1.3183    0.0000 </r>
       <r>   -1.2181    0.0000 </r>
       <r>   -1.1370    0.0000 </r>
       <r>   -1.0807    0.0000 </r>
       <r>   -1.0150    0.0000 </r>
       <r>   -0.9568    0.0000 </r>
       <r>   -0.8997    0.0000 </r>
       <r>   -0.8587    0.0000 </r>
       <r>   -0.7767    0.0000 </r>
       <r>   -0.7177    0.0000 </r>
       <r>   -0.5620    0.0000 </r>
       <r>   -0.5010    0.0000 </r>
       <r>   -0.2544    0.0000 </r>
       <r>   -0.2360    0.0000 </r>
       <r>   -0.0366    0.0000 </r>
       <r>    0.0138    0.0000 </r>
       <r>    0.1203    0.0000 </r>
       <r>    0.4109    0.0000 </r>
       <r>    0.5969    0.0000 </r>
       <r>    0.6319    0.0000 </r>
       <r>    0.8961    0.0000 </r>
       <r>    1.1553    0.0000 </r>
       <r>    1.2194    0.0000 </r>
       <r>    1.3094    0.0000 </r>
       <r>    2.1061    0.0000 </r>
       <r>    2.2716    0.0000 </r>
       <r>    2.3659    0.0000 </r>
      </set>
      <set comment="kpoint 32">
       <r>  -17.5473    1.0000 </r>
       <r>  -17.1616    1.0000 </r>
       <r>  -17.0352    1.0000 </r>
       <r>  -16.6378    1.0000 </r>
       <r>  -16.4296    1.0000 </r>
       <r>  -16.3550    1.0000 </r>
       <r>  -16.3104    1.0000 </r>
       <r>  -16.2457    1.0000 </r>
       <r>  -16.1241    1.0000 </r>
       <r>  -16.0785    1.0000 </r>
       <r>  -15.9588    1.0000 </r>
       <r>  -15.8884    1.0000 </r>
       <r>  -15.7945    1.0000 </r>
       <r>  -15.7222    1.0000 </r>
       <r>  -15.5913    1.0000 </r>
       <r>  -15.4853    1.0000 </r>
       <r>  -15.3732    1.0000 </r>
       <r>  -15.2554    1.0000 </r>
       <r>   -9.6822    1.0000 </r>
       <r>   -9.5172    1.0000 </r>
       <r>   -9.3981    1.0000 </r>
       <r>   -9.0112    1.0000 </r>
       <r>   -8.7276    1.0000 </r>
       <r>   -8.6066    1.0000 </r>
       <r>   -8.5325    1.0000 </r>
       <r>   -8.4327    1.0000 </r>
       <r>   -8.4058    1.0000 </r>
       <r>   -8.3481    1.0000 </r>
       <r>   -8.2722    1.0000 </r>
       <r>   -8.2490    1.0000 </r>
       <r>   -8.1307    1.0000 </r>
       <r>   -8.1001    1.0000 </r>
       <r>   -8.0261    1.0000 </r>
       <r>   -7.9310    1.0000 </r>
       <r>   -7.7706    1.0000 </r>
       <r>   -7.7152    1.0000 </r>
       <r>   -7.5467    1.0000 </r>
       <r>   -7.4401    1.0000 </r>
       <r>   -7.2938    1.0000 </r>
       <r>   -7.2684    1.0000 </r>
       <r>   -7.1959    1.0000 </r>
       <r>   -7.0873    1.0000 </r>
       <r>   -7.0083    1.0000 </r>
       <r>   -6.8889    1.0000 </r>
       <r>   -6.8685    1.0000 </r>
       <r>   -6.7552    1.0000 </r>
       <r>   -6.6991    1.0000 </r>
       <r>   -6.6099    1.0000 </r>
       <r>   -6.4996    1.0000 </r>
       <r>   -6.4557    1.0000 </r>
       <r>   -6.4201    1.0000 </r>
       <r>   -6.3761    1.0000 </r>
       <r>   -6.2958    1.0000 </r>
       <r>   -6.2424    1.0000 </r>
       <r>   -6.1590    1.0000 </r>
       <r>   -6.0758    1.0000 </r>
       <r>   -5.9789    1.0000 </r>
       <r>   -5.9366    1.0000 </r>
       <r>   -5.8680    1.0000 </r>
       <r>   -5.7652    1.0000 </r>
       <r>   -5.6691    1.0000 </r>
       <r>   -5.6140    1.0000 </r>
       <r>   -5.5448    1.0000 </r>
       <r>   -5.4508    1.0000 </r>
       <r>   -5.3256    1.0000 </r>
       <r>   -5.1803    1.0000 </r>
       <r>   -5.0568    1.0000 </r>
       <r>   -4.9447    1.0000 </r>
       <r>   -4.8931    1.0000 </r>
       <r>   -4.6832    1.0000 </r>
       <r>   -4.5592    1.0000 </r>
       <r>   -4.4774    1.0000 </r>
       <r>   -4.3729    1.0000 </r>
       <r>   -4.1967    1.0000 </r>
       <r>   -4.1616    1.0000 </r>
       <r>   -4.0372    1.0000 </r>
       <r>   -3.9543    1.0000 </r>
       <r>   -3.6140    0.9902 </r>
       <r>   -3.5119    0.9466 </r>
       <r>   -3.1925    0.2593 </r>
       <r>   -2.9666    0.0125 </r>
       <r>   -2.7251    0.0000 </r>
       <r>   -2.6164    0.0000 </r>
       <r>   -2.5347    0.0000 </r>
       <r>   -2.4288    0.0000 </r>
       <r>   -2.4025    0.0000 </r>
       <r>   -2.2650    0.0000 </r>
       <r>   -2.1488    0.0000 </r>
       <r>   -2.0494    0.0000 </r>
       <r>   -1.9724    0.0000 </r>
       <r>   -1.8865    0.0000 </r>
       <r>   -1.7376    0.0000 </r>
       <r>   -1.3975    0.0000 </r>
       <r>   -1.3365    0.0000 </r>
       <r>   -1.1760    0.0000 </r>
       <r>   -1.1239    0.0000 </r>
       <r>   -1.0638    0.0000 </r>
       <r>   -1.0115    0.0000 </r>
       <r>   -0.9617    0.0000 </r>
       <r>   -0.8829    0.0000 </r>
       <r>   -0.8178    0.0000 </r>
       <r>   -0.7540    0.0000 </r>
       <r>   -0.6921    0.0000 </r>
       <r>   -0.5959    0.0000 </r>
       <r>   -0.5059    0.0000 </r>
       <r>   -0.2531    0.0000 </r>
       <r>   -0.1704    0.0000 </r>
       <r>   -0.0593    0.0000 </r>
       <r>   -0.0172    0.0000 </r>
       <r>    0.1559    0.0000 </r>
       <r>    0.3535    0.0000 </r>
       <r>    0.6285    0.0000 </r>
       <r>    0.6723    0.0000 </r>
       <r>    0.8572    0.0000 </r>
       <r>    1.0809    0.0000 </r>
       <r>    1.1453    0.0000 </r>
       <r>    1.3360    0.0000 </r>
       <r>    2.0712    0.0000 </r>
       <r>    2.2420    0.0000 </r>
       <r>    2.5255    0.0000 </r>
      </set>
      <set comment="kpoint 33">
       <r>  -17.5338    1.0000 </r>
       <r>  -17.2446    1.0000 </r>
       <r>  -16.9135    1.0000 </r>
       <r>  -16.6384    1.0000 </r>
       <r>  -16.5125    1.0000 </r>
       <r>  -16.3904    1.0000 </r>
       <r>  -16.3125    1.0000 </r>
       <r>  -16.2221    1.0000 </r>
       <r>  -16.1135    1.0000 </r>
       <r>  -16.0534    1.0000 </r>
       <r>  -15.9809    1.0000 </r>
       <r>  -15.8528    1.0000 </r>
       <r>  -15.7939    1.0000 </r>
       <r>  -15.6913    1.0000 </r>
       <r>  -15.6074    1.0000 </r>
       <r>  -15.4819    1.0000 </r>
       <r>  -15.4080    1.0000 </r>
       <r>  -15.2422    1.0000 </r>
       <r>   -9.7176    1.0000 </r>
       <r>   -9.4135    1.0000 </r>
       <r>   -9.3613    1.0000 </r>
       <r>   -9.0125    1.0000 </r>
       <r>   -8.8729    1.0000 </r>
       <r>   -8.7297    1.0000 </r>
       <r>   -8.5794    1.0000 </r>
       <r>   -8.4381    1.0000 </r>
       <r>   -8.3985    1.0000 </r>
       <r>   -8.3164    1.0000 </r>
       <r>   -8.2521    1.0000 </r>
       <r>   -8.1982    1.0000 </r>
       <r>   -8.1583    1.0000 </r>
       <r>   -8.1016    1.0000 </r>
       <r>   -7.9220    1.0000 </r>
       <r>   -7.8839    1.0000 </r>
       <r>   -7.7872    1.0000 </r>
       <r>   -7.7340    1.0000 </r>
       <r>   -7.5346    1.0000 </r>
       <r>   -7.4509    1.0000 </r>
       <r>   -7.3188    1.0000 </r>
       <r>   -7.2545    1.0000 </r>
       <r>   -7.1194    1.0000 </r>
       <r>   -7.0820    1.0000 </r>
       <r>   -6.9810    1.0000 </r>
       <r>   -6.8780    1.0000 </r>
       <r>   -6.8635    1.0000 </r>
       <r>   -6.7726    1.0000 </r>
       <r>   -6.7412    1.0000 </r>
       <r>   -6.6110    1.0000 </r>
       <r>   -6.5412    1.0000 </r>
       <r>   -6.4282    1.0000 </r>
       <r>   -6.3661    1.0000 </r>
       <r>   -6.2939    1.0000 </r>
       <r>   -6.2656    1.0000 </r>
       <r>   -6.2192    1.0000 </r>
       <r>   -6.1670    1.0000 </r>
       <r>   -6.0935    1.0000 </r>
       <r>   -6.0252    1.0000 </r>
       <r>   -5.9401    1.0000 </r>
       <r>   -5.8824    1.0000 </r>
       <r>   -5.8245    1.0000 </r>
       <r>   -5.7609    1.0000 </r>
       <r>   -5.6954    1.0000 </r>
       <r>   -5.5822    1.0000 </r>
       <r>   -5.3671    1.0000 </r>
       <r>   -5.3008    1.0000 </r>
       <r>   -5.1565    1.0000 </r>
       <r>   -5.1080    1.0000 </r>
       <r>   -4.9279    1.0000 </r>
       <r>   -4.8891    1.0000 </r>
       <r>   -4.6656    1.0000 </r>
       <r>   -4.5449    1.0000 </r>
       <r>   -4.4653    1.0000 </r>
       <r>   -4.3597    1.0000 </r>
       <r>   -4.2072    1.0000 </r>
       <r>   -4.1871    1.0000 </r>
       <r>   -4.0488    1.0000 </r>
       <r>   -3.9392    1.0000 </r>
       <r>   -3.5992    0.9871 </r>
       <r>   -3.5520    0.9711 </r>
       <r>   -3.0649    0.0608 </r>
       <r>   -2.9758    0.0147 </r>
       <r>   -2.7532    0.0001 </r>
       <r>   -2.6102    0.0000 </r>
       <r>   -2.5408    0.0000 </r>
       <r>   -2.4820    0.0000 </r>
       <r>   -2.4635    0.0000 </r>
       <r>   -2.2445    0.0000 </r>
       <r>   -2.1604    0.0000 </r>
       <r>   -2.0620    0.0000 </r>
       <r>   -1.9732    0.0000 </r>
       <r>   -1.9157    0.0000 </r>
       <r>   -1.6385    0.0000 </r>
       <r>   -1.3882    0.0000 </r>
       <r>   -1.3593    0.0000 </r>
       <r>   -1.1975    0.0000 </r>
       <r>   -1.0930    0.0000 </r>
       <r>   -1.0476    0.0000 </r>
       <r>   -0.9999    0.0000 </r>
       <r>   -0.9691    0.0000 </r>
       <r>   -0.8992    0.0000 </r>
       <r>   -0.7891    0.0000 </r>
       <r>   -0.7344    0.0000 </r>
       <r>   -0.6516    0.0000 </r>
       <r>   -0.5524    0.0000 </r>
       <r>   -0.5033    0.0000 </r>
       <r>   -0.2838    0.0000 </r>
       <r>   -0.1888    0.0000 </r>
       <r>   -0.1089    0.0000 </r>
       <r>   -0.0345    0.0000 </r>
       <r>    0.1621    0.0000 </r>
       <r>    0.3736    0.0000 </r>
       <r>    0.6322    0.0000 </r>
       <r>    0.7118    0.0000 </r>
       <r>    0.8417    0.0000 </r>
       <r>    1.0012    0.0000 </r>
       <r>    1.1321    0.0000 </r>
       <r>    1.3824    0.0000 </r>
       <r>    2.0959    0.0000 </r>
       <r>    2.2732    0.0000 </r>
       <r>    2.3567    0.0000 </r>
      </set>
      <set comment="kpoint 34">
       <r>  -17.5192    1.0000 </r>
       <r>  -17.2963    1.0000 </r>
       <r>  -16.7632    1.0000 </r>
       <r>  -16.6637    1.0000 </r>
       <r>  -16.6382    1.0000 </r>
       <r>  -16.4072    1.0000 </r>
       <r>  -16.2723    1.0000 </r>
       <r>  -16.2539    1.0000 </r>
       <r>  -16.0884    1.0000 </r>
       <r>  -16.0302    1.0000 </r>
       <r>  -15.9987    1.0000 </r>
       <r>  -15.8183    1.0000 </r>
       <r>  -15.8015    1.0000 </r>
       <r>  -15.6709    1.0000 </r>
       <r>  -15.6190    1.0000 </r>
       <r>  -15.4852    1.0000 </r>
       <r>  -15.4286    1.0000 </r>
       <r>  -15.2378    1.0000 </r>
       <r>   -9.7489    1.0000 </r>
       <r>   -9.3004    1.0000 </r>
       <r>   -9.2898    1.0000 </r>
       <r>   -9.0285    1.0000 </r>
       <r>   -9.0142    1.0000 </r>
       <r>   -8.8332    1.0000 </r>
       <r>   -8.6019    1.0000 </r>
       <r>   -8.4468    1.0000 </r>
       <r>   -8.3785    1.0000 </r>
       <r>   -8.3674    1.0000 </r>
       <r>   -8.1943    1.0000 </r>
       <r>   -8.1599    1.0000 </r>
       <r>   -8.1528    1.0000 </r>
       <r>   -8.0722    1.0000 </r>
       <r>   -7.9023    1.0000 </r>
       <r>   -7.8200    1.0000 </r>
       <r>   -7.8054    1.0000 </r>
       <r>   -7.7675    1.0000 </r>
       <r>   -7.5179    1.0000 </r>
       <r>   -7.4814    1.0000 </r>
       <r>   -7.2570    1.0000 </r>
       <r>   -7.2504    1.0000 </r>
       <r>   -7.1261    1.0000 </r>
       <r>   -7.0403    1.0000 </r>
       <r>   -6.9698    1.0000 </r>
       <r>   -6.9050    1.0000 </r>
       <r>   -6.8610    1.0000 </r>
       <r>   -6.8046    1.0000 </r>
       <r>   -6.7548    1.0000 </r>
       <r>   -6.5607    1.0000 </r>
       <r>   -6.5531    1.0000 </r>
       <r>   -6.4378    1.0000 </r>
       <r>   -6.3252    1.0000 </r>
       <r>   -6.3181    1.0000 </r>
       <r>   -6.2302    1.0000 </r>
       <r>   -6.1625    1.0000 </r>
       <r>   -6.1466    1.0000 </r>
       <r>   -6.1191    1.0000 </r>
       <r>   -6.1024    1.0000 </r>
       <r>   -5.9776    1.0000 </r>
       <r>   -5.9059    1.0000 </r>
       <r>   -5.8415    1.0000 </r>
       <r>   -5.8206    1.0000 </r>
       <r>   -5.7377    1.0000 </r>
       <r>   -5.5571    1.0000 </r>
       <r>   -5.3650    1.0000 </r>
       <r>   -5.3105    1.0000 </r>
       <r>   -5.1623    1.0000 </r>
       <r>   -5.0869    1.0000 </r>
       <r>   -4.9182    1.0000 </r>
       <r>   -4.7753    1.0000 </r>
       <r>   -4.7457    1.0000 </r>
       <r>   -4.4733    1.0000 </r>
       <r>   -4.4605    1.0000 </r>
       <r>   -4.3444    1.0000 </r>
       <r>   -4.2493    1.0000 </r>
       <r>   -4.2132    1.0000 </r>
       <r>   -4.0544    1.0000 </r>
       <r>   -3.9270    1.0000 </r>
       <r>   -3.5917    0.9853 </r>
       <r>   -3.5785    0.9814 </r>
       <r>   -3.0071    0.0252 </r>
       <r>   -2.9770    0.0150 </r>
       <r>   -2.7710    0.0001 </r>
       <r>   -2.5729    0.0000 </r>
       <r>   -2.5604    0.0000 </r>
       <r>   -2.5467    0.0000 </r>
       <r>   -2.4796    0.0000 </r>
       <r>   -2.2322    0.0000 </r>
       <r>   -2.1598    0.0000 </r>
       <r>   -2.0636    0.0000 </r>
       <r>   -1.9786    0.0000 </r>
       <r>   -1.9239    0.0000 </r>
       <r>   -1.5744    0.0000 </r>
       <r>   -1.3862    0.0000 </r>
       <r>   -1.3697    0.0000 </r>
       <r>   -1.2313    0.0000 </r>
       <r>   -1.0700    0.0000 </r>
       <r>   -1.0311    0.0000 </r>
       <r>   -1.0274    0.0000 </r>
       <r>   -0.9428    0.0000 </r>
       <r>   -0.9090    0.0000 </r>
       <r>   -0.7961    0.0000 </r>
       <r>   -0.7374    0.0000 </r>
       <r>   -0.6031    0.0000 </r>
       <r>   -0.5247    0.0000 </r>
       <r>   -0.4974    0.0000 </r>
       <r>   -0.3165    0.0000 </r>
       <r>   -0.2171    0.0000 </r>
       <r>   -0.1339    0.0000 </r>
       <r>   -0.0401    0.0000 </r>
       <r>    0.1572    0.0000 </r>
       <r>    0.3962    0.0000 </r>
       <r>    0.6364    0.0000 </r>
       <r>    0.7176    0.0000 </r>
       <r>    0.8443    0.0000 </r>
       <r>    0.9759    0.0000 </r>
       <r>    1.1361    0.0000 </r>
       <r>    1.4092    0.0000 </r>
       <r>    2.1506    0.0000 </r>
       <r>    2.2400    0.0000 </r>
       <r>    2.3572    0.0000 </r>
      </set>
     </set>
    </set>
   </array>
  </eigenvalues>
  <separator name="orbital magnetization" >
   <v name="MAGDIPOLOUT">      0.00000000      0.00000000      0.00000000</v>
  </separator>
 </calculation>
 <structure name="finalpos" >
  <crystal>
   <varray name="basis" >
    <v>       8.38054238       4.84448024       0.00000000 </v>
    <v>      -8.37893778       4.84175128       0.00000000 </v>
    <v>       0.00000000       0.00000000      30.00000000 </v>
   </varray>
   <i name="volume">   2435.04300994 </i>
   <varray name="rec_basis" >
    <v>       0.05965091       0.10322944       0.00000000 </v>
    <v>      -0.05968453       0.10324921       0.00000000 </v>
    <v>       0.00000000       0.00000000       0.03333333 </v>
   </varray>
  </crystal>
  <varray name="positions" >
   <v>       1.01947910       0.36799831       0.00073350 </v>
   <v>       0.69722830       0.36330040      -0.00007717 </v>
   <v>       0.70176144       0.68595819      -0.00088237 </v>
   <v>       0.00642547       0.67301021      -0.00002893 </v>
   <v>       0.31931212       0.68515563       0.00029239 </v>
   <v>       0.01833989      -0.01397095      -0.00031336 </v>
   <v>       0.31083505      -0.02217460       0.00006117 </v>
   <v>       0.31173962       0.29349044      -0.00149144 </v>
   <v>       0.62655397      -0.02053194       0.00171515 </v>
   <v>       0.10253141       0.21862189       0.94945430 </v>
   <v>       0.21976685       0.10279047       0.05598961 </v>
   <v>       0.10908935       0.55397251       0.94589532 </v>
   <v>       0.22291282       0.44165657       0.04916744 </v>
   <v>       0.11048937       0.88350578       0.94288849 </v>
   <v>       0.21678659       0.77706295       0.05713267 </v>
   <v>       0.45384098       0.21952402       0.95189924 </v>
   <v>       0.55230687       0.12068648       0.04841219 </v>
   <v>       0.44576907       0.55291133       0.95970786 </v>
   <v>       0.56125450       0.44907075       0.04539215 </v>
   <v>       0.43618236       0.88710421       0.94415986 </v>
   <v>       0.55207148       0.76904814       0.05035650 </v>
   <v>       0.78262367       0.22744438       0.95441352 </v>
   <v>       0.88596301       0.11220623       0.04028919 </v>
   <v>       0.77832801       0.56073895       0.94809684 </v>
   <v>       0.89455518       0.44467703       0.05181014 </v>
   <v>       0.77479995       0.88951306       0.95092408 </v>
   <v>       0.88726804       0.77544402       0.05400155 </v>
  </varray>
 </structure>
</modeling>
