unknown system                          
           1
     8.854800    5.105738    0.000000
    -8.854799    5.105737    0.000000
     0.000000    0.000000   30.000000
   V    Mo   W    S 
   3   3   3  18
Direct configuration=     1
   1.00000000  0.33333334  0.00000000
   0.66666669  0.33333334  0.00000000
   0.66666669  0.66666669  0.00000000
   0.00000000  0.66666669  0.00000000
   0.33333334  0.66666669  0.00000000
   0.00000000  0.00000000  0.00000000
   0.33333334  0.00000000  0.00000000
   0.33333334  0.33333334  0.00000000
   0.66666669  0.00000000  0.00000000
   0.11068511  0.22244981  0.95539999
   0.22244981  0.11068511  0.04460000
   0.11068511  0.55578315  0.95539999
   0.22244981  0.44401845  0.04460000
   0.11068511  0.88911647  0.95539999
   0.22244981  0.77735180  0.04460000
   0.44401845  0.22244981  0.95539999
   0.55578315  0.11068511  0.04460000
   0.44401845  0.55578315  0.95539999
   0.55578315  0.44401845  0.04460000
   0.44401845  0.88911647  0.95539999
   0.55578315  0.77735180  0.04460000
   0.77735180  0.22244981  0.95539999
   0.88911647  0.11068511  0.04460000
   0.77735180  0.55578315  0.95539999
   0.88911647  0.44401845  0.04460000
   0.77735180  0.88911647  0.95539999
   0.88911647  0.77735180  0.04460000
unknown system                          
           1
     8.666931    4.999711    0.000000
    -8.666934    4.999715    0.000000
     0.000000    0.000000   30.000000
   V    Mo   W    S 
   3   3   3  18
Direct configuration=     2
   1.00075454  0.33447983 -0.00012818
   0.66816875  0.33483536 -0.00000000
   0.66781302  0.66742116  0.00012818
   0.00100138  0.66766789 -0.00000001
   0.33190918  0.66672550  0.00008932
   0.00005891 -0.00142397 -0.00008933
   0.33023982 -0.00309356 -0.00000002
   0.33211921  0.33377103 -0.00000943
   0.66710438 -0.00121397  0.00000943
   0.10952155  0.22506818  0.95195045
   0.22312181  0.11155113  0.04924657
   0.10870033  0.55083470  0.95192693
   0.21818397  0.44178029  0.04809578
   0.11205127  0.88945340  0.95065452
   0.22278678  0.77871775  0.04934544
   0.44801374  0.22383466  0.95197538
   0.55716796  0.11468037  0.04802462
   0.44838861  0.55667877  0.95200700
   0.55906544  0.44601022  0.04690448
   0.44488436  0.88978830  0.95075344
   0.55840115  0.77618809  0.04804957
   0.77934380  0.22573236  0.95309552
   0.89001212  0.11505568  0.04799301
   0.77329499  0.55349215  0.95313340
   0.88682569  0.43996151  0.04686653
   0.77511356  0.88485073  0.95190409
   0.88416813  0.77536688  0.04807320
unknown system                          
           1
     8.483434    4.899846    0.000000
    -8.483407    4.899799    0.000000
     0.000000    0.000000   30.000000
   V    Mo   W    S 
   3   3   3  18
Direct configuration=     3
   1.00106550  0.33479967 -0.00014344
   0.66854560  0.33521121 -0.00000000
   0.66813325  0.66773225  0.00014345
   0.00194735  0.66861304 -0.00000000
   0.33153547  0.66704693  0.00005622
   0.00038112 -0.00179590 -0.00005624
   0.32904568 -0.00428764  0.00000000
   0.33162054  0.33371648 -0.00007235
   0.66705089 -0.00171031  0.00007233
   0.10970274  0.22522908  0.95194031
   0.22338198  0.11165698  0.04924301
   0.10858419  0.55068008  0.95187895
   0.21818021  0.44159679  0.04812432
   0.11226309  0.88956252  0.95049645
   0.22289596  0.77892986  0.04950357
   0.44783423  0.22377472  0.95212415
   0.55710786  0.11450077  0.04787589
   0.44837548  0.55650566  0.95209169
   0.55890080  0.44598296  0.04683626
   0.44499035  0.89004846  0.95075696
   0.55856173  0.77636943  0.04805946
   0.77931693  0.22556829  0.95316365
   0.88983873  0.11504258  0.04790853
   0.77323680  0.55343916  0.95317568
   0.88677265  0.43990228  0.04682433
   0.77493039  0.88484747  0.95187579
   0.88401496  0.77525162  0.04812092
unknown system                          
           1
     8.272101    4.783117    0.000000
    -8.272110    4.783133    0.000000
     0.000000    0.000000   30.000000
   V    Mo   W    S 
   3   3   3  18
Direct configuration=     4
   1.00245123  0.33579211 -0.00013667
   0.66964576  0.33631033 -0.00000001
   0.66912400  0.66911475  0.00013737
   0.00644685  0.67310750  0.00000010
   0.33026228  0.66873568 -0.00007420
   0.00207387 -0.00306090  0.00007436
   0.32433148 -0.00900323 -0.00000066
   0.32956434  0.33310486 -0.00028505
   0.66643997 -0.00376282  0.00028498
   0.10898379  0.22561326  0.95042147
   0.22372841  0.11177238  0.05085534
   0.10769597  0.54941869  0.95025032
   0.21700381  0.44105395  0.04970118
   0.11213540  0.88945039  0.94819420
   0.22278343  0.77880133  0.05180608
   0.44851524  0.22405327  0.95127193
   0.55738630  0.11518210  0.04872858
   0.44948805  0.55712309  0.95098096
   0.55971143  0.44661431  0.04791957
   0.44510563  0.89039553  0.94914479
   0.55894663  0.77565234  0.04957881
   0.77994986  0.22637941  0.95208056
   0.89045731  0.11615713  0.04901815
   0.77248675  0.55302175  0.95204746
   0.88635601  0.43915315  0.04795219
   0.77438831  0.88367245  0.95029826
   0.88275234  0.77436167  0.04974983
unknown system                          
           1
     8.269157    4.788752    0.000000
    -8.269161    4.788759    0.000000
     0.000000    0.000000   30.000000
   V    Mo   W    S 
   3   3   3  18
Direct configuration=     5
   1.00494684  0.33743080  0.00002414
   0.67223431  0.33890264 -0.00000008
   0.67076169  0.67161166 -0.00002410
   0.01499086  0.68165260  0.00000018
   0.32784983  0.67239035 -0.00022034
   0.00572319 -0.00548153  0.00022050
   0.31534084 -0.01799516  0.00000015
   0.32580569  0.33197210 -0.00055059
   0.66530469 -0.00752974  0.00055033
   0.10731613  0.22510703  0.94832030
   0.22397647  0.11159574  0.05297543
   0.10681778  0.54890108  0.94797063
   0.21581920  0.44114930  0.05169312
   0.11141837  0.88895981  0.94471670
   0.22229383  0.77808620  0.05528399
   0.44850425  0.22331501  0.95040659
   0.55664630  0.11516994  0.04959367
   0.45019278  0.55812792  0.94971169
   0.56023131  0.44738311  0.04938328
   0.44492927  0.89064164  0.94702417
   0.55844220  0.77398033  0.05167762
   0.78071391  0.22689640  0.95061481
   0.89145726  0.11685482  0.05029002
   0.77300227  0.55345562  0.95052139
   0.88678685  0.43967422  0.04948031
   0.77448035  0.88248001  0.94830928
   0.88222798  0.77348255  0.05202671
unknown system                          
           1
     8.264600    4.784907    0.000000
    -8.264656    4.785005    0.000000
     0.000000    0.000000   30.000000
   V    Mo   W    S 
   3   3   3  18
Direct configuration=     6
   1.00551638  0.33806273 -0.00000622
   0.67394686  0.34061650 -0.00000015
   0.67139425  0.67218410  0.00000612
   0.01527434  0.68193834 -0.00000001
   0.32748845  0.67311542 -0.00010999
   0.00644543 -0.00584585  0.00011028
   0.31439394 -0.01894236  0.00000008
   0.32469764  0.33137343 -0.00059369
   0.66470495 -0.00864097  0.00059368
   0.10673556  0.22444396  0.94822532
   0.22423315  0.11126962  0.05310850
   0.10691606  0.54982016  0.94785828
   0.21599374  0.44162478  0.05175573
   0.11118909  0.88893755  0.94421714
   0.22227138  0.77785579  0.05578357
   0.44751941  0.22204589  0.95073302
   0.55537917  0.11418564  0.04926684
   0.44942154  0.55831798  0.94986529
   0.55985933  0.44747861  0.04930775
   0.44460321  0.89089908  0.94689063
   0.55777842  0.77339941  0.05177417
   0.78080940  0.22652443  0.95069171
   0.89164871  0.11608568  0.05013534
   0.77421036  0.55434852  0.95047830
   0.88767914  0.44088049  0.04952316
   0.77495627  0.88265519  0.94824531
   0.88314827  0.77358033  0.05213973
unknown system                          
           1
     8.269586    4.788291    0.000000
    -8.269682    4.788456    0.000000
     0.000000    0.000000   30.000000
   V    Mo   W    S 
   3   3   3  18
Direct configuration=     7
   1.00626040  0.33905033 -0.00005018
   0.67616457  0.34288122 -0.00000054
   0.67238834  0.67296618  0.00004697
   0.01608056  0.68278377  0.00000107
   0.32711587  0.67418321 -0.00004895
   0.00745428 -0.00631254  0.00004994
   0.31253296 -0.02080734  0.00000097
   0.32319735  0.33042218 -0.00064967
   0.66371905 -0.01024308  0.00064934
   0.10620151  0.22395744  0.94811525
   0.22434446  0.11105740  0.05321643
   0.10707013  0.55043591  0.94774773
   0.21600724  0.44190120  0.05183181
   0.11108155  0.88878717  0.94385764
   0.22212124  0.77774732  0.05614153
   0.44696271  0.22120585  0.95108445
   0.55454343  0.11363066  0.04891265
   0.44884578  0.55838125  0.95009115
   0.55959036  0.44760810  0.04918997
   0.44438910  0.89100934  0.94678045
   0.55730388  0.77284990  0.05188090
   0.78091287  0.22624211  0.95080658
   0.89170074  0.11548293  0.04991594
   0.77496121  0.55498636  0.95037967
   0.88830877  0.44164613  0.04962870
   0.77521671  0.88264158  0.94817516
   0.88373939  0.77371989  0.05224495
unknown system                          
           1
     8.269758    4.788534    0.000000
    -8.269844    4.788683    0.000000
     0.000000    0.000000   30.000000
   V    Mo   W    S 
   3   3   3  18
Direct configuration=     8
   1.00659202  0.33955133 -0.00006531
   0.67720385  0.34389724  0.00000048
   0.67288064  0.67327409  0.00006365
   0.01604593  0.68272408  0.00000024
   0.32700102  0.67446512 -0.00002178
   0.00776770 -0.00637649  0.00002211
   0.31211099 -0.02122498  0.00000116
   0.32250901  0.32992759 -0.00067440
   0.66324049 -0.01087571  0.00067375
   0.10598029  0.22379356  0.94810469
   0.22438092  0.11097223  0.05323161
   0.10714604  0.55062796  0.94774100
   0.21599956  0.44195668  0.05182158
   0.11102514  0.88871219  0.94377384
   0.22204519  0.77768992  0.05622519
   0.44684509  0.22097436  0.95126270
   0.55431266  0.11351054  0.04873411
   0.44863562  0.55836208  0.95022890
   0.55950209  0.44763514  0.04910587
   0.44430826  0.89105028  0.94676480
   0.55713315  0.77263239  0.05189860
   0.78095064  0.22615975  0.95089537
   0.89168745  0.11528717  0.04977297
   0.77515749  0.55520477  0.95033674
   0.88852878  0.44183225  0.04966542
   0.77528352  0.88265004  0.94817783
   0.88394090  0.77380089  0.05225876
unknown system                          
           1
     8.280132    4.794685    0.000000
    -8.280068    4.794575    0.000000
     0.000000    0.000000   30.000000
   V    Mo   W    S 
   3   3   3  18
Direct configuration=     9
   1.00650045  0.33942781 -0.00005969
   0.67692526  0.34361468  0.00000046
   0.67275687  0.67317954  0.00005832
   0.01596254  0.68263768  0.00000017
   0.32704530  0.67434085 -0.00002954
   0.00764826 -0.00632446  0.00002984
   0.31232606 -0.02100971  0.00000103
   0.32269505  0.33004672 -0.00066759
   0.66336264 -0.01068137  0.00066700
   0.10604519  0.22385302  0.94811478
   0.22436756  0.11099854  0.05322160
   0.10712537  0.55055142  0.94775079
   0.21599727  0.44192345  0.05181573
   0.11103814  0.88873088  0.94381325
   0.22206391  0.77770307  0.05618596
   0.44691330  0.22107685  0.95121658
   0.55441462  0.11357868  0.04878056
   0.44870890  0.55835625  0.95019790
   0.55953657  0.44762042  0.04912328
   0.44433454  0.89103680  0.94677510
   0.55719164  0.77269889  0.05188849
   0.78093828  0.22619538  0.95087804
   0.89168256  0.11536271  0.04980352
   0.77506557  0.55512567  0.95034713
   0.88845051  0.44173921  0.04965460
   0.77525145  0.88264993  0.94818342
   0.88386664  0.77378159  0.05224917
unknown system                          
           1
     8.280728    4.794113    0.000000
    -8.280596    4.793885    0.000000
     0.000000    0.000000   30.000000
   V    Mo   W    S 
   3   3   3  18
Direct configuration=    10
   1.00657896  0.33959655 -0.00006407
   0.67711256  0.34379144 -0.00000038
   0.67291931  0.67325716  0.00006334
   0.01562467  0.68229348  0.00000034
   0.32703102  0.67417532 -0.00003075
   0.00749981 -0.00632134  0.00003044
   0.31245895 -0.02087765 -0.00000030
   0.32260390  0.33001038 -0.00066672
   0.66334323 -0.01073924  0.00066556
   0.10601734  0.22390501  0.94813247
   0.22433269  0.11093971  0.05321022
   0.10710660  0.55045972  0.94778507
   0.21594103  0.44191590  0.05179952
   0.11106389  0.88869516  0.94387811
   0.22203407  0.77773355  0.05612303
   0.44701172  0.22112376  0.95121339
   0.55445793  0.11368157  0.04878682
   0.44879974  0.55836161  0.95020519
   0.55960685  0.44763605  0.04911659
   0.44427075  0.89099188  0.94678961
   0.55723746  0.77268370  0.05186942
   0.78096844  0.22627846  0.95088425
   0.89169776  0.11546952  0.04979344
   0.77497863  0.55511667  0.95034173
   0.88846196  0.44165059  0.04965684
   0.77524763  0.88260701  0.94820094
   0.88380756  0.77377849  0.05221579
unknown system                          
           1
     8.280676    4.794080    0.000000
    -8.280548    4.793859    0.000000
     0.000000    0.000000   30.000000
   V    Mo   W    S 
   3   3   3  18
Direct configuration=    11
   1.00618507  0.33900831 -0.00005083
   0.67578370  0.34246288 -0.00000115
   0.67233076  0.67287638  0.00004983
   0.01531214  0.68198686  0.00000086
   0.32716470  0.67353367 -0.00007481
   0.00686285 -0.00619489  0.00007433
   0.31325551 -0.02008293 -0.00000044
   0.32353707  0.33075176 -0.00063483
   0.66409273 -0.00979659  0.00063388
   0.10635005  0.22419192  0.94822246
   0.22423727  0.11101291  0.05312000
   0.10699685  0.55013461  0.94787995
   0.21591722  0.44183297  0.05175156
   0.11116574  0.88876688  0.94411665
   0.22211226  0.77784055  0.05588528
   0.44718781  0.22146948  0.95099290
   0.55480056  0.11386383  0.04900990
   0.44912715  0.55836756  0.95005218
   0.55974460  0.44760260  0.04919411
   0.44433841  0.89088507  0.94688198
   0.55752205  0.77302293  0.05177477
   0.78094235  0.22642601  0.95080259
   0.89171005  0.11580284  0.04994710
   0.77466924  0.55483570  0.95043279
   0.88819829  0.44134586  0.04956647
   0.77516441  0.88258760  0.94825398
   0.88350559  0.77367968  0.05211839
unknown system                          
           1
     8.279653    4.793365    0.000000
    -8.279845    4.793697    0.000000
     0.000000    0.000000   30.000000
   V    Mo   W    S 
   3   3   3  18
Direct configuration=    12
   1.00617329  0.33898979 -0.00005060
   0.67575052  0.34243062 -0.00000114
   0.67231248  0.67286581  0.00004952
   0.01531455  0.68199006  0.00000088
   0.32716653  0.67352188 -0.00007573
   0.00685005 -0.00619505  0.00007527
   0.31326772 -0.02007078 -0.00000040
   0.32356308  0.33077547 -0.00063424
   0.66411581 -0.00977223  0.00063331
   0.10635750  0.22419640  0.94822410
   0.22423644  0.11101549  0.05311793
   0.10699382  0.55012978  0.94788097
   0.21591812  0.44183290  0.05175144
   0.11116688  0.88876912  0.94411950
   0.22211458  0.77784167  0.05588235
   0.44718676  0.22147315  0.95098840
   0.55480433  0.11386286  0.04901434
   0.44913236  0.55836926  0.95004780
   0.55974575  0.44760184  0.04919625
   0.44434099  0.89088417  0.94688399
   0.55752683  0.77303001  0.05177305
   0.78094110  0.22642697  0.95080033
   0.89171157  0.11580745  0.04995163
   0.77466591  0.55483059  0.95043535
   0.88819301  0.44134286  0.04956407
   0.77516412  0.88258800  0.94825426
   0.88350034  0.77367633  0.05211727
unknown system                          
           1
     8.278508    4.790839    0.000000
    -8.282107    4.797056    0.000000
     0.000000    0.000000   30.000000
   V    Mo   W    S 
   3   3   3  18
Direct configuration=    13
   1.00616681  0.33904751 -0.00006100
   0.67580639  0.34268989 -0.00000351
   0.67242824  0.67305839  0.00004720
   0.01532085  0.68217120  0.00000600
   0.32731109  0.67374749 -0.00006592
   0.00680372 -0.00646583  0.00006954
   0.31313608 -0.02022657  0.00000286
   0.32362193  0.33075734 -0.00063643
   0.66396616 -0.01014251  0.00063448
   0.10637210  0.22419983  0.94822621
   0.22424190  0.11099501  0.05310569
   0.10698835  0.55012478  0.94788261
   0.21596019  0.44186753  0.05175685
   0.11118016  0.88875776  0.94412494
   0.22209977  0.77784732  0.05586996
   0.44717024  0.22142362  0.95097419
   0.55477616  0.11385583  0.04901619
   0.44920256  0.55839088  0.95005507
   0.55976373  0.44764816  0.04919888
   0.44430578  0.89088735  0.94688522
   0.55756483  0.77298679  0.05176222
   0.78091309  0.22640569  0.95078977
   0.89169898  0.11579405  0.04996835
   0.77464005  0.55486321  0.95045367
   0.88820567  0.44136338  0.04956979
   0.77514928  0.88254665  0.94827107
   0.88342036  0.77361970  0.05209602
unknown system                          
           1
     8.269229    4.783898    0.000000
    -8.277701    4.798537    0.000000
     0.000000    0.000000   30.000000
   V    Mo   W    S 
   3   3   3  18
Direct configuration=    14
   1.00605895  0.33924580 -0.00008700
   0.67562112  0.34336891  0.00001146
   0.67274320  0.67375746  0.00001419
   0.01494591  0.68227214  0.00001212
   0.32799603  0.67428104 -0.00008576
   0.00621591 -0.00732720  0.00010078
   0.31325725 -0.02017479  0.00003716
   0.32412787  0.33083045 -0.00067349
   0.66353219 -0.01118904  0.00066105
   0.10654275  0.22429549  0.94832152
   0.22416055  0.11089140  0.05304438
   0.10697672  0.54999978  0.94797208
   0.21607033  0.44189613  0.05169958
   0.11124422  0.88872124  0.94415422
   0.22202453  0.77785328  0.05579847
   0.44728172  0.22143585  0.95083975
   0.55490161  0.11394264  0.04905581
   0.44956667  0.55842182  0.95005059
   0.55989965  0.44781205  0.04925577
   0.44426016  0.89090375  0.94685554
   0.55773826  0.77280985  0.05181101
   0.78078657  0.22638286  0.95079250
   0.89161004  0.11585587  0.05000011
   0.77440766  0.55492987  0.95047532
   0.88812275  0.44123677  0.04955135
   0.77511120  0.88239615  0.94824690
   0.88301064  0.77336489  0.05208447
unknown system                          
           1
     8.269946    4.789286    0.000000
    -8.271047    4.791188    0.000000
     0.000000    0.000000   30.000000
   V    Mo   W    S 
   3   3   3  18
Direct configuration=    15
   1.00632008  0.34049454 -0.00015202
   0.67676321  0.34642151  0.00003686
   0.67406856  0.67547846 -0.00000355
   0.01466704  0.68285405  0.00002482
   0.32919495  0.67613701 -0.00003213
   0.00579534 -0.00921093  0.00010124
   0.31231404 -0.02116356  0.00007126
   0.32431415  0.33016769 -0.00079313
   0.66192816 -0.01420795  0.00072957
   0.10642343  0.22392819  0.94848333
   0.22407047  0.11061573  0.05294699
   0.10715548  0.55033922  0.94803453
   0.21650395  0.44215912  0.05157946
   0.11123956  0.88851702  0.94402059
   0.22179453  0.77771080  0.05585118
   0.44719010  0.22096155  0.95094268
   0.55471455  0.11370951  0.04872593
   0.44983642  0.55846567  0.95027055
   0.55997817  0.44824768  0.04921526
   0.44417730  0.89110094  0.94676602
   0.55767270  0.77204872  0.05199720
   0.78036830  0.22594950  0.95102970
   0.89130104  0.11537774  0.04980722
   0.77439431  0.55547996  0.95041375
   0.88825997  0.44147459  0.04960352
   0.77514544  0.88220739  0.94813670
   0.88262321  0.77295033  0.05219239
unknown system                          
           1
     8.273287    4.791933    0.000000
    -8.273010    4.791454    0.000000
     0.000000    0.000000   30.000000
   V    Mo   W    S 
   3   3   3  18
Direct configuration=    16
   1.00731503  0.34081910 -0.00009144
   0.67908652  0.34598519  0.00001760
   0.67400972  0.67410975  0.00010167
   0.01592144  0.68253415  0.00001047
   0.32683105  0.67502744  0.00000600
   0.00806573 -0.00676380 -0.00000450
   0.31124012 -0.02210949 -0.00000119
   0.32135399  0.32902070 -0.00075258
   0.66241048 -0.01229590  0.00071423
   0.10555089  0.22350353  0.94812089
   0.22436403  0.11079340  0.05324228
   0.10729467  0.55087638  0.94770647
   0.21600941  0.44202075  0.05180494
   0.11087511  0.88849415  0.94364056
   0.22183722  0.77755227  0.05635005
   0.44676621  0.22067303  0.95158047
   0.55404101  0.11337956  0.04836878
   0.44843097  0.55831630  0.95049508
   0.55939563  0.44773824  0.04896524
   0.44418935  0.89109629  0.94674370
   0.55687568  0.77218687  0.05195240
   0.78097329  0.22601924  0.95109051
   0.89160129  0.11505101  0.04949160
   0.77538028  0.55562311  0.95018994
   0.88887185  0.44203813  0.04978672
   0.77535410  0.88265314  0.94814523
   0.88416938  0.77387191  0.05232476
unknown system                          
           1
     8.252562    4.776681    0.000000
    -8.260538    4.790466    0.000000
     0.000000    0.000000   30.000000
   V    Mo   W    S 
   3   3   3  18
Direct configuration=    17
   1.00760864  0.34115170 -0.00009729
   0.67987374  0.34643412 -0.00000086
   0.67443858  0.67419083  0.00010801
   0.01582905  0.68241962 -0.00000519
   0.32653823  0.67496565  0.00003183
   0.00844289 -0.00658344 -0.00003226
   0.31098600 -0.02231877 -0.00000129
   0.32064675  0.32860545 -0.00073322
   0.66210764 -0.01247540  0.00073641
   0.10538106  0.22347889  0.94804496
   0.22441978  0.11077955  0.05328192
   0.10728201  0.55088515  0.94766401
   0.21592712  0.44199837  0.05184498
   0.11084461  0.88844955  0.94362118
   0.22181515  0.77755046  0.05639158
   0.44677857  0.22065058  0.95169948
   0.55396423  0.11345204  0.04830667
   0.44831153  0.55824671  0.95057760
   0.55935279  0.44767978  0.04888842
   0.44410029  0.89106225  0.94673353
   0.55678918  0.77213305  0.05192311
   0.78108777  0.22608430  0.95109834
   0.89162388  0.11506276  0.04942409
   0.77540782  0.55562770  0.95017209
   0.88900210  0.44205720  0.04983995
   0.77535155  0.88263530  0.94817136
   0.88430350  0.77399105  0.05231050
unknown system                          
           1
     8.285912    4.800432    0.000000
    -8.284068    4.797247    0.000000
     0.000000    0.000000   30.000000
   V    Mo   W    S 
   3   3   3  18
Direct configuration=    18
   1.00653885  0.34007435 -0.00006505
   0.67669239  0.34587063  0.00007205
   0.67281919  0.67472286  0.00008386
   0.01649037  0.68346483 -0.00002983
   0.32833289  0.67620707  0.00005476
   0.00666648 -0.00814925  0.00006552
   0.31121182 -0.02200187  0.00000476
   0.32369467  0.32990390 -0.00078684
   0.66305994 -0.01327410  0.00064317
   0.10578124  0.22332620  0.94836758
   0.22422200  0.11076090  0.05314830
   0.10739354  0.55095684  0.94782104
   0.21638464  0.44219017  0.05158607
   0.11089816  0.88849836  0.94359079
   0.22200924  0.77754770  0.05639520
   0.44667823  0.22037375  0.95111794
   0.55411464  0.11288085  0.04844597
   0.44886907  0.55872787  0.95017923
   0.55957004  0.44822720  0.04933515
   0.44460626  0.89148035  0.94660270
   0.55706289  0.77210783  0.05225399
   0.78048646  0.22558984  0.95116065
   0.89158242  0.11487029  0.04969071
   0.77541799  0.55592087  0.95020606
   0.88863011  0.44217625  0.04968408
   0.77536215  0.88250015  0.94788409
   0.88363876  0.77326061  0.05248793
unknown system                          
           1
     8.262241    4.781761    0.000000
    -8.270932    4.796788    0.000000
     0.000000    0.000000   30.000000
   V    Mo   W    S 
   3   3   3  18
Direct configuration=    19
   1.00873370  0.34293126 -0.00012952
   0.68288680  0.34892591 -0.00001651
   0.67636462  0.67501176  0.00013462
   0.01536476  0.68194920 -0.00000559
   0.32595456  0.67537374  0.00009483
   0.00945963 -0.00656225 -0.00011402
   0.31005184 -0.02326880 -0.00000371
   0.31837104  0.32692785 -0.00076832
   0.66042930 -0.01400167  0.00080513
   0.10475302  0.22315513  0.94789092
   0.22448581  0.11059995  0.05341287
   0.10741233  0.55118371  0.94752750
   0.21584269  0.44201350  0.05193545
   0.11070626  0.88823193  0.94343363
   0.22155388  0.77738790  0.05658224
   0.44684512  0.22043402  0.95215785
   0.55367304  0.11361939  0.04794074
   0.44796917  0.55804769  0.95096993
   0.55922683  0.44764584  0.04862531
   0.44381787  0.89102018  0.94664432
   0.55638616  0.77153499  0.05195431
   0.78125021  0.22607522  0.95125555
   0.89150969  0.11482344  0.04905626
   0.77560519  0.55596252  0.94997103
   0.88945739  0.44224216  0.05006396
   0.77540029  0.88266845  0.94818678
   0.88470324  0.77428141  0.05239434
unknown system                          
           1
     8.278727    4.794452    0.000000
    -8.280819    4.798068    0.000000
     0.000000    0.000000   30.000000
   V    Mo   W    S 
   3   3   3  18
Direct configuration=    20
   1.00831393  0.34377264 -0.00011655
   0.68058031  0.35138144  0.00011202
   0.67599479  0.67730772  0.00011433
   0.01589138  0.68270417  0.00003713
   0.32863791  0.67843239  0.00011285
   0.00695680 -0.00960272 -0.00001357
   0.30955587 -0.02352717  0.00003516
   0.32121307  0.32656973 -0.00096689
   0.65986340 -0.01807060  0.00070518
   0.10459555  0.22239527  0.94831570
   0.22416067  0.11024567  0.05333782
   0.10805248  0.55180674  0.94768439
   0.21671939  0.44241310  0.05153211
   0.11048872  0.88800842  0.94312171
   0.22162017  0.77734593  0.05678508
   0.44691492  0.21979013  0.95170293
   0.55373491  0.11284138  0.04757035
   0.44832634  0.55845738  0.95089661
   0.55939468  0.44863433  0.04907409
   0.44433710  0.89169648  0.94635630
   0.55638349  0.77081117  0.05271300
   0.78030675  0.22517579  0.95173469
   0.89121966  0.11411559  0.04899090
   0.77590115  0.55708235  0.94979915
   0.88941071  0.44277141  0.05001837
   0.77546064  0.88228425  0.94758495
   0.88417969  0.77337147  0.05276212
unknown system                          
           1
     8.284310    4.797627    0.000000
    -8.286857    4.802028    0.000000
     0.000000    0.000000   30.000000
   V    Mo   W    S 
   3   3   3  18
Direct configuration=    21
   1.00974840  0.34518125 -0.00013773
   0.68441390  0.35193062  0.00003533
   0.67816056  0.67679044  0.00015375
   0.01504940  0.68164101  0.00000353
   0.32640255  0.67684807  0.00017568
   0.00929284 -0.00773642 -0.00015332
   0.30914453 -0.02403416 -0.00000143
   0.31735093  0.32490196 -0.00087803
   0.65861690 -0.01701257  0.00079883
   0.10415294  0.22262271  0.94796388
   0.22433353  0.11026205  0.05348362
   0.10783101  0.55167820  0.94747879
   0.21615748  0.44213508  0.05180877
   0.11051488  0.88794235  0.94325847
   0.22136598  0.77726236  0.05673737
   0.44706080  0.22015361  0.95235874
   0.55361455  0.11357184  0.04746687
   0.44782920  0.55792586  0.95135955
   0.55917939  0.44798359  0.04853759
   0.44377835  0.89122540  0.94648151
   0.55605439  0.77075417  0.05224672
   0.78100828  0.22571496  0.95163605
   0.89119566  0.11440023  0.04863738
   0.77585859  0.55672959  0.94972320
   0.88984640  0.44255270  0.05024525
   0.77541048  0.88258466  0.94799302
   0.88484253  0.77420494  0.05258649
unknown system                          
           1
     8.284658    4.799710    0.000000
    -8.284232    4.798974    0.000000
     0.000000    0.000000   30.000000
   V    Mo   W    S 
   3   3   3  18
Direct configuration=    22
   1.01087459  0.34735428 -0.00013400
   0.68619082  0.35399185  0.00005751
   0.68019518  0.67800169  0.00015805
   0.01441749  0.68093638  0.00000200
   0.32616220  0.67747474  0.00023232
   0.00964634 -0.00811411 -0.00020547
   0.30865976 -0.02443843  0.00000783
   0.31575167  0.32280815 -0.00091344
   0.65685343 -0.01888940  0.00080425
   0.10349010  0.22228297  0.94789014
   0.22423145  0.10998167  0.05362137
   0.10808324  0.55199151  0.94734405
   0.21627687  0.44213673  0.05181007
   0.11034899  0.88769685  0.94313207
   0.22116138  0.77715761  0.05685811
   0.44735614  0.22011345  0.95261406
   0.55361634  0.11382348  0.04713847
   0.44766943  0.55765779  0.95179830
   0.55912843  0.44808781  0.04833292
   0.44354289  0.89119173  0.94635713
   0.55573284  0.77010631  0.05236664
   0.78104902  0.22564367  0.95189457
   0.89095313  0.11427704  0.04821595
   0.77601397  0.55722812  0.94949910
   0.89029995  0.44272249  0.05046274
   0.77538875  0.88261258  0.94792826
   0.88512006  0.77437750  0.05272691
unknown system                          
           1
     8.280859    4.800531    0.000000
    -8.274616    4.789746    0.000000
     0.000000    0.000000   30.000000
   V    Mo   W    S 
   3   3   3  18
Direct configuration=    23
   1.01015352  0.34550006 -0.00015833
   0.68567044  0.35229730 -0.00000020
   0.67872947  0.67674489  0.00016345
   0.01477079  0.68133967  0.00000172
   0.32595690  0.67652293  0.00016863
   0.00991382 -0.00725664 -0.00016931
   0.30905148 -0.02424473  0.00000957
   0.31629824  0.32468887 -0.00083846
   0.65813767 -0.01694772  0.00085007
   0.10392522  0.22259562  0.94781946
   0.22444751  0.11030305  0.05353068
   0.10775768  0.55164047  0.94741790
   0.21597757  0.44208450  0.05192294
   0.11047989  0.88789054  0.94319581
   0.22126137  0.77719843  0.05679260
   0.44707313  0.22017664  0.95256817
   0.55349510  0.11372075  0.04741505
   0.44770344  0.55785656  0.95143557
   0.55912952  0.44783003  0.04841690
   0.44364398  0.89113107  0.94648231
   0.55592228  0.77064147  0.05218187
   0.78117884  0.22582623  0.95159171
   0.89122151  0.11441057  0.04855871
   0.77586560  0.55668159  0.94965587
   0.89001330  0.44252868  0.05034259
   0.77542863  0.88264125  0.94806600
   0.88500757  0.77441237  0.05257860
unknown system                          
           1
     8.287985    4.802512    0.000000
    -8.285372    4.797997    0.000000
     0.000000    0.000000   30.000000
   V    Mo   W    S 
   3   3   3  18
Direct configuration=    24
   1.00990205  0.34374098 -0.00023017
   0.68683774  0.35097220 -0.00017059
   0.67788713  0.67544658  0.00017466
   0.01497277  0.68183662 -0.00000469
   0.32532908  0.67509785  0.00013500
   0.01105164 -0.00606392 -0.00019909
   0.30896464 -0.02483232 -0.00004436
   0.31555997  0.32710844 -0.00069490
   0.65856809 -0.01500721  0.00097104
   0.10414238  0.22284431  0.94758754
   0.22491001  0.11078263  0.05341864
   0.10732382  0.55127519  0.94746345
   0.21539746  0.44200419  0.05220122
   0.11066233  0.88804554  0.94328872
   0.22117230  0.77703493  0.05673869
   0.44674311  0.22036243  0.95292104
   0.55326937  0.11379944  0.04763181
   0.44761320  0.55799956  0.95111809
   0.55900426  0.44735903  0.04829559
   0.44364492  0.89099261  0.94662055