   27   27  100    1
  0.9710400E+02  0.1002848E-08  0.1002848E-08  0.3000000E-08  0.5000000E-15
  1.000000000000000E-004
  CAR 
 unknown system                          
    159     34    120
 
  0.0000000E+00  0.0000000E+00  0.0000000E+00  0.1562500E-01
    1      -17.839386   1.000000
    2      -16.808022   1.000000
    3      -16.699679   1.000000
    4      -16.610963   1.000000
    5      -16.563846   1.000000
    6      -16.431775   1.000000
    7      -16.412421   1.000000
    8      -16.263197   1.000000
    9      -16.190250   1.000000
   10      -16.140863   1.000000
   11      -16.094015   1.000000
   12      -15.996029   1.000000
   13      -15.853813   1.000000
   14      -15.753377   1.000000
   15      -15.627057   1.000000
   16      -15.315103   1.000000
   17      -15.272259   1.000000
   18      -15.194031   1.000000
   19       -9.407940   1.000000
   20       -9.072080   1.000000
   21       -9.062875   1.000000
   22       -8.967943   1.000000
   23       -8.754288   1.000000
   24       -8.719593   1.000000
   25       -8.688677   1.000000
   26       -8.591312   1.000000
   27       -8.520373   1.000000
   28       -8.418937   1.000000
   29       -8.413406   1.000000
   30       -8.351856   1.000000
   31       -8.248263   1.000000
   32       -8.104368   1.000000
   33       -8.061203   1.000000
   34       -8.040699   1.000000
   35       -7.812018   1.000000
   36       -7.774499   1.000000
   37       -7.646688   1.000000
   38       -7.628054   1.000000
   39       -7.441219   1.000000
   40       -7.397894   1.000000
   41       -7.379226   1.000000
   42       -7.173378   1.000000
   43       -7.125355   1.000000
   44       -6.937496   1.000000
   45       -6.849332   1.000000
   46       -6.817184   1.000000
   47       -6.728075   1.000000
   48       -6.616552   1.000000
   49       -6.588629   1.000000
   50       -6.532543   1.000000
   51       -6.443954   1.000000
   52       -6.334163   1.000000
   53       -6.314832   1.000000
   54       -6.218927   1.000000
   55       -6.175594   1.000000
   56       -6.151294   1.000000
   57       -6.018858   1.000000
   58       -5.949292   1.000000
   59       -5.838912   1.000000
   60       -5.582890   1.000000
   61       -5.371781   1.000000
   62       -5.252237   1.000000
   63       -5.235871   1.000000
   64       -5.154153   1.000000
   65       -5.069937   1.000000
   66       -5.010558   1.000000
   67       -5.003733   1.000000
   68       -4.846245   1.000000
   69       -4.825707   1.000000
   70       -4.733726   1.000000
   71       -4.651176   1.000000
   72       -4.599172   1.000000
   73       -4.480135   1.000000
   74       -4.400372   1.000000
   75       -4.117412   1.000000
   76       -4.068343   1.000000
   77       -3.796898   0.999598
   78       -3.570841   0.960180
   79       -3.422699   0.759677
   80       -3.388018   0.677255
   81       -3.256216   0.318483
   82       -3.004311   0.012124
   83       -2.866627   0.000626
   84       -2.702158   0.000006
   85       -2.560135   0.000000
   86       -2.504364   0.000000
   87       -2.486842   0.000000
   88       -2.376759   0.000000
   89       -2.292088   0.000000
   90       -2.167592   0.000000
   91       -1.463359   0.000000
   92       -1.393662   0.000000
   93       -1.341810   0.000000
   94       -1.309844   0.000000
   95       -1.175155   0.000000
   96       -1.046519   0.000000
   97       -0.982594   0.000000
   98       -0.845135   0.000000
   99       -0.835319   0.000000
  100       -0.664910   0.000000
  101       -0.590486   0.000000
  102       -0.527919   0.000000
  103       -0.493783   0.000000
  104       -0.301488   0.000000
  105       -0.215077   0.000000
  106       -0.171444   0.000000
  107       -0.019016   0.000000
  108       -0.000628   0.000000
  109        0.059281   0.000000
  110        0.315303   0.000000
  111        0.468128   0.000000
  112        0.592918   0.000000
  113        0.677443   0.000000
  114        0.795918   0.000000
  115        0.904410   0.000000
  116        0.912916   0.000000
  117        1.032104   0.000000
  118        1.642200   0.000000
  119        1.834922   0.000000
  120        2.154417   0.000000
 
  0.1250000E+00  0.2775558E-16  0.0000000E+00  0.3125000E-01
    1      -17.815852   1.000000
    2      -16.832860   1.000000
    3      -16.771702   1.000000
    4      -16.658223   1.000000
    5      -16.531161   1.000000
    6      -16.444855   1.000000
    7      -16.371720   1.000000
    8      -16.302934   1.000000
    9      -16.190169   1.000000
   10      -16.080531   1.000000
   11      -16.063145   1.000000
   12      -15.968323   1.000000
   13      -15.843624   1.000000
   14      -15.742047   1.000000
   15      -15.634251   1.000000
   16      -15.327687   1.000000
   17      -15.280692   1.000000
   18      -15.195471   1.000000
   19       -9.406906   1.000000
   20       -9.205146   1.000000
   21       -9.099066   1.000000
   22       -9.063027   1.000000
   23       -8.798475   1.000000
   24       -8.730879   1.000000
   25       -8.683976   1.000000
   26       -8.558898   1.000000
   27       -8.532017   1.000000
   28       -8.476074   1.000000
   29       -8.387558   1.000000
   30       -8.245934   1.000000
   31       -8.175827   1.000000
   32       -8.042740   1.000000
   33       -8.013521   1.000000
   34       -7.903585   1.000000
   35       -7.844025   1.000000
   36       -7.702251   1.000000
   37       -7.671205   1.000000
   38       -7.564984   1.000000
   39       -7.496199   1.000000
   40       -7.420165   1.000000
   41       -7.323313   1.000000
   42       -7.199370   1.000000
   43       -7.150887   1.000000
   44       -6.966289   1.000000
   45       -6.860243   1.000000
   46       -6.816049   1.000000
   47       -6.715203   1.000000
   48       -6.637887   1.000000
   49       -6.582356   1.000000
   50       -6.539302   1.000000
   51       -6.435575   1.000000
   52       -6.360173   1.000000
   53       -6.318507   1.000000
   54       -6.223755   1.000000
   55       -6.180216   1.000000
   56       -6.111079   1.000000
   57       -5.987069   1.000000
   58       -5.942092   1.000000
   59       -5.803261   1.000000
   60       -5.540258   1.000000
   61       -5.405750   1.000000
   62       -5.332932   1.000000
   63       -5.293478   1.000000
   64       -5.243866   1.000000
   65       -5.089262   1.000000
   66       -5.022084   1.000000
   67       -4.988617   1.000000
   68       -4.934019   1.000000
   69       -4.818266   1.000000
   70       -4.704568   1.000000
   71       -4.635910   1.000000
   72       -4.571679   1.000000
   73       -4.468335   1.000000
   74       -4.256909   1.000000
   75       -4.115128   1.000000
   76       -3.985402   0.999999
   77       -3.825824   0.999812
   78       -3.680371   0.994253
   79       -3.595897   0.973194
   80       -3.372985   0.638231
   81       -3.117869   0.073500
   82       -2.983392   0.008173
   83       -2.851152   0.000425
   84       -2.679778   0.000003
   85       -2.589225   0.000000
   86       -2.497834   0.000000
   87       -2.446097   0.000000
   88       -2.359161   0.000000
   89       -2.287173   0.000000
   90       -2.144365   0.000000
   91       -1.455992   0.000000
   92       -1.393028   0.000000
   93       -1.351454   0.000000
   94       -1.329761   0.000000
   95       -1.147776   0.000000
   96       -1.047476   0.000000
   97       -0.975501   0.000000
   98       -0.880957   0.000000
   99       -0.850664   0.000000
  100       -0.705012   0.000000
  101       -0.628336   0.000000
  102       -0.586112   0.000000
  103       -0.547890   0.000000
  104       -0.383484   0.000000
  105       -0.340575   0.000000
  106       -0.149349   0.000000
  107       -0.049015   0.000000
  108        0.039349   0.000000
  109        0.133401   0.000000
  110        0.225116   0.000000
  111        0.452326   0.000000
  112        0.589651   0.000000
  113        0.727517   0.000000
  114        0.791424   0.000000
  115        0.812942   0.000000
  116        0.973668   0.000000
  117        1.165582   0.000000
  118        1.685251   0.000000
  119        1.874813   0.000000
  120        2.189407   0.000000
 
  0.2500000E+00  0.5551115E-16  0.0000000E+00  0.3125000E-01
    1      -17.747668   1.000000
    2      -17.005838   1.000000
    3      -16.778253   1.000000
    4      -16.703181   1.000000
    5      -16.579670   1.000000
    6      -16.451875   1.000000
    7      -16.339859   1.000000
    8      -16.272349   1.000000
    9      -16.157761   1.000000
   10      -16.049442   1.000000
   11      -16.014708   1.000000
   12      -15.910539   1.000000
   13      -15.810261   1.000000
   14      -15.709553   1.000000
   15      -15.637950   1.000000
   16      -15.355141   1.000000
   17      -15.302321   1.000000
   18      -15.202456   1.000000
   19       -9.550881   1.000000
   20       -9.292743   1.000000
   21       -9.232779   1.000000
   22       -9.129746   1.000000
   23       -8.904698   1.000000
   24       -8.768754   1.000000
   25       -8.627102   1.000000
   26       -8.561650   1.000000
   27       -8.515713   1.000000
   28       -8.416742   1.000000
   29       -8.331218   1.000000
   30       -8.208251   1.000000
   31       -8.089044   1.000000
   32       -8.051411   1.000000
   33       -7.908112   1.000000
   34       -7.848593   1.000000
   35       -7.706443   1.000000
   36       -7.659469   1.000000
   37       -7.581542   1.000000
   38       -7.557261   1.000000
   39       -7.455037   1.000000
   40       -7.402550   1.000000
   41       -7.276340   1.000000
   42       -7.211299   1.000000
   43       -7.125347   1.000000
   44       -6.971897   1.000000
   45       -6.871896   1.000000
   46       -6.798982   1.000000
   47       -6.776558   1.000000
   48       -6.630916   1.000000
   49       -6.609800   1.000000
   50       -6.543945   1.000000
   51       -6.398112   1.000000
   52       -6.363071   1.000000
   53       -6.301870   1.000000
   54       -6.241437   1.000000
   55       -6.150093   1.000000
   56       -6.049772   1.000000
   57       -5.938598   1.000000
   58       -5.914503   1.000000
   59       -5.739128   1.000000
   60       -5.662768   1.000000
   61       -5.564570   1.000000
   62       -5.483074   1.000000
   63       -5.413241   1.000000
   64       -5.288247   1.000000
   65       -5.211320   1.000000
   66       -5.049889   1.000000
   67       -4.989016   1.000000
   68       -4.922540   1.000000
   69       -4.778554   1.000000
   70       -4.707941   1.000000
   71       -4.553511   1.000000
   72       -4.490041   1.000000
   73       -4.351453   1.000000
   74       -4.222772   1.000000
   75       -4.077478   1.000000
   76       -4.008253   0.999999
   77       -3.885350   0.999965
   78       -3.786392   0.999475
   79       -3.666055   0.992368
   80       -3.366445   0.620765
   81       -3.021921   0.016641
   82       -2.927462   0.002582
   83       -2.815646   0.000167
   84       -2.659365   0.000001
   85       -2.585473   0.000000
   86       -2.503659   0.000000
   87       -2.385311   0.000000
   88       -2.310869   0.000000
   89       -2.265078   0.000000
   90       -2.067215   0.000000
   91       -1.463793   0.000000
   92       -1.396068   0.000000
   93       -1.366386   0.000000
   94       -1.341309   0.000000
   95       -1.117465   0.000000
   96       -1.062740   0.000000
   97       -1.027855   0.000000
   98       -0.954482   0.000000
   99       -0.882238   0.000000
  100       -0.787244   0.000000
  101       -0.717996   0.000000
  102       -0.694734   0.000000
  103       -0.662588   0.000000
  104       -0.497028   0.000000
  105       -0.433270   0.000000
  106       -0.205640   0.000000
  107       -0.111978   0.000000
  108       -0.029705   0.000000
  109        0.048843   0.000000
  110        0.282529   0.000000
  111        0.383877   0.000000
  112        0.570223   0.000000
  113        0.718776   0.000000
  114        0.827905   0.000000
  115        0.898165   0.000000
  116        1.052753   0.000000
  117        1.350497   0.000000
  118        1.805806   0.000000
  119        1.988936   0.000000
  120        2.293079   0.000000
 
  0.3750000E+00  0.0000000E+00  0.0000000E+00  0.3125000E-01
    1      -17.646650   1.000000
    2      -17.194710   1.000000
    3      -16.764922   1.000000
    4      -16.734917   1.000000
    5      -16.633151   1.000000
    6      -16.468549   1.000000
    7      -16.329101   1.000000
    8      -16.224066   1.000000
    9      -16.117602   1.000000
   10      -16.037219   1.000000
   11      -15.933483   1.000000
   12      -15.909005   1.000000
   13      -15.787547   1.000000
   14      -15.721241   1.000000
   15      -15.584999   1.000000
   16      -15.371548   1.000000
   17      -15.327557   1.000000
   18      -15.215460   1.000000
   19       -9.743750   1.000000
   20       -9.383354   1.000000
   21       -9.215372   1.000000
   22       -9.172892   1.000000
   23       -8.974281   1.000000
   24       -8.805450   1.000000
   25       -8.578272   1.000000
   26       -8.548819   1.000000
   27       -8.453798   1.000000
   28       -8.342495   1.000000
   29       -8.287201   1.000000
   30       -8.242283   1.000000
   31       -8.095673   1.000000
   32       -8.045755   1.000000
   33       -7.926139   1.000000
   34       -7.806145   1.000000
   35       -7.765688   1.000000
   36       -7.680721   1.000000
   37       -7.606908   1.000000
   38       -7.462051   1.000000
   39       -7.362224   1.000000
   40       -7.263193   1.000000
   41       -7.180642   1.000000
   42       -7.124448   1.000000
   43       -7.087666   1.000000
   44       -6.953315   1.000000
   45       -6.854940   1.000000
   46       -6.813248   1.000000
   47       -6.702067   1.000000
   48       -6.638650   1.000000
   49       -6.564236   1.000000
   50       -6.512603   1.000000
   51       -6.427146   1.000000
   52       -6.332737   1.000000
   53       -6.281229   1.000000
   54       -6.209197   1.000000
   55       -6.084180   1.000000
   56       -6.025530   1.000000
   57       -5.978348   1.000000
   58       -5.939444   1.000000
   59       -5.839418   1.000000
   60       -5.758909   1.000000
   61       -5.718127   1.000000
   62       -5.632549   1.000000
   63       -5.519580   1.000000
   64       -5.309547   1.000000
   65       -5.241941   1.000000
   66       -5.033760   1.000000
   67       -4.966527   1.000000
   68       -4.878660   1.000000
   69       -4.761251   1.000000
   70       -4.721227   1.000000
   71       -4.601184   1.000000
   72       -4.498174   1.000000
   73       -4.397381   1.000000
   74       -4.146549   1.000000
   75       -4.114749   1.000000
   76       -3.978049   0.999998
   77       -3.915772   0.999986
   78       -3.751310   0.998773
   79       -3.584530   0.967813
   80       -3.402351   0.712732
   81       -2.975687   0.007033
   82       -2.884951   0.000977
   83       -2.774018   0.000052
   84       -2.691611   0.000004
   85       -2.530349   0.000000
   86       -2.507607   0.000000
   87       -2.340434   0.000000
   88       -2.284788   0.000000
   89       -2.200752   0.000000
   90       -1.964629   0.000000
   91       -1.505829   0.000000
   92       -1.407574   0.000000
   93       -1.364577   0.000000
   94       -1.345104   0.000000
   95       -1.202458   0.000000
   96       -1.114336   0.000000
   97       -1.078916   0.000000
   98       -0.976028   0.000000
   99       -0.920036   0.000000
  100       -0.859296   0.000000
  101       -0.815436   0.000000
  102       -0.763211   0.000000
  103       -0.691350   0.000000
  104       -0.597639   0.000000
  105       -0.457725   0.000000
  106       -0.332654   0.000000
  107       -0.200069   0.000000
  108       -0.138987   0.000000
  109        0.018096   0.000000
  110        0.262183   0.000000
  111        0.363349   0.000000
  112        0.565680   0.000000
  113        0.700964   0.000000
  114        0.903396   0.000000
  115        0.989494   0.000000
  116        1.129819   0.000000
  117        1.485171   0.000000
  118        1.987684   0.000000
  119        2.164252   0.000000
  120        2.460034   0.000000
 
  0.5000000E+00  0.1110223E-15  0.0000000E+00  0.1562500E-01
    1      -17.575260   1.000000
    2      -17.297719   1.000000
    3      -16.759991   1.000000
    4      -16.742668   1.000000
    5      -16.655541   1.000000
    6      -16.476255   1.000000
    7      -16.324085   1.000000
    8      -16.212839   1.000000
    9      -16.099195   1.000000
   10      -16.014075   1.000000
   11      -15.941715   1.000000
   12      -15.863677   1.000000
   13      -15.798027   1.000000
   14      -15.737826   1.000000
   15      -15.558542   1.000000
   16      -15.366561   1.000000
   17      -15.342617   1.000000
   18      -15.223729   1.000000
   19       -9.816644   1.000000
   20       -9.423939   1.000000
   21       -9.218256   1.000000
   22       -9.168712   1.000000
   23       -8.983407   1.000000
   24       -8.819183   1.000000
   25       -8.584977   1.000000
   26       -8.507725   1.000000
   27       -8.474598   1.000000
   28       -8.299000   1.000000
   29       -8.258533   1.000000
   30       -8.191345   1.000000
   31       -8.135124   1.000000
   32       -8.035345   1.000000
   33       -7.952389   1.000000
   34       -7.883615   1.000000
   35       -7.768463   1.000000
   36       -7.739582   1.000000
   37       -7.584340   1.000000
   38       -7.416339   1.000000
   39       -7.321461   1.000000
   40       -7.269277   1.000000
   41       -7.113243   1.000000
   42       -7.066675   1.000000
   43       -6.998779   1.000000
   44       -6.980933   1.000000
   45       -6.845915   1.000000
   46       -6.731269   1.000000
   47       -6.655863   1.000000
   48       -6.610551   1.000000
   49       -6.531074   1.000000
   50       -6.479156   1.000000
   51       -6.422670   1.000000
   52       -6.409462   1.000000
   53       -6.334086   1.000000
   54       -6.213964   1.000000
   55       -6.141228   1.000000
   56       -6.048054   1.000000
   57       -5.947970   1.000000
   58       -5.932552   1.000000
   59       -5.847584   1.000000
   60       -5.807300   1.000000
   61       -5.747732   1.000000
   62       -5.601763   1.000000
   63       -5.525912   1.000000
   64       -5.345958   1.000000
   65       -5.279257   1.000000
   66       -5.109767   1.000000
   67       -4.958636   1.000000
   68       -4.892569   1.000000
   69       -4.852614   1.000000
   70       -4.678959   1.000000
   71       -4.591228   1.000000
   72       -4.487938   1.000000
   73       -4.378018   1.000000
   74       -4.203308   1.000000
   75       -4.108273   1.000000
   76       -3.941062   0.999994
   77       -3.858772   0.999924
   78       -3.747646   0.998663
   79       -3.541165   0.938578
   80       -3.431211   0.778000
   81       -2.954965   0.004633
   82       -2.872913   0.000731
   83       -2.755694   0.000030
   84       -2.712878   0.000008
   85       -2.525114   0.000000
   86       -2.484483   0.000000
   87       -2.325356   0.000000
   88       -2.275638   0.000000
   89       -2.163684   0.000000
   90       -1.915401   0.000000
   91       -1.534728   0.000000
   92       -1.419041   0.000000
   93       -1.359952   0.000000
   94       -1.341289   0.000000
   95       -1.264661   0.000000
   96       -1.146984   0.000000
   97       -1.088613   0.000000
   98       -1.006772   0.000000
   99       -0.929176   0.000000
  100       -0.886508   0.000000
  101       -0.831393   0.000000
  102       -0.771895   0.000000
  103       -0.697279   0.000000
  104       -0.642665   0.000000
  105       -0.467874   0.000000
  106       -0.388453   0.000000
  107       -0.253866   0.000000
  108       -0.170996   0.000000
  109        0.012642   0.000000
  110        0.229982   0.000000
  111        0.373378   0.000000
  112        0.565130   0.000000
  113        0.696861   0.000000
  114        0.931331   0.000000
  115        1.023589   0.000000
  116        1.161639   0.000000
  117        1.533903   0.000000
  118        2.196368   0.000000
  119        2.244502   0.000000
  120        2.384999   0.000000
 
  0.0000000E+00  0.1250000E+00  0.0000000E+00  0.3125000E-01
    1      -17.814138   1.000000
    2      -16.845753   1.000000
    3      -16.781446   1.000000
    4      -16.625876   1.000000
    5      -16.523387   1.000000
    6      -16.454346   1.000000
    7      -16.358071   1.000000
    8      -16.333400   1.000000
    9      -16.214988   1.000000
   10      -16.089751   1.000000
   11      -16.009226   1.000000
   12      -15.976784   1.000000
   13      -15.853245   1.000000
   14      -15.739604   1.000000
   15      -15.626173   1.000000
   16      -15.329083   1.000000
   17      -15.283377   1.000000
   18      -15.195430   1.000000
   19       -9.396706   1.000000
   20       -9.235478   1.000000
   21       -9.121024   1.000000
   22       -9.066235   1.000000
   23       -8.771202   1.000000
   24       -8.747253   1.000000
   25       -8.648817   1.000000
   26       -8.589569   1.000000
   27       -8.491856   1.000000
   28       -8.418220   1.000000
   29       -8.366847   1.000000
   30       -8.305516   1.000000
   31       -8.224589   1.000000
   32       -8.050472   1.000000
   33       -7.994392   1.000000
   34       -7.903468   1.000000
   35       -7.839728   1.000000
   36       -7.729891   1.000000
   37       -7.675532   1.000000
   38       -7.510143   1.000000
   39       -7.489239   1.000000
   40       -7.431616   1.000000
   41       -7.312318   1.000000
   42       -7.247710   1.000000
   43       -7.123722   1.000000
   44       -6.969360   1.000000
   45       -6.889451   1.000000
   46       -6.794054   1.000000
   47       -6.745896   1.000000
   48       -6.656440   1.000000
   49       -6.590948   1.000000
   50       -6.528195   1.000000
   51       -6.413289   1.000000
   52       -6.327120   1.000000
   53       -6.292454   1.000000
   54       -6.264507   1.000000
   55       -6.176746   1.000000
   56       -6.072473   1.000000
   57       -6.035335   1.000000
   58       -5.903158   1.000000
   59       -5.795472   1.000000
   60       -5.559669   1.000000
   61       -5.391481   1.000000
   62       -5.318803   1.000000
   63       -5.278330   1.000000
   64       -5.223038   1.000000
   65       -5.163359   1.000000
   66       -5.061754   1.000000
   67       -4.991345   1.000000
   68       -4.906246   1.000000
   69       -4.856287   1.000000
   70       -4.642706   1.000000
   71       -4.576360   1.000000
   72       -4.545882   1.000000
   73       -4.509493   1.000000
   74       -4.347452   1.000000
   75       -4.082019   1.000000
   76       -3.989229   0.999999
   77       -3.803930   0.999664
   78       -3.718202   0.997403
   79       -3.582206   0.966610
   80       -3.291055   0.410758
   81       -3.177249   0.151428
   82       -3.012231   0.014004
   83       -2.841824   0.000334
   84       -2.691246   0.000004
   85       -2.608718   0.000000
   86       -2.502400   0.000000
   87       -2.416381   0.000000
   88       -2.354891   0.000000
   89       -2.276153   0.000000
   90       -2.152358   0.000000
   91       -1.495818   0.000000
   92       -1.402447   0.000000
   93       -1.344776   0.000000
   94       -1.283512   0.000000
   95       -1.154386   0.000000
   96       -1.048878   0.000000
   97       -0.981708   0.000000
   98       -0.872965   0.000000
   99       -0.842786   0.000000
  100       -0.680307   0.000000
  101       -0.635701   0.000000
  102       -0.576880   0.000000
  103       -0.532202   0.000000
  104       -0.406200   0.000000
  105       -0.333711   0.000000
  106       -0.273735   0.000000
  107       -0.055990   0.000000
  108        0.079188   0.000000
  109        0.203531   0.000000
  110        0.338896   0.000000
  111        0.468456   0.000000
  112        0.521277   0.000000
  113        0.681852   0.000000
  114        0.745055   0.000000
  115        0.766251   0.000000
  116        1.023013   0.000000
  117        1.197291   0.000000
  118        1.687613   0.000000
  119        1.873702   0.000000
  120        2.190190   0.000000
 
  0.1250000E+00  0.1250000E+00  0.0000000E+00  0.3125000E-01
    1      -17.765778   1.000000
    2      -16.968978   1.000000
    3      -16.778744   1.000000
    4      -16.700990   1.000000
    5      -16.531067   1.000000
    6      -16.438840   1.000000
    7      -16.360655   1.000000
    8      -16.292240   1.000000
    9      -16.189131   1.000000
   10      -16.093039   1.000000
   11      -15.986297   1.000000
   12      -15.913179   1.000000
   13      -15.829152   1.000000
   14      -15.707530   1.000000
   15      -15.625314   1.000000
   16      -15.349967   1.000000
   17      -15.304774   1.000000
   18      -15.198804   1.000000
   19       -9.473390   1.000000
   20       -9.356373   1.000000
   21       -9.235674   1.000000
   22       -9.095636   1.000000
   23       -8.834500   1.000000
   24       -8.729597   1.000000
   25       -8.647174   1.000000
   26       -8.561283   1.000000
   27       -8.464090   1.000000
   28       -8.389050   1.000000
   29       -8.354474   1.000000
   30       -8.286759   1.000000
   31       -8.156421   1.000000
   32       -8.045407   1.000000
   33       -7.970772   1.000000
   34       -7.841035   1.000000
   35       -7.719926   1.000000
   36       -7.668040   1.000000
   37       -7.600659   1.000000
   38       -7.542122   1.000000
   39       -7.456200   1.000000
   40       -7.360399   1.000000
   41       -7.305675   1.000000
   42       -7.232871   1.000000
   43       -7.154862   1.000000
   44       -7.030489   1.000000
   45       -6.882362   1.000000
   46       -6.794942   1.000000
   47       -6.763588   1.000000
   48       -6.637201   1.000000
   49       -6.605411   1.000000
   50       -6.556500   1.000000
   51       -6.388102   1.000000
   52       -6.348569   1.000000
   53       -6.306226   1.000000
   54       -6.256941   1.000000
   55       -6.116011   1.000000
   56       -6.088365   1.000000
   57       -5.939327   1.000000
   58       -5.866642   1.000000
   59       -5.755417   1.000000
   60       -5.632226   1.000000
   61       -5.478365   1.000000
   62       -5.397626   1.000000
   63       -5.364156   1.000000
   64       -5.301695   1.000000
   65       -5.192168   1.000000
   66       -5.170739   1.000000
   67       -5.017835   1.000000
   68       -4.873408   1.000000
   69       -4.797142   1.000000
   70       -4.705602   1.000000
   71       -4.546799   1.000000
   72       -4.473892   1.000000
   73       -4.330732   1.000000
   74       -4.291384   1.000000
   75       -4.109235   1.000000
   76       -4.024475   1.000000
   77       -3.833445   0.999847
   78       -3.793516   0.999562
   79       -3.644831   0.988576
   80       -3.291595   0.412243
   81       -3.082606   0.044607
   82       -2.989330   0.009159
   83       -2.814435   0.000162
   84       -2.694885   0.000004
   85       -2.616713   0.000000
   86       -2.512955   0.000000
   87       -2.366272   0.000000
   88       -2.309637   0.000000
   89       -2.262266   0.000000
   90       -2.107027   0.000000
   91       -1.503597   0.000000
   92       -1.420993   0.000000
   93       -1.345914   0.000000
   94       -1.286503   0.000000
   95       -1.121152   0.000000
   96       -1.053621   0.000000
   97       -0.985955   0.000000
   98       -0.919700   0.000000
   99       -0.899970   0.000000
  100       -0.752298   0.000000
  101       -0.688456   0.000000
  102       -0.653064   0.000000
  103       -0.596132   0.000000
  104       -0.493074   0.000000
  105       -0.448652   0.000000
  106       -0.252285   0.000000
  107       -0.138760   0.000000
  108        0.067409   0.000000
  109        0.195001   0.000000
  110        0.289224   0.000000
  111        0.403437   0.000000
  112        0.546436   0.000000
  113        0.665667   0.000000
  114        0.763270   0.000000
  115        0.832762   0.000000
  116        1.071674   0.000000
  117        1.357376   0.000000
  118        1.771706   0.000000
  119        1.949473   0.000000
  120        2.260416   0.000000
 
  0.2500000E+00  0.1250000E+00  0.0000000E+00  0.3125000E-01
    1      -17.677318   1.000000
    2      -17.129308   1.000000
    3      -16.822656   1.000000
    4      -16.757229   1.000000
    5      -16.527745   1.000000
    6      -16.454549   1.000000
    7      -16.318472   1.000000
    8      -16.252939   1.000000
    9      -16.144967   1.000000
   10      -16.073579   1.000000
   11      -15.967713   1.000000
   12      -15.896876   1.000000
   13      -15.802525   1.000000
   14      -15.676063   1.000000
   15      -15.598954   1.000000
   16      -15.365067   1.000000
   17      -15.331358   1.000000
   18      -15.210060   1.000000
   19       -9.662541   1.000000
   20       -9.466426   1.000000
   21       -9.269099   1.000000
   22       -9.140203   1.000000
   23       -8.836214   1.000000
   24       -8.762318   1.000000
   25       -8.585610   1.000000
   26       -8.509940   1.000000
   27       -8.448495   1.000000
   28       -8.380149   1.000000
   29       -8.303278   1.000000
   30       -8.246553   1.000000
   31       -8.117077   1.000000
   32       -8.062224   1.000000
   33       -8.014964   1.000000
   34       -7.844234   1.000000
   35       -7.772575   1.000000
   36       -7.707641   1.000000
   37       -7.551633   1.000000
   38       -7.414318   1.000000
   39       -7.350126   1.000000
   40       -7.268620   1.000000
   41       -7.216733   1.000000
   42       -7.167083   1.000000
   43       -7.117954   1.000000
   44       -7.009691   1.000000
   45       -6.847658   1.000000
   46       -6.779101   1.000000
   47       -6.745729   1.000000