       N       E                     dE             d eps       ncg     rms          rms(c)
DAV:   1     0.112599678000E+04    0.11260E+04   -0.35977E+04  8160   0.577E+02
DAV:   2    -0.328590330642E+01   -0.11293E+04   -0.10874E+04 11400   0.173E+02
DAV:   3    -0.199912055294E+03   -0.19663E+03   -0.18897E+03 10880   0.820E+01
DAV:   4    -0.209014480855E+03   -0.91024E+01   -0.88443E+01 12400   0.262E+01
DAV:   5    -0.209307179482E+03   -0.29270E+00   -0.29183E+00 11320   0.329E+00    0.275E+01
DAV:   6    -0.236767126287E+03   -0.27460E+02   -0.10825E+02 12840   0.605E+01    0.594E+01
DAV:   7    -0.196683429728E+03    0.40084E+02   -0.17824E+02 12840   0.151E+02    0.202E+01
DAV:   8    -0.189951707917E+03    0.67317E+01   -0.20185E+01 11840   0.133E+01    0.134E+01
DAV:   9    -0.188233194920E+03    0.17185E+01   -0.28858E+00 11960   0.621E+00    0.919E+00
DAV:  10    -0.187049888474E+03    0.11833E+01   -0.18565E+00 13400   0.774E+00    0.292E+00
DAV:  11    -0.187025292522E+03    0.24596E-01   -0.61268E-01 13560   0.299E+00    0.304E+00
DAV:  12    -0.187176297481E+03   -0.15100E+00   -0.82201E-01 13200   0.524E+00    0.582E+00
DAV:  13    -0.186920668369E+03    0.25563E+00   -0.78824E-01 12920   0.420E+00    0.209E+00
DAV:  14    -0.186876787351E+03    0.43881E-01   -0.11694E-01 13400   0.202E+00    0.885E-01
DAV:  15    -0.186874452731E+03    0.23346E-02   -0.16729E-02 13120   0.689E-01    0.781E-01
DAV:  16    -0.186868453616E+03    0.59991E-02   -0.10197E-02 13200   0.525E-01    0.180E-01
DAV:  17    -0.186868482592E+03   -0.28976E-04   -0.37410E-03 12960   0.223E-01    0.214E-01
DAV:  18    -0.186867787789E+03    0.69480E-03   -0.17174E-03 11800   0.133E-01    0.101E-01
DAV:  19    -0.186867818834E+03   -0.31045E-04   -0.55550E-04  9400   0.742E-02
   1 F= -.18686782E+03 E0= -.18669612E+03  d E =-.186868E+03
       N       E                     dE             d eps       ncg     rms          rms(c)
DAV:   1    -0.187481315987E+03   -0.61353E+00   -0.27046E+02  8160   0.349E+01    0.466E+00
DAV:   2    -0.189429207456E+03   -0.19479E+01   -0.20276E+01 11920   0.155E+01    0.945E+00
DAV:   3    -0.189342863819E+03    0.86344E-01   -0.45858E+00 12240   0.124E+01    0.663E+00
DAV:   4    -0.188750959908E+03    0.59190E+00   -0.61057E-01 12200   0.456E+00    0.210E+00
DAV:   5    -0.188846654214E+03   -0.95694E-01   -0.43465E-01 11400   0.351E+00    0.500E+00
DAV:   6    -0.188747238051E+03    0.99416E-01   -0.73694E-01 12440   0.435E+00    0.270E+00
DAV:   7    -0.188665479872E+03    0.81758E-01   -0.22306E-01 12240   0.168E+00    0.115E+00
DAV:   8    -0.188662259055E+03    0.32208E-02   -0.82663E-02 11720   0.143E+00    0.148E+00
DAV:   9    -0.188646624533E+03    0.15635E-01   -0.33515E-02 11280   0.106E+00    0.560E-01
DAV:  10    -0.188643941776E+03    0.26828E-02   -0.67534E-03 12040   0.356E-01    0.315E-01
DAV:  11    -0.188643514308E+03    0.42747E-03   -0.33034E-03 12680   0.245E-01    0.132E-01
DAV:  12    -0.188643506833E+03    0.74746E-05   -0.12358E-03 11160   0.108E-01    0.103E-01
DAV:  13    -0.188643653167E+03   -0.14633E-03   -0.30196E-04  6800   0.689E-02    0.404E-02
DAV:  14    -0.188643718600E+03   -0.65433E-04   -0.11757E-04  7840   0.343E-02
   2 F= -.18864372E+03 E0= -.18850245E+03  d E =-.177590E+01
       N       E                     dE             d eps       ncg     rms          rms(c)
DAV:   1    -0.190575327117E+03   -0.19317E+01   -0.31109E+01  9200   0.142E+01    0.447E+00
DAV:   2    -0.190571781205E+03    0.35459E-02   -0.28483E+00 11800   0.977E+00    0.754E+00
DAV:   3    -0.190047262929E+03    0.52452E+00   -0.13765E+00 12280   0.868E+00    0.419E+00
DAV:   4    -0.189848661248E+03    0.19860E+00   -0.74118E-01 13000   0.413E+00    0.270E+00
DAV:   5    -0.189896285024E+03   -0.47624E-01   -0.48950E-01 12400   0.424E+00    0.385E+00
DAV:   6    -0.189740250180E+03    0.15603E+00   -0.22238E-01 12280   0.324E+00    0.624E-01
DAV:   7    -0.189734267211E+03    0.59830E-02   -0.15267E-02 12120   0.467E-01    0.218E-01
DAV:   8    -0.189734602438E+03   -0.33523E-03   -0.34354E-03 11400   0.250E-01    0.257E-01
DAV:   9    -0.189734354347E+03    0.24809E-03   -0.18188E-03 10480   0.274E-01    0.184E-01
DAV:  10    -0.189734540123E+03   -0.18578E-03   -0.11651E-03  9960   0.182E-01    0.146E-01
DAV:  11    -0.189734285052E+03    0.25507E-03   -0.53353E-04  8440   0.924E-02    0.170E-02
DAV:  12    -0.189734340550E+03   -0.55499E-04   -0.71167E-05  6920   0.250E-02
   3 F= -.18973434E+03 E0= -.18961519E+03  d E =-.109062E+01
       N       E                     dE             d eps       ncg     rms          rms(c)
DAV:   1    -0.191296473759E+03   -0.15622E+01   -0.70552E+01  8160   0.192E+01    0.464E+00
DAV:   2    -0.191171280935E+03    0.12519E+00   -0.54057E+00 13480   0.837E+00    0.525E+00
DAV:   3    -0.191199062663E+03   -0.27782E-01   -0.15727E+00 12240   0.928E+00    0.624E+00
DAV:   4    -0.190809978533E+03    0.38908E+00   -0.11371E+00 12920   0.680E+00    0.255E+00
DAV:   5    -0.190710726496E+03    0.99252E-01   -0.28237E-01 11240   0.210E+00    0.101E+00
DAV:   6    -0.190708040522E+03    0.26860E-02   -0.89626E-02 12240   0.176E+00    0.128E+00
DAV:   7    -0.190698310172E+03    0.97304E-02   -0.47471E-02 11880   0.149E+00    0.684E-01
DAV:   8    -0.190692411914E+03    0.58983E-02   -0.82447E-03 10640   0.517E-01    0.152E-01
DAV:   9    -0.190692705569E+03   -0.29366E-03   -0.17136E-03 11040   0.141E-01    0.148E-01
DAV:  10    -0.190692826482E+03   -0.12091E-03   -0.15635E-03 11760   0.217E-01    0.180E-01
DAV:  11    -0.190692592589E+03    0.23389E-03   -0.80432E-04  9120   0.190E-01    0.715E-02
DAV:  12    -0.190692559102E+03    0.33488E-04   -0.12142E-04  6240   0.625E-02
   4 F= -.19069256E+03 E0= -.19059122E+03  d E =-.958219E+00
       N       E                     dE             d eps       ncg     rms          rms(c)
DAV:   1    -0.192088136687E+03   -0.13955E+01   -0.14587E+02  8160   0.271E+01    0.568E+00
DAV:   2    -0.191793719927E+03    0.29442E+00   -0.92856E+00 12400   0.807E+00    0.383E+00
DAV:   3    -0.191862398713E+03   -0.68679E-01   -0.17207E+00 12400   0.876E+00    0.614E+00
DAV:   4    -0.191609547611E+03    0.25285E+00   -0.15584E+00 12480   0.957E+00    0.385E+00
DAV:   5    -0.191371333917E+03    0.23821E+00   -0.41675E-01 12520   0.362E+00    0.828E-01
DAV:   6    -0.191369154120E+03    0.21798E-02   -0.10374E-01 12520   0.146E+00    0.102E+00
DAV:   7    -0.191368081074E+03    0.10730E-02   -0.68547E-02 11840   0.168E+00    0.972E-01
DAV:   8    -0.191356897949E+03    0.11183E-01   -0.17649E-02 11920   0.856E-01    0.166E-01
DAV:   9    -0.191357894454E+03   -0.99651E-03   -0.40198E-03 11760   0.311E-01    0.289E-01
DAV:  10    -0.191357237803E+03    0.65665E-03   -0.21992E-03 12080   0.339E-01    0.114E-01
DAV:  11    -0.191357158479E+03    0.79323E-04   -0.41149E-04  9040   0.114E-01
   5 F= -.19135716E+03 E0= -.19126126E+03  d E =-.664599E+00
       N       E                     dE             d eps       ncg     rms          rms(c)
DAV:   1    -0.191452644126E+03   -0.95406E-01   -0.89390E+00  8160   0.631E+00    0.783E-01
DAV:   2    -0.191521772319E+03   -0.69128E-01   -0.32345E-01 12640   0.288E+00    0.224E+00
DAV:   3    -0.191465833194E+03    0.55939E-01   -0.11880E-01 12440   0.261E+00    0.546E-01
DAV:   4    -0.191463273304E+03    0.25599E-02   -0.11177E-02 10960   0.526E-01    0.344E-01
DAV:   5    -0.191462994068E+03    0.27924E-03   -0.65352E-03 11200   0.560E-01    0.417E-01
DAV:   6    -0.191461897573E+03    0.10965E-02   -0.53032E-03 11600   0.523E-01    0.229E-01
DAV:   7    -0.191461341205E+03    0.55637E-03   -0.17182E-03 11400   0.220E-01    0.725E-02
DAV:   8    -0.191461339466E+03    0.17392E-05   -0.46476E-04  8920   0.122E-01
   6 F= -.19146134E+03 E0= -.19136268E+03  d E =-.104181E+00
       N       E                     dE             d eps       ncg     rms          rms(c)
DAV:   1    -0.191480121985E+03   -0.18781E-01   -0.29788E-01  8160   0.116E+00    0.169E-01
DAV:   2    -0.191483477300E+03   -0.33553E-02   -0.14431E-02 12760   0.688E-01    0.516E-01
DAV:   3    -0.191480458650E+03    0.30187E-02   -0.53324E-03 11640   0.554E-01    0.949E-02
DAV:   4    -0.191480589827E+03   -0.13118E-03   -0.81930E-04  9000   0.172E-01    0.149E-01
DAV:   5    -0.191480399133E+03    0.19069E-03   -0.67686E-04  8600   0.178E-01    0.706E-02
DAV:   6    -0.191480373590E+03    0.25544E-04   -0.16393E-04  5960   0.734E-02
   7 F= -.19148037E+03 E0= -.19138134E+03  d E =-.190341E-01
       N       E                     dE             d eps       ncg     rms          rms(c)
DAV:   1    -0.191220642953E+03    0.25976E+00   -0.45300E+01  8160   0.143E+01    0.190E+00
DAV:   2    -0.191611007187E+03   -0.39036E+00   -0.19433E+00 13120   0.761E+00    0.493E+00
DAV:   3    -0.191274907018E+03    0.33610E+00   -0.45728E-01 12320   0.550E+00    0.927E-01
DAV:   4    -0.191266383587E+03    0.85234E-02   -0.51557E-02 12200   0.954E-01    0.736E-01
DAV:   5    -0.191261412628E+03    0.49710E-02   -0.28491E-02 12480   0.999E-01    0.726E-01
DAV:   6    -0.191262902830E+03   -0.14902E-02   -0.29605E-02 12480   0.127E+00    0.783E-01
DAV:   7    -0.191255965614E+03    0.69372E-02   -0.12032E-02 12000   0.738E-01    0.138E-01
DAV:   8    -0.191255790637E+03    0.17498E-03   -0.16677E-03 11560   0.200E-01    0.127E-01
DAV:   9    -0.191255759837E+03    0.30800E-04   -0.86006E-04  9520   0.196E-01
   8 F= -.19125576E+03 E0= -.19116715E+03  d E =0.224614E+00
       N       E                     dE             d eps       ncg     rms          rms(c)
DAV:   1    -0.191134314061E+03    0.12148E+00   -0.14527E+01  8160   0.810E+00    0.104E+00
DAV:   2    -0.191242005336E+03   -0.10769E+00   -0.56158E-01 13560   0.388E+00    0.267E+00
DAV:   3    -0.191150794787E+03    0.91211E-01   -0.14957E-01 12240   0.306E+00    0.609E-01
DAV:   4    -0.191148453926E+03    0.23409E-02   -0.19766E-02 11840   0.696E-01    0.525E-01
DAV:   5    -0.191146538738E+03    0.19152E-02   -0.12483E-02 11960   0.795E-01    0.507E-01
DAV:   6    -0.191145076875E+03    0.14619E-02   -0.85984E-03 12160   0.692E-01    0.312E-01
DAV:   7    -0.191143873856E+03    0.12030E-02   -0.28301E-03 11640   0.306E-01    0.837E-02
DAV:   8    -0.191143778388E+03    0.95468E-04   -0.53051E-04 10760   0.112E-01
   9 F= -.19114378E+03 E0= -.19106216E+03  d E =0.111981E+00
       N       E                     dE             d eps       ncg     rms          rms(c)
DAV:   1    -0.191140368715E+03    0.35051E-02   -0.20209E-02  8600   0.321E-01    0.728E-02
DAV:   2    -0.191141351195E+03   -0.98248E-03   -0.26178E-03 12440   0.333E-01    0.301E-01
DAV:   3    -0.191140332743E+03    0.10185E-02   -0.16178E-03 10080   0.290E-01    0.346E-02
DAV:   4    -0.191140372873E+03   -0.40130E-04   -0.85292E-05  5760   0.657E-02
  10 F= -.19114037E+03 E0= -.19105897E+03  d E =0.340552E-02
       N       E                     dE             d eps       ncg     rms          rms(c)
DAV:   1    -0.191158617884E+03   -0.18285E-01   -0.37354E+00  8160   0.413E+00    0.468E-01
DAV:   2    -0.191176653312E+03   -0.18035E-01   -0.12508E-01 13560   0.150E+00    0.109E+00
DAV:   3    -0.191165273763E+03    0.11380E-01   -0.33202E-02 12520   0.133E+00    0.424E-01
DAV:   4    -0.191163465184E+03    0.18086E-02   -0.48360E-03 11720   0.414E-01    0.189E-01
DAV:   5    -0.191163059398E+03    0.40579E-03   -0.23654E-03 12040   0.211E-01    0.152E-01
DAV:   6    -0.191163397194E+03   -0.33780E-03   -0.21519E-03 12040   0.326E-01    0.241E-01
DAV:   7    -0.191162732894E+03    0.66430E-03   -0.12260E-03 10120   0.268E-01    0.633E-02
DAV:   8    -0.191162714433E+03    0.18461E-04   -0.13644E-04  6120   0.808E-02
  11 F= -.19116271E+03 E0= -.19108035E+03  d E =-.223416E-01
       N       E                     dE             d eps       ncg     rms          rms(c)
DAV:   1    -0.191164190898E+03   -0.14580E-02   -0.10205E+00  8160   0.217E+00    0.243E-01
DAV:   2    -0.191166769035E+03   -0.25781E-02   -0.25172E-02 13560   0.644E-01    0.440E-01
DAV:   3    -0.191165371155E+03    0.13979E-02   -0.70112E-03 12400   0.618E-01    0.267E-01
DAV:   4    -0.191164701120E+03    0.67004E-03   -0.16829E-03 10360   0.274E-01    0.112E-01
DAV:   5    -0.191164662262E+03    0.38858E-04   -0.84166E-04 10400   0.175E-01
  12 F= -.19116466E+03 E0= -.19108139E+03  d E =-.194783E-02
       N       E                     dE             d eps       ncg     rms          rms(c)
DAV:   1    -0.191171841256E+03   -0.71401E-02   -0.57119E-01  8160   0.163E+00    0.214E-01
DAV:   2    -0.191174863865E+03   -0.30226E-02   -0.16606E-02 13280   0.648E-01    0.516E-01
DAV:   3    -0.191172053520E+03    0.28103E-02   -0.57645E-03 12000   0.597E-01    0.157E-01
DAV:   4    -0.191172197964E+03   -0.14444E-03   -0.13077E-03 10240   0.265E-01    0.196E-01
DAV:   5    -0.191171812399E+03    0.38557E-03   -0.97904E-04 10360   0.249E-01    0.916E-02
DAV:   6    -0.191171757091E+03    0.55308E-04   -0.31437E-04  7560   0.985E-02
  13 F= -.19117176E+03 E0= -.19108733E+03  d E =-.709483E-02
       N       E                     dE             d eps       ncg     rms          rms(c)
DAV:   1    -0.191254304254E+03   -0.82492E-01   -0.10245E+01  8160   0.681E+00    0.803E-01
DAV:   2    -0.191314696176E+03   -0.60392E-01   -0.32270E-01 13400   0.293E+00    0.209E+00
DAV:   3    -0.191265619828E+03    0.49076E-01   -0.10025E-01 12320   0.249E+00    0.538E-01
DAV:   4    -0.191263908358E+03    0.17115E-02   -0.14851E-02 12320   0.699E-01    0.471E-01
DAV:   5    -0.191262721465E+03    0.11869E-02   -0.10925E-02 12520   0.763E-01    0.467E-01
DAV:   6    -0.191260769751E+03    0.19517E-02   -0.60875E-03 12280   0.542E-01    0.187E-01
DAV:   7    -0.191260390982E+03    0.37877E-03   -0.14941E-03 10720   0.180E-01    0.770E-02
DAV:   8    -0.191260347596E+03    0.43386E-04   -0.41534E-04  9440   0.129E-01
  14 F= -.19126035E+03 E0= -.19117013E+03  d E =-.885905E-01
       N       E                     dE             d eps       ncg     rms          rms(c)
DAV:   1    -0.191239643136E+03    0.20748E-01   -0.25311E+00  8160   0.343E+00    0.381E-01
DAV:   2    -0.191249686515E+03   -0.10043E-01   -0.68469E-02 13480   0.117E+00    0.896E-01
DAV:   3    -0.191242295476E+03    0.73910E-02   -0.20903E-02 12280   0.106E+00    0.336E-01
DAV:   4    -0.191241565564E+03    0.72991E-03   -0.41947E-03 11480   0.412E-01    0.229E-01
DAV:   5    -0.191241307438E+03    0.25813E-03   -0.28386E-03 10760   0.401E-01    0.244E-01
DAV:   6    -0.191240795701E+03    0.51174E-03   -0.17632E-03 10320   0.298E-01    0.110E-01
DAV:   7    -0.191240757570E+03    0.38131E-04   -0.70040E-04  9240   0.172E-01
  15 F= -.19124076E+03 E0= -.19115236E+03  d E =0.195900E-01
       N       E                     dE             d eps       ncg     rms          rms(c)
DAV:   1    -0.191298049800E+03   -0.57254E-01   -0.43276E+00  8160   0.438E+00    0.495E-01
DAV:   2    -0.191325340264E+03   -0.27290E-01   -0.13412E-01 13240   0.185E+00    0.135E+00
DAV:   3    -0.191303710127E+03    0.21630E-01   -0.42954E-02 12320   0.161E+00    0.348E-01
DAV:   4    -0.191302912184E+03    0.79794E-03   -0.49351E-03 10200   0.357E-01    0.243E-01
DAV:   5    -0.191302676557E+03    0.23563E-03   -0.31615E-03 12520   0.386E-01    0.262E-01
DAV:   6    -0.191302220041E+03    0.45652E-03   -0.23957E-03 10240   0.331E-01    0.140E-01
DAV:   7    -0.191302028390E+03    0.19165E-03   -0.71976E-04 10080   0.137E-01    0.489E-02
DAV:   8    -0.191302009984E+03    0.18406E-04   -0.13412E-04  6640   0.769E-02
  16 F= -.19130201E+03 E0= -.19121083E+03  d E =-.612524E-01
       N       E                     dE             d eps       ncg     rms          rms(c)
DAV:   1    -0.191314663790E+03   -0.12635E-01   -0.19426E-01  8160   0.936E-01    0.109E-01
DAV:   2    -0.191315800025E+03   -0.11362E-02   -0.61319E-03 13400   0.360E-01    0.278E-01
DAV:   3    -0.191314900961E+03    0.89906E-03   -0.18870E-03 10920   0.334E-01    0.861E-02
DAV:   4    -0.191314893191E+03    0.77704E-05   -0.33881E-04  7800   0.118E-01
  17 F= -.19131489E+03 E0= -.19122312E+03  d E =-.128832E-01
       N       E                     dE             d eps       ncg     rms          rms(c)
DAV:   1    -0.191210131158E+03    0.10477E+00   -0.13983E+01  8160   0.797E+00    0.918E-01
DAV:   2    -0.191279099036E+03   -0.68968E-01   -0.39700E-01 13240   0.304E+00    0.214E+00
DAV:   3    -0.191221863360E+03    0.57236E-01   -0.10436E-01 12320   0.254E+00    0.608E-01
DAV:   4    -0.191218573476E+03    0.32899E-02   -0.16596E-02 12240   0.701E-01    0.378E-01
DAV:   5    -0.191216993801E+03    0.15797E-02   -0.96289E-03 11680   0.565E-01    0.389E-01
DAV:   6    -0.191217070802E+03   -0.77001E-04   -0.92385E-03 11640   0.666E-01    0.387E-01
DAV:   7    -0.191215390239E+03    0.16806E-02   -0.33128E-03 11160   0.366E-01    0.592E-02
DAV:   8    -0.191215374538E+03    0.15702E-04   -0.30207E-04  8080   0.735E-02
  18 F= -.19121537E+03 E0= -.19113004E+03  d E =0.995187E-01
       N       E                     dE             d eps       ncg     rms          rms(c)
DAV:   1    -0.191371266534E+03   -0.15588E+00   -0.32704E+01  8160   0.122E+01    0.155E+00
DAV:   2    -0.191625054942E+03   -0.25379E+00   -0.11490E+00 13320   0.602E+00    0.456E+00
DAV:   3    -0.191402951231E+03    0.22210E+00   -0.44667E-01 12320   0.522E+00    0.923E-01
DAV:   4    -0.191392984498E+03    0.99667E-02   -0.41907E-02 11720   0.968E-01    0.648E-01
DAV:   5    -0.191391021706E+03    0.19628E-02   -0.29639E-02 12280   0.113E+00    0.830E-01
DAV:   6    -0.191386891832E+03    0.41299E-02   -0.24674E-02 12360   0.114E+00    0.516E-01
DAV:   7    -0.191383915079E+03    0.29768E-02   -0.66443E-03 11280   0.482E-01    0.149E-01
DAV:   8    -0.191383879008E+03    0.36071E-04   -0.19485E-03 11480   0.268E-01    0.179E-01
DAV:   9    -0.191383578424E+03    0.30058E-03   -0.85350E-04  9160   0.198E-01    0.656E-02
DAV:  10    -0.191383529254E+03    0.49171E-04   -0.15974E-04  6360   0.634E-02
  19 F= -.19138353E+03 E0= -.19128871E+03  d E =-.168155E+00
       N       E                     dE             d eps       ncg     rms          rms(c)
DAV:   1    -0.191322003777E+03    0.61575E-01   -0.12641E+01  8160   0.763E+00    0.858E-01
DAV:   2    -0.191347981127E+03   -0.25977E-01   -0.29635E-01 13560   0.206E+00    0.130E+00
DAV:   3    -0.191335719256E+03    0.12262E-01   -0.69569E-02 11680   0.194E+00    0.101E+00
DAV:   4    -0.191329013117E+03    0.67061E-02   -0.33003E-02 11760   0.127E+00    0.625E-01
DAV:   5    -0.191326761828E+03    0.22513E-02   -0.17684E-02 11600   0.904E-01    0.576E-01
DAV:   6    -0.191323508117E+03    0.32537E-02   -0.91177E-03 11960   0.695E-01    0.227E-01
DAV:   7    -0.191323073662E+03    0.43445E-03   -0.24850E-03 12320   0.270E-01    0.141E-01
DAV:   8    -0.191323017367E+03    0.56295E-04   -0.12901E-03 10680   0.234E-01    0.140E-01
DAV:   9    -0.191322823186E+03    0.19418E-03   -0.44604E-04  8640   0.140E-01    0.343E-02
DAV:  10    -0.191322827135E+03   -0.39491E-05   -0.65451E-05  6160   0.367E-02
  20 F= -.19132283E+03 E0= -.19123127E+03  d E =0.607021E-01
       N       E                     dE             d eps       ncg     rms          rms(c)
DAV:   1    -0.191400746098E+03   -0.77923E-01   -0.12972E+01  8160   0.773E+00    0.852E-01
DAV:   2    -0.191445970472E+03   -0.45224E-01   -0.33480E-01 13160   0.260E+00    0.175E+00
DAV:   3    -0.191414467216E+03    0.31503E-01   -0.89921E-02 12440   0.229E+00    0.702E-01
DAV:   4    -0.191409687008E+03    0.47802E-02   -0.16015E-02 12200   0.777E-01    0.398E-01
DAV:   5    -0.191409190783E+03    0.49623E-03   -0.11644E-02 12600   0.709E-01    0.530E-01
DAV:   6    -0.191407419000E+03    0.17718E-02   -0.94146E-03 11960   0.702E-01    0.301E-01
DAV:   7    -0.191406394890E+03    0.10241E-02   -0.23233E-03 11200   0.285E-01    0.920E-02
DAV:   8    -0.191406393040E+03    0.18503E-05   -0.65962E-04  9320   0.163E-01
  21 F= -.19140639E+03 E0= -.19131114E+03  d E =-.835659E-01
       N       E                     dE             d eps       ncg     rms          rms(c)
DAV:   1    -0.191406268192E+03    0.12670E-03   -0.63449E+00  8160   0.542E+00    0.621E-01
DAV:   2    -0.191434215329E+03   -0.27947E-01   -0.16761E-01 13600   0.196E+00    0.149E+00
DAV:   3    -0.191412867505E+03    0.21348E-01   -0.59878E-02 11640   0.179E+00    0.570E-01
DAV:   4    -0.191411931843E+03    0.93566E-03   -0.13273E-02 11600   0.745E-01    0.488E-01
DAV:   5    -0.191410417998E+03    0.15138E-02   -0.87792E-03 10600   0.721E-01    0.413E-01
DAV:   6    -0.191408604639E+03    0.18134E-02   -0.43857E-03 11560   0.433E-01    0.136E-01
DAV:   7    -0.191408534305E+03    0.70334E-04   -0.11149E-03 10800   0.169E-01    0.122E-01
DAV:   8    -0.191408391615E+03    0.14269E-03   -0.55040E-04  8960   0.155E-01    0.628E-02
DAV:   9    -0.191408359384E+03    0.32231E-04   -0.10569E-04  5920   0.646E-02
  22 F= -.19140836E+03 E0= -.19131196E+03  d E =-.196634E-02
       N       E                     dE             d eps       ncg     rms          rms(c)
DAV:   1    -0.191487417542E+03   -0.79026E-01   -0.73401E+00  8160   0.572E+00    0.652E-01
DAV:   2    -0.191535679967E+03   -0.48262E-01   -0.23247E-01 12760   0.251E+00    0.187E+00
DAV:   3    -0.191496988825E+03    0.38691E-01   -0.78516E-02 12400   0.214E+00    0.440E-01
DAV:   4    -0.191496430254E+03    0.55857E-03   -0.85253E-03 11560   0.537E-01    0.431E-01
DAV:   5    -0.191495164994E+03    0.12653E-02   -0.62871E-03 11320   0.589E-01    0.317E-01
DAV:   6    -0.191494407493E+03    0.75750E-03   -0.31610E-03 11080   0.352E-01    0.144E-01
DAV:   7    -0.191494274225E+03    0.13327E-03   -0.13286E-03 11080   0.194E-01    0.139E-01
DAV:   8    -0.191494093317E+03    0.18091E-03   -0.55300E-04  8840   0.158E-01    0.486E-02
DAV:   9    -0.191494081818E+03    0.11499E-04   -0.82982E-05  5960   0.530E-02
  23 F= -.19149408E+03 E0= -.19139560E+03  d E =-.857224E-01
       N       E                     dE             d eps       ncg     rms          rms(c)
DAV:   1    -0.191463376654E+03    0.30717E-01   -0.13317E+00  8160   0.248E+00    0.296E-01
DAV:   2    -0.191468996472E+03   -0.56198E-02   -0.39805E-02 12600   0.935E-01    0.637E-01
DAV:   3    -0.191464523955E+03    0.44725E-02   -0.10399E-02 12400   0.780E-01    0.220E-01
DAV:   4    -0.191464111060E+03    0.41289E-03   -0.19003E-03 11120   0.252E-01    0.147E-01
DAV:   5    -0.191464172702E+03   -0.61642E-04   -0.17849E-03 10240   0.273E-01    0.209E-01
DAV:   6    -0.191463827221E+03    0.34548E-03   -0.13837E-03  9480   0.248E-01    0.871E-02
DAV:   7    -0.191463743859E+03    0.83362E-04   -0.23605E-04  6080   0.854E-02
  24 F= -.19146374E+03 E0= -.19136547E+03  d E =0.303380E-01
       N       E                     dE             d eps       ncg     rms          rms(c)
DAV:   1    -0.191598018085E+03   -0.13419E+00   -0.22945E+01  8160   0.102E+01    0.122E+00
DAV:   2    -0.191756294525E+03   -0.15828E+00   -0.78867E-01 13000   0.474E+00    0.352E+00
DAV:   3    -0.191629525522E+03    0.12677E+00   -0.26636E-01 12400   0.399E+00    0.817E-01
DAV:   4    -0.191631580401E+03   -0.20549E-02   -0.38890E-02 12040   0.131E+00    0.111E+00
DAV:   5    -0.191620323457E+03    0.11257E-01   -0.31417E-02 12160   0.131E+00    0.500E-01
DAV:   6    -0.191618924910E+03    0.13985E-02   -0.11910E-02 11680   0.612E-01    0.361E-01
DAV:   7    -0.191619855544E+03   -0.93063E-03   -0.10096E-02 11680   0.706E-01    0.522E-01
DAV:   8    -0.191616970718E+03    0.28848E-02   -0.48079E-03 11080   0.490E-01    0.574E-02
DAV:   9    -0.191616974398E+03   -0.36799E-05   -0.32471E-04  8360   0.617E-02
  25 F= -.19161697E+03 E0= -.19151930E+03  d E =-.153231E+00
       N       E                     dE             d eps       ncg     rms          rms(c)
DAV:   1    -0.191724393433E+03   -0.10742E+00   -0.14821E+01  8160   0.820E+00    0.950E-01
DAV:   2    -0.191826508569E+03   -0.10212E+00   -0.53849E-01 12960   0.378E+00    0.276E+00
DAV:   3    -0.191751162040E+03    0.75347E-01   -0.15619E-01 12240   0.311E+00    0.707E-01
DAV:   4    -0.191753603460E+03   -0.24414E-02   -0.26864E-02 11560   0.121E+00    0.923E-01
DAV:   5    -0.191744045920E+03    0.95575E-02   -0.15188E-02 11640   0.996E-01    0.280E-01
DAV:   6    -0.191745266286E+03   -0.12204E-02   -0.72827E-03 11560   0.493E-01    0.421E-01
DAV:   7    -0.191744245193E+03    0.10211E-02   -0.69123E-03 11360   0.610E-01    0.326E-01
DAV:   8    -0.191743004931E+03    0.12403E-02   -0.20933E-03 10480   0.301E-01    0.403E-02
DAV:   9    -0.191743014857E+03   -0.99259E-05   -0.19563E-04  7320   0.456E-02
  26 F= -.19174301E+03 E0= -.19164835E+03  d E =-.126040E+00
       N       E                     dE             d eps       ncg     rms          rms(c)
DAV:   1    -0.191854460608E+03   -0.11146E+00   -0.64859E+01  8160   0.173E+01    0.198E+00
DAV:   2    -0.192239889025E+03   -0.38543E+00   -0.25021E+00 13240   0.735E+00    0.531E+00
DAV:   3    -0.191996305323E+03    0.24358E+00   -0.63827E-01 12160   0.633E+00    0.158E+00
DAV:   4    -0.191995084184E+03    0.12211E-02   -0.11480E-01 11400   0.264E+00    0.181E+00
DAV:   5    -0.191954880460E+03    0.40204E-01   -0.63220E-02 11680   0.212E+00    0.636E-01
DAV:   6    -0.191966338643E+03   -0.11458E-01   -0.49015E-02 12480   0.144E+00    0.123E+00
DAV:   7    -0.191950911231E+03    0.15427E-01   -0.33135E-02 12240   0.141E+00    0.383E-01
DAV:   8    -0.191948851935E+03    0.20593E-02   -0.44813E-03 11200   0.363E-01    0.946E-02
DAV:   9    -0.191948701003E+03    0.15093E-03   -0.87844E-04 11000   0.956E-02    0.507E-02
DAV:  10    -0.191948673418E+03    0.27585E-04   -0.29714E-04  9400   0.522E-02
  27 F= -.19194867E+03 E0= -.19185905E+03  d E =-.205659E+00
       N       E                     dE             d eps       ncg     rms          rms(c)
DAV:   1    -0.191976063802E+03   -0.27363E-01   -0.47309E+00  8160   0.456E+00    0.484E-01
DAV:   2    -0.191993872339E+03   -0.17809E-01   -0.21463E-01 12080   0.139E+00    0.519E-01
DAV:   3    -0.191996752043E+03   -0.28797E-02   -0.23481E-02 12360   0.118E+00    0.744E-01
DAV:   4    -0.191990373399E+03    0.63786E-02   -0.86137E-03 11800   0.767E-01    0.175E-01
DAV:   5    -0.191990849120E+03   -0.47572E-03   -0.26468E-03 11480   0.371E-01    0.268E-01
DAV:   6    -0.191990362939E+03    0.48618E-03   -0.27462E-03 12720   0.402E-01    0.171E-01
DAV:   7    -0.191990118833E+03    0.24411E-03   -0.11957E-03 10040   0.231E-01    0.122E-01
DAV:   8    -0.191989978144E+03    0.14069E-03   -0.37352E-04  9120   0.148E-01    0.398E-02
DAV:   9    -0.191989962286E+03    0.15858E-04   -0.58039E-05  5960   0.424E-02
  28 F= -.19198996E+03 E0= -.19190171E+03  d E =-.412889E-01
       N       E                     dE             d eps       ncg     rms          rms(c)
DAV:   1    -0.191997831383E+03   -0.78532E-02   -0.22101E-01  8160   0.108E+00    0.230E-01
DAV:   2    -0.191998386344E+03   -0.55496E-03   -0.14225E-02 11680   0.553E-01    0.356E-01
DAV:   3    -0.191997334878E+03    0.10515E-02   -0.39976E-03 11320   0.540E-01    0.200E-01
DAV:   4    -0.191996889982E+03    0.44490E-03   -0.15474E-03 11040   0.285E-01    0.153E-01
DAV:   5    -0.191996884147E+03    0.58344E-05   -0.12681E-03 10280   0.283E-01    0.167E-01
DAV:   6    -0.191996537431E+03    0.34672E-03   -0.61697E-04  9360   0.187E-01    0.320E-02
DAV:   7    -0.191996529751E+03    0.76800E-05   -0.65016E-05  5840   0.378E-02
  29 F= -.19199653E+03 E0= -.19190818E+03  d E =-.656747E-02
       N       E                     dE             d eps       ncg     rms          rms(c)
DAV:   1    -0.192008036321E+03   -0.11499E-01   -0.83768E-01  8160   0.193E+00    0.206E-01
DAV:   2    -0.192010534157E+03   -0.24978E-02   -0.33234E-02 11600   0.534E-01    0.205E-01
DAV:   3    -0.192011190777E+03   -0.65662E-03   -0.40416E-03 12640   0.491E-01    0.323E-01
DAV:   4    -0.192009976832E+03    0.12139E-02   -0.17379E-03 10040   0.336E-01    0.696E-02
DAV:   5    -0.192010154980E+03   -0.17815E-03   -0.60684E-04  9280   0.170E-01    0.144E-01
DAV:   6    -0.192009981478E+03    0.17350E-03   -0.56895E-04  9120   0.189E-01    0.653E-02
DAV:   7    -0.192009938761E+03    0.42717E-04   -0.12932E-04  5840   0.790E-02
  30 F= -.19200994E+03 E0= -.19192236E+03  d E =-.134090E-01
       N       E                     dE             d eps       ncg     rms          rms(c)
DAV:   1    -0.192016888247E+03   -0.69068E-02   -0.27414E-01  8160   0.113E+00    0.165E-01
DAV:   2    -0.192017753775E+03   -0.86553E-03   -0.13794E-02 11040   0.408E-01    0.209E-01
DAV:   3    -0.192017599836E+03    0.15394E-03   -0.21232E-03 12120   0.382E-01    0.180E-01
DAV:   4    -0.192017207128E+03    0.39271E-03   -0.76119E-04 10120   0.222E-01    0.895E-02
DAV:   5    -0.192017223390E+03   -0.16262E-04   -0.46731E-04  8960   0.174E-01
  31 F= -.19201722E+03 E0= -.19192989E+03  d E =-.728463E-02
       N       E                     dE             d eps       ncg     rms          rms(c)
DAV:   1    -0.192032120202E+03   -0.14913E-01   -0.29019E+00  8160   0.365E+00    0.468E-01
DAV:   2    -0.192041372292E+03   -0.92521E-02   -0.12217E-01 11760   0.117E+00    0.650E-01
DAV:   3    -0.192040000251E+03    0.13720E-02   -0.20762E-02 12440   0.116E+00    0.559E-01
DAV:   4    -0.192035843109E+03    0.41571E-02   -0.58222E-03 11720   0.598E-01    0.155E-01
DAV:   5    -0.192036287122E+03   -0.44401E-03   -0.25288E-03 11800   0.360E-01    0.258E-01
DAV:   6    -0.192035596563E+03    0.69056E-03   -0.19414E-03 12000   0.377E-01    0.111E-01
DAV:   7    -0.192035422050E+03    0.17451E-03   -0.39152E-04  8760   0.132E-01    0.509E-02
DAV:   8    -0.192035412414E+03    0.96352E-05   -0.12774E-04  8080   0.882E-02
  32 F= -.19203541E+03 E0= -.19194866E+03  d E =-.181890E-01
       N       E                     dE             d eps       ncg     rms          rms(c)
DAV:   1    -0.192038487867E+03   -0.30658E-02   -0.11065E-01  8160   0.737E-01    0.147E-01
DAV:   2    -0.192039578394E+03   -0.10905E-02   -0.80199E-03 11240   0.477E-01    0.327E-01
DAV:   3    -0.192038458215E+03    0.11202E-02   -0.24033E-03 11440   0.412E-01    0.104E-01
DAV:   4    -0.192038390853E+03    0.67363E-04   -0.46206E-04  8400   0.167E-01
  33 F= -.19203839E+03 E0= -.19195223E+03  d E =-.297844E-02
       N       E                     dE             d eps       ncg     rms          rms(c)
DAV:   1    -0.192042603475E+03   -0.41453E-02   -0.30388E-01  8160   0.118E+00    0.151E-01
DAV:   2    -0.192043951124E+03   -0.13476E-02   -0.14060E-02 11240   0.383E-01    0.227E-01
DAV:   3    -0.192043657918E+03    0.29321E-03   -0.25220E-03 12600   0.399E-01    0.183E-01
DAV:   4    -0.192043373571E+03    0.28435E-03   -0.69780E-04  9000   0.203E-01    0.100E-01
DAV:   5    -0.192043296243E+03    0.77328E-04   -0.29800E-04  8760   0.150E-01
  34 F= -.19204330E+03 E0= -.19195750E+03  d E =-.490539E-02
       N       E                     dE             d eps       ncg     rms          rms(c)
DAV:   1    -0.192044665419E+03   -0.12918E-02   -0.25208E-02  8160   0.347E-01    0.650E-02
DAV:   2    -0.192044841806E+03   -0.17639E-03   -0.13998E-03 11520   0.192E-01    0.126E-01
DAV:   3    -0.192044678392E+03    0.16341E-03   -0.43271E-04  9120   0.179E-01    0.609E-02
DAV:   4    -0.192044647552E+03    0.30840E-04   -0.10956E-04  5960   0.848E-02
  35 F= -.19204465E+03 E0= -.19195912E+03  d E =-.135131E-02
       N       E                     dE             d eps       ncg     rms          rms(c)
DAV:   1    -0.192051090734E+03   -0.64123E-02   -0.12255E+00  8160   0.238E+00    0.293E-01
DAV:   2    -0.192053839317E+03   -0.27486E-02   -0.50903E-02 11280   0.596E-01    0.180E-01
DAV:   3    -0.192053995611E+03   -0.15629E-03   -0.32156E-03 11760   0.388E-01    0.268E-01
DAV:   4    -0.192053351103E+03    0.64451E-03   -0.22811E-03 11720   0.412E-01    0.174E-01
DAV:   5    -0.192053269519E+03    0.81584E-04   -0.13690E-03  9800   0.262E-01    0.159E-01
DAV:   6    -0.192053104587E+03    0.16493E-03   -0.86649E-04 10560   0.243E-01    0.993E-02
DAV:   7    -0.192052966117E+03    0.13847E-03   -0.20942E-04  6840   0.107E-01    0.240E-02
DAV:   8    -0.192052967837E+03   -0.17203E-05   -0.60371E-05  6840   0.495E-02
  36 F= -.19205297E+03 E0= -.19196782E+03  d E =-.832028E-02
       N       E                     dE             d eps       ncg     rms          rms(c)
DAV:   1    -0.192053134208E+03   -0.16809E-03   -0.17230E-02  8240   0.307E-01    0.758E-02
DAV:   2    -0.192053343162E+03   -0.20895E-03   -0.12812E-03 11720   0.240E-01    0.171E-01
DAV:   3    -0.192053010035E+03    0.33313E-03   -0.50677E-04  8960   0.202E-01    0.462E-02
DAV:   4    -0.192053053975E+03   -0.43940E-04   -0.21816E-04  6880   0.114E-01
  37 F= -.19205305E+03 E0= -.19196803E+03  d E =-.861380E-04
       N       E                     dE             d eps       ncg     rms          rms(c)
DAV:   1    -0.192057477195E+03   -0.44672E-02   -0.62056E-01  8160   0.168E+00    0.201E-01
DAV:   2    -0.192059572754E+03   -0.20956E-02   -0.25333E-02 11400   0.522E-01    0.250E-01
DAV:   3    -0.192059379921E+03    0.19283E-03   -0.32714E-03 12120   0.471E-01    0.230E-01
DAV:   4    -0.192058862122E+03    0.51780E-03   -0.12691E-03 10640   0.284E-01    0.123E-01
DAV:   5    -0.192058807749E+03    0.54373E-04   -0.62348E-04  9360   0.210E-01
  38 F= -.19205881E+03 E0= -.19197445E+03  d E =-.575377E-02
       N       E                     dE             d eps       ncg     rms          rms(c)
DAV:   1    -0.192056668145E+03    0.21940E-02   -0.77421E-02  8160   0.606E-01    0.749E-02
DAV:   2    -0.192057071741E+03   -0.40360E-03   -0.39963E-03 11360   0.194E-01    0.961E-02
DAV:   3    -0.192056898385E+03    0.17336E-03   -0.67628E-04 10280   0.150E-01    0.691E-02
DAV:   4    -0.192056858032E+03    0.40353E-04   -0.13489E-04  6000   0.999E-02
  39 F= -.19205686E+03 E0= -.19197221E+03  d E =0.194972E-02
       N       E                     dE             d eps       ncg     rms          rms(c)
DAV:   1    -0.192056434740E+03    0.46365E-03   -0.85089E-03  8240   0.218E-01    0.519E-02
DAV:   2    -0.192056436884E+03   -0.21441E-05   -0.47882E-04 10640   0.109E-01
  40 F= -.19205644E+03 E0= -.19197146E+03  d E =0.421148E-03
       N       E                     dE             d eps       ncg     rms          rms(c)
DAV:   1    -0.192059438081E+03   -0.30033E-02   -0.24956E-01  8160   0.108E+00    0.134E-01
DAV:   2    -0.192060971381E+03   -0.15333E-02   -0.10477E-02 12720   0.447E-01    0.303E-01
DAV:   3    -0.192059975040E+03    0.99634E-03   -0.23024E-03 11320   0.403E-01    0.104E-01
DAV:   4    -0.192059867974E+03    0.10707E-03   -0.29727E-04  8440   0.120E-01    0.526E-02
DAV:   5    -0.192059856552E+03    0.11422E-04   -0.10970E-04  6600   0.930E-02
  41 F= -.19205986E+03 E0= -.19197559E+03  d E =-.341967E-02
       N       E                     dE             d eps       ncg     rms          rms(c)
DAV:   1    -0.192061604883E+03   -0.17369E-02   -0.61374E-02  8160   0.537E-01    0.946E-02
DAV:   2    -0.192062206405E+03   -0.60152E-03   -0.31420E-03 11840   0.334E-01    0.221E-01
DAV:   3    -0.192061601154E+03    0.60525E-03   -0.89132E-04 10440   0.272E-01    0.479E-02
DAV:   4    -0.192061603039E+03   -0.18844E-05   -0.10418E-04  5680   0.732E-02
  42 F= -.19206160E+03 E0= -.19197762E+03  d E =-.174649E-02
       N       E                     dE             d eps       ncg     rms          rms(c)
DAV:   1    -0.192064100228E+03   -0.24991E-02   -0.12071E-01  8160   0.755E-01    0.117E-01
DAV:   2    -0.192065477450E+03   -0.13772E-02   -0.62481E-03 13040   0.422E-01    0.330E-01
DAV:   3    -0.192064269452E+03    0.12080E-02   -0.21187E-03 11040   0.385E-01    0.731E-02
DAV:   4    -0.192064248812E+03    0.20640E-04   -0.15424E-04  6120   0.860E-02
  43 F= -.19206425E+03 E0= -.19198037E+03  d E =-.264577E-02
       N       E                     dE             d eps       ncg     rms          rms(c)
DAV:   1    -0.192061491036E+03    0.27784E-02   -0.12431E-01  8160   0.772E-01    0.121E-01
DAV:   2    -0.192063009856E+03   -0.15188E-02   -0.69411E-03 12280   0.483E-01    0.343E-01
DAV:   3    -0.192061611632E+03    0.13982E-02   -0.21343E-03 11040   0.402E-01    0.661E-02
DAV:   4    -0.192061598389E+03    0.13243E-04   -0.24347E-04  8240   0.108E-01
  44 F= -.19206160E+03 E0= -.19197754E+03  d E =0.265042E-02
       N       E                     dE             d eps       ncg     rms          rms(c)
DAV:   1    -0.192066207668E+03   -0.45960E-02   -0.40801E-01  8160   0.139E+00    0.203E-01
DAV:   2    -0.192068503694E+03   -0.22960E-02   -0.19243E-02 12600   0.649E-01    0.407E-01
DAV:   3    -0.192066831278E+03    0.16724E-02   -0.46039E-03 12200   0.567E-01    0.171E-01
DAV:   4    -0.192066683177E+03    0.14810E-03   -0.11882E-03 10160   0.264E-01    0.156E-01
DAV:   5    -0.192066471568E+03    0.21161E-03   -0.73911E-04 10480   0.234E-01    0.981E-02
DAV:   6    -0.192066382365E+03    0.89203E-04   -0.38072E-04  8080   0.128E-01
  45 F= -.19206638E+03 E0= -.19198255E+03  d E =-.478398E-02
       N       E                     dE             d eps       ncg     rms          rms(c)
DAV:   1    -0.192068007009E+03   -0.15354E-02   -0.49150E-02  8160   0.489E-01    0.860E-02
DAV:   2    -0.192068826096E+03   -0.81909E-03   -0.32346E-03 12280   0.342E-01    0.262E-01
DAV:   3    -0.192068040583E+03    0.78551E-03   -0.13790E-03 10200   0.307E-01    0.501E-02
DAV:   4    -0.192068042884E+03   -0.23011E-05   -0.86925E-05  5680   0.689E-02
  46 F= -.19206804E+03 E0= -.19198443E+03  d E =-.166052E-02
       N       E                     dE             d eps       ncg     rms          rms(c)
DAV:   1    -0.192066956501E+03    0.10841E-02   -0.19122E-02  8160   0.310E-01    0.468E-02
DAV:   2    -0.192067344112E+03   -0.38761E-03   -0.11877E-03 12520   0.219E-01    0.173E-01
DAV:   3    -0.192066981871E+03    0.36224E-03   -0.45880E-04  8800   0.189E-01    0.195E-02
DAV:   4    -0.192066996837E+03   -0.14966E-04   -0.35281E-05  5720   0.415E-02
  47 F= -.19206700E+03 E0= -.19198333E+03  d E =0.104605E-02
       N       E                     dE             d eps       ncg     rms          rms(c)
DAV:   1    -0.192061571575E+03    0.54103E-02   -0.50359E-01  8160   0.154E+00    0.214E-01
DAV:   2    -0.192064673468E+03   -0.31019E-02   -0.19792E-02 12680   0.716E-01    0.463E-01
DAV:   3    -0.192062196372E+03    0.24771E-02   -0.47418E-03 12080   0.604E-01    0.144E-01
DAV:   4    -0.192062179116E+03    0.17256E-04   -0.10003E-03 10080   0.233E-01    0.153E-01
DAV:   5    -0.192061973596E+03    0.20552E-03   -0.68782E-04 10040   0.234E-01    0.955E-02
DAV:   6    -0.192061916901E+03    0.56695E-04   -0.32331E-04  8600   0.124E-01
  48 F= -.19206192E+03 E0= -.19197795E+03  d E =0.507994E-02
       N       E                     dE             d eps       ncg     rms          rms(c)
DAV:   1    -0.192052177406E+03    0.97962E-02   -0.13990E+00  8160   0.256E+00    0.322E-01
DAV:   2    -0.192056660114E+03   -0.44827E-02   -0.50294E-02 12280   0.800E-01    0.447E-01
DAV:   3    -0.192055445400E+03    0.12147E-02   -0.86375E-03 12080   0.786E-01    0.338E-01
DAV:   4    -0.192054385008E+03    0.10604E-02   -0.28206E-03 12000   0.419E-01    0.196E-01
DAV:   5    -0.192054198413E+03    0.18660E-03   -0.15272E-03 10520   0.325E-01    0.168E-01
DAV:   6    -0.192054063620E+03    0.13479E-03   -0.10573E-03 10520   0.228E-01    0.956E-02
DAV:   7    -0.192053982551E+03    0.81069E-04   -0.46135E-04  9000   0.149E-01
  49 F= -.19205398E+03 E0= -.19196970E+03  d E =0.793435E-02
       N       E                     dE             d eps       ncg     rms          rms(c)
DAV:   1    -0.192061997544E+03   -0.79339E-02   -0.22437E+00  8160   0.324E+00    0.418E-01
DAV:   2    -0.192072009201E+03   -0.10012E-01   -0.83358E-02 11880   0.124E+00    0.750E-01
DAV:   3    -0.192065946299E+03    0.60629E-02   -0.15698E-02 11880   0.108E+00    0.340E-01
DAV:   4    -0.192065098203E+03    0.84810E-03   -0.40515E-03 11400   0.475E-01    0.263E-01
DAV:   5    -0.192064650992E+03    0.44721E-03   -0.25118E-03 11760   0.435E-01    0.199E-01
DAV:   6    -0.192064398776E+03    0.25222E-03   -0.14060E-03 10840   0.260E-01    0.101E-01
DAV:   7    -0.192064292494E+03    0.10628E-03   -0.61040E-04  9120   0.161E-01    0.907E-02
DAV:   8    -0.192064207906E+03    0.84588E-04   -0.18394E-04  7480   0.113E-01
  50 F= -.19206421E+03 E0= -.19198028E+03  d E =-.102254E-01
       N       E                     dE             d eps       ncg     rms          rms(c)
DAV:   1    -0.192058540341E+03    0.57522E-02   -0.64166E-01  8160   0.173E+00    0.214E-01
DAV:   2    -0.192060583137E+03   -0.20428E-02   -0.22415E-02 11720   0.557E-01    0.320E-01
DAV:   3    -0.192059960221E+03    0.62292E-03   -0.45488E-03 11960   0.537E-01    0.238E-01
DAV:   4    -0.192059494709E+03    0.46551E-03   -0.15185E-03 10360   0.295E-01    0.144E-01
DAV:   5    -0.192059336849E+03    0.15786E-03   -0.69487E-04  9840   0.227E-01    0.105E-01
DAV:   6    -0.192059280957E+03    0.55892E-04   -0.43467E-04  9200   0.152E-01
  51 F= -.19205928E+03 E0= -.19197492E+03  d E =0.492695E-02
       N       E                     dE             d eps       ncg     rms          rms(c)
DAV:   1    -0.192061092901E+03   -0.17561E-02   -0.10208E-01  8160   0.689E-01    0.940E-02
DAV:   2    -0.192061778411E+03   -0.68551E-03   -0.44566E-03 12720   0.319E-01    0.222E-01
DAV:   3    -0.192061251146E+03    0.52726E-03   -0.13517E-03 10080   0.289E-01    0.795E-02
DAV:   4    -0.192061202841E+03    0.48305E-04   -0.18840E-04  5920   0.103E-01
  52 F= -.19206120E+03 E0= -.19197711E+03  d E =-.192188E-02
       N       E                     dE             d eps       ncg     rms          rms(c)
DAV:   1    -0.192062017275E+03   -0.76613E-03   -0.15251E-02  8160   0.281E-01    0.612E-02
DAV:   2    -0.192062450457E+03   -0.43318E-03   -0.12351E-03 12680   0.244E-01    0.192E-01
DAV:   3    -0.192062003158E+03    0.44730E-03   -0.62922E-04  9080   0.220E-01    0.368E-02
DAV:   4    -0.192062026537E+03   -0.23379E-04   -0.78167E-05  5680   0.719E-02
  53 F= -.19206203E+03 E0= -.19197812E+03  d E =-.823696E-03
       N       E                     dE             d eps       ncg     rms          rms(c)
DAV:   1    -0.192063936889E+03   -0.19337E-02   -0.99208E-02  8160   0.683E-01    0.906E-02
DAV:   2    -0.192064257901E+03   -0.32101E-03   -0.37655E-03 12200   0.207E-01    0.130E-01
DAV:   3    -0.192064181995E+03    0.75906E-04   -0.91543E-04 10680   0.232E-01
  54 F= -.19206418E+03 E0= -.19198034E+03  d E =-.215546E-02
       N       E                     dE             d eps       ncg     rms          rms(c)
DAV:   1    -0.192063308571E+03    0.94933E-03   -0.21526E-02  8640   0.342E-01    0.641E-02
DAV:   2    -0.192064155815E+03   -0.84724E-03   -0.20732E-03 11480   0.327E-01    0.268E-01
DAV:   3    -0.192063324023E+03    0.83179E-03   -0.11039E-03  9560   0.279E-01    0.297E-02
DAV:   4    -0.192063334806E+03   -0.10783E-04   -0.52693E-05  5440   0.479E-02
  55 F= -.19206333E+03 E0= -.19197935E+03  d E =0.847189E-03
       N       E                     dE             d eps       ncg     rms          rms(c)
DAV:   1    -0.192061968712E+03    0.13553E-02   -0.10199E-01  8160   0.690E-01    0.131E-01
DAV:   2    -0.192064645141E+03   -0.26764E-02   -0.73368E-03 12160   0.622E-01    0.492E-01
DAV:   3    -0.192061872964E+03    0.27722E-02   -0.38018E-03 11280   0.513E-01    0.554E-02
DAV:   4    -0.192061962938E+03   -0.89974E-04   -0.27796E-04  8000   0.132E-01
  56 F= -.19206196E+03 E0= -.19197772E+03  d E =0.137187E-02
       N       E                     dE             d eps       ncg     rms          rms(c)
DAV:   1    -0.192060464845E+03    0.14081E-02   -0.50815E-02  8160   0.502E-01    0.852E-02
DAV:   2    -0.192061114692E+03   -0.64985E-03   -0.28211E-03 12720   0.296E-01    0.239E-01
DAV:   3    -0.192060491631E+03    0.62306E-03   -0.12433E-03 10200   0.278E-01    0.606E-02
DAV:   4    -0.192060469654E+03    0.21976E-04   -0.11864E-04  5480   0.663E-02
  57 F= -.19206047E+03 E0= -.19197641E+03  d E =0.149328E-02
       N       E                     dE             d eps       ncg     rms          rms(c)
DAV:   1    -0.192061295414E+03   -0.80378E-03   -0.22711E-02  8160   0.325E-01    0.465E-02
DAV:   2    -0.192061570124E+03   -0.27471E-03   -0.11468E-03 12560   0.194E-01    0.134E-01
DAV:   3    -0.192061333973E+03    0.23615E-03   -0.30333E-04  8920   0.159E-01    0.219E-02
DAV:   4    -0.192061339860E+03   -0.58874E-05   -0.35370E-05  6000   0.417E-02
  58 F= -.19206134E+03 E0= -.19197720E+03  d E =-.870206E-03
       N       E                     dE             d eps       ncg     rms          rms(c)
DAV:   1    -0.192063797278E+03   -0.24633E-02   -0.24891E-01  8160   0.107E+00    0.218E-01
DAV:   2    -0.192072591155E+03   -0.87939E-02   -0.21995E-02 11720   0.109E+00    0.903E-01
DAV:   3    -0.192063600895E+03    0.89903E-02   -0.12844E-02 11200   0.923E-01    0.772E-02
DAV:   4    -0.192063684488E+03   -0.83593E-04   -0.55255E-04  9720   0.144E-01
  59 F= -.19206368E+03 E0= -.19197983E+03  d E =-.234463E-02
       N       E                     dE             d eps       ncg     rms          rms(c)
DAV:   1    -0.192062817020E+03    0.78387E-03   -0.17100E-02  8960   0.318E-01    0.824E-02
DAV:   2    -0.192064001856E+03   -0.11848E-02   -0.24775E-03 12440   0.409E-01    0.317E-01
DAV:   3    -0.192062764380E+03    0.12375E-02   -0.13558E-03 10000   0.341E-01    0.345E-02
DAV:   4    -0.192062790717E+03   -0.26337E-04   -0.62268E-05  5520   0.660E-02
  60 F= -.19206279E+03 E0= -.19197869E+03  d E =0.893771E-03
       N       E                     dE             d eps       ncg     rms          rms(c)
DAV:   1    -0.192065365178E+03   -0.26008E-02   -0.17181E-01  8160   0.896E-01    0.116E-01
DAV:   2    -0.192065966954E+03   -0.60178E-03   -0.70716E-03 11920   0.280E-01    0.166E-01
DAV:   3    -0.192065854852E+03    0.11210E-03   -0.15950E-03 11120   0.303E-01    0.150E-01
DAV:   4    -0.192065625659E+03    0.22919E-03   -0.44230E-04  8480   0.161E-01    0.530E-02
DAV:   5    -0.192065603585E+03    0.22074E-04   -0.12037E-04  6400   0.793E-02
  61 F= -.19206560E+03 E0= -.19198172E+03  d E =-.281287E-02
       N       E                     dE             d eps       ncg     rms          rms(c)
DAV:   1    -0.192065670618E+03   -0.44959E-04   -0.18673E-04  8080   0.103E-01    0.508E-02
DAV:   2    -0.192066174718E+03   -0.50410E-03   -0.88367E-04 11040   0.267E-01    0.207E-01
DAV:   3    -0.192065632581E+03    0.54214E-03   -0.57114E-04  8960   0.220E-01    0.210E-02
DAV:   4    -0.192065640010E+03   -0.74289E-05   -0.19662E-05  5600   0.300E-02
  62 F= -.19206564E+03 E0= -.19198173E+03  d E =-.364250E-04
       N       E                     dE             d eps       ncg     rms          rms(c)
DAV:   1    -0.192067470649E+03   -0.18381E-02   -0.93556E-02  8160   0.663E-01    0.858E-02
DAV:   2    -0.192067825917E+03   -0.35527E-03   -0.30022E-03 12680   0.235E-01    0.155E-01
DAV:   3    -0.192067584325E+03    0.24159E-03   -0.74489E-04 10280   0.228E-01    0.773E-02
DAV:   4    -0.192067551316E+03    0.33009E-04   -0.16419E-04  5960   0.104E-01
  63 F= -.19206755E+03 E0= -.19198361E+03  d E =-.191131E-02
       N       E                     dE             d eps       ncg     rms          rms(c)
DAV:   1    -0.192067440017E+03    0.14431E-03   -0.22789E-03 11280   0.157E-01    0.513E-02
DAV:   2    -0.192067929712E+03   -0.48969E-03   -0.97179E-04 10800   0.264E-01    0.206E-01
DAV:   3    -0.192067407024E+03    0.52269E-03   -0.61064E-04  8520   0.221E-01    0.242E-02
DAV:   4    -0.192067419462E+03   -0.12439E-04   -0.31561E-05  5520   0.439E-02
  64 F= -.19206742E+03 E0= -.19198369E+03  d E =0.131854E-03
       N       E                     dE             d eps       ncg     rms          rms(c)
DAV:   1    -0.192066367543E+03    0.10395E-02   -0.48971E-02  8160   0.490E-01    0.819E-02
DAV:   2    -0.192066514503E+03   -0.14696E-03   -0.18778E-03 12280   0.194E-01    0.137E-01
DAV:   3    -0.192066344576E+03    0.16993E-03   -0.61989E-04  9600   0.213E-01    0.823E-02
DAV:   4    -0.192066275873E+03    0.68702E-04   -0.17140E-04  5880   0.100E-01
  65 F= -.19206628E+03 E0= -.19198279E+03  d E =0.114359E-02
       N       E                     dE             d eps       ncg     rms          rms(c)
DAV:   1    -0.192068145071E+03   -0.18005E-02   -0.90053E-02  8160   0.650E-01    0.970E-02
DAV:   2    -0.192069160099E+03   -0.10150E-02   -0.48205E-03 12320   0.366E-01    0.265E-01
DAV:   3    -0.192068314775E+03    0.84532E-03   -0.14140E-03 10440   0.320E-01    0.633E-02
DAV:   4    -0.192068350449E+03   -0.35674E-04   -0.23628E-04  7040   0.122E-01
  66 F= -.19206835E+03 E0= -.19198488E+03  d E =-.207458E-02
       N       E                     dE             d eps       ncg     rms          rms(c)
DAV:   1    -0.192065398470E+03    0.29163E-02   -0.15162E-01  8160   0.871E-01    0.119E-01
DAV:   2    -0.192065684262E+03   -0.28579E-03   -0.57893E-03 11880   0.225E-01    0.121E-01
DAV:   3    -0.192065718569E+03   -0.34308E-04   -0.10830E-03 11040   0.269E-01    0.150E-01
DAV:   4    -0.192065451145E+03    0.26742E-03   -0.41482E-04  8840   0.176E-01    0.521E-02
DAV:   5    -0.192065474468E+03   -0.23322E-04   -0.20290E-04  7080   0.118E-01
  67 F= -.19206547E+03 E0= -.19198201E+03  d E =0.287598E-02
       N       E                     dE             d eps       ncg     rms          rms(c)
DAV:   1    -0.192060586138E+03    0.48650E-02   -0.40233E-01  8160   0.138E+00    0.179E-01
DAV:   2    -0.192061487621E+03   -0.90148E-03   -0.13981E-02 11480   0.370E-01    0.197E-01
DAV:   3    -0.192061559584E+03   -0.71964E-04   -0.23414E-03 12160   0.411E-01    0.221E-01
DAV:   4    -0.192061017417E+03    0.54217E-03   -0.96499E-04 10200   0.261E-01    0.973E-02
DAV:   5    -0.192061038799E+03   -0.21381E-04   -0.47213E-04  9480   0.186E-01
  68 F= -.19206104E+03 E0= -.19197749E+03  d E =0.443567E-02
       N       E                     dE             d eps       ncg     rms          rms(c)
DAV:   1    -0.192071428578E+03   -0.10411E-01   -0.34059E+00  8160   0.402E+00    0.501E-01
DAV:   2    -0.192078105157E+03   -0.66766E-02   -0.11757E-01 12120   0.950E-01    0.449E-01
DAV:   3    -0.192080623373E+03   -0.25182E-02   -0.17881E-02 12320   0.107E+00    0.705E-01
DAV:   4    -0.192075218606E+03    0.54048E-02   -0.99081E-03 12320   0.846E-01    0.251E-01
DAV:   5    -0.192075168113E+03    0.50493E-04   -0.37879E-03 11080   0.447E-01    0.271E-01
DAV:   6    -0.192074627194E+03    0.54092E-03   -0.24045E-03 11560   0.415E-01    0.159E-01
DAV:   7    -0.192074336655E+03    0.29054E-03   -0.80659E-04 10640   0.202E-01    0.792E-02
DAV:   8    -0.192074285127E+03    0.51528E-04   -0.23873E-04  8960   0.124E-01
  69 F= -.19207429E+03 E0= -.19199123E+03  d E =-.132463E-01
       N       E                     dE             d eps       ncg     rms          rms(c)
DAV:   1    -0.192074635935E+03   -0.29928E-03   -0.23107E-02  8160   0.333E-01    0.801E-02
DAV:   2    -0.192075548514E+03   -0.91258E-03   -0.25331E-03 12120   0.377E-01    0.296E-01
DAV:   3    -0.192074556925E+03    0.99159E-03   -0.13355E-03  9840   0.306E-01    0.307E-02
DAV:   4    -0.192074556918E+03    0.75179E-08   -0.57643E-05  5680   0.398E-02
  70 F= -.19207456E+03 E0= -.19199150E+03  d E =-.271791E-03
       N       E                     dE             d eps       ncg     rms          rms(c)
DAV:   1    -0.192077551965E+03   -0.29950E-02   -0.17596E-01  8160   0.906E-01    0.107E-01
DAV:   2    -0.192078017302E+03   -0.46534E-03   -0.61029E-03 11440   0.238E-01    0.129E-01
DAV:   3    -0.192078064065E+03   -0.46764E-04   -0.10914E-03 11240   0.263E-01    0.151E-01
DAV:   4    -0.192077817224E+03    0.24684E-03   -0.37081E-04  8200   0.156E-01    0.392E-02
DAV:   5    -0.192077830323E+03   -0.13099E-04   -0.93929E-05  6360   0.668E-02
  71 F= -.19207783E+03 E0= -.19199521E+03  d E =-.327341E-02
       N       E                     dE             d eps       ncg     rms          rms(c)
DAV:   1    -0.192071978878E+03    0.58383E-02   -0.45448E-01  8160   0.145E+00    0.191E-01
DAV:   2    -0.192074758557E+03   -0.27797E-02   -0.19574E-02 12440   0.605E-01    0.419E-01
DAV:   3    -0.192072939447E+03    0.18191E-02   -0.51470E-03 12000   0.568E-01    0.164E-01
DAV:   4    -0.192072709846E+03    0.22960E-03   -0.80863E-04  9760   0.189E-01    0.960E-02
DAV:   5    -0.192072670978E+03    0.38868E-04   -0.40885E-04  9720   0.169E-01
  72 F= -.19207267E+03 E0= -.19198980E+03  d E =0.515935E-02
       N       E                     dE             d eps       ncg     rms          rms(c)
DAV:   1    -0.192055860393E+03    0.16849E-01   -0.34704E+00  8160   0.402E+00    0.517E-01
DAV:   2    -0.192071815147E+03   -0.15955E-01   -0.13435E-01 12800   0.146E+00    0.992E-01
DAV:   3    -0.192063855308E+03    0.79598E-02   -0.33272E-02 12040   0.142E+00    0.506E-01
DAV:   4    -0.192061096783E+03    0.27585E-02   -0.57122E-03 11720   0.527E-01    0.226E-01
DAV:   5    -0.192061290166E+03   -0.19338E-03   -0.29372E-03 11600   0.455E-01    0.272E-01
DAV:   6    -0.192060801791E+03    0.48837E-03   -0.22812E-03 11360   0.391E-01    0.147E-01
DAV:   7    -0.192060527098E+03    0.27469E-03   -0.78100E-04 10600   0.204E-01    0.918E-02
DAV:   8    -0.192060441690E+03    0.85409E-04   -0.20866E-04  8960   0.121E-01
  73 F= -.19206044E+03 E0= -.19197665E+03  d E =0.122293E-01
       N       E                     dE             d eps       ncg     rms          rms(c)
DAV:   1    -0.192056631041E+03    0.38961E-02   -0.41108E-01  8160   0.138E+00    0.177E-01
DAV:   2    -0.192058385247E+03   -0.17542E-02   -0.16210E-02 12280   0.490E-01    0.313E-01
DAV:   3    -0.192057648302E+03    0.73695E-03   -0.37680E-03 12160   0.481E-01    0.190E-01
DAV:   4    -0.192057299558E+03    0.34874E-03   -0.79271E-04  9960   0.204E-01    0.814E-02
DAV:   5    -0.192057308607E+03   -0.90488E-05   -0.33267E-04  9280   0.154E-01
  74 F= -.19205731E+03 E0= -.19197344E+03  d E =0.313308E-02
       N       E                     dE             d eps       ncg     rms          rms(c)
DAV:   1    -0.192061440368E+03   -0.41408E-02   -0.10126E+00  8160   0.217E+00    0.279E-01
DAV:   2    -0.192066513654E+03   -0.50733E-02   -0.42821E-02 13120   0.816E-01    0.540E-01
DAV:   3    -0.192063948483E+03    0.25652E-02   -0.10647E-02 11640   0.797E-01    0.289E-01
DAV:   4    -0.192063119661E+03    0.82882E-03   -0.21201E-03 11040   0.316E-01    0.129E-01
DAV:   5    -0.192062958272E+03    0.16139E-03   -0.79415E-04 10520   0.196E-01    0.111E-01
DAV:   6    -0.192062971265E+03   -0.12992E-04   -0.62219E-04 10960   0.213E-01
  75 F= -.19206297E+03 E0= -.19197929E+03  d E =-.566266E-02
       N       E                     dE             d eps       ncg     rms          rms(c)
DAV:   1    -0.192057199482E+03    0.57588E-02   -0.88544E-01  8160   0.204E+00    0.245E-01
DAV:   2    -0.192060185538E+03   -0.29861E-02   -0.31278E-02 11960   0.620E-01    0.375E-01
DAV:   3    -0.192059421836E+03    0.76370E-03   -0.68506E-03 12120   0.638E-01    0.293E-01
DAV:   4    -0.192058550950E+03    0.87089E-03   -0.18370E-03 11360   0.311E-01    0.114E-01
DAV:   5    -0.192058518725E+03    0.32225E-04   -0.67699E-04 10440   0.198E-01
  76 F= -.19205852E+03 E0= -.19197432E+03  d E =0.445254E-02
       N       E                     dE             d eps       ncg     rms          rms(c)
DAV:   1    -0.192060223992E+03   -0.16730E-02   -0.13844E-01  8160   0.818E-01    0.135E-01
DAV:   2    -0.192062777548E+03   -0.25536E-02   -0.94181E-03 12760   0.572E-01    0.442E-01
DAV:   3    -0.192060462596E+03    0.23150E-02   -0.36943E-03 11120   0.516E-01    0.882E-02
DAV:   4    -0.192060395012E+03    0.67584E-04   -0.34230E-04  8680   0.110E-01
  77 F= -.19206040E+03 E0= -.19197625E+03  d E =-.187629E-02
       N       E                     dE             d eps       ncg     rms          rms(c)
DAV:   1    -0.192060446230E+03    0.16365E-04   -0.24826E-03 10360   0.144E-01    0.570E-02
DAV:   2    -0.192061035213E+03   -0.58898E-03   -0.11803E-03 11360   0.288E-01    0.228E-01
DAV:   3    -0.192060402282E+03    0.63293E-03   -0.76965E-04  8840   0.242E-01    0.261E-02
DAV:   4    -0.192060416365E+03   -0.14082E-04   -0.36238E-05  5480   0.484E-02
  78 F= -.19206042E+03 E0= -.19197622E+03  d E =-.213527E-04
       N       E                     dE             d eps       ncg     rms          rms(c)
DAV:   1    -0.192061858438E+03   -0.14562E-02   -0.11208E-01  8160   0.715E-01    0.980E-02
DAV:   2    -0.192062763025E+03   -0.90459E-03   -0.53825E-03 11640   0.352E-01    0.245E-01
DAV:   3    -0.192062106125E+03    0.65690E-03   -0.13574E-03 10920   0.301E-01    0.736E-02
DAV:   4    -0.192062096892E+03    0.92324E-05   -0.19865E-04  6280   0.113E-01
  79 F= -.19206210E+03 E0= -.19197790E+03  d E =-.168053E-02
       N       E                     dE             d eps       ncg     rms          rms(c)
DAV:   1    -0.192062203165E+03   -0.97040E-04   -0.92330E-04  8520   0.117E-01    0.408E-02
DAV:   2    -0.192062395177E+03   -0.19201E-03   -0.36359E-04  9480   0.170E-01    0.126E-01
DAV:   3    -0.192062186522E+03    0.20866E-03   -0.23840E-04  7840   0.146E-01    0.223E-02
DAV:   4    -0.192062196959E+03   -0.10437E-04   -0.29463E-05  5840   0.439E-02
  80 F= -.19206220E+03 E0= -.19197812E+03  d E =-.100067E-03
       N       E                     dE             d eps       ncg     rms          rms(c)
DAV:   1    -0.192063778929E+03   -0.15924E-02   -0.99439E-02  8160   0.681E-01    0.897E-02
DAV:   2    -0.192064166861E+03   -0.38793E-03   -0.37205E-03 12360   0.231E-01    0.153E-01
DAV:   3    -0.192063977561E+03    0.18930E-03   -0.93642E-04 11240   0.240E-01    0.101E-01
DAV:   4    -0.192063885026E+03    0.92536E-04   -0.20666E-04  6400   0.111E-01
  81 F= -.19206389E+03 E0= -.19197995E+03  d E =-.168807E-02
       N       E                     dE             d eps       ncg     rms          rms(c)
DAV:   1    -0.192064255541E+03   -0.27798E-03   -0.50015E-03  8160   0.172E-01    0.491E-02
DAV:   2    -0.192064546077E+03   -0.29054E-03   -0.69093E-04 10880   0.205E-01    0.163E-01
DAV:   3    -0.192064229537E+03    0.31654E-03   -0.43873E-04  8920   0.182E-01    0.262E-02
DAV:   4    -0.192064249785E+03   -0.20247E-04   -0.50811E-05  5720   0.562E-02
  82 F= -.19206425E+03 E0= -.19198049E+03  d E =-.364759E-03
       N       E                     dE             d eps       ncg     rms          rms(c)
DAV:   1    -0.192066334333E+03   -0.21048E-02   -0.20712E-01  8160   0.992E-01    0.146E-01
DAV:   2    -0.192066814620E+03   -0.48029E-03   -0.81570E-03 10960   0.322E-01    0.197E-01
DAV:   3    -0.192066725224E+03    0.89396E-04   -0.21628E-03 11640   0.365E-01    0.191E-01
DAV:   4    -0.192066315965E+03    0.40926E-03   -0.81371E-04  8880   0.210E-01    0.571E-02
DAV:   5    -0.192066318898E+03   -0.29324E-05   -0.24080E-04  6720   0.109E-01
  83 F= -.19206632E+03 E0= -.19198289E+03  d E =-.206911E-02
       N       E                     dE             d eps       ncg     rms          rms(c)
DAV:   1    -0.192068273532E+03   -0.19576E-02   -0.19604E-01  8160   0.958E-01    0.130E-01
DAV:   2    -0.192069181890E+03   -0.90836E-03   -0.80092E-03 12440   0.359E-01    0.240E-01
DAV:   3    -0.192068668041E+03    0.51385E-03   -0.19283E-03 11840   0.354E-01    0.125E-01
DAV:   4    -0.192068565181E+03    0.10286E-03   -0.42214E-04  8640   0.157E-01    0.854E-02
DAV:   5    -0.192068509761E+03    0.55419E-04   -0.21947E-04  8080   0.136E-01
  84 F= -.19206851E+03 E0= -.19198530E+03  d E =-.219086E-02
       N       E                     dE             d eps       ncg     rms          rms(c)
DAV:   1    -0.192064774296E+03    0.37909E-02   -0.53630E-01  8160   0.160E+00    0.205E-01
DAV:   2    -0.192066604084E+03   -0.18298E-02   -0.19960E-02 12080   0.519E-01    0.334E-01
DAV:   3    -0.192065894708E+03    0.70938E-03   -0.52034E-03 11960   0.554E-01    0.247E-01
DAV:   4    -0.192065220565E+03    0.67414E-03   -0.13423E-03 10520   0.259E-01    0.785E-02
DAV:   5    -0.192065121819E+03    0.98746E-04   -0.38978E-04  8800   0.787E-02
  85 F= -.19206512E+03 E0= -.19198148E+03  d E =0.338794E-02
       N       E                     dE             d eps       ncg     rms          rms(c)
DAV:   1    -0.192060962249E+03    0.42583E-02   -0.57531E-01  8160   0.166E+00    0.233E-01
DAV:   2    -0.192063159815E+03   -0.21976E-02   -0.23515E-02 12120   0.588E-01    0.389E-01
DAV:   3    -0.192062104962E+03    0.10549E-02   -0.59795E-03 12120   0.610E-01    0.254E-01
DAV:   4    -0.192061438042E+03    0.66692E-03   -0.14755E-03 11480   0.274E-01    0.104E-01
DAV:   5    -0.192061413102E+03    0.24939E-04   -0.67824E-04 10560   0.183E-01
  86 F= -.19206141E+03 E0= -.19197713E+03  d E =0.370872E-02
       N       E                     dE             d eps       ncg     rms          rms(c)
DAV:   1    -0.192058346272E+03    0.30918E-02   -0.36033E-01  8160   0.131E+00    0.194E-01
DAV:   2    -0.192059250871E+03   -0.90460E-03   -0.13798E-02 11720   0.433E-01    0.268E-01
DAV:   3    -0.192058965253E+03    0.28562E-03   -0.32274E-03 12080   0.470E-01    0.225E-01
DAV:   4    -0.192058455917E+03    0.50934E-03   -0.12259E-03 10360   0.266E-01    0.105E-01
DAV:   5    -0.192058467269E+03   -0.11352E-04   -0.67057E-04 10040   0.213E-01
  87 F= -.19205847E+03 E0= -.19197398E+03  d E =0.294583E-02
       N       E                     dE             d eps       ncg     rms          rms(c)
DAV:   1    -0.192058834486E+03   -0.37857E-03   -0.90487E-03  8360   0.262E-01    0.616E-02
DAV:   2    -0.192059542071E+03   -0.70759E-03   -0.16129E-03 11800   0.315E-01    0.248E-01
DAV:   3    -0.192058801914E+03    0.74016E-03   -0.94686E-04  9760   0.268E-01    0.278E-02
DAV:   4    -0.192058808146E+03   -0.62314E-05   -0.52126E-05  5960   0.405E-02
  88 F= -.19205881E+03 E0= -.19197457E+03  d E =-.340877E-03
       N       E                     dE             d eps       ncg     rms          rms(c)
DAV:   1    -0.192059089200E+03   -0.28729E-03   -0.16358E-02  8160   0.281E-01    0.426E-02
DAV:   2    -0.192059152277E+03   -0.63077E-04   -0.79752E-04 11320   0.108E-01
  89 F= -.19205915E+03 E0= -.19197486E+03  d E =-.344131E-03
       N       E                     dE             d eps       ncg     rms          rms(c)
DAV:   1    -0.192061791780E+03   -0.27026E-02   -0.16284E-01  8160   0.922E-01    0.190E-01
DAV:   2    -0.192062421306E+03   -0.62953E-03   -0.89242E-03 11360   0.497E-01    0.340E-01
DAV:   3    -0.192061379269E+03    0.10420E-02   -0.35975E-03 11720   0.491E-01    0.182E-01
DAV:   4    -0.192061080924E+03    0.29835E-03   -0.12612E-03  9680   0.261E-01    0.128E-01
DAV:   5    -0.192061047359E+03    0.33564E-04   -0.73947E-04  9680   0.233E-01
  90 F= -.19206105E+03 E0= -.19197742E+03  d E =-.189508E-02
       N       E                     dE             d eps       ncg     rms          rms(c)
DAV:   1    -0.192062573533E+03   -0.14926E-02   -0.16920E-01  8160   0.887E-01    0.131E-01
DAV:   2    -0.192063506374E+03   -0.93284E-03   -0.80806E-03 12280   0.388E-01    0.257E-01
DAV:   3    -0.192062910759E+03    0.59561E-03   -0.20505E-03 11520   0.363E-01    0.125E-01
DAV:   4    -0.192062741818E+03    0.16894E-03   -0.40803E-04  8360   0.139E-01    0.514E-02
DAV:   5    -0.192062747035E+03   -0.52170E-05   -0.15623E-04  6880   0.102E-01
  91 F= -.19206275E+03 E0= -.19197942E+03  d E =-.169968E-02
       N       E                     dE             d eps       ncg     rms          rms(c)
DAV:   1    -0.192063678240E+03   -0.93642E-03   -0.36887E-02  8160   0.440E-01    0.656E-02
DAV:   2    -0.192063891534E+03   -0.21329E-03   -0.19959E-03 12320   0.169E-01    0.107E-01
DAV:   3    -0.192063776122E+03    0.11541E-03   -0.40751E-04 10000   0.175E-01    0.669E-02
DAV:   4    -0.192063736974E+03    0.39147E-04   -0.88732E-05  5880   0.807E-02
  92 F= -.19206374E+03 E0= -.19198024E+03  d E =-.989939E-03
       N       E                     dE             d eps       ncg     rms          rms(c)
DAV:   1    -0.192064339963E+03   -0.56384E-03   -0.14961E-02  8160   0.270E-01    0.553E-02
DAV:   2    -0.192064627747E+03   -0.28778E-03   -0.10513E-03 11400   0.212E-01    0.160E-01
DAV:   3    -0.192064327249E+03    0.30050E-03   -0.43439E-04  9120   0.185E-01    0.340E-02
DAV:   4    -0.192064339770E+03   -0.12521E-04   -0.61759E-05  6120   0.666E-02
  93 F= -.19206434E+03 E0= -.19198087E+03  d E =-.602796E-03
       N       E                     dE             d eps       ncg     rms          rms(c)
DAV:   1    -0.192065745461E+03   -0.14182E-02   -0.86787E-02  8160   0.639E-01    0.865E-02
DAV:   2    -0.192066108314E+03   -0.36285E-03   -0.32578E-03 12680   0.220E-01    0.148E-01
DAV:   3    -0.192065908205E+03    0.20011E-03   -0.77224E-04 10840   0.227E-01    0.874E-02
DAV:   4    -0.192065865912E+03    0.42293E-04   -0.20469E-04  6400   0.113E-01
  94 F= -.19206587E+03 E0= -.19198228E+03  d E =-.152614E-02
       N       E                     dE             d eps       ncg     rms          rms(c)
DAV:   1    -0.192065027767E+03    0.88044E-03   -0.21933E-02  8160   0.342E-01    0.497E-02
DAV:   2    -0.192065370915E+03   -0.34315E-03   -0.12630E-03 12080   0.213E-01    0.153E-01
DAV:   3    -0.192065067940E+03    0.30297E-03   -0.41294E-04  8760   0.183E-01    0.280E-02
DAV:   4    -0.192065084814E+03   -0.16874E-04   -0.58087E-05  5800   0.606E-02
  95 F= -.19206508E+03 E0= -.19198169E+03  d E =0.781098E-03
       N       E                     dE             d eps       ncg     rms          rms(c)
DAV:   1    -0.192065441619E+03   -0.37368E-03   -0.15069E-02  8160   0.284E-01    0.727E-02
DAV:   2    -0.192065458085E+03   -0.16466E-04   -0.11254E-03 11360   0.167E-01    0.114E-01
DAV:   3    -0.192065358177E+03    0.99908E-04   -0.45316E-04  8920   0.178E-01
  96 F= -.19206536E+03 E0= -.19198199E+03  d E =-.273363E-03
       N       E                     dE             d eps       ncg     rms          rms(c)
DAV:   1    -0.192065017996E+03    0.44009E-03   -0.87553E-03  8480   0.231E-01    0.713E-02
DAV:   2    -0.192065230240E+03   -0.21224E-03   -0.10480E-03 10400   0.227E-01    0.165E-01
DAV:   3    -0.192064907401E+03    0.32284E-03   -0.56322E-04  9160   0.212E-01    0.500E-02
DAV:   4    -0.192064923512E+03   -0.16111E-04   -0.15967E-04  6000   0.101E-01
  97 F= -.19206492E+03 E0= -.19198167E+03  d E =0.434665E-03
       N       E                     dE             d eps       ncg     rms          rms(c)
DAV:   1    -0.192066970927E+03   -0.20635E-02   -0.15537E-01  8160   0.858E-01    0.110E-01
DAV:   2    -0.192067213666E+03   -0.24274E-03   -0.53391E-03 11360   0.210E-01    0.885E-02
DAV:   3    -0.192067302398E+03   -0.88732E-04   -0.84566E-04 10880   0.212E-01
  98 F= -.19206730E+03 E0= -.19198418E+03  d E =-.237889E-02
       N       E                     dE             d eps       ncg     rms          rms(c)
DAV:   1    -0.192068553250E+03   -0.13396E-02   -0.58729E-02  8160   0.589E-01    0.133E-01
DAV:   2    -0.192068754612E+03   -0.20136E-03   -0.35356E-03 11600   0.305E-01    0.205E-01
DAV:   3    -0.192068328457E+03    0.42616E-03   -0.13530E-03 10520   0.312E-01    0.120E-01
DAV:   4    -0.192068259386E+03    0.69071E-04   -0.73381E-04  9480   0.193E-01
  99 F= -.19206826E+03 E0= -.19198469E+03  d E =-.956988E-03
       N       E                     dE             d eps       ncg     rms          rms(c)
DAV:   1    -0.192069225727E+03   -0.89727E-03   -0.44682E-02  8160   0.488E-01    0.113E-01
DAV:   2    -0.192070839876E+03   -0.16141E-02   -0.42796E-03 12240   0.485E-01    0.355E-01
DAV:   3    -0.192069174815E+03    0.16651E-02   -0.19967E-03 10440   0.410E-01    0.586E-02
DAV:   4    -0.192069217166E+03   -0.42352E-04   -0.27777E-04  7560   0.115E-01
 100 F= -.19206922E+03 E0= -.19198562E+03  d E =-.957780E-03
