<?xml version="1.0" encoding="ISO-8859-1"?>
<modeling>
 <generator>
  <i name="program" type="string">vasp </i>
  <i name="version" type="string">5.4.1  </i>
  <i name="subversion" type="string">05Feb16 (build Jul 05 2020 17:13:04) complex                          parallel </i>
  <i name="platform" type="string">IFC91_ompi </i>
  <i name="date" type="string">2024 04 26 </i>
  <i name="time" type="string">15:45:08 </i>
 </generator>
 <incar>
  <i type="int" name="ISTART">     0</i>
  <i type="string" name="PREC">normal</i>
  <i type="string" name="ALGO"> Normal</i>
  <i type="int" name="ISPIN">     1</i>
  <i type="int" name="ICHARG">     2</i>
  <i type="int" name="IBRION">     1</i>
  <i type="int" name="NSW">   100</i>
  <i type="int" name="ISIF">     3</i>
  <i type="int" name="ISYM">     0</i>
  <i name="SYMPREC">      0.00000001</i>
  <i name="POTIM">      0.50000000</i>
  <i type="logical" name="LREAL"> F  </i>
  <i type="logical" name="LPLANE"> F  </i>
  <i type="int" name="ISMEAR">     0</i>
  <i type="logical" name="LWAVE"> F  </i>
  <i type="logical" name="LCHARG"> F  </i>
  <v type="int" name="KPOINT_BSE">    -1     0     0     0</v>
 </incar>
 <kpoints>
  <generation param="Gamma">
   <v type="int" name="divisions">       8        8        1 </v>
   <v name="usershift">      0.00000000       0.00000000       0.00000000 </v>
   <v name="genvec1">      0.12500000       0.00000000       0.00000000 </v>
   <v name="genvec2">     -0.00000000       0.12500000       0.00000000 </v>
   <v name="genvec3">      0.00000000       0.00000000       1.00000000 </v>
   <v name="shift">      0.00000000       0.00000000       0.00000000 </v>
  </generation>
  <varray name="kpointlist" >
   <v>       0.00000000       0.00000000       0.00000000 </v>
   <v>       0.12500000       0.00000000       0.00000000 </v>
   <v>       0.25000000       0.00000000       0.00000000 </v>
   <v>       0.37500000       0.00000000       0.00000000 </v>
   <v>       0.50000000       0.00000000       0.00000000 </v>
   <v>       0.00000000       0.12500000       0.00000000 </v>
   <v>       0.12500000       0.12500000       0.00000000 </v>
   <v>       0.25000000       0.12500000       0.00000000 </v>
   <v>       0.37500000       0.12500000       0.00000000 </v>
   <v>       0.50000000       0.12500000       0.00000000 </v>
   <v>      -0.37500000       0.12500000       0.00000000 </v>
   <v>      -0.25000000       0.12500000       0.00000000 </v>
   <v>      -0.12500000       0.12500000       0.00000000 </v>
   <v>       0.00000000       0.25000000       0.00000000 </v>
   <v>       0.12500000       0.25000000       0.00000000 </v>
   <v>       0.25000000       0.25000000       0.00000000 </v>
   <v>       0.37500000       0.25000000       0.00000000 </v>
   <v>       0.50000000       0.25000000       0.00000000 </v>
   <v>      -0.37500000       0.25000000       0.00000000 </v>
   <v>      -0.25000000       0.25000000       0.00000000 </v>
   <v>      -0.12500000       0.25000000       0.00000000 </v>
   <v>      -0.00000000       0.37500000       0.00000000 </v>
   <v>       0.12500000       0.37500000       0.00000000 </v>
   <v>       0.25000000       0.37500000       0.00000000 </v>
   <v>       0.37500000       0.37500000       0.00000000 </v>
   <v>       0.50000000       0.37500000       0.00000000 </v>
   <v>      -0.37500000       0.37500000       0.00000000 </v>
   <v>      -0.25000000       0.37500000       0.00000000 </v>
   <v>      -0.12500000       0.37500000       0.00000000 </v>
   <v>       0.00000000       0.50000000       0.00000000 </v>
   <v>       0.12500000       0.50000000       0.00000000 </v>
   <v>       0.25000000       0.50000000       0.00000000 </v>
   <v>       0.37500000       0.50000000       0.00000000 </v>
   <v>       0.50000000       0.50000000       0.00000000 </v>
  </varray>
  <varray name="weights" >
   <v>       0.01562500 </v>
   <v>       0.03125000 </v>
   <v>       0.03125000 </v>
   <v>       0.03125000 </v>
   <v>       0.01562500 </v>
   <v>       0.03125000 </v>
   <v>       0.03125000 </v>
   <v>       0.03125000 </v>
   <v>       0.03125000 </v>
   <v>       0.03125000 </v>
   <v>       0.03125000 </v>
   <v>       0.03125000 </v>
   <v>       0.03125000 </v>
   <v>       0.03125000 </v>
   <v>       0.03125000 </v>
   <v>       0.03125000 </v>
   <v>       0.03125000 </v>
   <v>       0.03125000 </v>
   <v>       0.03125000 </v>
   <v>       0.03125000 </v>
   <v>       0.03125000 </v>
   <v>       0.03125000 </v>
   <v>       0.03125000 </v>
   <v>       0.03125000 </v>
   <v>       0.03125000 </v>
   <v>       0.03125000 </v>
   <v>       0.03125000 </v>
   <v>       0.03125000 </v>
   <v>       0.03125000 </v>
   <v>       0.01562500 </v>
   <v>       0.03125000 </v>
   <v>       0.03125000 </v>
   <v>       0.03125000 </v>
   <v>       0.01562500 </v>
  </varray>
 </kpoints>
 <parameters>
  <separator name="general" >
   <i type="string" name="SYSTEM">unknown system</i>
   <i type="logical" name="LCOMPAT"> F  </i>
  </separator>
  <separator name="electronic" >
   <i type="string" name="PREC">normal</i>
   <i name="ENMAX">    280.00000000</i>
   <i name="ENAUG">    373.43800000</i>
   <i name="EDIFF">      0.00010000</i>
   <i type="int" name="IALGO">    38</i>
   <i type="int" name="IWAVPR">    11</i>
   <i type="int" name="NBANDS">   120</i>
   <i name="NELECT">    159.00000000</i>
   <i type="int" name="TURBO">     0</i>
   <i type="int" name="IRESTART">     0</i>
   <i type="int" name="NREBOOT">     0</i>
   <i type="int" name="NMIN">     0</i>
   <i name="EREF">      0.00000000</i>
   <separator name="electronic smearing" >
    <i type="int" name="ISMEAR">     0</i>
    <i name="SIGMA">      0.20000000</i>
    <i name="KSPACING">      0.50000000</i>
    <i type="logical" name="KGAMMA"> T  </i>
   </separator>
   <separator name="electronic projectors" >
    <i type="logical" name="LREAL"> F  </i>
    <v name="ROPT">      0.00000000      0.00000000      0.00000000      0.00000000</v>
    <i type="int" name="LMAXPAW">  -100</i>
    <i type="int" name="LMAXMIX">     2</i>
    <i type="logical" name="NLSPLINE"> F  </i>
   </separator>
   <separator name="electronic startup" >
    <i type="int" name="ISTART">     0</i>
    <i type="int" name="ICHARG">     2</i>
    <i type="int" name="INIWAV">     1</i>
   </separator>
   <separator name="electronic spin" >
    <i type="int" name="ISPIN">     1</i>
    <i type="logical" name="LNONCOLLINEAR"> F  </i>
    <v name="MAGMOM">      1.00000000      1.00000000      1.00000000      1.00000000      1.00000000      1.00000000      1.00000000      1.00000000      1.00000000      1.00000000      1.00000000      1.00000000      1.00000000      1.00000000      1.00000000      1.00000000      1.00000000      1.00000000      1.00000000      1.00000000
      1.00000000      1.00000000      1.00000000      1.00000000      1.00000000      1.00000000      1.00000000</v>
    <i name="NUPDOWN">     -1.00000000</i>
    <i type="logical" name="LSORBIT"> F  </i>
    <v name="SAXIS">      0.00000000      0.00000000      1.00000000</v>
    <i type="logical" name="LSPIRAL"> F  </i>
    <v name="QSPIRAL">      0.00000000      0.00000000      0.00000000</v>
    <i type="logical" name="LZEROZ"> F  </i>
   </separator>
   <separator name="electronic exchange-correlation" >
    <i type="logical" name="LASPH"> F  </i>
    <i type="logical" name="LMETAGGA"> F  </i>
   </separator>
   <separator name="electronic convergence" >
    <i type="int" name="NELM">    60</i>
    <i type="int" name="NELMDL">    -5</i>
    <i type="int" name="NELMIN">     2</i>
    <i name="ENINI">    280.00000000</i>
    <separator name="electronic convergence detail" >
     <i type="logical" name="LDIAG"> T  </i>
     <i type="logical" name="LSUBROT"> F  </i>
     <i name="WEIMIN">      0.00100000</i>
     <i name="EBREAK">      0.00000021</i>
     <i name="DEPER">      0.30000000</i>
     <i type="int" name="NRMM">     4</i>
     <i name="TIME">      0.40000000</i>
    </separator>
   </separator>
   <separator name="electronic mixer" >
    <i name="AMIX">      0.40000000</i>
    <i name="BMIX">      1.00000000</i>
    <i name="AMIN">      0.10000000</i>
    <i name="AMIX_MAG">      1.60000000</i>
    <i name="BMIX_MAG">      1.00000000</i>
    <separator name="electronic mixer details" >
     <i type="int" name="IMIX">     4</i>
     <i type="logical" name="MIXFIRST"> F  </i>
     <i type="int" name="MAXMIX">   -45</i>
     <i name="WC">    100.00000000</i>
     <i type="int" name="INIMIX">     1</i>
     <i type="int" name="MIXPRE">     1</i>
     <i type="int" name="MREMOVE">     5</i>
    </separator>
   </separator>
   <separator name="electronic dipolcorrection" >
    <i type="logical" name="LDIPOL"> F  </i>
    <i type="logical" name="LMONO"> F  </i>
    <i type="int" name="IDIPOL">     0</i>
    <i name="EPSILON">      1.00000000</i>
    <v name="DIPOL">   -100.00000000   -100.00000000   -100.00000000</v>
    <i name="EFIELD">      0.00000000</i>
   </separator>
  </separator>
  <separator name="grids" >
   <i type="int" name="NGX">    42</i>
   <i type="int" name="NGY">    42</i>
   <i type="int" name="NGZ">   126</i>
   <i type="int" name="NGXF">    84</i>
   <i type="int" name="NGYF">    84</i>
   <i type="int" name="NGZF">   252</i>
   <i type="logical" name="ADDGRID"> F  </i>
  </separator>
  <separator name="ionic" >
   <i type="int" name="NSW">   100</i>
   <i type="int" name="IBRION">     1</i>
   <i type="int" name="ISIF">     3</i>
   <i name="PSTRESS">      0.00000000</i>
   <i name="EDIFFG">      0.00100000</i>
   <i type="int" name="NFREE">     0</i>
   <i name="POTIM">      0.50000000</i>
   <i name="SMASS">     -3.00000000</i>
   <i name="SCALEE">      1.00000000</i>
  </separator>
  <separator name="ionic md" >
   <i name="TEBEG">      0.00010000</i>
   <i name="TEEND">      0.00010000</i>
   <i type="int" name="NBLOCK">     1</i>
   <i type="int" name="KBLOCK">   100</i>
   <i type="int" name="NPACO">   256</i>
   <i name="APACO">     16.00000000</i>
  </separator>
  <separator name="symmetry" >
   <i type="int" name="ISYM">     0</i>
   <i name="SYMPREC">      0.00000001</i>
  </separator>
  <separator name="dos" >
   <i type="logical" name="LORBIT"> F  </i>
   <v name="RWIGS">     -1.00000000     -1.00000000     -1.00000000     -1.00000000</v>
   <i type="int" name="NEDOS">   301</i>
   <i name="EMIN">     10.00000000</i>
   <i name="EMAX">    -10.00000000</i>
   <i name="EFERMI">      0.00000000</i>
  </separator>
  <separator name="writing" >
   <i type="int" name="NWRITE">     2</i>
   <i type="logical" name="LWAVE"> F  </i>
   <i type="logical" name="LCHARG"> F  </i>
   <i type="logical" name="LPARD"> F  </i>
   <i type="logical" name="LVTOT"> F  </i>
   <i type="logical" name="LVHAR"> F  </i>
   <i type="logical" name="LELF"> F  </i>
   <i type="logical" name="LOPTICS"> F  </i>
   <v name="STM">      0.00000000      0.00000000      0.00000000      0.00000000      0.00000000      0.00000000      0.00000000</v>
  </separator>
  <separator name="performance" >
   <i type="int" name="NPAR">    40</i>
   <i type="int" name="NSIM">     4</i>
   <i type="int" name="NBLK">    -1</i>
   <i type="logical" name="LPLANE"> F  </i>
   <i type="logical" name="LSCALAPACK"> T  </i>
   <i type="logical" name="LSCAAWARE"> F  </i>
   <i type="logical" name="LSCALU"> F  </i>
   <i type="logical" name="LASYNC"> F  </i>
   <i type="logical" name="LORBITALREAL"> F  </i>
  </separator>
  <separator name="miscellaneous" >
   <i type="int" name="IDIOT">     3</i>
   <i type="logical" name="LMUSIC"> F  </i>
   <v name="POMASS">     50.94100000     95.94000000    183.85000000     32.06600000</v>
   <v name="DARWINR">      0.00000000      0.00000000      0.00000000      0.00000000</v>
   <v name="DARWINV">      1.00000000      1.00000000      1.00000000      1.00000000</v>
   <i type="logical" name="LCORR"> T  </i>
  </separator>
  <i type="logical" name="GGA_COMPAT"> T  </i>
  <i type="logical" name="LBERRY"> F  </i>
  <i type="int" name="ICORELEVEL">     0</i>
  <i type="logical" name="LDAU"> F  </i>
  <i type="int" name="I_CONSTRAINED_M">     0</i>
  <separator name="electronic exchange-correlation" >
   <i type="string" name="GGA">--</i>
   <i type="int" name="VOSKOWN">     0</i>
   <i type="logical" name="LHFCALC"> F  </i>
   <i type="string" name="PRECFOCK"></i>
   <i type="logical" name="LSYMGRAD"> F  </i>
   <i type="logical" name="LHFONE"> F  </i>
   <i type="logical" name="LRHFCALC"> F  </i>
   <i type="logical" name="LTHOMAS"> F  </i>
   <i type="logical" name="LMODELHF"> F  </i>
   <i name="ENCUT4O">     -1.00000000</i>
   <i type="int" name="EXXOEP">     0</i>
   <i type="int" name="FOURORBIT">     0</i>
   <i name="AEXX">      0.00000000</i>
   <i name="HFALPHA">      0.00000000</i>
   <i name="MCALPHA">      0.00000000</i>
   <i name="ALDAX">      1.00000000</i>
   <i name="AGGAX">      1.00000000</i>
   <i name="ALDAC">      1.00000000</i>
   <i name="AGGAC">      1.00000000</i>
   <i type="int" name="NKREDX">     1</i>
   <i type="int" name="NKREDY">     1</i>
   <i type="int" name="NKREDZ">     1</i>
   <i type="logical" name="SHIFTRED"> F  </i>
   <i type="logical" name="ODDONLY"> F  </i>
   <i type="logical" name="EVENONLY"> F  </i>
   <i type="int" name="LMAXFOCK">     0</i>
   <i type="int" name="NMAXFOCKAE">     0</i>
   <i type="logical" name="LFOCKAEDFT"> F  </i>
   <i name="HFSCREEN">      0.00000000</i>
   <i name="HFSCREENC">      0.00000000</i>
   <i type="int" name="NBANDSGWLOW">     0</i>
  </separator>
  <separator name="vdW DFT" >
   <i type="logical" name="LUSE_VDW"> F  </i>
   <i name="Zab_VDW">     -0.84910000</i>
   <i name="PARAM1">      0.12340000</i>
   <i name="PARAM2">      1.00000000</i>
   <i name="PARAM3">      0.00000000</i>
  </separator>
  <separator name="model GW" >
   <i type="int" name="MODEL_GW">     0</i>
   <i name="MODEL_EPS0">     58.26239943</i>
   <i name="MODEL_ALPHA">      1.00000000</i>
  </separator>
  <separator name="linear response parameters" >
   <i type="logical" name="LEPSILON"> F  </i>
   <i type="logical" name="LRPA"> F  </i>
   <i type="logical" name="LNABLA"> F  </i>
   <i type="logical" name="LVEL"> F  </i>
   <i type="int" name="KINTER">     0</i>
   <i name="CSHIFT">      0.10000000</i>
   <i name="OMEGAMAX">     -1.00000000</i>
   <i name="DEG_THRESHOLD">      0.00200000</i>
  </separator>
  <separator name="orbital magnetization" >
   <i type="logical" name="NUCIND"> F  </i>
   <v name="MAGPOS">      0.00000000      0.00000000      0.00000000</v>
   <i type="logical" name="LNICSALL"> T  </i>
   <i type="logical" name="ORBITALMAG"> F  </i>
   <i type="logical" name="LMAGBLOCH"> F  </i>
   <i type="logical" name="LCHIMAG"> F  </i>
   <i type="logical" name="LGAUGE"> T  </i>
   <i type="int" name="MAGATOM">     0</i>
   <v name="MAGDIPOL">      0.00000000      0.00000000      0.00000000</v>
   <v name="AVECCONST">      0.00000000      0.00000000      0.00000000</v>
  </separator>
  <separator name="response functions" >
   <i type="logical" name="LADDER"> F  </i>
   <i type="logical" name="LFXC"> F  </i>
   <i type="logical" name="LHARTREE"> T  </i>
   <i type="int" name="IBSE">     0</i>
   <v type="int" name="KPOINT">    -1     0     0     0</v>
   <i type="logical" name="LTCTE"> F  </i>
   <i type="logical" name="LTETE"> F  </i>
   <i type="logical" name="LTRIPLET"> F  </i>
   <i type="logical" name="LFXCEPS"> F  </i>
   <i type="logical" name="LFXHEG"> F  </i>
   <i type="int" name="NATURALO">     0</i>
   <i type="logical" name="L2ORDER"> F  </i>
   <i type="logical" name="LUSEW"> F  </i>
   <i name="ENCUTGW">     -2.00000000</i>
   <i name="ENCUTGWSOFT">     -2.00000000</i>
   <i name="ENCUTLF">     -1.00000000</i>
   <i type="int" name="LMAXMP2">    -1</i>
   <i name="SCISSOR">      0.00000000</i>
   <i type="int" name="NOMEGA">     0</i>
   <i type="int" name="NOMEGAR">     0</i>
   <i type="int" name="NBANDSGW">    -1</i>
   <i type="int" name="NBANDSO">    -1</i>
   <i type="int" name="NBANDSV">    -1</i>
   <i type="int" name="NELM">     1</i>
   <i type="int" name="NELMHF">     1</i>
   <i type="int" name="DIM">     3</i>
   <i type="int" name="ANTIRES">     0</i>
   <i name="OMEGAMAX">    -30.00000000</i>
   <i name="OMEGAMIN">    -30.00000000</i>
   <i name="OMEGATL">   -200.00000000</i>
   <i type="int" name="OMEGAGRID">     0</i>
   <i name="CSHIFT">     -0.10000000</i>
   <i type="logical" name="SELFENERGY"> F  </i>
   <i type="logical" name="LSPECTRAL"> F  </i>
   <i type="logical" name="LSPECTRALGW"> F  </i>
   <i type="logical" name="LSINGLES"> F  </i>
   <i type="logical" name="LFERMIGW"> F  </i>
   <i type="logical" name="ODDONLYGW"> F  </i>
   <i type="logical" name="EVENONLYGW"> F  </i>
   <i type="int" name="NKREDLFX">     1</i>
   <i type="int" name="NKREDLFY">     1</i>
   <i type="int" name="NKREDLFZ">     1</i>
   <i type="int" name="MAXMEM">  1800</i>
   <i type="int" name="TELESCOPE">     0</i>
   <i type="int" name="TAUPAR">     1</i>
   <i type="int" name="OMEGAPAR">    -1</i>
   <i name="LAMBDA">      1.00000000</i>
  </separator>
  <separator name="External order field" >
   <i name="OFIELD_KAPPA">      0.00000000</i>
   <v name="OFIELD_K">      0.00000000      0.00000000      0.00000000</v>
   <i name="OFIELD_Q6_NEAR">      0.00000000</i>
   <i name="OFIELD_Q6_FAR">      0.00000000</i>
   <i name="OFIELD_A">      0.00000000</i>
  </separator>
 </parameters>
 <atominfo>
  <atoms>      27 </atoms>
  <types>       4 </types>
  <array name="atoms" >
   <dimension dim="1">ion</dimension>
   <field type="string">element</field>
   <field type="int">atomtype</field>
   <set>
    <rc><c>V </c><c>   1</c></rc>
    <rc><c>V </c><c>   1</c></rc>
    <rc><c>V </c><c>   1</c></rc>
    <rc><c>Mo</c><c>   2</c></rc>
    <rc><c>Mo</c><c>   2</c></rc>
    <rc><c>Mo</c><c>   2</c></rc>
    <rc><c>W </c><c>   3</c></rc>
    <rc><c>W </c><c>   3</c></rc>
    <rc><c>W </c><c>   3</c></rc>
    <rc><c>S </c><c>   4</c></rc>
    <rc><c>S </c><c>   4</c></rc>
    <rc><c>S </c><c>   4</c></rc>
    <rc><c>S </c><c>   4</c></rc>
    <rc><c>S </c><c>   4</c></rc>
    <rc><c>S </c><c>   4</c></rc>
    <rc><c>S </c><c>   4</c></rc>
    <rc><c>S </c><c>   4</c></rc>
    <rc><c>S </c><c>   4</c></rc>
    <rc><c>S </c><c>   4</c></rc>
    <rc><c>S </c><c>   4</c></rc>
    <rc><c>S </c><c>   4</c></rc>
    <rc><c>S </c><c>   4</c></rc>
    <rc><c>S </c><c>   4</c></rc>
    <rc><c>S </c><c>   4</c></rc>
    <rc><c>S </c><c>   4</c></rc>
    <rc><c>S </c><c>   4</c></rc>
    <rc><c>S </c><c>   4</c></rc>
   </set>
  </array>
  <array name="atomtypes" >
   <dimension dim="1">type</dimension>
   <field type="int">atomspertype</field>
   <field type="string">element</field>
   <field>mass</field>
   <field>valence</field>
   <field type="string">pseudopotential</field>
   <set>
    <rc><c>   3</c><c>V </c><c>     50.94100000</c><c>      5.00000000</c><c> PAW_PBE V 08Apr2002                    </c></rc>
    <rc><c>   3</c><c>Mo</c><c>     95.94000000</c><c>      6.00000000</c><c> PAW_PBE Mo 08Apr2002                   </c></rc>
    <rc><c>   3</c><c>W </c><c>    183.85000000</c><c>      6.00000000</c><c> PAW_PBE W 08Apr2002                    </c></rc>
    <rc><c>  18</c><c>S </c><c>     32.06600000</c><c>      6.00000000</c><c>  PAW_PBE S 17Jan2003                   </c></rc>
   </set>
  </array>
 </atominfo>
 <structure name="initialpos" >
  <crystal>
   <varray name="basis" >
    <v>       8.66999996       5.03999989       0.00000000 </v>
    <v>      -8.66999982       5.04000013       0.00000000 </v>
    <v>       0.00000000       0.00000000      30.00000000 </v>
   </varray>
   <i name="volume">   2621.80797419 </i>
   <varray name="rec_basis" >
    <v>       0.05767013       0.09920635       0.00000000 </v>
    <v>      -0.05767013       0.09920635       0.00000000 </v>
    <v>       0.00000000       0.00000000       0.03333333 </v>
   </varray>
  </crystal>
  <varray name="positions" >
   <v>       0.00000000       0.00000000       0.00000000 </v>
   <v>       1.00000000       0.33333334       0.00000000 </v>
   <v>       0.66666669       0.66666669       0.00000000 </v>
   <v>       0.00000000       0.66666669       0.00000000 </v>
   <v>       0.33333334       0.00000000       0.00000000 </v>
   <v>       0.33333334       0.33333334       0.00000000 </v>
   <v>       0.33333334       0.66666669       0.00000000 </v>
   <v>       0.66666669       0.00000000       0.00000000 </v>
   <v>       0.66666669       0.33333334       0.00000000 </v>
   <v>       0.11068511       0.22244981       0.95539999 </v>
   <v>       0.22244981       0.11068511       0.04460000 </v>
   <v>       0.11068511       0.55578315       0.95539999 </v>
   <v>       0.22244981       0.44401845       0.04460000 </v>
   <v>       0.11068511       0.88911647       0.95539999 </v>
   <v>       0.22244981       0.77735180       0.04460000 </v>
   <v>       0.44401845       0.22244981       0.95539999 </v>
   <v>       0.55578315       0.11068511       0.04460000 </v>
   <v>       0.44401845       0.55578315       0.95539999 </v>
   <v>       0.55578315       0.44401845       0.04460000 </v>
   <v>       0.44401845       0.88911647       0.95539999 </v>
   <v>       0.55578315       0.77735180       0.04460000 </v>
   <v>       0.77735180       0.22244981       0.95539999 </v>
   <v>       0.88911647       0.11068511       0.04460000 </v>
   <v>       0.77735180       0.55578315       0.95539999 </v>
   <v>       0.88911647       0.44401845       0.04460000 </v>
   <v>       0.77735180       0.88911647       0.95539999 </v>
   <v>       0.88911647       0.77735180       0.04460000 </v>
  </varray>
 </structure>
 <calculation>
  <scstep>
   <time name="dav">   22.78   22.83</time>
   <time name="total">   22.82   22.88</time>
   <energy>
    <i name="alphaZ">     81.65567618 </i>
    <i name="ewald">  41890.23009657 </i>
    <i name="hartreedc"> -47722.86566772 </i>
    <i name="XCdc">   -242.92868307 </i>
    <i name="pawpsdc">   3467.42045192 </i>
    <i name="pawaedc">  -2871.19716117 </i>
    <i name="eentropy">     -0.54196752 </i>
    <i name="bandstr">   -237.21848946 </i>
    <i name="atom">   6761.44252427 </i>
    <i name="e_fr_energy">   1125.99678000 </i>
    <i name="e_wo_entrp">   1126.53874752 </i>
    <i name="e_0_energy">   1126.26776376 </i>
   </energy>
  </scstep>
  <scstep>
   <time name="dav">   29.86   29.93</time>
   <time name="total">   29.86   29.94</time>
   <energy>
    <i name="e_fr_energy">     -3.28590331 </i>
    <i name="e_wo_entrp">     -3.08760744 </i>
    <i name="e_0_energy">     -3.18675537 </i>
   </energy>
  </scstep>
  <scstep>
   <time name="dav">   28.75   28.82</time>
   <time name="total">   28.75   28.83</time>
   <energy>
    <i name="e_fr_energy">   -199.91205529 </i>
    <i name="e_wo_entrp">   -199.64803633 </i>
    <i name="e_0_energy">   -199.78004581 </i>
   </energy>
  </scstep>
  <scstep>
   <time name="dav">   31.99   32.07</time>
   <time name="total">   32.00   32.08</time>
   <energy>
    <i name="e_fr_energy">   -209.01448086 </i>
    <i name="e_wo_entrp">   -208.70641216 </i>
    <i name="e_0_energy">   -208.86044651 </i>
   </energy>
  </scstep>
  <scstep>
   <time name="dav">   29.62   29.69</time>
   <time name="total">   30.08   30.16</time>
   <energy>
    <i name="e_fr_energy">   -209.30717948 </i>
    <i name="e_wo_entrp">   -209.00149669 </i>
    <i name="e_0_energy">   -209.15433808 </i>
   </energy>
  </scstep>
  <scstep>
   <time name="dav">   32.87   32.94</time>
   <time name="total">   33.37   33.45</time>
   <energy>
    <i name="e_fr_energy">   -236.76712629 </i>
    <i name="e_wo_entrp">   -236.48352478 </i>
    <i name="e_0_energy">   -236.62532554 </i>
   </energy>
  </scstep>
  <scstep>
   <time name="dav">   32.85   32.93</time>
   <time name="total">   33.36   33.45</time>
   <energy>
    <i name="e_fr_energy">   -196.68342973 </i>
    <i name="e_wo_entrp">   -196.36186281 </i>
    <i name="e_0_energy">   -196.52264627 </i>
   </energy>
  </scstep>
  <scstep>
   <time name="dav">   30.74   30.81</time>
   <time name="total">   31.25   31.34</time>
   <energy>
    <i name="e_fr_energy">   -189.95170792 </i>
    <i name="e_wo_entrp">   -189.67474347 </i>
    <i name="e_0_energy">   -189.81322570 </i>
   </energy>
  </scstep>
  <scstep>
   <time name="dav">   30.99   31.06</time>
   <time name="total">   31.52   31.60</time>
   <energy>
    <i name="e_fr_energy">   -188.23319492 </i>
    <i name="e_wo_entrp">   -187.90431123 </i>
    <i name="e_0_energy">   -188.06875307 </i>
   </energy>
  </scstep>
  <scstep>
   <time name="dav">   34.15   34.23</time>
   <time name="total">   34.69   34.78</time>
   <energy>
    <i name="e_fr_energy">   -187.04988847 </i>
    <i name="e_wo_entrp">   -186.70787182 </i>
    <i name="e_0_energy">   -186.87888015 </i>
   </energy>
  </scstep>
  <scstep>
   <time name="dav">   34.47   34.55</time>
   <time name="total">   35.01   35.10</time>
   <energy>
    <i name="e_fr_energy">   -187.02529252 </i>
    <i name="e_wo_entrp">   -186.67293522 </i>
    <i name="e_0_energy">   -186.84911387 </i>
   </energy>
  </scstep>
  <scstep>
   <time name="dav">   33.69   33.77</time>
   <time name="total">   34.22   34.32</time>
   <energy>
    <i name="e_fr_energy">   -187.17629748 </i>
    <i name="e_wo_entrp">   -186.84233251 </i>
    <i name="e_0_energy">   -187.00931500 </i>
   </energy>
  </scstep>
  <scstep>
   <time name="dav">   33.10   33.18</time>
   <time name="total">   33.64   33.73</time>
   <energy>
    <i name="e_fr_energy">   -186.92066837 </i>
    <i name="e_wo_entrp">   -186.58698400 </i>
    <i name="e_0_energy">   -186.75382619 </i>
   </energy>
  </scstep>
  <scstep>
   <time name="dav">   34.12   34.20</time>
   <time name="total">   34.65   34.74</time>
   <energy>
    <i name="e_fr_energy">   -186.87678735 </i>
    <i name="e_wo_entrp">   -186.53079037 </i>
    <i name="e_0_energy">   -186.70378886 </i>
   </energy>
  </scstep>
  <scstep>
   <time name="dav">   33.49   33.57</time>
   <time name="total">   34.02   34.11</time>
   <energy>
    <i name="e_fr_energy">   -186.87445273 </i>
    <i name="e_wo_entrp">   -186.52892336 </i>
    <i name="e_0_energy">   -186.70168805 </i>
   </energy>
  </scstep>
  <scstep>
   <time name="dav">   33.67   33.75</time>
   <time name="total">   34.21   34.30</time>
   <energy>
    <i name="e_fr_energy">   -186.86845362 </i>
    <i name="e_wo_entrp">   -186.52456963 </i>
    <i name="e_0_energy">   -186.69651163 </i>
   </energy>
  </scstep>
  <scstep>
   <time name="dav">   33.14   33.22</time>
   <time name="total">   33.68   33.76</time>
   <energy>
    <i name="e_fr_energy">   -186.86848259 </i>
    <i name="e_wo_entrp">   -186.52546650 </i>
    <i name="e_0_energy">   -186.69697454 </i>
   </energy>
  </scstep>
  <scstep>
   <time name="dav">   30.62   30.69</time>
   <time name="total">   31.16   31.24</time>
   <energy>
    <i name="e_fr_energy">   -186.86778779 </i>
    <i name="e_wo_entrp">   -186.52449503 </i>
    <i name="e_0_energy">   -186.69614141 </i>
   </energy>
  </scstep>
  <scstep>
   <time name="dav">   25.56   25.62</time>
   <time name="total">   25.60   25.67</time>
   <energy>
    <i name="alphaZ">     81.65567618 </i>
    <i name="ewald">  41890.23009657 </i>
    <i name="hartreedc"> -47817.83727620 </i>
    <i name="XCdc">   -231.69537175 </i>
    <i name="pawpsdc">   4194.29337995 </i>
    <i name="pawaedc">  -3612.32432439 </i>
    <i name="eentropy">     -0.34340628 </i>
    <i name="bandstr">  -1452.28911718 </i>
    <i name="atom">   6761.44252427 </i>
    <i name="e_fr_energy">   -186.86781883 </i>
    <i name="e_wo_entrp">   -186.52441255 </i>
    <i name="e_0_energy">   -186.69611569 </i>
   </energy>
  </scstep>
  <structure>
   <crystal>
    <varray name="basis" >
     <v>       8.66999996       5.03999989       0.00000000 </v>
     <v>      -8.66999982       5.04000013       0.00000000 </v>
     <v>       0.00000000       0.00000000      30.00000000 </v>
    </varray>
    <i name="volume">   2621.80797419 </i>
    <varray name="rec_basis" >
     <v>       0.05767013       0.09920635       0.00000000 </v>
     <v>      -0.05767013       0.09920635       0.00000000 </v>
     <v>       0.00000000       0.00000000       0.03333333 </v>
    </varray>
   </crystal>
   <varray name="positions" >
    <v>       0.00000000       0.00000000       0.00000000 </v>
    <v>       1.00000000       0.33333334       0.00000000 </v>
    <v>       0.66666669       0.66666669       0.00000000 </v>
    <v>       0.00000000       0.66666669       0.00000000 </v>
    <v>       0.33333334       0.00000000       0.00000000 </v>
    <v>       0.33333334       0.33333334       0.00000000 </v>
    <v>       0.33333334       0.66666669       0.00000000 </v>
    <v>       0.66666669       0.00000000       0.00000000 </v>
    <v>       0.66666669       0.33333334       0.00000000 </v>
    <v>       0.11068511       0.22244981       0.95539999 </v>
    <v>       0.22244981       0.11068511       0.04460000 </v>
    <v>       0.11068511       0.55578315       0.95539999 </v>
    <v>       0.22244981       0.44401845       0.04460000 </v>
    <v>       0.11068511       0.88911647       0.95539999 </v>
    <v>       0.22244981       0.77735180       0.04460000 </v>
    <v>       0.44401845       0.22244981       0.95539999 </v>
    <v>       0.55578315       0.11068511       0.04460000 </v>
    <v>       0.44401845       0.55578315       0.95539999 </v>
    <v>       0.55578315       0.44401845       0.04460000 </v>
    <v>       0.44401845       0.88911647       0.95539999 </v>
    <v>       0.55578315       0.77735180       0.04460000 </v>
    <v>       0.77735180       0.22244981       0.95539999 </v>
    <v>       0.88911647       0.11068511       0.04460000 </v>
    <v>       0.77735180       0.55578315       0.95539999 </v>
    <v>       0.88911647       0.44401845       0.04460000 </v>
    <v>       0.77735180       0.88911647       0.95539999 </v>
    <v>       0.88911647       0.77735180       0.04460000 </v>
   </varray>
  </structure>
  <varray name="forces" >
   <v>       0.35944839       0.20481419       0.00032009 </v>
   <v>       0.08503095       0.19489621      -0.09435776 </v>
   <v>       0.20628528      -0.03113541       0.08991045 </v>
   <v>      -0.06803132       0.27963864       0.06776033 </v>
   <v>      -0.26632618      -0.13249531       0.00654894 </v>
   <v>       0.23623293      -0.20286069      -0.05976361 </v>
   <v>      -0.23574559      -0.19518422      -0.15257903 </v>
   <v>      -0.11766042      -0.08489821      -0.00738943 </v>
   <v>      -0.30498741      -0.11552986       0.15142420 </v>
   <v>      -0.33752494      -0.65966054      -1.42134078 </v>
   <v>      -0.52430814      -0.69276129       2.17678571 </v>
   <v>       0.64690213      -0.54835971      -2.19270146 </v>
   <v>      -0.59620796      -0.54602882       2.13625317 </v>
   <v>      -0.74190931       0.00717292      -2.14163391 </v>
   <v>       0.02887899       0.02217790       2.89230358 </v>
   <v>       0.21064340       0.13087606      -2.89164596 </v>
   <v>      -0.06832616       0.14342896       2.90591754 </v>
   <v>       0.35044716       0.69717530      -2.10582705 </v>
   <v>      -0.34927356       0.72773644       2.20534432 </v>
   <v>       0.27460034      -0.01965040      -2.89811895 </v>
   <v>       0.63816915       0.01412372       2.12658011 </v>
   <v>       0.49846195       0.59747536      -2.17201593 </v>
   <v>       0.23226404       0.52372199       1.39519636 </v>
   <v>      -0.64841953      -0.13225527      -2.10089572 </v>
   <v>       0.65134214      -0.15998465       2.05707504 </v>
   <v>       0.73743670      -0.00570818      -1.43879568 </v>
   <v>      -0.89742303      -0.01672514       1.46564543 </v>
  </varray>
  <varray name="stress" >
   <v>       7.43248105       0.03757289      -1.52931725 </v>
   <v>       0.03757278       4.50102734      -0.04229465 </v>
   <v>      -1.52931731      -0.04229445      31.08252373 </v>
  </varray>
  <energy>
   <i name="e_fr_energy">   -186.86781883 </i>
   <i name="e_wo_entrp">   -186.69611569 </i>
   <i name="e_0_energy">     -0.34340628 </i>
  </energy>
  <time name="totalsc">  647.66  649.37</time>
 </calculation>
 <calculation>
  <scstep>
   <time name="dav">   22.75   22.81</time>
   <time name="total">   23.30   23.36</time>
   <energy>
    <i name="alphaZ">     78.88080837 </i>
    <i name="ewald">  39358.70646716 </i>
    <i name="hartreedc"> -45306.65614918 </i>
    <i name="XCdc">   -239.15116726 </i>
    <i name="pawpsdc">   4193.08251832 </i>
    <i name="pawaedc">  -3611.09174025 </i>
    <i name="eentropy">     -0.28380220 </i>
    <i name="bandstr">  -1422.41077523 </i>
    <i name="atom">   6761.44252427 </i>
    <i name="e_fr_energy">   -187.48131599 </i>
    <i name="e_wo_entrp">   -187.19751379 </i>
    <i name="e_0_energy">   -187.33941489 </i>
   </energy>
  </scstep>
  <scstep>
   <time name="dav">   30.91   30.98</time>
   <time name="total">   31.45   31.53</time>
   <energy>
    <i name="e_fr_energy">   -189.42920746 </i>
    <i name="e_wo_entrp">   -189.09801011 </i>
    <i name="e_0_energy">   -189.26360878 </i>
   </energy>
  </scstep>
  <scstep>
   <time name="dav">   31.52   31.59</time>
   <time name="total">   32.07   32.15</time>
   <energy>
    <i name="e_fr_energy">   -189.34286382 </i>
    <i name="e_wo_entrp">   -189.06676922 </i>
    <i name="e_0_energy">   -189.20481652 </i>
   </energy>
  </scstep>
  <scstep>
   <time name="dav">   31.36   31.43</time>
   <time name="total">   31.91   32.00</time>
   <energy>
    <i name="e_fr_energy">   -188.75095991 </i>
    <i name="e_wo_entrp">   -188.46650495 </i>
    <i name="e_0_energy">   -188.60873243 </i>
   </energy>
  </scstep>
  <scstep>
   <time name="dav">   29.65   29.72</time>
   <time name="total">   30.19   30.27</time>
   <energy>
    <i name="e_fr_energy">   -188.84665421 </i>
    <i name="e_wo_entrp">   -188.55628514 </i>
    <i name="e_0_energy">   -188.70146967 </i>
   </energy>
  </scstep>
  <scstep>
   <time name="dav">   31.90   31.98</time>
   <time name="total">   32.45   32.54</time>
   <energy>
    <i name="e_fr_energy">   -188.74723805 </i>
    <i name="e_wo_entrp">   -188.46018211 </i>
    <i name="e_0_energy">   -188.60371008 </i>
   </energy>
  </scstep>
  <scstep>
   <time name="dav">   31.53   31.61</time>
   <time name="total">   32.08   32.17</time>
   <energy>
    <i name="e_fr_energy">   -188.66547987 </i>
    <i name="e_wo_entrp">   -188.38058557 </i>
    <i name="e_0_energy">   -188.52303272 </i>
   </energy>
  </scstep>
  <scstep>
   <time name="dav">   30.37   30.45</time>
   <time name="total">   30.92   31.01</time>
   <energy>
    <i name="e_fr_energy">   -188.66225905 </i>
    <i name="e_wo_entrp">   -188.37840761 </i>
    <i name="e_0_energy">   -188.52033333 </i>
   </energy>
  </scstep>
  <scstep>
   <time name="dav">   29.45   29.52</time>
   <time name="total">   30.00   30.08</time>
   <energy>
    <i name="e_fr_energy">   -188.64662453 </i>
    <i name="e_wo_entrp">   -188.36304127 </i>
    <i name="e_0_energy">   -188.50483290 </i>
   </energy>
  </scstep>
  <scstep>
   <time name="dav">   31.10   31.18</time>
   <time name="total">   31.65   31.74</time>
   <energy>
    <i name="e_fr_energy">   -188.64394178 </i>
    <i name="e_wo_entrp">   -188.36083424 </i>
    <i name="e_0_energy">   -188.50238801 </i>
   </energy>
  </scstep>
  <scstep>
   <time name="dav">   32.48   32.55</time>
   <time name="total">   33.03   33.12</time>
   <energy>
    <i name="e_fr_energy">   -188.64351431 </i>
    <i name="e_wo_entrp">   -188.36061181 </i>
    <i name="e_0_energy">   -188.50206306 </i>
   </energy>
  </scstep>
  <scstep>
   <time name="dav">   29.24   29.31</time>
   <time name="total">   29.79   29.87</time>
   <energy>
    <i name="e_fr_energy">   -188.64350683 </i>
    <i name="e_wo_entrp">   -188.36128329 </i>
    <i name="e_0_energy">   -188.50239506 </i>
   </energy>
  </scstep>
  <scstep>
   <time name="dav">   19.96   20.01</time>
   <time name="total">   20.52   20.57</time>
   <energy>
    <i name="e_fr_energy">   -188.64365317 </i>
    <i name="e_wo_entrp">   -188.36117352 </i>
    <i name="e_0_energy">   -188.50241335 </i>
   </energy>
  </scstep>
  <scstep>
   <time name="dav">   22.29   22.34</time>
   <time name="total">   22.33   22.39</time>
   <energy>
    <i name="alphaZ">     78.88080837 </i>
    <i name="ewald">  39358.70646716 </i>
    <i name="hartreedc"> -45323.90328379 </i>
    <i name="XCdc">   -238.01874027 </i>
    <i name="pawpsdc">   3949.57062072 </i>
    <i name="pawaedc">  -3364.06921109 </i>
    <i name="eentropy">     -0.28253997 </i>
    <i name="bandstr">  -1410.97036402 </i>
    <i name="atom">   6761.44252427 </i>
    <i name="e_fr_energy">   -188.64371860 </i>
    <i name="e_wo_entrp">   -188.36117863 </i>
    <i name="e_0_energy">   -188.50244861 </i>
   </energy>
  </scstep>
  <structure>
   <crystal>
    <varray name="basis" >
     <v>       8.85896654       5.10728082       0.00000000 </v>
     <v>      -8.85785903       5.10537612       0.00000000 </v>
     <v>       0.00000000       0.00000000      30.00000000 </v>
    </varray>
    <i name="volume">   2714.03789281 </i>
    <varray name="rec_basis" >
     <v>       0.05643299       0.09791159       0.00000000 </v>
     <v>      -0.05645405       0.09792383       0.00000000 </v>
     <v>       0.00000000       0.00000000       0.03333333 </v>
    </varray>
   </crystal>
   <varray name="positions" >
    <v>       0.00198028      -0.00001981       0.00000051 </v>
    <v>       1.00116934       0.33402954      -0.00015174 </v>
    <v>       0.66709159       0.66594375       0.00014458 </v>
    <v>       0.00114907       0.66819430       0.00010896 </v>
    <v>       0.33195826       0.00010684       0.00001053 </v>
    <v>       0.33301969       0.33170522      -0.00009611 </v>
    <v>       0.33174331       0.66638842      -0.00024536 </v>
    <v>       0.66593302      -0.00007897      -0.00001188 </v>
    <v>       0.66526524       0.33362894       0.00024350 </v>
    <v>       0.10658894       0.22023174       0.95311435 </v>
    <v>       0.21767556       0.10882828       0.04810046 </v>
    <v>       0.10986046       0.55135893       0.95187393 </v>
    <v>       0.21817778       0.44306392       0.04803528 </v>
    <v>       0.10865533       0.89121491       0.95195605 </v>
    <v>       0.22263630       0.77737759       0.04925108 </v>
    <v>       0.44523087       0.22249014       0.95074997 </v>
    <v>       0.55627951       0.11156165       0.04927297 </v>
    <v>       0.44833012       0.55814482       0.95201363 </v>
    <v>       0.55829435       0.44847312       0.04814639 </v>
    <v>       0.44468839       0.88825844       0.95073956 </v>
    <v>       0.55762624       0.77564390       0.04801973 </v>
    <v>       0.78159810       0.22392251       0.95190720 </v>
    <v>       0.89226918       0.11254544       0.04684360 </v>
    <v>       0.77491482       0.55695419       0.95202156 </v>
    <v>       0.89016292       0.44144063       0.04790796 </v>
    <v>       0.77937614       0.88703748       0.95308628 </v>
    <v>       0.88653965       0.77976852       0.04695689 </v>
   </varray>
  </structure>
  <varray name="forces" >
   <v>       0.32563201       0.18495711       0.00038829 </v>
   <v>       0.02430443       0.21873914       0.04221454 </v>
   <v>       0.20038491      -0.08099319      -0.04460322 </v>
   <v>       0.12522034       0.36546304       0.07660604 </v>
   <v>      -0.07756783      -0.04126070       0.00094001 </v>
   <v>       0.38178364      -0.07173281      -0.07646134 </v>
   <v>      -0.35171769      -0.09907375      -0.04045046 </v>
   <v>      -0.30072418      -0.17463069      -0.00072339 </v>
   <v>      -0.25888598      -0.26218832       0.04411262 </v>
   <v>       0.00855996      -0.05474385       0.03362346 </v>
   <v>      -0.04755542      -0.08292444       0.15260571 </v>
   <v>       0.08153992       0.04530367      -0.09759227 </v>
   <v>      -0.07039220       0.04847667      -0.08967520 </v>
   <v>      -0.07885696      -0.00870385      -0.16132224 </v>
   <v>       0.14618579       0.01369364       0.12303957 </v>
   <v>       0.07281078       0.11080302      -0.13474852 </v>
   <v>       0.05777865       0.09472910       0.03721537 </v>
   <v>      -0.10680588       0.05897121       0.13605431 </v>
   <v>       0.10534017       0.06077478       0.09569691 </v>
   <v>       0.09060083      -0.00852806      -0.04332817 </v>
   <v>      -0.08207884      -0.00360066      -0.12203423 </v>
   <v>      -0.05259328      -0.05025768       0.14688035 </v>
   <v>      -0.05899833      -0.08224132      -0.23003604 </v>
   <v>       0.02364969      -0.09226867       0.07164287 </v>
   <v>      -0.01302852      -0.11035215      -0.11703014 </v>
   <v>      -0.10690811       0.00495908       0.24674946 </v>
   <v>      -0.03767790       0.01662968      -0.04976428 </v>
  </varray>
  <varray name="stress" >
   <v>     -19.94675520      -0.01926845       0.05834590 </v>
   <v>      -0.01926835     -19.53572390      -0.04684399 </v>
   <v>       0.05834597      -0.04684402      -1.66924783 </v>
  </varray>
  <energy>
   <i name="e_fr_energy">   -188.64371860 </i>
   <i name="e_wo_entrp">   -188.50244861 </i>
   <i name="e_0_energy">     -0.28253997 </i>
  </energy>
  <time name="totalsc">  455.15  456.36</time>
 </calculation>
 <calculation>
  <scstep>
   <time name="dav">   24.96   25.02</time>
   <time name="total">   25.50   25.56</time>
   <energy>
    <i name="alphaZ">     82.31896753 </i>
    <i name="ewald">  41290.17236629 </i>
    <i name="hartreedc"> -47286.38959315 </i>
    <i name="XCdc">   -233.87388064 </i>
    <i name="pawpsdc">   3948.58531990 </i>
    <i name="pawaedc">  -3363.07466431 </i>
    <i name="eentropy">     -0.23606810 </i>
    <i name="bandstr">  -1389.52029892 </i>
    <i name="atom">   6761.44252427 </i>
    <i name="e_fr_energy">   -190.57532712 </i>
    <i name="e_wo_entrp">   -190.33925902 </i>
    <i name="e_0_energy">   -190.45729307 </i>
   </energy>
  </scstep>
  <scstep>
   <time name="dav">   30.61   30.68</time>
   <time name="total">   31.13   31.22</time>
   <energy>
    <i name="e_fr_energy">   -190.57178120 </i>
    <i name="e_wo_entrp">   -190.33311582 </i>
    <i name="e_0_energy">   -190.45244851 </i>
   </energy>
  </scstep>
  <scstep>
   <time name="dav">   31.54   31.62</time>
   <time name="total">   32.07   32.16</time>
   <energy>
    <i name="e_fr_energy">   -190.04726293 </i>
    <i name="e_wo_entrp">   -189.79690516 </i>
    <i name="e_0_energy">   -189.92208404 </i>
   </energy>
  </scstep>
  <scstep>
   <time name="dav">   33.14   33.22</time>
   <time name="total">   33.68   33.77</time>
   <energy>
    <i name="e_fr_energy">   -189.84866125 </i>
    <i name="e_wo_entrp">   -189.61256404 </i>
    <i name="e_0_energy">   -189.73061264 </i>
   </energy>
  </scstep>
  <scstep>
   <time name="dav">   31.80   31.88</time>
   <time name="total">   32.34   32.42</time>
   <energy>
    <i name="e_fr_energy">   -189.89628502 </i>
    <i name="e_wo_entrp">   -189.65078456 </i>
    <i name="e_0_energy">   -189.77353479 </i>
   </energy>
  </scstep>
  <scstep>
   <time name="dav">   31.51   31.59</time>
   <time name="total">   32.05   32.14</time>
   <energy>
    <i name="e_fr_energy">   -189.74025018 </i>
    <i name="e_wo_entrp">   -189.50174277 </i>
    <i name="e_0_energy">   -189.62099647 </i>
   </energy>
  </scstep>
  <scstep>
   <time name="dav">   31.28   31.35</time>
   <time name="total">   31.81   31.90</time>
   <energy>
    <i name="e_fr_energy">   -189.73426721 </i>
    <i name="e_wo_entrp">   -189.49608005 </i>
    <i name="e_0_energy">   -189.61517363 </i>
   </energy>
  </scstep>
  <scstep>
   <time name="dav">   29.68   29.76</time>
   <time name="total">   30.22   30.30</time>
   <energy>
    <i name="e_fr_energy">   -189.73460244 </i>
    <i name="e_wo_entrp">   -189.49642808 </i>
    <i name="e_0_energy">   -189.61551526 </i>
   </energy>
  </scstep>
  <scstep>
   <time name="dav">   27.74   27.81</time>
   <time name="total">   28.28   28.35</time>
   <energy>
    <i name="e_fr_energy">   -189.73435435 </i>
    <i name="e_wo_entrp">   -189.49611434 </i>
    <i name="e_0_energy">   -189.61523434 </i>
   </energy>
  </scstep>
  <scstep>
   <time name="dav">   26.58   26.64</time>
   <time name="total">   27.12   27.19</time>
   <energy>
    <i name="e_fr_energy">   -189.73454012 </i>
    <i name="e_wo_entrp">   -189.49618246 </i>
    <i name="e_0_energy">   -189.61536129 </i>
   </energy>
  </scstep>
  <scstep>
   <time name="dav">   23.38   23.44</time>
   <time name="total">   23.92   23.99</time>
   <energy>
    <i name="e_fr_energy">   -189.73428505 </i>
    <i name="e_wo_entrp">   -189.49597418 </i>
    <i name="e_0_energy">   -189.61512962 </i>
   </energy>
  </scstep>
  <scstep>
   <time name="dav">   20.25   20.30</time>
   <time name="total">   20.29   20.34</time>
   <energy>
    <i name="alphaZ">     82.31896753 </i>
    <i name="ewald">  41290.17236629 </i>
    <i name="hartreedc"> -47261.59704843 </i>
    <i name="XCdc">   -235.26399558 </i>
    <i name="pawpsdc">   4038.48694758 </i>
    <i name="pawaedc">  -3454.18530084 </i>
    <i name="eentropy">     -0.23830230 </i>
    <i name="bandstr">  -1410.87049908 </i>
    <i name="atom">   6761.44252427 </i>
    <i name="e_fr_energy">   -189.73434055 </i>
    <i name="e_wo_entrp">   -189.49603825 </i>
    <i name="e_0_energy">   -189.61518940 </i>
   </energy>
  </scstep>
  <structure>
   <crystal>
    <varray name="basis" >
     <v>       8.66993873       5.00042697       0.00000000 </v>
     <v>      -8.66906522       4.99892702       0.00000000 </v>
     <v>       0.00000000       0.00000000      30.00000000 </v>
    </varray>
    <i name="volume">   2600.68255664 </i>
    <varray name="rec_basis" >
     <v>       0.05766479       0.10000142       0.00000000 </v>
     <v>      -0.05768209       0.10001150       0.00000000 </v>
     <v>       0.00000000       0.00000000       0.03333333 </v>
    </varray>
   </crystal>
   <varray name="positions" >
    <v>       0.00260202      -0.00002443       0.00000074 </v>
    <v>       1.00155767       0.33437117      -0.00012776 </v>
    <v>       0.66714916       0.66561583       0.00011925 </v>
    <v>       0.00187926       0.66868369       0.00015248 </v>
    <v>       0.33181483       0.00011261       0.00001107 </v>
    <v>       0.33326715       0.33121824      -0.00013954 </v>
    <v>       0.33123978       0.66656146      -0.00026834 </v>
    <v>       0.66535245      -0.00008107      -0.00001229 </v>
    <v>       0.66457882       0.33344049       0.00026856 </v>
    <v>       0.10650583       0.22013215       0.95313345 </v>
    <v>       0.21749147       0.10873565       0.04818715 </v>
    <v>       0.11001446       0.55135609       0.95181850 </v>
    <v>       0.21819097       0.44321253       0.04798435 </v>
    <v>       0.10856497       0.89127624       0.95186442 </v>
    <v>       0.22279973       0.77725981       0.04932097 </v>
    <v>       0.44548576       0.22260499       0.95067343 </v>
    <v>       0.55649312       0.11166414       0.04929411 </v>
    <v>       0.44832580       0.55834597       0.95209092 </v>
    <v>       0.55849705       0.44847319       0.04820075 </v>
    <v>       0.44476129       0.88815705       0.95071495 </v>
    <v>       0.55754130       0.77571686       0.04795041 </v>
    <v>       0.78146367       0.22388924       0.95199063 </v>
    <v>       0.89207523       0.11246496       0.04671293 </v>
    <v>       0.77478361       0.55677747       0.95206226 </v>
    <v>       0.88996627       0.44126902       0.04784148 </v>
    <v>       0.77928161       0.88714860       0.95322644 </v>
    <v>       0.88653116       0.77983252       0.04692862 </v>
   </varray>
  </structure>
  <varray name="forces" >
   <v>       0.32692827       0.18706356       0.00113597 </v>
   <v>      -0.01415470       0.23941390       0.06583348 </v>
   <v>       0.19776076      -0.12916287      -0.06631303 </v>
   <v>       0.19134878       0.37583244       0.05201654 </v>
   <v>      -0.00981924      -0.00162345      -0.00093637 </v>
   <v>       0.42489393      -0.02213928      -0.05330352 </v>
   <v>      -0.39417046      -0.05986324      -0.00111958 </v>
   <v>      -0.36469348      -0.21371747       0.00059099 </v>
   <v>      -0.24680888      -0.32279101       0.00350237 </v>
   <v>      -0.02234897      -0.12351769      -0.41921704 </v>
   <v>      -0.08525008      -0.14558613       0.65290813 </v>
   <v>       0.06277923      -0.09433988      -0.62551268 </v>
   <v>      -0.05000625      -0.06985231       0.38796045 </v>
   <v>      -0.15170761      -0.00720509      -0.66112090 </v>
   <v>       0.06900978       0.02600932       0.68607893 </v>
   <v>       0.04537100       0.04030803      -0.69721207 </v>
   <v>       0.00795053       0.02171348       0.61161423 </v>
   <v>       0.00652730       0.11540275      -0.34410784 </v>
   <v>      -0.03061060       0.11404487       0.62340227 </v>
   <v>       0.00339145      -0.01391927      -0.61617670 </v>
   <v>       0.05742009      -0.01992934       0.37688401 </v>
   <v>       0.00343303       0.07813221      -0.35384141 </v>
   <v>       0.02378956       0.04397086       0.21552222 </v>
   <v>      -0.07079373      -0.01391208      -0.40538644 </v>
   <v>       0.09129395      -0.04208548       0.36310488 </v>
   <v>       0.04637315       0.01302356      -0.19962532 </v>
   <v>      -0.11790682       0.02472960       0.40331842 </v>
  </varray>
  <varray name="stress" >
   <v>     -10.20596317      -0.00214798       0.04251742 </v>
   <v>      -0.00214803      -9.88734322      -0.04179058 </v>
   <v>       0.04251716      -0.04179076       6.49908945 </v>
  </varray>
  <energy>
   <i name="e_fr_energy">   -189.73434055 </i>
   <i name="e_wo_entrp">   -189.61518940 </i>
   <i name="e_0_energy">     -0.23830230 </i>
  </energy>
  <time name="totalsc">  392.01  393.05</time>
 </calculation>
 <calculation>
  <scstep>
   <time name="dav">   22.75   22.80</time>
   <time name="total">   23.28   23.34</time>
   <energy>
    <i name="alphaZ">     85.82922906 </i>
    <i name="ewald">  42838.24677633 </i>
    <i name="hartreedc"> -48854.74668260 </i>
    <i name="XCdc">   -232.94234384 </i>
    <i name="pawpsdc">   4038.28794060 </i>
    <i name="pawaedc">  -3453.97884919 </i>
    <i name="eentropy">     -0.19712288 </i>
    <i name="bandstr">  -1373.23794553 </i>
    <i name="atom">   6761.44252427 </i>
    <i name="e_fr_energy">   -191.29647376 </i>
    <i name="e_wo_entrp">   -191.09935088 </i>
    <i name="e_0_energy">   -191.19791232 </i>
   </energy>
  </scstep>
  <scstep>
   <time name="dav">   34.26   34.34</time>
   <time name="total">   34.78   34.87</time>
   <energy>
    <i name="e_fr_energy">   -191.17128094 </i>
    <i name="e_wo_entrp">   -190.96945827 </i>
    <i name="e_0_energy">   -191.07036960 </i>
   </energy>
  </scstep>
  <scstep>
   <time name="dav">   31.44   31.52</time>
   <time name="total">   31.96   32.05</time>
   <energy>
    <i name="e_fr_energy">   -191.19906266 </i>
    <i name="e_wo_entrp">   -190.98087796 </i>
    <i name="e_0_energy">   -191.08997031 </i>
   </energy>
  </scstep>
  <scstep>
   <time name="dav">   32.97   33.05</time>
   <time name="total">   33.49   33.58</time>
   <energy>
    <i name="e_fr_energy">   -190.80997853 </i>
    <i name="e_wo_entrp">   -190.61052895 </i>
    <i name="e_0_energy">   -190.71025374 </i>
   </energy>
  </scstep>
  <scstep>
   <time name="dav">   29.32   29.39</time>
   <time name="total">   29.85   29.93</time>
   <energy>
    <i name="e_fr_energy">   -190.71072650 </i>
    <i name="e_wo_entrp">   -190.50744255 </i>
    <i name="e_0_energy">   -190.60908452 </i>
   </energy>
  </scstep>
  <scstep>
   <time name="dav">   31.54   31.61</time>
   <time name="total">   32.06   32.15</time>
   <energy>
    <i name="e_fr_energy">   -190.70804052 </i>
    <i name="e_wo_entrp">   -190.50455199 </i>
    <i name="e_0_energy">   -190.60629626 </i>
   </energy>
  </scstep>
  <scstep>
   <time name="dav">   30.70   30.78</time>
   <time name="total">   31.23   31.31</time>
   <energy>
    <i name="e_fr_energy">   -190.69831017 </i>
    <i name="e_wo_entrp">   -190.49566563 </i>
    <i name="e_0_energy">   -190.59698790 </i>
   </energy>
  </scstep>
  <scstep>
   <time name="dav">   28.03   28.10</time>
   <time name="total">   28.56   28.63</time>
   <energy>
    <i name="e_fr_energy">   -190.69241191 </i>
    <i name="e_wo_entrp">   -190.48972078 </i>
    <i name="e_0_energy">   -190.59106635 </i>
   </energy>
  </scstep>
  <scstep>
   <time name="dav">   28.89   28.96</time>
   <time name="total">   29.42   29.50</time>
   <energy>
    <i name="e_fr_energy">   -190.69270557 </i>
    <i name="e_wo_entrp">   -190.48982531 </i>
    <i name="e_0_energy">   -190.59126544 </i>
   </energy>
  </scstep>
  <scstep>
   <time name="dav">   30.45   30.52</time>
   <time name="total">   30.97   31.05</time>
   <energy>
    <i name="e_fr_energy">   -190.69282648 </i>
    <i name="e_wo_entrp">   -190.49008194 </i>
    <i name="e_0_energy">   -190.59145421 </i>
   </energy>
  </scstep>
  <scstep>
   <time name="dav">   24.90   24.96</time>
   <time name="total">   25.43   25.50</time>
   <energy>
    <i name="e_fr_energy">   -190.69259259 </i>
    <i name="e_wo_entrp">   -190.48989248 </i>
    <i name="e_0_energy">   -190.59124254 </i>
   </energy>
  </scstep>
  <scstep>
   <time name="dav">   18.83   18.88</time>
   <time name="total">   18.87   18.92</time>
   <energy>
    <i name="alphaZ">     85.82922906 </i>
    <i name="ewald">  42838.24677633 </i>
    <i name="hartreedc"> -48826.23305773 </i>
    <i name="XCdc">   -234.29288908 </i>
    <i name="pawpsdc">   4063.35654086 </i>
    <i name="pawaedc">  -3479.22918081 </i>
    <i name="eentropy">     -0.20267313 </i>
    <i name="bandstr">  -1399.60982888 </i>
    <i name="atom">   6761.44252427 </i>
    <i name="e_fr_energy">   -190.69255910 </i>
    <i name="e_wo_entrp">   -190.48988597 </i>
    <i name="e_0_energy">   -190.59122254 </i>
   </energy>
  </scstep>
  <structure>
   <crystal>
    <varray name="basis" >
     <v>       8.48659544       4.89977075       0.00000000 </v>
     <v>      -8.48553113       4.89793815       0.00000000 </v>
     <v>       0.00000000       0.00000000      30.00000000 </v>
    </varray>
    <i name="volume">   2494.31930445 </i>
    <varray name="rec_basis" >
     <v>       0.05890912       0.10205828       0.00000000 </v>
     <v>      -0.05893116       0.10207108       0.00000000 </v>
     <v>       0.00000000       0.00000000       0.03333333 </v>
    </varray>
   </crystal>
   <varray name="positions" >
    <v>       0.00496604      -0.00003060       0.00000373 </v>
    <v>       1.00300494       0.33603209       0.00002890 </v>
    <v>       0.66692997       0.66397259      -0.00003677 </v>
    <v>       0.00505134       0.67027994       0.00023938 </v>
    <v>       0.33196615       0.00013942       0.00000752 </v>
    <v>       0.33485229       0.32960321      -0.00023033 </v>
    <v>       0.32947462       0.66777214      -0.00023713 </v>
    <v>       0.66250147      -0.00010758      -0.00000995 </v>
    <v>       0.66152593       0.33213910       0.00024120 </v>
    <v>       0.10543309       0.21931034       0.95187806 </v>
    <v>       0.21605814       0.10802815       0.04996761 </v>
    <v>       0.10927293       0.55021418       0.95007130 </v>
    <v>       0.21730481       0.44262942       0.04919606 </v>
    <v>       0.10786936       0.89188913       0.95006736 </v>
    <v>       0.22313211       0.77731550       0.05122370 </v>
    <v>       0.44568673       0.22255675       0.94874810 </v>
    <v>       0.55640337       0.11166070       0.05105211 </v>
    <v>       0.44937842       0.55902421       0.95096798 </v>
    <v>       0.55903904       0.44962937       0.04994338 </v>
    <v>       0.44454685       0.88816984       0.94894881 </v>
    <v>       0.55778450       0.77514163       0.04915730 </v>
    <v>       0.78236872       0.22460777       0.95082998 </v>
    <v>       0.89287277       0.11285133       0.04753971 </v>
    <v>       0.77450003       0.55727904       0.95081493 </v>
    <v>       0.89035411       0.44069480       0.04900378 </v>
    <v>       0.77977258       0.88686134       0.95243193 </v>
    <v>       0.88616412       0.78055064       0.04815125 </v>
   </varray>
  </structure>
  <varray name="forces" >
   <v>       0.28378853       0.16285398       0.00136143 </v>
   <v>      -0.04643679       0.27001666       0.07735017 </v>
   <v>       0.20743434      -0.17333076      -0.07652620 </v>
   <v>       0.26672822       0.38858051      -0.00707863 </v>
   <v>       0.09481595       0.06097883      -0.00185226 </v>
   <v>       0.47423534       0.02863583       0.00843446 </v>
   <v>      -0.47520981      -0.01782865       0.02924437 </v>
   <v>      -0.38391827      -0.22588513      -0.00252521 </v>
   <v>      -0.24962934      -0.41048518      -0.03396879 </v>
   <v>       0.04257210      -0.02621019      -0.31809024 </v>
   <v>      -0.01539268      -0.04672281       0.46707287 </v>
   <v>       0.00237425      -0.03257734      -0.49093049 </v>
   <v>       0.04043117      -0.00136350       0.19874313 </v>
   <v>      -0.03679246       0.01309776      -0.46979651 </v>
   <v>      -0.02375142       0.04132611       0.54337226 </v>
   <v>       0.02523769      -0.03698616      -0.54753570 </v>
   <v>      -0.07110872      -0.02611230       0.49330777 </v>
   <v>      -0.01192675      -0.00674738      -0.18836050 </v>
   <v>      -0.02941748       0.01871280       0.49140882 </v>
   <v>      -0.05867184      -0.04646115      -0.49022135 </v>
   <v>      -0.00270199      -0.03639475       0.21411134 </v>
   <v>      -0.02834127       0.02654469      -0.20409263 </v>
   <v>       0.00255549      -0.01121759       0.09780896 </v>
   <v>       0.03033610       0.03506868      -0.20328143 </v>
   <v>      -0.02426494      -0.00718106       0.19419329 </v>
   <v>      -0.00371373       0.01845129      -0.09466677 </v>
   <v>      -0.00923172       0.04123680       0.31251783 </v>
  </varray>
  <varray name="stress" >
   <v>      -5.76349547       0.03152454      -0.09256297 </v>
   <v>       0.03152463      -5.82593309       0.03262808 </v>
   <v>      -0.09256306       0.03262795       4.54642088 </v>
  </varray>
  <energy>
   <i name="e_fr_energy">   -190.69255910 </i>
   <i name="e_wo_entrp">   -190.59122254 </i>
   <i name="e_0_energy">     -0.20267313 </i>
  </energy>
  <time name="totalsc">  393.52  394.56</time>
 </calculation>
 <calculation>
  <scstep>
   <time name="dav">   22.75   22.81</time>
   <time name="total">   23.27   23.33</time>
   <energy>
    <i name="alphaZ">     90.23078023 </i>
    <i name="ewald">  44692.52507485 </i>
    <i name="hartreedc"> -50736.39052489 </i>
    <i name="XCdc">   -231.79808961 </i>
    <i name="pawpsdc">   4063.28098924 </i>
    <i name="pawaedc">  -3479.14931937 </i>
    <i name="eentropy">     -0.18342975 </i>
    <i name="bandstr">  -1352.04614165 </i>
    <i name="atom">   6761.44252427 </i>
    <i name="e_fr_energy">   -192.08813669 </i>
    <i name="e_wo_entrp">   -191.90470694 </i>
    <i name="e_0_energy">   -191.99642181 </i>
   </energy>
  </scstep>
  <scstep>
   <time name="dav">   31.88   31.96</time>
   <time name="total">   32.39   32.48</time>
   <energy>
    <i name="e_fr_energy">   -191.79371993 </i>
    <i name="e_wo_entrp">   -191.60388804 </i>
    <i name="e_0_energy">   -191.69880398 </i>
   </energy>
  </scstep>
  <scstep>
   <time name="dav">   31.81   31.89</time>
   <time name="total">   32.32   32.41</time>
   <energy>
    <i name="e_fr_energy">   -191.86239871 </i>
    <i name="e_wo_entrp">   -191.66330948 </i>
    <i name="e_0_energy">   -191.76285410 </i>
   </energy>
  </scstep>
  <scstep>
   <time name="dav">   31.98   32.05</time>
   <time name="total">   32.49   32.57</time>
   <energy>
    <i name="e_fr_energy">   -191.60954761 </i>
    <i name="e_wo_entrp">   -191.42586226 </i>
    <i name="e_0_energy">   -191.51770493 </i>
   </energy>
  </scstep>
  <scstep>
   <time name="dav">   32.08   32.15</time>
   <time name="total">   32.59   32.68</time>
   <energy>
    <i name="e_fr_energy">   -191.37133392 </i>
    <i name="e_wo_entrp">   -191.17917473 </i>
    <i name="e_0_energy">   -191.27525432 </i>
   </energy>
  </scstep>
  <scstep>
   <time name="dav">   32.10   32.18</time>
   <time name="total">   32.61   32.70</time>
   <energy>
    <i name="e_fr_energy">   -191.36915412 </i>
    <i name="e_wo_entrp">   -191.17723214 </i>
    <i name="e_0_energy">   -191.27319313 </i>
   </energy>
  </scstep>
  <scstep>
   <time name="dav">   30.64   30.71</time>
   <time name="total">   31.15   31.24</time>
   <energy>
    <i name="e_fr_energy">   -191.36808107 </i>
    <i name="e_wo_entrp">   -191.17622980 </i>
    <i name="e_0_energy">   -191.27215544 </i>
   </energy>
  </scstep>
  <scstep>
   <time name="dav">   30.78   30.85</time>
   <time name="total">   31.29   31.38</time>
   <energy>
    <i name="e_fr_energy">   -191.35689795 </i>
    <i name="e_wo_entrp">   -191.16513420 </i>
    <i name="e_0_energy">   -191.26101608 </i>
   </energy>
  </scstep>
  <scstep>
   <time name="dav">   30.43   30.51</time>
   <time name="total">   30.94   31.03</time>
   <energy>
    <i name="e_fr_energy">   -191.35789445 </i>
    <i name="e_wo_entrp">   -191.16614496 </i>
    <i name="e_0_energy">   -191.26201971 </i>
   </energy>
  </scstep>
  <scstep>
   <time name="dav">   31.18   31.25</time>
   <time name="total">   31.69   31.77</time>
   <energy>
    <i name="e_fr_energy">   -191.35723780 </i>
    <i name="e_wo_entrp">   -191.16539719 </i>
    <i name="e_0_energy">   -191.26131750 </i>
   </energy>
  </scstep>
  <scstep>
   <time name="dav">   24.69   24.75</time>
   <time name="total">   24.73   24.79</time>
   <energy>
    <i name="alphaZ">     90.23078023 </i>
    <i name="ewald">  44692.52507485 </i>
    <i name="hartreedc"> -50701.75828941 </i>
    <i name="XCdc">   -233.36099762 </i>
    <i name="pawpsdc">   4084.01683285 </i>
    <i name="pawaedc">  -3499.95110748 </i>
    <i name="eentropy">     -0.19179947 </i>
    <i name="bandstr">  -1384.31017669 </i>
    <i name="atom">   6761.44252427 </i>
    <i name="e_fr_energy">   -191.35715848 </i>
    <i name="e_wo_entrp">   -191.16535901 </i>
    <i name="e_0_energy">   -191.26125875 </i>
   </energy>
  </scstep>
  <structure>
   <crystal>
    <varray name="basis" >
     <v>       8.27937599       4.77989661       0.00000000 </v>
     <v>      -8.27618149       4.77437375       0.00000000 </v>
     <v>       0.00000000       0.00000000      30.00000000 </v>
    </varray>
    <i name="volume">   2372.64381845 </i>
    <varray name="rec_basis" >
     <v>       0.06036777       0.10464506       0.00000000 </v>
     <v>      -0.06043760       0.10468545       0.00000000 </v>
     <v>       0.00000000       0.00000000       0.03333333 </v>
    </varray>
   </crystal>
   <varray name="positions" >
    <v>       0.00905660      -0.00003992       0.00000977 </v>
    <v>       1.00595932       0.33970896       0.00035455 </v>
    <v>       0.66619488       0.66033138      -0.00035797 </v>
    <v>       0.01174150       0.67312468       0.00021866 </v>
    <v>       0.33340465       0.00021382      -0.00000122 </v>
    <v>       0.33863744       0.32663451      -0.00020701 </v>
    <v>       0.32594738       0.67094941      -0.00009814 </v>
    <v>       0.65684141      -0.00016405      -0.00001707 </v>
    <v>       0.65472865       0.32882555       0.00008591 </v>
    <v>       0.10493932       0.21844192       0.95011098 </v>
    <v>       0.21490240       0.10734938       0.05242104 </v>
    <v>       0.10841301       0.54926663       0.94752303 </v>
    <v>       0.21706617       0.44192534       0.05055827 </v>
    <v>       0.10750884       0.89251159       0.94760062 </v>
    <v>       0.22344147       0.77803835       0.05402000 </v>
    <v>       0.44531199       0.22187738       0.94593202 </v>
    <v>       0.55544392       0.11171991       0.05364669 </v>
    <v>       0.44978309       0.55918608       0.94966264 </v>
    <v>       0.55914579       0.45060543       0.05249197 </v>
    <v>       0.44351687       0.88813936       0.94636397 </v>
    <v>       0.55758929       0.77440616       0.05058754 </v>
    <v>       0.78307231       0.22546523       0.94944492 </v>
    <v>       0.89336627       0.11299326       0.04842946 </v>
    <v>       0.77503392       0.55789186       0.94942830 </v>
    <v>       0.89051703       0.44063250       0.05033942 </v>
    <v>       0.78028882       0.88682530       0.95156075 </v>
    <v>       0.88636213       0.78135443       0.04989080 </v>
   </varray>
  </structure>
  <varray name="forces" >
   <v>       0.22350828       0.12774286      -0.00406531 </v>
   <v>      -0.02399542       0.30467073       0.00152601 </v>
   <v>       0.24527519      -0.17042920      -0.00148140 </v>
   <v>       0.21858719       0.31652007      -0.01975417 </v>
   <v>       0.16546304       0.09516981       0.00161154 </v>
   <v>       0.37782898       0.02240063       0.01963345 </v>
   <v>      -0.47555254       0.06161782       0.00150232 </v>
   <v>      -0.35951281      -0.21411632       0.00481432 </v>
   <v>      -0.18201568      -0.44218734       0.00698540 </v>
   <v>       0.07949594       0.09398133       0.00701121 </v>
   <v>       0.08344163       0.06198235       0.11749578 </v>
   <v>      -0.02317333       0.05570354      -0.18752877 </v>
   <v>       0.12578832       0.14580521      -0.09278031 </v>
   <v>       0.09063231       0.04221682      -0.11327050 </v>
   <v>      -0.09727452       0.08182337       0.27823655 </v>
   <v>       0.02078179      -0.12279304      -0.28216987 </v>
   <v>      -0.10225153      -0.01838948       0.24319328 </v>
   <v>      -0.10905180      -0.15988150       0.15580399 </v>
   <v>       0.03486591      -0.05192614       0.18063004 </v>
   <v>      -0.06547564      -0.07656318      -0.24743711 </v>
   <v>      -0.09588263      -0.06423339      -0.07306688 </v>
   <v>      -0.09945168      -0.05092476       0.07080490 </v>
   <v>      -0.05104186      -0.07686398      -0.17378254 </v>
   <v>       0.18472947       0.03474495       0.10030159 </v>
   <v>      -0.19304836      -0.01834113      -0.15888042 </v>
   <v>      -0.09216718      -0.00283618       0.16892429 </v>
   <v>       0.11949696       0.02510616      -0.00425738 </v>
  </varray>
  <varray name="stress" >
   <v>      -0.14518576       0.19321697      -0.17956037 </v>
   <v>       0.19321689      -0.32287344       0.30282807 </v>
   <v>      -0.17956011       0.30282807      -0.39798432 </v>
  </varray>
  <energy>
   <i name="e_fr_energy">   -191.35715848 </i>
   <i name="e_wo_entrp">   -191.26125875 </i>
   <i name="e_0_energy">     -0.19179947 </i>
  </energy>
  <time name="totalsc">  379.01  380.01</time>
 </calculation>
 <calculation>
  <scstep>
   <time name="dav">   22.71   22.76</time>
   <time name="total">   23.22   23.28</time>
   <energy>
    <i name="alphaZ">     90.38215414 </i>
    <i name="ewald">  44746.68116648 </i>
    <i name="hartreedc"> -50758.04374648 </i>
    <i name="XCdc">   -233.32028319 </i>
    <i name="pawpsdc">   4084.15572145 </i>
    <i name="pawaedc">  -3500.08746766 </i>
    <i name="eentropy">     -0.19482186 </i>
    <i name="bandstr">  -1382.46789128 </i>
    <i name="atom">   6761.44252427 </i>
    <i name="e_fr_energy">   -191.45264413 </i>
    <i name="e_wo_entrp">   -191.25782226 </i>
    <i name="e_0_energy">   -191.35523319 </i>
   </energy>
  </scstep>
  <scstep>
   <time name="dav">   32.38   32.46</time>
   <time name="total">   32.89   32.97</time>
   <energy>
    <i name="e_fr_energy">   -191.52177232 </i>
    <i name="e_wo_entrp">   -191.31701601 </i>
    <i name="e_0_energy">   -191.41939416 </i>
   </energy>
  </scstep>
  <scstep>
   <time name="dav">   31.89   31.97</time>
   <time name="total">   32.41   32.49</time>
   <energy>
    <i name="e_fr_energy">   -191.46583319 </i>
    <i name="e_wo_entrp">   -191.26984894 </i>
    <i name="e_0_energy">   -191.36784107 </i>
   </energy>
  </scstep>
  <scstep>
   <time name="dav">   28.70   28.77</time>
   <time name="total">   29.21   29.28</time>
   <energy>
    <i name="e_fr_energy">   -191.46327330 </i>
    <i name="e_wo_entrp">   -191.26670889 </i>
    <i name="e_0_energy">   -191.36499110 </i>
   </energy>
  </scstep>
  <scstep>
   <time name="dav">   29.27   29.34</time>
   <time name="total">   29.78   29.86</time>
   <energy>
    <i name="e_fr_energy">   -191.46299407 </i>
    <i name="e_wo_entrp">   -191.26558864 </i>
    <i name="e_0_energy">   -191.36429135 </i>
   </energy>
  </scstep>
  <scstep>
   <time name="dav">   30.16   30.23</time>
   <time name="total">   30.67   30.75</time>
   <energy>
    <i name="e_fr_energy">   -191.46189757 </i>
    <i name="e_wo_entrp">   -191.26470106 </i>
    <i name="e_0_energy">   -191.36329932 </i>
   </energy>
  </scstep>
  <scstep>
   <time name="dav">   29.70   29.77</time>
   <time name="total">   30.21   30.29</time>
   <energy>
    <i name="e_fr_energy">   -191.46134120 </i>
    <i name="e_wo_entrp">   -191.26392636 </i>
    <i name="e_0_energy">   -191.36263378 </i>
   </energy>
  </scstep>
  <scstep>
   <time name="dav">   24.50   24.55</time>
   <time name="total">   24.53   24.60</time>
   <energy>
    <i name="alphaZ">     90.38215414 </i>
    <i name="ewald">  44746.68116648 </i>
    <i name="hartreedc"> -50757.89639630 </i>
    <i name="XCdc">   -233.34989547 </i>
    <i name="pawpsdc">   4084.56126940 </i>
    <i name="pawaedc">  -3500.48176433 </i>
    <i name="eentropy">     -0.19731181 </i>
    <i name="bandstr">  -1382.60308585 </i>
    <i name="atom">   6761.44252427 </i>
    <i name="e_fr_energy">   -191.46133947 </i>
    <i name="e_wo_entrp">   -191.26402765 </i>
    <i name="e_0_energy">   -191.36268356 </i>
   </energy>
  </scstep>
  <structure>
   <crystal>
    <varray name="basis" >
     <v>       8.27696131       4.77909332       0.00000000 </v>
     <v>      -8.26874024       4.76486311       0.00000000 </v>
     <v>       0.00000000       0.00000000      30.00000000 </v>
    </varray>
    <i name="volume">   2368.67006528 </i>
    <varray name="rec_basis" >
     <v>       0.06034859       0.10472637       0.00000000 </v>
     <v>      -0.06052882       0.10483049       0.00000000 </v>
     <v>       0.00000000       0.00000000       0.03333333 </v>
    </varray>
   </crystal>
   <varray name="positions" >
    <v>       0.01044006      -0.00004671       0.00000317 </v>
    <v>       1.00750234       0.34140631       0.00036173 </v>
    <v>       0.66603449       0.65866798      -0.00036500 </v>
    <v>       0.01412106       0.67414736       0.00018594 </v>
    <v>       0.33440946       0.00021299       0.00000130 </v>
    <v>       0.33993230       0.32558223      -0.00017448 </v>
    <v>       0.32480012       0.67273094      -0.00009353 </v>
    <v>       0.65458391      -0.00019878      -0.00000922 </v>
    <v>       0.65180782       0.32703713       0.00009507 </v>
    <v>       0.10565040       0.21867606       0.95009339 </v>
    <v>       0.21545075       0.10740932       0.05265385 </v>
    <v>       0.10861531       0.54960551       0.94717367 </v>
    <v>       0.21818610       0.44229001       0.05042980 </v>
    <v>       0.10798955       0.89246988       0.94737454 </v>
    <v>       0.22357828       0.77876185       0.05452240 </v>
    <v>       0.44473350       0.22117098       0.94542284 </v>
    <v>       0.55502965       0.11192959       0.05408862 </v>
    <v>       0.44864321       0.55868898       0.94989574 </v>
    <v>       0.55898374       0.45025165       0.05282996 </v>
    <v>       0.44291156       0.88793978       0.94591517 </v>
    <v>       0.55697158       0.77434720       0.05049251 </v>
    <v>       0.78252807       0.22551376       0.94953691 </v>
    <v>       0.89282970       0.11275308       0.04816051 </v>
    <v>       0.77577024       0.55753251       0.94956875 </v>
    <v>       0.88985323       0.44111142       0.05010174 </v>
    <v>       0.78000964       0.88708242       0.95182202 </v>
    <v>       0.88684839       0.78114099       0.04991249 </v>
   </varray>
  </structure>
  <varray name="forces" >
   <v>       0.25246936       0.13483398       0.00030938 </v>
   <v>       0.02001451       0.32746857       0.03586226 </v>
   <v>       0.29833528      -0.15054772      -0.04068585 </v>
   <v>       0.17710775       0.35823546      -0.00141199 </v>
   <v>       0.14736558       0.07816981      -0.00175626 </v>
   <v>       0.40175793      -0.01332101       0.00019399 </v>
   <v>      -0.49387890       0.07331363       0.02061891 </v>
   <v>      -0.38589047      -0.23500938      -0.00054322 </v>
   <v>      -0.19618409      -0.45271936      -0.02628335 </v>
   <v>       0.04816563       0.06596698       0.02680543 </v>
   <v>       0.06525238       0.03689682       0.10111938 </v>
   <v>      -0.01812589       0.04808101      -0.18040210 </v>
   <v>       0.08729994       0.13785042      -0.11932712 </v>
   <v>       0.06436679       0.03822582      -0.10146559 </v>
   <v>      -0.08320085       0.07558747       0.24747959 </v>
   <v>       0.02487780      -0.10699228      -0.24453826 </v>
   <v>      -0.06914487      -0.01363267       0.23961966 </v>
   <v>      -0.10338258      -0.11313551       0.21183449 </v>
   <v>       0.02563361      -0.03729016       0.17455956 </v>
   <v>      -0.04487076      -0.05219187      -0.23945265 </v>
   <v>      -0.07858617      -0.05680482      -0.09010160 </v>
   <v>      -0.08620327      -0.04503761       0.09142782 </v>
   <v>      -0.05219938      -0.06316681      -0.23181113 </v>
   <v>       0.15464680       0.00676475       0.13204868 </v>
   <v>      -0.15605149      -0.03394427      -0.20654151 </v>
   <v>      -0.07747406      -0.01539952       0.23313312 </v>
   <v>       0.07789942       0.00779828      -0.03069163 </v>
  </varray>
  <varray name="stress" >
   <v>       0.29373426       0.10700534      -0.15651558 </v>
   <v>       0.10700530       0.18625954       0.24873693 </v>
   <v>      -0.15651569       0.24873683      -0.94036568 </v>
  </varray>
  <energy>
   <i name="e_fr_energy">   -191.46133947 </i>
   <i name="e_wo_entrp">   -191.36268356 </i>
   <i name="e_0_energy">     -0.19731181 </i>
  </energy>
  <time name="totalsc">  276.42  277.15</time>
 </calculation>
 <calculation>
  <scstep>
   <time name="dav">   22.72   22.77</time>
   <time name="total">   23.23   23.29</time>
   <energy>
    <i name="alphaZ">     90.32571568 </i>
    <i name="ewald">  44722.51483499 </i>
    <i name="hartreedc"> -50733.04354340 </i>
    <i name="XCdc">   -233.38284498 </i>
    <i name="pawpsdc">   4084.58644035 </i>
    <i name="pawaedc">  -3500.50750342 </i>
    <i name="eentropy">     -0.19757490 </i>
    <i name="bandstr">  -1383.21817058 </i>
    <i name="atom">   6761.44252427 </i>
    <i name="e_fr_energy">   -191.48012199 </i>
    <i name="e_wo_entrp">   -191.28254709 </i>
    <i name="e_0_energy">   -191.38133454 </i>
   </energy>
  </scstep>
  <scstep>
   <time name="dav">   32.62   32.70</time>
   <time name="total">   33.13   33.22</time>
   <energy>
    <i name="e_fr_energy">   -191.48347730 </i>
    <i name="e_wo_entrp">   -191.28358629 </i>
    <i name="e_0_energy">   -191.38353179 </i>
   </energy>
  </scstep>
  <scstep>
   <time name="dav">   30.17   30.24</time>
   <time name="total">   30.68   30.76</time>
   <energy>
    <i name="e_fr_energy">   -191.48045865 </i>
    <i name="e_wo_entrp">   -191.28258037 </i>
    <i name="e_0_energy">   -191.38151951 </i>
   </energy>
  </scstep>
  <scstep>
   <time name="dav">   24.58   24.64</time>
   <time name="total">   25.09   25.16</time>
   <energy>
    <i name="e_fr_energy">   -191.48058983 </i>
    <i name="e_wo_entrp">   -191.28272254 </i>
    <i name="e_0_energy">   -191.38165618 </i>
   </energy>
  </scstep>
  <scstep>
   <time name="dav">   23.77   23.82</time>
   <time name="total">   24.28   24.34</time>
   <energy>
    <i name="e_fr_energy">   -191.48039913 </i>
    <i name="e_wo_entrp">   -191.28232909 </i>
    <i name="e_0_energy">   -191.38136411 </i>
   </energy>
  </scstep>
  <scstep>
   <time name="dav">   18.19   18.24</time>
   <time name="total">   18.23   18.28</time>
   <energy>
    <i name="alphaZ">     90.32571568 </i>
    <i name="ewald">  44722.51483499 </i>
    <i name="hartreedc"> -50733.95561200 </i>
    <i name="XCdc">   -233.35733794 </i>
    <i name="pawpsdc">   4085.10076307 </i>
    <i name="pawaedc">  -3501.02727790 </i>
    <i name="eentropy">     -0.19805998 </i>
    <i name="bandstr">  -1382.32592377 </i>
    <i name="atom">   6761.44252427 </i>
    <i name="e_fr_energy">   -191.48037359 </i>
    <i name="e_wo_entrp">   -191.28231361 </i>
    <i name="e_0_energy">   -191.38134360 </i>
   </energy>
  </scstep>
  <structure>
   <crystal>
    <varray name="basis" >
     <v>       8.28001575       4.78089022       0.00000000 </v>
     <v>      -8.27129479       4.76579414       0.00000000 </v>
     <v>       0.00000000       0.00000000      30.00000000 </v>
    </varray>
    <i name="volume">   2370.15008777 </i>
    <varray name="rec_basis" >
     <v>       0.06032269       0.10469330       0.00000000 </v>
     <v>      -0.06051377       0.10480369       0.00000000 </v>
     <v>       0.00000000       0.00000000       0.03333333 </v>
    </varray>
   </crystal>
   <varray name="positions" >
    <v>       0.01069208      -0.00005901       0.00000333 </v>
    <v>       1.00783125       0.34169848       0.00037110 </v>
    <v>       0.66606995       0.65836704      -0.00037618 </v>
    <v>       0.01453399       0.67439213       0.00018617 </v>
    <v>       0.33456267       0.00020434       0.00000072 </v>
    <v>       0.34011824       0.32535143      -0.00017515 </v>
    <v>       0.32461583       0.67307553      -0.00008774 </v>
    <v>       0.65416230      -0.00021148      -0.00000950 </v>
    <v>       0.65128488       0.32671594       0.00008713 </v>
    <v>       0.10575339       0.21872639       0.95012547 </v>
    <v>       0.21554161       0.10741602       0.05265661 </v>
    <v>       0.10866710       0.54968013       0.94714515 </v>
    <v>       0.21838724       0.44239371       0.05037042 </v>
    <v>       0.10807268       0.89246387       0.94737169 </v>
    <v>       0.22360438       0.77888243       0.05456973 </v>
    <v>       0.44464256       0.22105223       0.94537693 </v>
    <v>       0.55498694       0.11195620       0.05413628 </v>
    <v>       0.44845786       0.55863383       0.94998618 </v>
    <v>       0.55895917       0.45018432       0.05285657 </v>
    <v>       0.44284426       0.88791271       0.94586761 </v>
    <v>       0.55686608       0.77434508       0.05044239 </v>
    <v>       0.78241808       0.22550697       0.94958705 </v>
    <v>       0.89272321       0.11271599       0.04806818 </v>
    <v>       0.77586190       0.55743532       0.94963285 </v>
    <v>       0.88971884       0.44116884       0.05001294 </v>
    <v>       0.77993837       0.88711382       0.95191472 </v>
    <v>       0.88689961       0.78109219       0.04987925 </v>
   </varray>
  </structure>
  <varray name="forces" >
   <v>       0.25192404       0.14043122       0.00082532 </v>
[...]
      <set comment="kpoint 31">
       <r>  -17.5439    1.0000 </r>
       <r>  -17.3195    1.0000 </r>
       <r>  -16.8828    1.0000 </r>
       <r>  -16.7381    1.0000 </r>
       <r>  -16.5160    1.0000 </r>
       <r>  -16.4672    1.0000 </r>
       <r>  -16.3344    1.0000 </r>
       <r>  -16.1939    1.0000 </r>
       <r>  -16.1648    1.0000 </r>
       <r>  -16.0572    1.0000 </r>
       <r>  -15.8958    1.0000 </r>
       <r>  -15.8745    1.0000 </r>
       <r>  -15.8091    1.0000 </r>
       <r>  -15.6845    1.0000 </r>
       <r>  -15.5857    1.0000 </r>
       <r>  -15.3621    1.0000 </r>
       <r>  -15.3251    1.0000 </r>
       <r>  -15.2280    1.0000 </r>
       <r>   -9.8084    1.0000 </r>
       <r>   -9.5158    1.0000 </r>
       <r>   -9.4389    1.0000 </r>
       <r>   -8.9953    1.0000 </r>
       <r>   -8.7696    1.0000 </r>
       <r>   -8.7240    1.0000 </r>
       <r>   -8.6627    1.0000 </r>
       <r>   -8.5465    1.0000 </r>
       <r>   -8.4290    1.0000 </r>
       <r>   -8.3309    1.0000 </r>
       <r>   -8.2587    1.0000 </r>
       <r>   -8.1630    1.0000 </r>
       <r>   -8.1227    1.0000 </r>
       <r>   -8.0453    1.0000 </r>
       <r>   -7.9878    1.0000 </r>
       <r>   -7.9028    1.0000 </r>
       <r>   -7.8318    1.0000 </r>
       <r>   -7.7927    1.0000 </r>
       <r>   -7.6006    1.0000 </r>
       <r>   -7.4405    1.0000 </r>
       <r>   -7.3745    1.0000 </r>
       <r>   -7.3374    1.0000 </r>
       <r>   -7.1222    1.0000 </r>
       <r>   -7.0541    1.0000 </r>
       <r>   -6.9627    1.0000 </r>
       <r>   -6.8547    1.0000 </r>
       <r>   -6.8132    1.0000 </r>
       <r>   -6.7822    1.0000 </r>
       <r>   -6.7186    1.0000 </r>
       <r>   -6.5606    1.0000 </r>
       <r>   -6.5215    1.0000 </r>
       <r>   -6.4897    1.0000 </r>
       <r>   -6.4100    1.0000 </r>
       <r>   -6.3867    1.0000 </r>
       <r>   -6.2916    1.0000 </r>
       <r>   -6.1625    1.0000 </r>
       <r>   -6.1044    1.0000 </r>
       <r>   -6.0271    1.0000 </r>
       <r>   -5.9931    1.0000 </r>
       <r>   -5.9447    1.0000 </r>
       <r>   -5.8478    1.0000 </r>
       <r>   -5.7454    1.0000 </r>
       <r>   -5.6516    1.0000 </r>
       <r>   -5.6095    1.0000 </r>
       <r>   -5.5245    1.0000 </r>
       <r>   -5.4172    1.0000 </r>
       <r>   -5.2964    1.0000 </r>
       <r>   -5.1306    1.0000 </r>
       <r>   -5.0705    1.0000 </r>
       <r>   -4.8468    1.0000 </r>
       <r>   -4.7821    1.0000 </r>
       <r>   -4.7109    1.0000 </r>
       <r>   -4.5809    1.0000 </r>
       <r>   -4.4468    1.0000 </r>
       <r>   -4.3876    1.0000 </r>
       <r>   -4.3044    1.0000 </r>
       <r>   -4.1496    1.0000 </r>
       <r>   -4.0366    1.0000 </r>
       <r>   -3.9200    1.0000 </r>
       <r>   -3.5546    0.9493 </r>
       <r>   -3.4805    0.8674 </r>
       <r>   -3.2707    0.3558 </r>
       <r>   -3.1172    0.0729 </r>
       <r>   -2.9532    0.0045 </r>
       <r>   -2.7734    0.0001 </r>
       <r>   -2.6921    0.0000 </r>
       <r>   -2.6343    0.0000 </r>
       <r>   -2.5198    0.0000 </r>
       <r>   -2.2514    0.0000 </r>
       <r>   -2.1699    0.0000 </r>
       <r>   -2.1487    0.0000 </r>
       <r>   -2.0059    0.0000 </r>
       <r>   -1.6107    0.0000 </r>
       <r>   -1.5132    0.0000 </r>
       <r>   -1.3112    0.0000 </r>
       <r>   -1.2382    0.0000 </r>
       <r>   -1.1941    0.0000 </r>
       <r>   -1.1459    0.0000 </r>
       <r>   -1.0528    0.0000 </r>
       <r>   -0.9973    0.0000 </r>
       <r>   -0.9559    0.0000 </r>
       <r>   -0.9141    0.0000 </r>
       <r>   -0.8299    0.0000 </r>
       <r>   -0.7503    0.0000 </r>
       <r>   -0.6898    0.0000 </r>
       <r>   -0.6259    0.0000 </r>
       <r>   -0.5082    0.0000 </r>
       <r>   -0.4229    0.0000 </r>
       <r>   -0.3368    0.0000 </r>
       <r>    0.0000    0.0000 </r>
       <r>    0.1593    0.0000 </r>
       <r>    0.2331    0.0000 </r>
       <r>    0.3800    0.0000 </r>
       <r>    0.4931    0.0000 </r>
       <r>    0.6380    0.0000 </r>
       <r>    0.8448    0.0000 </r>
       <r>    0.9942    0.0000 </r>
       <r>    1.2445    0.0000 </r>
       <r>    1.5356    0.0000 </r>
       <r>    2.1404    0.0000 </r>
       <r>    2.2990    0.0000 </r>
       <r>    2.4072    0.0000 </r>
      </set>
      <set comment="kpoint 32">
       <r>  -17.5795    1.0000 </r>
       <r>  -17.2242    1.0000 </r>
       <r>  -16.9914    1.0000 </r>
       <r>  -16.7437    1.0000 </r>
       <r>  -16.4885    1.0000 </r>
       <r>  -16.3740    1.0000 </r>
       <r>  -16.3071    1.0000 </r>
       <r>  -16.2597    1.0000 </r>
       <r>  -16.1424    1.0000 </r>
       <r>  -16.0479    1.0000 </r>
       <r>  -15.9503    1.0000 </r>
       <r>  -15.8881    1.0000 </r>
       <r>  -15.8307    1.0000 </r>
       <r>  -15.6660    1.0000 </r>
       <r>  -15.5923    1.0000 </r>
       <r>  -15.3612    1.0000 </r>
       <r>  -15.3159    1.0000 </r>
       <r>  -15.2228    1.0000 </r>
       <r>   -9.7182    1.0000 </r>
       <r>   -9.6087    1.0000 </r>
       <r>   -9.4674    1.0000 </r>
       <r>   -9.0523    1.0000 </r>
       <r>   -8.7127    1.0000 </r>
       <r>   -8.6557    1.0000 </r>
       <r>   -8.5637    1.0000 </r>
       <r>   -8.4509    1.0000 </r>
       <r>   -8.4074    1.0000 </r>
       <r>   -8.3547    1.0000 </r>
       <r>   -8.3031    1.0000 </r>
       <r>   -8.2641    1.0000 </r>
       <r>   -8.1315    1.0000 </r>
       <r>   -8.1024    1.0000 </r>
       <r>   -8.0405    1.0000 </r>
       <r>   -7.9369    1.0000 </r>
       <r>   -7.8363    1.0000 </r>
       <r>   -7.7955    1.0000 </r>
       <r>   -7.5858    1.0000 </r>
       <r>   -7.4152    1.0000 </r>
       <r>   -7.3124    1.0000 </r>
       <r>   -7.2525    1.0000 </r>
       <r>   -7.1831    1.0000 </r>
       <r>   -7.0887    1.0000 </r>
       <r>   -6.9763    1.0000 </r>
       <r>   -6.8793    1.0000 </r>
       <r>   -6.8427    1.0000 </r>
       <r>   -6.7812    1.0000 </r>
       <r>   -6.6724    1.0000 </r>
       <r>   -6.5986    1.0000 </r>
       <r>   -6.5145    1.0000 </r>
       <r>   -6.4542    1.0000 </r>
       <r>   -6.4170    1.0000 </r>
       <r>   -6.3567    1.0000 </r>
       <r>   -6.2798    1.0000 </r>
       <r>   -6.2385    1.0000 </r>
       <r>   -6.1591    1.0000 </r>
       <r>   -6.0244    1.0000 </r>
       <r>   -5.9547    1.0000 </r>
       <r>   -5.9102    1.0000 </r>
       <r>   -5.7855    1.0000 </r>
       <r>   -5.7381    1.0000 </r>
       <r>   -5.6883    1.0000 </r>
       <r>   -5.5678    1.0000 </r>
       <r>   -5.5001    1.0000 </r>
       <r>   -5.4286    1.0000 </r>
       <r>   -5.2711    1.0000 </r>
       <r>   -5.1471    1.0000 </r>
       <r>   -5.0685    1.0000 </r>
       <r>   -4.9945    1.0000 </r>
       <r>   -4.7706    1.0000 </r>
       <r>   -4.6848    1.0000 </r>
       <r>   -4.6151    1.0000 </r>
       <r>   -4.4566    1.0000 </r>
       <r>   -4.3728    1.0000 </r>
       <r>   -4.3428    1.0000 </r>
       <r>   -4.1349    1.0000 </r>
       <r>   -3.9975    1.0000 </r>
       <r>   -3.8301    0.9998 </r>
       <r>   -3.6317    0.9855 </r>
       <r>   -3.5526    0.9478 </r>
       <r>   -3.2312    0.2582 </r>
       <r>   -3.1224    0.0780 </r>
       <r>   -2.8999    0.0014 </r>
       <r>   -2.7311    0.0000 </r>
       <r>   -2.6580    0.0000 </r>
       <r>   -2.6182    0.0000 </r>
       <r>   -2.4861    0.0000 </r>
       <r>   -2.2692    0.0000 </r>
       <r>   -2.2187    0.0000 </r>
       <r>   -2.1615    0.0000 </r>
       <r>   -1.9830    0.0000 </r>
       <r>   -1.6221    0.0000 </r>
       <r>   -1.4708    0.0000 </r>
       <r>   -1.3412    0.0000 </r>
       <r>   -1.2833    0.0000 </r>
       <r>   -1.2045    0.0000 </r>
       <r>   -1.1411    0.0000 </r>
       <r>   -1.0650    0.0000 </r>
       <r>   -1.0077    0.0000 </r>
       <r>   -0.9625    0.0000 </r>
       <r>   -0.8820    0.0000 </r>
       <r>   -0.8282    0.0000 </r>
       <r>   -0.7898    0.0000 </r>
       <r>   -0.6831    0.0000 </r>
       <r>   -0.6282    0.0000 </r>
       <r>   -0.5132    0.0000 </r>
       <r>   -0.3695    0.0000 </r>
       <r>   -0.2246    0.0000 </r>
       <r>   -0.0016    0.0000 </r>
       <r>    0.0406    0.0000 </r>
       <r>    0.1747    0.0000 </r>
       <r>    0.4350    0.0000 </r>
       <r>    0.4864    0.0000 </r>
       <r>    0.6579    0.0000 </r>
       <r>    0.8603    0.0000 </r>
       <r>    0.9625    0.0000 </r>
       <r>    1.2255    0.0000 </r>
       <r>    1.4834    0.0000 </r>
       <r>    2.1012    0.0000 </r>
       <r>    2.2687    0.0000 </r>
       <r>    2.5657    0.0000 </r>
      </set>
      <set comment="kpoint 33">
       <r>  -17.5905    1.0000 </r>
       <r>  -17.2425    1.0000 </r>
       <r>  -16.9067    1.0000 </r>
       <r>  -16.7484    1.0000 </r>
       <r>  -16.5129    1.0000 </r>
       <r>  -16.4661    1.0000 </r>
       <r>  -16.3143    1.0000 </r>
       <r>  -16.2379    1.0000 </r>
       <r>  -16.0739    1.0000 </r>
       <r>  -16.0281    1.0000 </r>
       <r>  -15.9621    1.0000 </r>
       <r>  -15.8872    1.0000 </r>
       <r>  -15.8318    1.0000 </r>
       <r>  -15.6681    1.0000 </r>
       <r>  -15.6274    1.0000 </r>
       <r>  -15.3545    1.0000 </r>
       <r>  -15.3067    1.0000 </r>
       <r>  -15.2309    1.0000 </r>
       <r>   -9.7660    1.0000 </r>
       <r>   -9.5005    1.0000 </r>
       <r>   -9.3777    1.0000 </r>
       <r>   -9.0993    1.0000 </r>
       <r>   -8.8921    1.0000 </r>
       <r>   -8.7239    1.0000 </r>
       <r>   -8.5488    1.0000 </r>
       <r>   -8.5012    1.0000 </r>
       <r>   -8.4181    1.0000 </r>
       <r>   -8.3234    1.0000 </r>
       <r>   -8.2959    1.0000 </r>
       <r>   -8.2016    1.0000 </r>
       <r>   -8.1248    1.0000 </r>
       <r>   -8.0715    1.0000 </r>
       <r>   -8.0223    1.0000 </r>
       <r>   -7.8813    1.0000 </r>
       <r>   -7.8033    1.0000 </r>
       <r>   -7.7618    1.0000 </r>
       <r>   -7.6467    1.0000 </r>
       <r>   -7.3745    1.0000 </r>
       <r>   -7.2989    1.0000 </r>
       <r>   -7.1881    1.0000 </r>
       <r>   -7.1376    1.0000 </r>
       <r>   -7.1066    1.0000 </r>
       <r>   -7.0047    1.0000 </r>
       <r>   -6.9435    1.0000 </r>
       <r>   -6.8473    1.0000 </r>
       <r>   -6.7877    1.0000 </r>
       <r>   -6.6810    1.0000 </r>
       <r>   -6.6305    1.0000 </r>
       <r>   -6.4909    1.0000 </r>
       <r>   -6.4507    1.0000 </r>
       <r>   -6.4191    1.0000 </r>
       <r>   -6.3910    1.0000 </r>
       <r>   -6.2784    1.0000 </r>
       <r>   -6.2203    1.0000 </r>
       <r>   -6.1428    1.0000 </r>
       <r>   -6.0473    1.0000 </r>
       <r>   -5.9632    1.0000 </r>
       <r>   -5.9026    1.0000 </r>
       <r>   -5.8515    1.0000 </r>
       <r>   -5.8071    1.0000 </r>
       <r>   -5.6815    1.0000 </r>
       <r>   -5.6631    1.0000 </r>
       <r>   -5.4954    1.0000 </r>
       <r>   -5.3598    1.0000 </r>
       <r>   -5.2790    1.0000 </r>
       <r>   -5.1013    1.0000 </r>
       <r>   -5.0550    1.0000 </r>
       <r>   -4.9305    1.0000 </r>
       <r>   -4.8009    1.0000 </r>
       <r>   -4.6670    1.0000 </r>
       <r>   -4.6311    1.0000 </r>
       <r>   -4.4684    1.0000 </r>
       <r>   -4.3727    1.0000 </r>
       <r>   -4.2583    1.0000 </r>
       <r>   -4.1203    1.0000 </r>
       <r>   -3.9949    1.0000 </r>
       <r>   -3.8000    0.9996 </r>
       <r>   -3.7194    0.9975 </r>
       <r>   -3.6240    0.9834 </r>
       <r>   -3.3026    0.4428 </r>
       <r>   -3.0257    0.0178 </r>
       <r>   -2.8544    0.0005 </r>
       <r>   -2.7466    0.0000 </r>
       <r>   -2.6431    0.0000 </r>
       <r>   -2.5422    0.0000 </r>
       <r>   -2.4535    0.0000 </r>
       <r>   -2.3142    0.0000 </r>
       <r>   -2.2674    0.0000 </r>
       <r>   -2.1427    0.0000 </r>
       <r>   -1.9206    0.0000 </r>
       <r>   -1.6325    0.0000 </r>
       <r>   -1.4317    0.0000 </r>
       <r>   -1.3688    0.0000 </r>
       <r>   -1.3339    0.0000 </r>
       <r>   -1.2368    0.0000 </r>
       <r>   -1.1336    0.0000 </r>
       <r>   -1.0830    0.0000 </r>
       <r>   -1.0247    0.0000 </r>
       <r>   -0.9391    0.0000 </r>
       <r>   -0.8816    0.0000 </r>
       <r>   -0.8416    0.0000 </r>
       <r>   -0.7752    0.0000 </r>
       <r>   -0.6898    0.0000 </r>
       <r>   -0.6364    0.0000 </r>
       <r>   -0.4762    0.0000 </r>
       <r>   -0.3620    0.0000 </r>
       <r>   -0.1944    0.0000 </r>
       <r>   -0.1120    0.0000 </r>
       <r>   -0.0027    0.0000 </r>
       <r>    0.1829    0.0000 </r>
       <r>    0.4252    0.0000 </r>
       <r>    0.5547    0.0000 </r>
       <r>    0.6928    0.0000 </r>
       <r>    0.8849    0.0000 </r>
       <r>    0.9666    0.0000 </r>
       <r>    1.1860    0.0000 </r>
       <r>    1.4698    0.0000 </r>
       <r>    2.1224    0.0000 </r>
       <r>    2.2998    0.0000 </r>
       <r>    2.3729    0.0000 </r>
      </set>
      <set comment="kpoint 34">
       <r>  -17.5902    1.0000 </r>
       <r>  -17.2728    1.0000 </r>
       <r>  -16.7644    1.0000 </r>
       <r>  -16.7480    1.0000 </r>
       <r>  -16.6622    1.0000 </r>
       <r>  -16.4666    1.0000 </r>
       <r>  -16.3192    1.0000 </r>
       <r>  -16.2311    1.0000 </r>
       <r>  -16.0675    1.0000 </r>
       <r>  -15.9992    1.0000 </r>
       <r>  -15.9485    1.0000 </r>
       <r>  -15.8946    1.0000 </r>
       <r>  -15.7722    1.0000 </r>
       <r>  -15.7312    1.0000 </r>
       <r>  -15.6334    1.0000 </r>
       <r>  -15.3507    1.0000 </r>
       <r>  -15.2982    1.0000 </r>
       <r>  -15.2416    1.0000 </r>
       <r>   -9.8004    1.0000 </r>
       <r>   -9.3974    1.0000 </r>
       <r>   -9.2423    1.0000 </r>
       <r>   -9.1689    1.0000 </r>
       <r>   -9.0316    1.0000 </r>
       <r>   -8.8331    1.0000 </r>
       <r>   -8.5555    1.0000 </r>
       <r>   -8.4976    1.0000 </r>
       <r>   -8.4240    1.0000 </r>
       <r>   -8.3313    1.0000 </r>
       <r>   -8.2699    1.0000 </r>
       <r>   -8.1909    1.0000 </r>
       <r>   -8.1284    1.0000 </r>
       <r>   -8.0527    1.0000 </r>
       <r>   -7.9565    1.0000 </r>
       <r>   -7.8831    1.0000 </r>
       <r>   -7.7799    1.0000 </r>
       <r>   -7.7638    1.0000 </r>
       <r>   -7.5233    1.0000 </r>
       <r>   -7.4052    1.0000 </r>
       <r>   -7.2938    1.0000 </r>
       <r>   -7.2587    1.0000 </r>
       <r>   -7.0988    1.0000 </r>
       <r>   -7.0626    1.0000 </r>
       <r>   -7.0190    1.0000 </r>
       <r>   -6.9831    1.0000 </r>
       <r>   -6.8674    1.0000 </r>
       <r>   -6.7963    1.0000 </r>
       <r>   -6.6677    1.0000 </r>
       <r>   -6.5956    1.0000 </r>
       <r>   -6.5155    1.0000 </r>
       <r>   -6.4871    1.0000 </r>
       <r>   -6.4444    1.0000 </r>
       <r>   -6.3812    1.0000 </r>
       <r>   -6.2859    1.0000 </r>
       <r>   -6.1933    1.0000 </r>
       <r>   -6.0889    1.0000 </r>
       <r>   -6.0742    1.0000 </r>
       <r>   -5.9717    1.0000 </r>
       <r>   -5.9412    1.0000 </r>
       <r>   -5.8542    1.0000 </r>
       <r>   -5.8384    1.0000 </r>
       <r>   -5.7552    1.0000 </r>
       <r>   -5.6676    1.0000 </r>
       <r>   -5.4952    1.0000 </r>
       <r>   -5.3855    1.0000 </r>
       <r>   -5.2640    1.0000 </r>
       <r>   -5.1268    1.0000 </r>
       <r>   -4.9131    1.0000 </r>
       <r>   -4.8578    1.0000 </r>
       <r>   -4.8179    1.0000 </r>
       <r>   -4.7431    1.0000 </r>
       <r>   -4.6188    1.0000 </r>
       <r>   -4.4786    1.0000 </r>
       <r>   -4.3798    1.0000 </r>
       <r>   -4.1467    1.0000 </r>
       <r>   -4.1201    1.0000 </r>
       <r>   -4.0072    1.0000 </r>
       <r>   -3.8173    0.9998 </r>
       <r>   -3.7758    0.9993 </r>
       <r>   -3.6400    0.9875 </r>
       <r>   -3.3431    0.5566 </r>
       <r>   -2.9825    0.0080 </r>
       <r>   -2.8357    0.0003 </r>
       <r>   -2.7590    0.0000 </r>
       <r>   -2.6452    0.0000 </r>
       <r>   -2.4905    0.0000 </r>
       <r>   -2.4374    0.0000 </r>
       <r>   -2.3591    0.0000 </r>
       <r>   -2.2753    0.0000 </r>
       <r>   -2.1312    0.0000 </r>
       <r>   -1.8802    0.0000 </r>
       <r>   -1.6428    0.0000 </r>
       <r>   -1.4199    0.0000 </r>
       <r>   -1.3765    0.0000 </r>
       <r>   -1.3548    0.0000 </r>
       <r>   -1.2549    0.0000 </r>
       <r>   -1.1287    0.0000 </r>
       <r>   -1.0963    0.0000 </r>
       <r>   -1.0279    0.0000 </r>
       <r>   -0.9056    0.0000 </r>
       <r>   -0.8961    0.0000 </r>
       <r>   -0.8453    0.0000 </r>
       <r>   -0.7553    0.0000 </r>
       <r>   -0.7184    0.0000 </r>
       <r>   -0.6379    0.0000 </r>
       <r>   -0.4549    0.0000 </r>
       <r>   -0.3809    0.0000 </r>
       <r>   -0.2037    0.0000 </r>
       <r>   -0.1764    0.0000 </r>
       <r>    0.0264    0.0000 </r>
       <r>    0.1940    0.0000 </r>
       <r>    0.3946    0.0000 </r>
       <r>    0.5801    0.0000 </r>
       <r>    0.7337    0.0000 </r>
       <r>    0.8942    0.0000 </r>
       <r>    0.9828    0.0000 </r>
       <r>    1.1619    0.0000 </r>
       <r>    1.4746    0.0000 </r>
       <r>    2.1799    0.0000 </r>
       <r>    2.2469    0.0000 </r>
       <r>    2.3864    0.0000 </r>
      </set>
     </set>
    </set>
   </array>
  </eigenvalues>
  <separator name="orbital magnetization" >
   <v name="MAGDIPOLOUT">      0.00000000      0.00000000      0.00000000</v>
  </separator>
 </calculation>
 <structure name="finalpos" >
  <crystal>
   <varray name="basis" >
    <v>       8.36960220       4.82752885       0.00000000 </v>
    <v>      -8.34233151       4.78035330       0.00000000 </v>
    <v>       0.00000000       0.00000000      30.00000000 </v>
   </varray>
   <i name="volume">   2408.47504516 </i>
   <varray name="rec_basis" >
    <v>       0.05954415       0.10391220       0.00000000 </v>
    <v>      -0.06013177       0.10425189       0.00000000 </v>
    <v>       0.00000000       0.00000000       0.03333333 </v>
   </varray>
  </crystal>
  <varray name="positions" >
   <v>       0.02992770      -0.00042202      -0.00003834 </v>
   <v>       0.99051740       0.35523363      -0.00114327 </v>
   <v>       0.64174560       0.63583080       0.00058343 </v>
   <v>       0.03494386       0.68445281       0.00010767 </v>
   <v>       0.33812786      -0.00141096       0.00022698 </v>
   <v>       0.35067671       0.31466954       0.00029581 </v>
   <v>       0.32316491       0.68379670      -0.00026468 </v>
   <v>       0.64308042       0.00740070      -0.00035948 </v>
   <v>       0.64332552       0.31717571       0.00044410 </v>
   <v>       0.10869575       0.22103405       0.95346865 </v>
   <v>       0.22133074       0.10728129       0.05456718 </v>
   <v>       0.11188661       0.55473558       0.94493911 </v>
   <v>       0.21883463       0.43931042       0.04386776 </v>
   <v>       0.11481157       0.89187214       0.94563387 </v>
   <v>       0.22913896       0.78449603       0.05698475 </v>
   <v>       0.44548495       0.21504306       0.94359544 </v>
   <v>       0.55445917       0.11359659       0.05685275 </v>
   <v>       0.43904333       0.55038634       0.95110924 </v>
   <v>       0.55645727       0.44376857       0.05563057 </v>
   <v>       0.44286073       0.88668837       0.94359019 </v>
   <v>       0.55415901       0.77646947       0.04953578 </v>
   <v>       0.77774762       0.22607684       0.94771768 </v>
   <v>       0.89226136       0.11415531       0.04254857 </v>
   <v>       0.78095994       0.55962252       0.95462379 </v>
   <v>       0.88834324       0.45016413       0.04988748 </v>
   <v>       0.77725973       0.88623111       0.95839782 </v>
   <v>       0.88896986       0.78055573       0.04719705 </v>
  </varray>
 </structure>
</modeling>
