unknown system                          
           1
     8.858967    5.107281    0.000000
    -8.857859    5.105376    0.000000
     0.000000    0.000000   30.000000
   V    Mo   W    S 
   3   3   3  18
Direct configuration=     1
   0.00000000  0.00000000  0.00000000
   1.00000000  0.33333334  0.00000000
   0.66666669  0.66666669  0.00000000
   0.00000000  0.66666669  0.00000000
   0.33333334  0.00000000  0.00000000
   0.33333334  0.33333334  0.00000000
   0.33333334  0.66666669  0.00000000
   0.66666669  0.00000000  0.00000000
   0.66666669  0.33333334  0.00000000
   0.11068511  0.22244981  0.95539999
   0.22244981  0.11068511  0.04460000
   0.11068511  0.55578315  0.95539999
   0.22244981  0.44401845  0.04460000
   0.11068511  0.88911647  0.95539999
   0.22244981  0.77735180  0.04460000
   0.44401845  0.22244981  0.95539999
   0.55578315  0.11068511  0.04460000
   0.44401845  0.55578315  0.95539999
   0.55578315  0.44401845  0.04460000
   0.44401845  0.88911647  0.95539999
   0.55578315  0.77735180  0.04460000
   0.77735180  0.22244981  0.95539999
   0.88911647  0.11068511  0.04460000
   0.77735180  0.55578315  0.95539999
   0.88911647  0.44401845  0.04460000
   0.77735180  0.88911647  0.95539999
   0.88911647  0.77735180  0.04460000
unknown system                          
           1
     8.669939    5.000427    0.000000
    -8.669065    4.998927    0.000000
     0.000000    0.000000   30.000000
   V    Mo   W    S 
   3   3   3  18
Direct configuration=     2
   0.00198028 -0.00001981  0.00000051
   1.00116934  0.33402954 -0.00015174
   0.66709159  0.66594375  0.00014458
   0.00114907  0.66819430  0.00010896
   0.33195826  0.00010684  0.00001053
   0.33301969  0.33170522 -0.00009611
   0.33174331  0.66638842 -0.00024536
   0.66593302 -0.00007897 -0.00001188
   0.66526524  0.33362894  0.00024350
   0.10658894  0.22023174  0.95311435
   0.21767556  0.10882828  0.04810046
   0.10986046  0.55135893  0.95187393
   0.21817778  0.44306392  0.04803528
   0.10865533  0.89121491  0.95195605
   0.22263630  0.77737759  0.04925108
   0.44523087  0.22249014  0.95074997
   0.55627951  0.11156165  0.04927297
   0.44833012  0.55814482  0.95201363
   0.55829435  0.44847312  0.04814639
   0.44468839  0.88825844  0.95073956
   0.55762624  0.77564390  0.04801973
   0.78159810  0.22392251  0.95190720
   0.89226918  0.11254544  0.04684360
   0.77491482  0.55695419  0.95202156
   0.89016292  0.44144063  0.04790796
   0.77937614  0.88703748  0.95308628
   0.88653965  0.77976852  0.04695689
unknown system                          
           1
     8.486595    4.899771    0.000000
    -8.485531    4.897938    0.000000
     0.000000    0.000000   30.000000
   V    Mo   W    S 
   3   3   3  18
Direct configuration=     3
   0.00260202 -0.00002443  0.00000074
   1.00155767  0.33437117 -0.00012776
   0.66714916  0.66561583  0.00011925
   0.00187926  0.66868369  0.00015248
   0.33181483  0.00011261  0.00001107
   0.33326715  0.33121824 -0.00013954
   0.33123978  0.66656146 -0.00026834
   0.66535245 -0.00008107 -0.00001229
   0.66457882  0.33344049  0.00026856
   0.10650583  0.22013215  0.95313345
   0.21749147  0.10873565  0.04818715
   0.11001446  0.55135609  0.95181850
   0.21819097  0.44321253  0.04798435
   0.10856497  0.89127624  0.95186442
   0.22279973  0.77725981  0.04932097
   0.44548576  0.22260499  0.95067343
   0.55649312  0.11166414  0.04929411
   0.44832580  0.55834597  0.95209092
   0.55849705  0.44847319  0.04820075
   0.44476129  0.88815705  0.95071495
   0.55754130  0.77571686  0.04795041
   0.78146367  0.22388924  0.95199063
   0.89207523  0.11246496  0.04671293
   0.77478361  0.55677747  0.95206226
   0.88996627  0.44126902  0.04784148
   0.77928161  0.88714860  0.95322644
   0.88653116  0.77983252  0.04692862
unknown system                          
           1
     8.279376    4.779897    0.000000
    -8.276181    4.774374    0.000000
     0.000000    0.000000   30.000000
   V    Mo   W    S 
   3   3   3  18
Direct configuration=     4
   0.00496604 -0.00003060  0.00000373
   1.00300494  0.33603209  0.00002890
   0.66692997  0.66397259 -0.00003677
   0.00505134  0.67027994  0.00023938
   0.33196615  0.00013942  0.00000752
   0.33485229  0.32960321 -0.00023033
   0.32947462  0.66777214 -0.00023713
   0.66250147 -0.00010758 -0.00000995
   0.66152593  0.33213910  0.00024120
   0.10543309  0.21931034  0.95187806
   0.21605814  0.10802815  0.04996761
   0.10927293  0.55021418  0.95007130
   0.21730481  0.44262942  0.04919606
   0.10786936  0.89188913  0.95006736
   0.22313211  0.77731550  0.05122370
   0.44568673  0.22255675  0.94874810
   0.55640337  0.11166070  0.05105211
   0.44937842  0.55902421  0.95096798
   0.55903904  0.44962937  0.04994338
   0.44454685  0.88816984  0.94894881
   0.55778450  0.77514163  0.04915730
   0.78236872  0.22460777  0.95082998
   0.89287277  0.11285133  0.04753971
   0.77450003  0.55727904  0.95081493
   0.89035411  0.44069480  0.04900378
   0.77977258  0.88686134  0.95243193
   0.88616412  0.78055064  0.04815125
unknown system                          
           1
     8.276961    4.779093    0.000000
    -8.268740    4.764863    0.000000
     0.000000    0.000000   30.000000
   V    Mo   W    S 
   3   3   3  18
Direct configuration=     5
   0.00905660 -0.00003992  0.00000977
   1.00595932  0.33970896  0.00035455
   0.66619488  0.66033138 -0.00035797
   0.01174150  0.67312468  0.00021866
   0.33340465  0.00021382 -0.00000122
   0.33863744  0.32663451 -0.00020701
   0.32594738  0.67094941 -0.00009814
   0.65684141 -0.00016405 -0.00001707
   0.65472865  0.32882555  0.00008591
   0.10493932  0.21844192  0.95011098
   0.21490240  0.10734938  0.05242104
   0.10841301  0.54926663  0.94752303
   0.21706617  0.44192534  0.05055827
   0.10750884  0.89251159  0.94760062
   0.22344147  0.77803835  0.05402000
   0.44531199  0.22187738  0.94593202
   0.55544392  0.11171991  0.05364669
   0.44978309  0.55918608  0.94966264
   0.55914579  0.45060543  0.05249197
   0.44351687  0.88813936  0.94636397
   0.55758929  0.77440616  0.05058754
   0.78307231  0.22546523  0.94944492
   0.89336627  0.11299326  0.04842946
   0.77503392  0.55789186  0.94942830
   0.89051703  0.44063250  0.05033942
   0.78028882  0.88682530  0.95156075
   0.88636213  0.78135443  0.04989080
unknown system                          
           1
     8.280016    4.780890    0.000000
    -8.271295    4.765794    0.000000
     0.000000    0.000000   30.000000
   V    Mo   W    S 
   3   3   3  18
Direct configuration=     6
   0.01044006 -0.00004671  0.00000317
   1.00750234  0.34140631  0.00036173
   0.66603449  0.65866798 -0.00036500
   0.01412106  0.67414736  0.00018594
   0.33440946  0.00021299  0.00000130
   0.33993230  0.32558223 -0.00017448
   0.32480012  0.67273094 -0.00009353
   0.65458391 -0.00019878 -0.00000922
   0.65180782  0.32703713  0.00009507
   0.10565040  0.21867606  0.95009339
   0.21545075  0.10740932  0.05265385
   0.10861531  0.54960551  0.94717367
   0.21818610  0.44229001  0.05042980
   0.10798955  0.89246988  0.94737454
   0.22357828  0.77876185  0.05452240
   0.44473350  0.22117098  0.94542284
   0.55502965  0.11192959  0.05408862
   0.44864321  0.55868898  0.94989574
   0.55898374  0.45025165  0.05282996
   0.44291156  0.88793978  0.94591517
   0.55697158  0.77434720  0.05049251
   0.78252807  0.22551376  0.94953691
   0.89282970  0.11275308  0.04816051
   0.77577024  0.55753251  0.94956875
   0.88985323  0.44111142  0.05010174
   0.78000964  0.88708242  0.95182202
   0.88684839  0.78114099  0.04991249
unknown system                          
           1
     8.242310    4.761734    0.000000
    -8.241608    4.760519    0.000000
     0.000000    0.000000   30.000000
   V    Mo   W    S 
   3   3   3  18
Direct configuration=     7
   0.01069208 -0.00005901  0.00000333
   1.00783125  0.34169848  0.00037110
   0.66606995  0.65836704 -0.00037618
   0.01453399  0.67439213  0.00018617
   0.33456267  0.00020434  0.00000072
   0.34011824  0.32535143 -0.00017515
   0.32461583  0.67307553 -0.00008774
   0.65416230 -0.00021148 -0.00000950
   0.65128488  0.32671594  0.00008713
   0.10575339  0.21872639  0.95012547
   0.21554161  0.10741602  0.05265661
   0.10866710  0.54968013  0.94714515
   0.21838724  0.44239371  0.05037042
   0.10807268  0.89246387  0.94737169
   0.22360438  0.77888243  0.05456973
   0.44464256  0.22105223  0.94537693
   0.55498694  0.11195620  0.05413628
   0.44845786  0.55863383  0.94998618
   0.55895917  0.45018432  0.05285657
   0.44284426  0.88791271  0.94586761
   0.55686608  0.77434508  0.05044239
   0.78241808  0.22550697  0.94958705
   0.89272321  0.11271599  0.04806818
   0.77586190  0.55743532  0.94963285
   0.88971884  0.44116884  0.05001294
   0.77993837  0.88711382  0.95191472
   0.88689961  0.78109219  0.04987925
unknown system                          
           1
     8.224512    4.750732    0.000000
    -8.226381    4.753966    0.000000
     0.000000    0.000000   30.000000
   V    Mo   W    S 
   3   3   3  18
Direct configuration=     8
   0.00741722 -0.00027476 -0.00000860
   1.00276605  0.33737046  0.00022582
   0.66517647  0.66198099 -0.00027442
   0.00941748  0.67188314  0.00021648
   0.33256775  0.00021646 -0.00000146
   0.33847811  0.32839986 -0.00020899
   0.32754508  0.66955280 -0.00007582
   0.65940985 -0.00046400 -0.00002819
   0.65754230  0.33094126  0.00006108
   0.10497269  0.21813027  0.94972606
   0.21464732  0.10734106  0.05252946
   0.10817001  0.54899157  0.94737215
   0.21631224  0.44110850  0.05115442
   0.10727219  0.89251123  0.94750096
   0.22333948  0.77745079  0.05390746
   0.44577549  0.22249612  0.94602831
   0.55542891  0.11160180  0.05352969
   0.45059426  0.55911974  0.94881833
   0.55929182  0.45108809  0.05257795
   0.44357742  0.88823487  0.94649651
   0.55806293  0.77430820  0.05106297
   0.78345590  0.22545326  0.94889665
   0.89377047  0.11286251  0.04933088
   0.77485680  0.55883563  0.94894259
   0.89121899  0.44084115  0.05126334
   0.78070931  0.88671182  0.95075122
   0.88643790  0.78152163  0.05020506
unknown system                          
           1
     8.223920    4.750471    0.000000
    -8.225665    4.753490    0.000000
     0.000000    0.000000   30.000000
   V    Mo   W    S 
   3   3   3  18
Direct configuration=     9
   0.00566440 -0.00032001 -0.00000940
   0.99929440  0.33498497  0.00019031
   0.66394135  0.66385885 -0.00023143
   0.00682953  0.67017009  0.00022322
   0.33141473  0.00015704  0.00002548
   0.33797532  0.33031619 -0.00019882
   0.32925164  0.66748357 -0.00008941
   0.66239883 -0.00051443 -0.00002795
   0.66132614  0.33335356  0.00008230
   0.10488484  0.21793202  0.94952717
   0.21438144  0.10739425  0.05248755
   0.10802032  0.54863657  0.94748294
   0.21527119  0.44034659  0.05149717
   0.10701132  0.89250376  0.94751228
   0.22326877  0.77685250  0.05363739
   0.44634448  0.22310201  0.94626169
   0.55564034  0.11151623  0.05322963
   0.45143268  0.55921468  0.94807652
   0.55954407  0.45160174  0.05254435
   0.44387086  0.88836298  0.94675495
   0.55855523  0.77429937  0.05150918
   0.78381458  0.22538799  0.94844862
   0.89416287  0.11281594  0.05006582
   0.77454818  0.55965897  0.94856104
   0.89189476  0.44080865  0.05199125
   0.78109366  0.88661239  0.95003750
   0.88637853  0.78167797  0.05041055
unknown system                          
           1
     8.230531    4.750239    0.000000
    -8.226604    4.743433    0.000000
     0.000000    0.000000   30.000000
   V    Mo   W    S 
   3   3   3  18
Direct configuration=    10
   0.00562314 -0.00032724 -0.00001015
   0.99914389  0.33491177  0.00018912
   0.66385276  0.66389776 -0.00023096
   0.00675637  0.67010575  0.00022434
   0.33134138  0.00014871  0.00002469
   0.33800173  0.33039996 -0.00020100
   0.32933311  0.66741042 -0.00008985
   0.66249299 -0.00052643 -0.00002842
   0.66147442  0.33346004  0.00008241
   0.10489013  0.21793890  0.94952744
   0.21438289  0.10740627  0.05248529
   0.10801913  0.54861673  0.94748945
   0.21524142  0.44032130  0.05150222
   0.10700302  0.89249486  0.94751413
   0.22327433  0.77683351  0.05362583
   0.44637110  0.22312151  0.94627399
   0.55565648  0.11152097  0.05321696
   0.45144902  0.55921769  0.94805148
   0.55956609  0.45162741  0.05254238
   0.44388223  0.88836154  0.94676633
   0.55856554  0.77430336  0.05152534
   0.78381217  0.22538118  0.94843265
   0.89416495  0.11280701  0.05008878
   0.77454084  0.55968896  0.94855360
   0.89190511  0.44080899  0.05201575
   0.78109968  0.88661180  0.95001645
   0.88637051  0.78167173  0.05041167
unknown system                          
           1
     8.233636    4.752052    0.000000
    -8.229933    4.745631    0.000000
     0.000000    0.000000   30.000000
   V    Mo   W    S 
   3   3   3  18
Direct configuration=    11
   0.00679566  0.00005701 -0.00000714
   0.99744329  0.33552506  0.00027836
   0.66156809  0.66288819 -0.00024324
   0.00774110  0.66925483  0.00024946
   0.32973590 -0.00009566  0.00002747
   0.33915842  0.33083737 -0.00021693
   0.32945412  0.66658317 -0.00013032
   0.66283223 -0.00008458 -0.00001704
   0.66284742  0.33412052  0.00014787
   0.10547818  0.21853055  0.94987618
   0.21498753  0.10784316  0.05246131
   0.10833653  0.54841206  0.94759045
   0.21546972  0.44029018  0.05108720
   0.10718671  0.89218916  0.94751775
   0.22364212  0.77719690  0.05367515
   0.44647989  0.22276322  0.94623977
   0.55578795  0.11192486  0.05313553
   0.45060173  0.55892839  0.94803748
   0.56001110  0.45179005  0.05263076
   0.44370196  0.88808577  0.94677486
   0.55805264  0.77433679  0.05160558
   0.78318854  0.22536342  0.94841592
   0.89390626  0.11265587  0.04992128
   0.77498620  0.55977991  0.94876265
   0.89141576  0.44105904  0.05190963
   0.78096843  0.88671673  0.95012003
   0.88643699  0.78126249  0.05014988
unknown system                          
           1
     8.237560    4.754311    0.000000
    -8.233044    4.746480    0.000000
     0.000000    0.000000   30.000000
   V    Mo   W    S 
   3   3   3  18
Direct configuration=    12
   0.00726179  0.00020765 -0.00001333
   0.99613560  0.33553386  0.00027472
   0.66028104  0.66260831 -0.00022258
   0.00816160  0.66890966  0.00026748
   0.32882628 -0.00021960  0.00000933
   0.33980512  0.33109120 -0.00024542
   0.32970764  0.66618548 -0.00010579
   0.66326927  0.00008392 -0.00002004
   0.66368503  0.33459499  0.00012233
   0.10562033  0.21877456  0.95000380
   0.21515441  0.10802450  0.05249759
   0.10836243  0.54819267  0.94756904
   0.21533516  0.44006535  0.05100254
   0.10714240  0.89203063  0.94749324
   0.22382593  0.77721128  0.05366557
   0.44666098  0.22274739  0.94628105
   0.55577913  0.11199061  0.05306450
   0.45044787  0.55882228  0.94789190
   0.56023166  0.45194019  0.05268058
   0.44366234  0.88805135  0.94684398
   0.55795778  0.77434321  0.05167922
   0.78307900  0.22540067  0.94832386
   0.89392728  0.11263551  0.04993858
   0.77511407  0.56001642  0.94880417
   0.89140412  0.44116378  0.05205254
   0.78098021  0.88672000  0.95011861
   0.88639602  0.78108858  0.05002244
unknown system                          
           1
     8.249238    4.764137    0.000000
    -8.239823    4.747805    0.000000
     0.000000    0.000000   30.000000
   V    Mo   W    S 
   3   3   3  18
Direct configuration=    13
   0.00771989  0.00033195 -0.00001526
   0.99516443  0.33558941  0.00027875
   0.65929819  0.66236078 -0.00021668
   0.00868936  0.66881380  0.00027116
   0.32816314 -0.00031620  0.00000782
   0.34035194  0.33111704 -0.00024871
   0.32982608  0.66601068 -0.00009511
   0.66353466  0.00022660 -0.00001770
   0.66414444  0.33483448  0.00011761
   0.10570093  0.21894725  0.95011864
   0.21526448  0.10814984  0.05252012
   0.10839253  0.54804033  0.94755781
   0.21524265  0.43990211  0.05090414
   0.10709317  0.89190654  0.94747188
   0.22400091  0.77726564  0.05366528
   0.44678518  0.22268579  0.94629915
   0.55573595  0.11203176  0.05299087
   0.45030460  0.55872118  0.94781315
   0.56037362  0.45200228  0.05270155
   0.44360714  0.88802226  0.94691171
   0.55789953  0.77439124  0.05170919
   0.78300654  0.22540682  0.94826616
   0.89393163  0.11264331  0.04990466
   0.77521687  0.56016112  0.94887297
   0.89140266  0.44124483  0.05213826
   0.78097972  0.88674336  0.95017036
   0.88638419  0.78098025  0.04990210
unknown system                          
           1
     8.252166    4.765546    0.000000
    -8.245151    4.753380    0.000000
     0.000000    0.000000   30.000000
   V    Mo   W    S 
   3   3   3  18
Direct configuration=    14
   0.00984219  0.00046934 -0.00003332
   0.99373273  0.33706759  0.00028733
   0.65638915  0.66040270 -0.00023960
   0.01231080  0.66972418  0.00027077
   0.32712444 -0.00067835 -0.00001565
   0.34332462  0.33028977 -0.00027877
   0.32940918  0.66720968 -0.00002161
   0.66237144  0.00036829 -0.00001984
   0.66283803  0.33416286  0.00003651
   0.10623407  0.21965751  0.95054982
   0.21583433  0.10856803  0.05271873
   0.10857995  0.54790747  0.94736949
   0.21559329  0.43966641  0.05040595
   0.10711661  0.89142902  0.94729700
   0.22459322  0.77776210  0.05387260
   0.44687431  0.22213089  0.94617324
   0.55535861  0.11209289  0.05295370
   0.44929524  0.55818125  0.94789062
   0.56060362  0.45184259  0.05287734
   0.44325417  0.88797358  0.94695646
   0.55751233  0.77464963  0.05159221
   0.78248361  0.22533556  0.94824550
   0.89348948  0.11255331  0.04946775
   0.77585241  0.56028073  0.94933625
   0.89105333  0.44172391  0.05215190
   0.78064740  0.88697893  0.95072005
   0.88649588  0.78046455  0.04943549
unknown system                          
           1
     8.253893    4.766692    0.000000
    -8.245333    4.751849    0.000000
     0.000000    0.000000   30.000000
   V    Mo   W    S 
   3   3   3  18
Direct configuration=    15
   0.00896563  0.00029827 -0.00002819
   0.99565652  0.33687715  0.00027647
   0.65846910  0.66103961 -0.00023625
   0.01102166  0.66980522  0.00025977
   0.32844550 -0.00043855 -0.00001526
   0.34192892  0.33023745 -0.00026645
   0.32926842  0.66741865 -0.00004572
   0.66190353  0.00014275 -0.00002076
   0.66218213  0.33367022  0.00005642
   0.10599933  0.21930317  0.95031131
   0.21560306  0.10828669  0.05264645
   0.10848097  0.54809359  0.94740731
   0.21572447  0.44001063  0.05063888
   0.10723892  0.89173045  0.94736675
   0.22424485  0.77766030  0.05385948
   0.44661173  0.22226808  0.94614985
   0.55547723  0.11204122  0.05310121
   0.44960235  0.55846113  0.94801921
   0.56036305  0.45176368  0.05282508
   0.44336709  0.88800999  0.94682062
   0.55760383  0.77453238  0.05154547
   0.78268308  0.22537627  0.94836783
   0.89351760  0.11254823  0.04953689
   0.77561692  0.55995295  0.94914891
   0.89104145  0.44145056  0.05198583
   0.78068707  0.88695992  0.95059234
   0.88651007  0.78071445  0.04969644
unknown system                          
           1
     8.254833    4.767237    0.000000
    -8.245812    4.751596    0.000000
     0.000000    0.000000   30.000000
   V    Mo   W    S 
   3   3   3  18
Direct configuration=    16
   0.01002654  0.00028173 -0.00001877
   0.99590444  0.33790186  0.00031860
   0.65761688  0.65984740 -0.00028076
   0.01312700  0.67072666  0.00024756
   0.32879771 -0.00056907  0.00000673
   0.34328477  0.32943005 -0.00022937
   0.32872254  0.66871230 -0.00000768
   0.66053686  0.00012504 -0.00001684
   0.66040980  0.33262852  0.00002725
   0.10633054  0.21954585  0.95049443
   0.21586955  0.10835391  0.05268959
   0.10866601  0.54829266  0.94730213
   0.21617927  0.44013589  0.05033696
   0.10741732  0.89164089  0.94729892
   0.22444123  0.77804107  0.05405196
   0.44645163  0.22184937  0.94595269
   0.55520819  0.11204591  0.05322350
   0.44906241  0.55821360  0.94824071
   0.56033370  0.45156600  0.05292922
   0.44311951  0.88799568  0.94667393
   0.55736618  0.77456652  0.05141923
   0.78240934  0.22534862  0.94847192
   0.89319889  0.11248968  0.04920255
   0.77593198  0.55982337  0.94943676
   0.89074358  0.44169203  0.05177781
   0.78043778  0.88702071  0.95094748
   0.88662081  0.78050822  0.04950340
unknown system                          
           1
     8.236701    4.756717    0.000000
    -8.234945    4.753664    0.000000
     0.000000    0.000000   30.000000
   V    Mo   W    S 
   3   3   3  18
Direct configuration=    17
   0.01030120  0.00029765 -0.00001691
   0.99576019  0.33810171  0.00032672
   0.65727092  0.65957732 -0.00028789
   0.01362790  0.67088563  0.00024661
   0.32873132 -0.00061687  0.00001187
   0.34365165  0.32928112 -0.00022238
   0.32862976  0.66891769  0.00000201
   0.66035138  0.00015215 -0.00001552
   0.66016318  0.33249181  0.00002070
   0.10640868  0.21962524  0.95054902
   0.21593756  0.10839123  0.05270602
   0.10870497  0.54830539  0.94727725
   0.21624109  0.44011846  0.05026124
   0.10743641  0.89159662  0.94727710
   0.22451331  0.77812261  0.05409034
   0.44644831  0.22175576  0.94591603
   0.55514467  0.11204884  0.05323162
   0.44893742  0.55814221  0.94826496
   0.56035124  0.45154122  0.05295575
   0.44306336  0.88799224  0.94665943
   0.55731589  0.77458188  0.05140284
   0.78234665  0.22534289  0.94847725
   0.89314410  0.11248621  0.04913766
   0.77601210  0.55983723  0.94950389
   0.89069404  0.44175974  0.05175828
   0.78039090  0.88703085  0.95102074
   0.88663624  0.78044763  0.04944527
unknown system                          
           1
     8.270027    4.775655    0.000000
    -8.259370    4.757185    0.000000
     0.000000    0.000000   30.000000
   V    Mo   W    S 
   3   3   3  18
Direct configuration=    18
   0.00762649  0.00005283  0.00000287
   0.99804785  0.33651641  0.00028758
   0.66101288  0.66199693 -0.00025750
   0.00933517  0.66961667  0.00027777
   0.33013536 -0.00008382  0.00003109
   0.34054072  0.33059738 -0.00021697
   0.32947259  0.66764905 -0.00005900
   0.66112171 -0.00030486 -0.00001418
   0.66155972  0.33314033  0.00010439
   0.10565536  0.21888312  0.95005635
   0.21543848  0.10800650  0.05250818
   0.10840341  0.54829240  0.94746389
   0.21586523  0.44051948  0.05091869
   0.10742600  0.89205005  0.94745167
   0.22385526  0.77754100  0.05376837
   0.44635411  0.22248651  0.94615438
   0.55559202  0.11191155  0.05315793
   0.45008560  0.55894516  0.94821351
   0.56007375  0.45158927  0.05270479
   0.44357833  0.88810370  0.94675461
   0.55770438  0.77457045  0.05139765
   0.78272786  0.22523627  0.94859885
   0.89333748  0.11243423  0.04950688
   0.77519719  0.55942992  0.94895114
   0.89095596  0.44099300  0.05174080
   0.78059596  0.88702249  0.95054890
   0.88651559  0.78101842  0.04994726
unknown system                          
           1
     8.253796    4.766014    0.000000
    -8.246712    4.753737    0.000000
     0.000000    0.000000   30.000000
   V    Mo   W    S 
   3   3   3  18
Direct configuration=    19
   0.01147252  0.00035734 -0.00002455
   0.99600204  0.33911653  0.00036166
   0.65657113  0.65846077 -0.00032450
   0.01581449  0.67194104  0.00020975
   0.32922585 -0.00073989 -0.00000415
   0.34472078  0.32817390 -0.00020819
   0.32797712  0.67041510  0.00002677
   0.65890663  0.00025330 -0.00002141
   0.65820900  0.33110578 -0.00002649
   0.10673474  0.21981786  0.95072289
   0.21615934  0.10842089  0.05281068
   0.10888145  0.54849044  0.94712642
   0.21671448  0.44021841  0.04996309
   0.10761828  0.89156192  0.94718128
   0.22473356  0.77855214  0.05439658
   0.44623186  0.22128074  0.94564271
   0.55490383  0.11205895  0.05346671
   0.44830869  0.55781476  0.94845478
   0.56032852  0.45135837  0.05315077
   0.44282387  0.88798137  0.94641879
   0.55707724  0.77459469  0.05133994
   0.78212701  0.22534543  0.94854583
   0.89287198  0.11245398  0.04881888
   0.77640063  0.55972687  0.94977047
   0.89042346  0.44205191  0.05156550
   0.78017978  0.88709852  0.95134756
   0.88679615  0.78030331  0.04928811
unknown system                          
           1
     8.266806    4.773913    0.000000
    -8.255682    4.754633    0.000000
     0.000000    0.000000   30.000000
   V    Mo   W    S 
   3   3   3  18
Direct configuration=    20
   0.00929300  0.00000000 -0.00001805
   0.99996778  0.33845664  0.00031897
   0.66098709  0.66024597 -0.00030617
   0.01224815  0.67131626  0.00016823
   0.33189329 -0.00008670 -0.00001344
   0.34168966  0.32891386 -0.00017187
   0.32825913  0.67024307 -0.00004458
   0.65784734 -0.00037383 -0.00003114
   0.65774765  0.33051752  0.00002779
   0.10613148  0.21908882  0.95023740
   0.21577242  0.10800983  0.05257658
   0.10869150  0.54868352  0.94732668
   0.21686604  0.44102746  0.05052477
   0.10778370  0.89204278  0.94742536
   0.22395947  0.77818180  0.05416880
   0.44579722  0.22183872  0.94578250
   0.55526055  0.11200933  0.05364754
   0.44919772  0.55857111  0.94866102
   0.55995542  0.45124882  0.05288248
   0.44310659  0.88797244  0.94628509
   0.55733621  0.77453843  0.05124431
   0.78241164  0.22522257  0.94881560
   0.89281333  0.11233413  0.04897284
   0.77571502  0.55891513  0.94936899
   0.89046066  0.44132212  0.05128878
   0.78022883  0.88715619  0.95106932
   0.88679358  0.78081845  0.04979210
unknown system                          
           1
     8.266180    4.773332    0.000000
    -8.257760    4.758743    0.000000
     0.000000    0.000000   30.000000
   V    Mo   W    S 
   3   3   3  18
Direct configuration=    21
   0.01167213  0.00032600 -0.00002375
   0.99664915  0.33944700  0.00037811
   0.65685633  0.65819523 -0.00033560
   0.01627368  0.67236806  0.00019464
   0.32992590 -0.00069748 -0.00000187
   0.34477053  0.32777543 -0.00018639
   0.32779084  0.67115652  0.00003269
   0.65802175  0.00020142 -0.00001902
   0.65720545  0.33033224 -0.00002696
   0.10679465  0.21978381  0.95073472
   0.21620575  0.10835730  0.05280151
   0.10894410  0.54863224  0.94711144
   0.21697968  0.44041625  0.04987671
   0.10773718  0.89162829  0.94718779
   0.22471318  0.77868632  0.05447590
   0.44607328  0.22115604  0.94555362
   0.55488553  0.11205835  0.05358102
   0.44815541  0.55777050  0.94860628
   0.56025196  0.45123193  0.05315523
   0.44279355  0.88797239  0.94630234
   0.55701506  0.77459948  0.05126785
   0.78206418  0.22531729  0.94862810
   0.89272069  0.11241394  0.04868463
   0.77646150  0.55953365  0.94986545
   0.89030764  0.44210129  0.05140732
   0.78007029  0.88713316  0.95147079
   0.88687506  0.78031779  0.04927734
unknown system                          
           1
     8.271737    4.776618    0.000000
    -8.259616    4.755617    0.000000
     0.000000    0.000000   30.000000
   V    Mo   W    S 
   3   3   3  18
Direct configuration=    22
   0.01080690  0.00009311 -0.00000455
   1.00027265  0.33987239  0.00040713
   0.65988190  0.65870526 -0.00036183
   0.01505864  0.67253069  0.00019782
   0.33236249 -0.00021459  0.00000784
   0.34321615  0.32765956 -0.00017109
   0.32742087  0.67193446  0.00001667
   0.65610636 -0.00028000 -0.00001346
   0.65539801  0.32893380  0.00000056
   0.10657661  0.21940003  0.95044240
   0.21609678  0.10805398  0.05270377
   0.10893278  0.54890317  0.94710951
   0.21745336  0.44115051  0.05015976
   0.10802400  0.89197364  0.94727405
   0.22420586  0.77866114  0.05447979
   0.44554923  0.22130664  0.94546482
   0.55492993  0.11204928  0.05392111
   0.44842241  0.55818219  0.94890191
   0.55996286  0.45101314  0.05309267
   0.44274798  0.88793138  0.94597644
   0.55699780  0.77453826  0.05115633
   0.78210750  0.22525699  0.94887092
   0.89245783  0.11227418  0.04856939
   0.77619825  0.55880106  0.94969813
   0.89010474  0.44168872  0.05104552
   0.77995039  0.88723596  0.95148555
   0.88697219  0.78055951  0.04956874
unknown system                          
           1
     8.265311    4.772667    0.000000
    -8.254983    4.754773    0.000000
     0.000000    0.000000   30.000000
   V    Mo   W    S 
   3   3   3  18
Direct configuration=    23
   0.01246306  0.00020803 -0.00001713
   0.99986157  0.34113845  0.00045695
   0.65823799  0.65708661 -0.00041403
   0.01798324  0.67378526  0.00015615
   0.33237379 -0.00043734 -0.00000935
   0.34492598  0.32639677 -0.00015497
   0.32676500  0.67353640  0.00003191
   0.65467112 -0.00010265 -0.00002395
   0.65341997  0.32758665 -0.00004193
   0.10701656  0.21970683  0.95070610
   0.21641165  0.10815555  0.05283484
   0.10917635  0.54912382  0.94696006
   0.21801401  0.44119951  0.04971397
   0.10819478  0.89184460  0.94715645
   0.22458087  0.77918810  0.05481467
   0.44541008  0.22072251  0.94518337
   0.55469827  0.11209669  0.05411520
   0.44759049  0.55769652  0.94913103
   0.55998434  0.45079027  0.05326850
   0.44251156  0.88789773  0.94578390
   0.55670548  0.77459616  0.05106363
   0.78177651  0.22523888  0.94891968
   0.89214522  0.11223324  0.04819289
   0.77670231  0.55875581  0.95010910
   0.88978095  0.44216993  0.05085164
   0.77968341  0.88728969  0.95190955
   0.88712985  0.78031046  0.04930166
unknown system                          
           1
     8.287703    4.785981    0.000000
    -8.270489    4.756158    0.000000
     0.000000    0.000000   30.000000
   V    Mo   W    S 
   3   3   3  18
Direct configuration=    24
   0.01166992  0.00011091 -0.00001442
   1.00090963  0.34083997  0.00043849
   0.65954603  0.65778286 -0.00040863
   0.01672129  0.67333536  0.00015102
   0.33287491 -0.00025420 -0.00001848
   0.34402347  0.32683728 -0.00016182
   0.32683699  0.67310169  0.00000384
   0.65477708 -0.00028472 -0.00002893
   0.65369670  0.32777672 -0.00002719
   0.10681622  0.21951925  0.95055760
   0.21628693  0.10806908  0.05274924
   0.10908967  0.54910661  0.94703445
   0.21791419  0.44136240  0.04994781
   0.10819452  0.89195217  0.94724898
   0.22433058  0.77898462  0.05468804
   0.44535011  0.22098552  0.94529202
   0.55477881  0.11209048  0.05410250
   0.44795789  0.55798309  0.94912862
   0.55990691  0.45081466  0.05317631
   0.44256022  0.88788819  0.94581608