   27   27  100    1
  0.9710400E+02  0.1002848E-08  0.1002848E-08  0.3000000E-08  0.5000000E-15
  1.000000000000000E-004
  CAR 
 unknown system                          
    159     34    120
 
  0.0000000E+00  0.0000000E+00  0.0000000E+00  0.1562500E-01
    1      -17.825790   1.000000
    2      -16.775007   1.000000
    3      -16.608627   1.000000
    4      -16.594451   1.000000
    5      -16.534895   1.000000
    6      -16.523495   1.000000
    7      -16.416983   1.000000
    8      -16.256774   1.000000
    9      -16.198127   1.000000
   10      -16.150334   1.000000
   11      -16.106288   1.000000
   12      -15.938748   1.000000
   13      -15.909422   1.000000
   14      -15.643693   1.000000
   15      -15.594975   1.000000
   16      -15.493101   1.000000
   17      -15.272144   1.000000
   18      -15.218462   1.000000
   19       -9.309284   1.000000
   20       -9.044462   1.000000
   21       -8.938584   1.000000
   22       -8.851013   1.000000
   23       -8.728020   1.000000
   24       -8.710032   1.000000
   25       -8.690946   1.000000
   26       -8.668325   1.000000
   27       -8.541616   1.000000
   28       -8.479266   1.000000
   29       -8.467461   1.000000
   30       -8.415951   1.000000
   31       -8.346351   1.000000
   32       -8.159223   1.000000
   33       -8.066586   1.000000
   34       -7.999358   1.000000
   35       -7.807112   1.000000
   36       -7.742366   1.000000
   37       -7.683587   1.000000
   38       -7.519727   1.000000
   39       -7.505302   1.000000
   40       -7.378710   1.000000
   41       -7.335294   1.000000
   42       -7.208726   1.000000
   43       -7.066276   1.000000
   44       -6.940566   1.000000
   45       -6.866469   1.000000
   46       -6.799731   1.000000
   47       -6.739264   1.000000
   48       -6.665962   1.000000
   49       -6.604672   1.000000
   50       -6.525794   1.000000
   51       -6.444131   1.000000
   52       -6.262205   1.000000
   53       -6.223493   1.000000
   54       -6.173425   1.000000
   55       -6.151964   1.000000
   56       -6.063313   1.000000
   57       -5.999971   1.000000
   58       -5.898266   1.000000
   59       -5.881259   1.000000
   60       -5.635513   1.000000
   61       -5.607777   1.000000
   62       -5.348569   1.000000
   63       -5.302101   1.000000
   64       -5.077021   1.000000
   65       -5.020259   1.000000
   66       -4.922601   1.000000
   67       -4.899653   1.000000
   68       -4.831262   1.000000
   69       -4.762284   1.000000
   70       -4.706210   1.000000
   71       -4.681596   1.000000
   72       -4.667947   1.000000
   73       -4.458939   1.000000
   74       -4.373767   1.000000
   75       -4.305710   1.000000
   76       -3.973524   1.000000
   77       -3.785656   0.999968
   78       -3.607163   0.996875
   79       -3.503445   0.977305
   80       -3.190728   0.416746
   81       -3.171533   0.364689
   82       -2.853976   0.004779
   83       -2.767043   0.000673
   84       -2.630954   0.000015
   85       -2.573946   0.000002
   86       -2.492563   0.000000
   87       -2.248056   0.000000
   88       -2.229362   0.000000
   89       -2.204538   0.000000
   90       -2.069177   0.000000
   91       -1.704461   0.000000
   92       -1.625725   0.000000
   93       -1.379544   0.000000
   94       -1.203644   0.000000
   95       -1.072605   0.000000
   96       -0.994108   0.000000
   97       -0.949587   0.000000
   98       -0.902758   0.000000
   99       -0.823029   0.000000
  100       -0.634295   0.000000
  101       -0.599230   0.000000
  102       -0.529086   0.000000
  103       -0.384148   0.000000
  104       -0.286530   0.000000
  105       -0.224838   0.000000
  106       -0.157080   0.000000
  107       -0.101147   0.000000
  108       -0.054457   0.000000
  109        0.069950   0.000000
  110        0.233787   0.000000
  111        0.298416   0.000000
  112        0.416613   0.000000
  113        0.828292   0.000000
  114        0.950182   0.000000
  115        1.006348   0.000000
  116        1.144880   0.000000
  117        1.219413   0.000000
  118        1.653993   0.000000
  119        1.846047   0.000000
  120        2.163122   0.000000
 
  0.1250000E+00  0.2775558E-16  0.0000000E+00  0.3125000E-01
    1      -17.801136   1.000000
    2      -16.781760   1.000000
    3      -16.730899   1.000000
    4      -16.651748   1.000000
    5      -16.542231   1.000000
    6      -16.465865   1.000000
    7      -16.382755   1.000000
    8      -16.296463   1.000000
    9      -16.197319   1.000000
   10      -16.082598   1.000000
   11      -16.030091   1.000000
   12      -15.973381   1.000000
   13      -15.863653   1.000000
   14      -15.641348   1.000000
   15      -15.593927   1.000000
   16      -15.498524   1.000000
   17      -15.291295   1.000000
   18      -15.225292   1.000000
   19       -9.312327   1.000000
   20       -9.104245   1.000000
   21       -9.078247   1.000000
   22       -8.968878   1.000000
   23       -8.802707   1.000000
   24       -8.732168   1.000000
   25       -8.679222   1.000000
   26       -8.649155   1.000000
   27       -8.546910   1.000000
   28       -8.526987   1.000000
   29       -8.449116   1.000000
   30       -8.300513   1.000000
   31       -8.209640   1.000000
   32       -8.025401   1.000000
   33       -7.975327   1.000000
   34       -7.880113   1.000000
   35       -7.850956   1.000000
   36       -7.731541   1.000000
   37       -7.686499   1.000000
   38       -7.534633   1.000000
   39       -7.446989   1.000000
   40       -7.401658   1.000000
   41       -7.329735   1.000000
   42       -7.202515   1.000000
   43       -7.119121   1.000000
   44       -6.977840   1.000000
   45       -6.889043   1.000000
   46       -6.806954   1.000000
   47       -6.754132   1.000000
   48       -6.665318   1.000000
   49       -6.593875   1.000000
   50       -6.513018   1.000000
   51       -6.444675   1.000000
   52       -6.308248   1.000000
   53       -6.254410   1.000000
   54       -6.180671   1.000000
   55       -6.090504   1.000000
   56       -6.068179   1.000000
   57       -6.025131   1.000000
   58       -5.890083   1.000000
   59       -5.769571   1.000000
   60       -5.604175   1.000000
   61       -5.567306   1.000000
   62       -5.355613   1.000000
   63       -5.319600   1.000000
   64       -5.217364   1.000000
   65       -5.099856   1.000000
   66       -5.023844   1.000000
   67       -4.948142   1.000000
   68       -4.874879   1.000000
   69       -4.819847   1.000000
   70       -4.667187   1.000000
   71       -4.625339   1.000000
   72       -4.512793   1.000000
   73       -4.398608   1.000000
   74       -4.327301   1.000000
   75       -4.284858   1.000000
   76       -3.917436   1.000000
   77       -3.827733   0.999991
   78       -3.690121   0.999552
   79       -3.496511   0.974530
   80       -3.412143   0.912357
   81       -2.967200   0.036662
   82       -2.871332   0.006780
   83       -2.754331   0.000490
   84       -2.610797   0.000008
   85       -2.565732   0.000002
   86       -2.489086   0.000000
   87       -2.255627   0.000000
   88       -2.203019   0.000000
   89       -2.170600   0.000000
   90       -2.068440   0.000000
   91       -1.702739   0.000000
   92       -1.605307   0.000000
   93       -1.379037   0.000000
   94       -1.209721   0.000000
   95       -1.088955   0.000000
   96       -0.989603   0.000000
   97       -0.957177   0.000000
   98       -0.900147   0.000000
   99       -0.837088   0.000000
  100       -0.700787   0.000000
  101       -0.636735   0.000000
  102       -0.595039   0.000000
  103       -0.486094   0.000000
  104       -0.362093   0.000000
  105       -0.293070   0.000000
  106       -0.144581   0.000000
  107       -0.113346   0.000000
  108        0.033822   0.000000
  109        0.044689   0.000000
  110        0.230073   0.000000
  111        0.292836   0.000000
  112        0.468653   0.000000
  113        0.757055   0.000000
  114        0.899345   0.000000
  115        1.047398   0.000000
  116        1.200001   0.000000
  117        1.303552   0.000000
  118        1.698572   0.000000
  119        1.884823   0.000000
  120        2.198487   0.000000
 
  0.2500000E+00  0.5551115E-16  0.0000000E+00  0.3125000E-01
    1      -17.729256   1.000000
    2      -16.962638   1.000000
    3      -16.763593   1.000000
    4      -16.703569   1.000000
    5      -16.596068   1.000000
    6      -16.437664   1.000000
    7      -16.382013   1.000000
    8      -16.234783   1.000000
    9      -16.162424   1.000000
   10      -16.027873   1.000000
   11      -16.013088   1.000000
   12      -15.897518   1.000000
   13      -15.808571   1.000000
   14      -15.625820   1.000000
   15      -15.586620   1.000000
   16      -15.506277   1.000000
   17      -15.336839   1.000000
   18      -15.248695   1.000000
   19       -9.490792   1.000000
   20       -9.206825   1.000000
   21       -9.158051   1.000000
   22       -9.087114   1.000000
   23       -8.947354   1.000000
   24       -8.811708   1.000000
   25       -8.663067   1.000000
   26       -8.591340   1.000000
   27       -8.492933   1.000000
   28       -8.448654   1.000000
   29       -8.363264   1.000000
   30       -8.201811   1.000000
   31       -8.105891   1.000000
   32       -8.050812   1.000000
   33       -7.916426   1.000000
   34       -7.786040   1.000000
   35       -7.732882   1.000000
   36       -7.631722   1.000000
   37       -7.584294   1.000000
   38       -7.545310   1.000000
   39       -7.461024   1.000000
   40       -7.377674   1.000000
   41       -7.279747   1.000000
   42       -7.195785   1.000000
   43       -7.130888   1.000000
   44       -7.025030   1.000000
   45       -6.920800   1.000000
   46       -6.827323   1.000000
   47       -6.729086   1.000000
   48       -6.684115   1.000000
   49       -6.538569   1.000000
   50       -6.510269   1.000000
   51       -6.430289   1.000000
   52       -6.329338   1.000000
   53       -6.296064   1.000000
   54       -6.184614   1.000000
   55       -6.117237   1.000000
   56       -6.062846   1.000000
   57       -5.923888   1.000000
   58       -5.842322   1.000000
   59       -5.713554   1.000000
   60       -5.645800   1.000000
   61       -5.548026   1.000000
   62       -5.516565   1.000000
   63       -5.454228   1.000000
   64       -5.246228   1.000000
   65       -5.181921   1.000000
   66       -5.155732   1.000000
   67       -5.026656   1.000000
   68       -4.893073   1.000000
   69       -4.812070   1.000000
   70       -4.612676   1.000000
   71       -4.486037   1.000000
   72       -4.450913   1.000000
   73       -4.327442   1.000000
   74       -4.259835   1.000000
   75       -4.161364   1.000000
   76       -4.090850   1.000000
   77       -3.925710   1.000000
   78       -3.736574   0.999869
   79       -3.528257   0.985240
   80       -3.391477   0.886723
   81       -2.952892   0.029247
   82       -2.839075   0.003501
   83       -2.703759   0.000129
   84       -2.607411   0.000007
   85       -2.524930   0.000000
   86       -2.465260   0.000000
   87       -2.252036   0.000000
   88       -2.171287   0.000000
   89       -2.115060   0.000000
   90       -2.027205   0.000000
   91       -1.694620   0.000000
   92       -1.541935   0.000000
   93       -1.379200   0.000000
   94       -1.233049   0.000000
   95       -1.145087   0.000000
   96       -1.032064   0.000000
   97       -0.973095   0.000000
   98       -0.912768   0.000000
   99       -0.872802   0.000000
  100       -0.847246   0.000000
  101       -0.756851   0.000000
  102       -0.647911   0.000000
  103       -0.627191   0.000000
  104       -0.461200   0.000000
  105       -0.377056   0.000000
  106       -0.201017   0.000000
  107       -0.132054   0.000000
  108       -0.040156   0.000000
  109       -0.001201   0.000000
  110        0.177694   0.000000
  111        0.361524   0.000000
  112        0.546488   0.000000
  113        0.691491   0.000000
  114        0.895746   0.000000
  115        1.127011   0.000000
  116        1.250932   0.000000
  117        1.473638   0.000000
  118        1.822611   0.000000
  119        1.996566   0.000000
  120        2.303304   0.000000
 
  0.3750000E+00  0.0000000E+00  0.0000000E+00  0.3125000E-01
    1      -17.620455   1.000000
    2      -17.170367   1.000000
    3      -16.782481   1.000000
    4      -16.709018   1.000000
    5      -16.645808   1.000000
    6      -16.461302   1.000000
    7      -16.360745   1.000000
    8      -16.169915   1.000000
    9      -16.130271   1.000000
   10      -16.034522   1.000000
   11      -15.936984   1.000000
   12      -15.862225   1.000000
   13      -15.771119   1.000000
   14      -15.620733   1.000000
   15      -15.578996   1.000000
   16      -15.476216   1.000000
   17      -15.376320   1.000000
   18      -15.288033   1.000000
   19       -9.703460   1.000000
   20       -9.293233   1.000000
   21       -9.216335   1.000000
   22       -9.084846   1.000000
   23       -9.001155   1.000000
   24       -8.881809   1.000000
   25       -8.615526   1.000000
   26       -8.529822   1.000000
   27       -8.432437   1.000000
   28       -8.329317   1.000000
   29       -8.314524   1.000000
   30       -8.229676   1.000000
   31       -8.100263   1.000000
   32       -8.005511   1.000000
   33       -7.938187   1.000000
   34       -7.834456   1.000000
   35       -7.748862   1.000000
   36       -7.652135   1.000000
   37       -7.587329   1.000000
   38       -7.517125   1.000000
   39       -7.390295   1.000000
   40       -7.298236   1.000000
   41       -7.191246   1.000000
   42       -7.113176   1.000000
   43       -7.063661   1.000000
   44       -6.989248   1.000000
   45       -6.913962   1.000000
   46       -6.770542   1.000000
   47       -6.708705   1.000000
   48       -6.603039   1.000000
   49       -6.543433   1.000000
   50       -6.503633   1.000000
   51       -6.340874   1.000000
   52       -6.318584   1.000000
   53       -6.268678   1.000000
   54       -6.172975   1.000000
   55       -6.085995   1.000000
   56       -6.043558   1.000000
   57       -6.010765   1.000000
   58       -5.991323   1.000000
   59       -5.839801   1.000000
   60       -5.707684   1.000000
   61       -5.648927   1.000000
   62       -5.556812   1.000000
   63       -5.489331   1.000000
   64       -5.310689   1.000000
   65       -5.205599   1.000000
   66       -5.072451   1.000000
   67       -5.033707   1.000000
   68       -4.863704   1.000000
   69       -4.797691   1.000000
   70       -4.700896   1.000000
   71       -4.529579   1.000000
   72       -4.416486   1.000000
   73       -4.337329   1.000000
   74       -4.268089   1.000000
   75       -4.153926   1.000000
   76       -4.054292   1.000000
   77       -3.936215   1.000000
   78       -3.745098   0.999896
   79       -3.574224   0.993817
   80       -3.217338   0.491199
   81       -3.002212   0.061386
   82       -2.848962   0.004309
   83       -2.666648   0.000045
   84       -2.622869   0.000012
   85       -2.493735   0.000000
   86       -2.414261   0.000000
   87       -2.223088   0.000000
   88       -2.150777   0.000000
   89       -2.085836   0.000000
   90       -1.953204   0.000000
   91       -1.676619   0.000000
   92       -1.461454   0.000000
   93       -1.390244   0.000000
   94       -1.275655   0.000000
   95       -1.217598   0.000000
   96       -1.131720   0.000000
   97       -1.045017   0.000000
   98       -0.957845   0.000000
   99       -0.905363   0.000000
  100       -0.890415   0.000000
  101       -0.843321   0.000000
  102       -0.756340   0.000000
  103       -0.620550   0.000000
  104       -0.522199   0.000000
  105       -0.426812   0.000000
  106       -0.309034   0.000000
  107       -0.252673   0.000000
  108       -0.095794   0.000000
  109       -0.036385   0.000000
  110        0.111527   0.000000
  111        0.377801   0.000000
  112        0.601626   0.000000
  113        0.699903   0.000000
  114        0.952010   0.000000
  115        1.188818   0.000000
  116        1.302593   0.000000
  117        1.604475   0.000000
  118        2.007600   0.000000
  119        2.171773   0.000000
  120        2.473041   0.000000
 
  0.5000000E+00  0.1110223E-15  0.0000000E+00  0.1562500E-01
    1      -17.538582   1.000000
    2      -17.287252   1.000000
    3      -16.794200   1.000000
    4      -16.694723   1.000000
    5      -16.673193   1.000000
    6      -16.473718   1.000000
    7      -16.350209   1.000000
    8      -16.156230   1.000000
    9      -16.117513   1.000000
   10      -16.015396   1.000000
   11      -15.912489   1.000000
   12      -15.862288   1.000000
   13      -15.736039   1.000000
   14      -15.658877   1.000000
   15      -15.562667   1.000000
   16      -15.461754   1.000000
   17      -15.362282   1.000000
   18      -15.326361   1.000000
   19       -9.782381   1.000000
   20       -9.331888   1.000000
   21       -9.238985   1.000000
   22       -9.111654   1.000000
   23       -8.961760   1.000000
   24       -8.898245   1.000000
   25       -8.587804   1.000000
   26       -8.531433   1.000000
   27       -8.444031   1.000000
   28       -8.288185   1.000000
   29       -8.255717   1.000000
   30       -8.178723   1.000000
   31       -8.124238   1.000000
   32       -8.017549   1.000000
   33       -7.966824   1.000000
   34       -7.861487   1.000000
   35       -7.742041   1.000000
   36       -7.724722   1.000000
   37       -7.603123   1.000000
   38       -7.488207   1.000000
   39       -7.407332   1.000000
   40       -7.322467   1.000000
   41       -7.196877   1.000000
   42       -7.029575   1.000000
   43       -6.987689   1.000000
   44       -6.921763   1.000000
   45       -6.751229   1.000000
   46       -6.711058   1.000000
   47       -6.640114   1.000000
   48       -6.610980   1.000000
   49       -6.535135   1.000000
   50       -6.472136   1.000000
   51       -6.433681   1.000000
   52       -6.351893   1.000000
   53       -6.321906   1.000000
   54       -6.267175   1.000000
   55       -6.171462   1.000000
   56       -6.054142   1.000000
   57       -6.018222   1.000000
   58       -5.822132   1.000000
   59       -5.811710   1.000000
   60       -5.719108   1.000000
   61       -5.686466   1.000000
   62       -5.553196   1.000000
   63       -5.542612   1.000000
   64       -5.399804   1.000000
   65       -5.214194   1.000000
   66       -5.065371   1.000000
   67       -5.032470   1.000000
   68       -4.939055   1.000000
   69       -4.836590   1.000000
   70       -4.639023   1.000000
   71       -4.540540   1.000000
   72       -4.453386   1.000000
   73       -4.328074   1.000000
   74       -4.271578   1.000000
   75       -4.200482   1.000000
   76       -3.988304   1.000000
   77       -3.853767   0.999996
   78       -3.770930   0.999950
   79       -3.612710   0.997228
   80       -3.095761   0.188957
   81       -3.015078   0.073215
   82       -2.916458   0.015793
   83       -2.663535   0.000041
   84       -2.615705   0.000010
   85       -2.483054   0.000000
   86       -2.389064   0.000000
   87       -2.203613   0.000000
   88       -2.140244   0.000000
   89       -2.074729   0.000000
   90       -1.927297   0.000000
   91       -1.663523   0.000000
   92       -1.425836   0.000000
   93       -1.397847   0.000000
   94       -1.292747   0.000000
   95       -1.247018   0.000000
   96       -1.184569   0.000000
   97       -1.090772   0.000000
   98       -0.990491   0.000000
   99       -0.940134   0.000000
  100       -0.883417   0.000000
  101       -0.849514   0.000000
  102       -0.791266   0.000000
  103       -0.597578   0.000000
  104       -0.553871   0.000000
  105       -0.444609   0.000000
  106       -0.367698   0.000000
  107       -0.311238   0.000000
  108       -0.132457   0.000000
  109       -0.035497   0.000000
  110        0.086461   0.000000
  111        0.377092   0.000000
  112        0.622268   0.000000
  113        0.708440   0.000000
  114        0.980310   0.000000
  115        1.210523   0.000000
  116        1.325609   0.000000
  117        1.653011   0.000000
  118        2.227151   0.000000
  119        2.257584   0.000000
  120        2.397510   0.000000
 
  0.0000000E+00  0.1250000E+00  0.0000000E+00  0.3125000E-01
    1      -17.799980   1.000000
    2      -16.784594   1.000000
    3      -16.756895   1.000000
    4      -16.626526   1.000000
    5      -16.545904   1.000000
    6      -16.436335   1.000000
    7      -16.374615   1.000000
    8      -16.326723   1.000000
    9      -16.209819   1.000000
   10      -16.086295   1.000000
   11      -16.019220   1.000000
   12      -15.967384   1.000000
   13      -15.865130   1.000000
   14      -15.639236   1.000000
   15      -15.592836   1.000000
   16      -15.503079   1.000000
   17      -15.290617   1.000000
   18      -15.224523   1.000000
   19       -9.294028   1.000000
   20       -9.181783   1.000000
   21       -9.084470   1.000000
   22       -8.960626   1.000000
   23       -8.777382   1.000000
   24       -8.723346   1.000000
   25       -8.669765   1.000000
   26       -8.620966   1.000000
   27       -8.543884   1.000000
   28       -8.462934   1.000000
   29       -8.395561   1.000000
   30       -8.377193   1.000000
   31       -8.269057   1.000000
   32       -8.009172   1.000000
   33       -7.968417   1.000000
   34       -7.948146   1.000000
   35       -7.808778   1.000000
   36       -7.735071   1.000000
   37       -7.695765   1.000000
   38       -7.552952   1.000000
   39       -7.443012   1.000000
   40       -7.381589   1.000000
   41       -7.296119   1.000000
   42       -7.255576   1.000000
   43       -7.089664   1.000000
   44       -6.977765   1.000000
   45       -6.908536   1.000000
   46       -6.798954   1.000000
   47       -6.728721   1.000000
   48       -6.665742   1.000000
   49       -6.614676   1.000000
   50       -6.498892   1.000000
   51       -6.441346   1.000000
   52       -6.302880   1.000000
   53       -6.236345   1.000000
   54       -6.196218   1.000000
   55       -6.137737   1.000000
   56       -6.045713   1.000000
   57       -5.990922   1.000000
   58       -5.897838   1.000000
   59       -5.790940   1.000000
   60       -5.618010   1.000000
   61       -5.552418   1.000000
   62       -5.367412   1.000000
   63       -5.334603   1.000000
   64       -5.206984   1.000000
   65       -5.080376   1.000000
   66       -5.034046   1.000000
   67       -4.911397   1.000000
   68       -4.874757   1.000000
   69       -4.818893   1.000000
   70       -4.678902   1.000000
   71       -4.607141   1.000000
   72       -4.539308   1.000000
   73       -4.447948   1.000000
   74       -4.340705   1.000000
   75       -4.238777   1.000000
   76       -3.913159   1.000000
   77       -3.821183   0.999989
   78       -3.710050   0.999732
   79       -3.483282   0.968447
   80       -3.415388   0.915953
   81       -2.966955   0.036523
   82       -2.877857   0.007706
   83       -2.757872   0.000536
   84       -2.611850   0.000008
   85       -2.562051   0.000002
   86       -2.482827   0.000000
   87       -2.258569   0.000000
   88       -2.200606   0.000000
   89       -2.167406   0.000000
   90       -2.060851   0.000000
   91       -1.706897   0.000000
   92       -1.604670   0.000000
   93       -1.380384   0.000000
   94       -1.210915   0.000000
   95       -1.077790   0.000000
   96       -1.012593   0.000000
   97       -0.957105   0.000000
   98       -0.895182   0.000000
   99       -0.823152   0.000000
  100       -0.690572   0.000000
  101       -0.630882   0.000000
  102       -0.565714   0.000000
  103       -0.458822   0.000000
  104       -0.362782   0.000000
  105       -0.324342   0.000000
  106       -0.254464   0.000000
  107       -0.117300   0.000000
  108        0.020748   0.000000
  109        0.060144   0.000000
  110        0.264063   0.000000
  111        0.384391   0.000000
  112        0.477368   0.000000
  113        0.754432   0.000000
  114        0.925930   0.000000
  115        1.020661   0.000000
  116        1.156813   0.000000
  117        1.286560   0.000000
  118        1.699159   0.000000
  119        1.884056   0.000000
  120        2.198683   0.000000
 
  0.1250000E+00  0.1250000E+00  0.0000000E+00  0.3125000E-01
    1      -17.750571   1.000000
    2      -16.893196   1.000000
    3      -16.779142   1.000000
    4      -16.737536   1.000000
    5      -16.508168   1.000000
    6      -16.424260   1.000000
    7      -16.403626   1.000000
    8      -16.271215   1.000000
    9      -16.168382   1.000000
   10      -16.085331   1.000000
   11      -16.024568   1.000000
   12      -15.883214   1.000000
   13      -15.814725   1.000000
   14      -15.621409   1.000000
   15      -15.580303   1.000000
   16      -15.505404   1.000000
   17      -15.330033   1.000000
   18      -15.249160   1.000000
   19       -9.372795   1.000000
   20       -9.303956   1.000000
   21       -9.150904   1.000000
   22       -9.065312   1.000000
   23       -8.858935   1.000000
   24       -8.745453   1.000000
   25       -8.641476   1.000000
   26       -8.562730   1.000000
   27       -8.520205   1.000000
   28       -8.471200   1.000000
   29       -8.435937   1.000000
   30       -8.287820   1.000000
   31       -8.168608   1.000000
   32       -8.052601   1.000000
   33       -7.929678   1.000000
   34       -7.809624   1.000000
   35       -7.691450   1.000000
   36       -7.652598   1.000000
   37       -7.594818   1.000000
   38       -7.529630   1.000000
   39       -7.478113   1.000000
   40       -7.327270   1.000000
   41       -7.274255   1.000000
   42       -7.239823   1.000000
   43       -7.150414   1.000000
   44       -7.009135   1.000000
   45       -6.936493   1.000000
   46       -6.860031   1.000000
   47       -6.744060   1.000000
   48       -6.680852   1.000000
   49       -6.543684   1.000000
   50       -6.517847   1.000000
   51       -6.408767   1.000000
   52       -6.379457   1.000000
   53       -6.299965   1.000000
   54       -6.190228   1.000000
   55       -6.119946   1.000000
   56       -6.041247   1.000000
   57       -5.918952   1.000000
   58       -5.761966   1.000000
   59       -5.728063   1.000000
   60       -5.644134   1.000000
   61       -5.532048   1.000000
   62       -5.493985   1.000000
   63       -5.320137   1.000000
   64       -5.265877   1.000000
   65       -5.226289   1.000000
   66       -5.141043   1.000000
   67       -5.050961   1.000000
   68       -4.870849   1.000000
   69       -4.813356   1.000000
   70       -4.653504   1.000000
   71       -4.509400   1.000000
   72       -4.469027   1.000000
   73       -4.345585   1.000000
   74       -4.273953   1.000000
   75       -4.167797   1.000000
   76       -4.011217   1.000000
   77       -3.884007   0.999999
   78       -3.693837   0.999592
   79       -3.617851   0.997523
   80       -3.388906   0.883193
   81       -2.968078   0.037163
   82       -2.860839   0.005497
   83       -2.715132   0.000176
   84       -2.589026   0.000004
   85       -2.551729   0.000001
   86       -2.470119   0.000000
   87       -2.298924   0.000000
   88       -2.183563   0.000000
   89       -2.113321   0.000000
   90       -2.031323   0.000000
   91       -1.699759   0.000000
   92       -1.550715   0.000000
   93       -1.379716   0.000000
   94       -1.225011   0.000000
   95       -1.111134   0.000000
   96       -1.043192   0.000000
   97       -0.954315   0.000000
   98       -0.910555   0.000000
   99       -0.844227   0.000000
  100       -0.716821   0.000000
  101       -0.701094   0.000000
  102       -0.661594   0.000000
  103       -0.549869   0.000000
  104       -0.438262   0.000000
  105       -0.408257   0.000000
  106       -0.269111   0.000000
  107       -0.184047   0.000000
  108       -0.004929   0.000000
  109        0.022051   0.000000
  110        0.239905   0.000000
  111        0.406107   0.000000
  112        0.574187   0.000000
  113        0.620232   0.000000
  114        0.897489   0.000000
  115        1.094940   0.000000
  116        1.223179   0.000000
  117        1.465072   0.000000
  118        1.784895   0.000000
  119        1.957192   0.000000
  120        2.269239   0.000000
 
  0.2500000E+00  0.1250000E+00  0.0000000E+00  0.3125000E-01
    1      -17.657630   1.000000
    2      -17.069806   1.000000
    3      -16.891316   1.000000
    4      -16.718207   1.000000
    5      -16.517930   1.000000
    6      -16.437817   1.000000
    7      -16.369228   1.000000
    8      -16.208965   1.000000
    9      -16.133254   1.000000
   10      -16.064427   1.000000
   11      -16.008955   1.000000
   12      -15.839247   1.000000
   13      -15.781463   1.000000
   14      -15.593105   1.000000
   15      -15.555259   1.000000
   16      -15.495044   1.000000
   17      -15.370831   1.000000
   18      -15.290054   1.000000
   19       -9.593013   1.000000
   20       -9.427749   1.000000
   21       -9.244350   1.000000
   22       -9.043213   1.000000
   23       -8.878914   1.000000
   24       -8.783345   1.000000
   25       -8.595858   1.000000
   26       -8.545197   1.000000
   27       -8.433140   1.000000
   28       -8.383485   1.000000
   29       -8.348407   1.000000
   30       -8.256959   1.000000
   31       -8.132042   1.000000
   32       -8.093084   1.000000
   33       -7.954366   1.000000
   34       -7.884820   1.000000
   35       -7.796414   1.000000
   36       -7.658318   1.000000
   37       -7.484544   1.000000
   38       -7.391924   1.000000
   39       -7.350275   1.000000
   40       -7.268412   1.000000
   41       -7.229394   1.000000
   42       -7.174306   1.000000
   43       -7.142692   1.000000
   44       -7.014802   1.000000
   45       -6.908574   1.000000
   46       -6.825241   1.000000
   47       -6.702663   1.000000