       N       E                     dE             d eps       ncg     rms          rms(c)
DAV:   1     0.112420626956E+04    0.11242E+04   -0.35858E+04  8160   0.577E+02
DAV:   2    -0.190140234745E+01   -0.11261E+04   -0.10839E+04 11200   0.173E+02
DAV:   3    -0.199835505925E+03   -0.19793E+03   -0.18996E+03 10920   0.821E+01
DAV:   4    -0.208966821764E+03   -0.91313E+01   -0.88645E+01 12200   0.261E+01
DAV:   5    -0.209279405283E+03   -0.31258E+00   -0.31171E+00 11440   0.347E+00    0.275E+01
DAV:   6    -0.237186951921E+03   -0.27908E+02   -0.10780E+02 12680   0.605E+01    0.594E+01
DAV:   7    -0.196645664769E+03    0.40541E+02   -0.17767E+02 13160   0.152E+02    0.204E+01
DAV:   8    -0.190115329753E+03    0.65303E+01   -0.20481E+01 11760   0.134E+01    0.138E+01
DAV:   9    -0.188312032194E+03    0.18033E+01   -0.35076E+00 12040   0.623E+00    0.939E+00
DAV:  10    -0.187134247408E+03    0.11778E+01   -0.17805E+00 13400   0.755E+00    0.348E+00
DAV:  11    -0.187009730659E+03    0.12452E+00   -0.67794E-01 12600   0.251E+00    0.235E+00
DAV:  12    -0.187014372038E+03   -0.46414E-02   -0.44307E-01 13040   0.306E+00    0.326E+00
DAV:  13    -0.186929810621E+03    0.84561E-01   -0.25294E-01 13320   0.304E+00    0.192E+00
DAV:  14    -0.186900163733E+03    0.29647E-01   -0.10560E-01 12920   0.174E+00    0.895E-01
DAV:  15    -0.186893782387E+03    0.63813E-02   -0.37002E-02 12280   0.885E-01    0.864E-01
DAV:  16    -0.186889797472E+03    0.39849E-02   -0.13822E-02 13240   0.629E-01    0.504E-01
DAV:  17    -0.186887067678E+03    0.27298E-02   -0.73573E-03 12800   0.397E-01    0.176E-01
DAV:  18    -0.186886525471E+03    0.54221E-03   -0.20378E-03 11800   0.154E-01    0.178E-01
DAV:  19    -0.186886282952E+03    0.24252E-03   -0.79478E-04 10960   0.139E-01    0.456E-02
DAV:  20    -0.186887180861E+03   -0.89791E-03   -0.85424E-04  9120   0.566E-02    0.421E-02
DAV:  21    -0.186888045685E+03   -0.86482E-03   -0.22004E-04  8160   0.522E-02    0.357E-02
DAV:  22    -0.186888854621E+03   -0.80894E-03   -0.10142E-04  6720   0.291E-02    0.336E-02
DAV:  23    -0.186890014635E+03   -0.11600E-02   -0.13819E-04  7520   0.408E-02    0.171E-02
DAV:  24    -0.186890591314E+03   -0.57668E-03   -0.26665E-05  6680   0.188E-02    0.443E-03
DAV:  25    -0.186890961743E+03   -0.37043E-03   -0.17032E-05  5600   0.902E-03    0.486E-03
DAV:  26    -0.186891196770E+03   -0.23503E-03   -0.90394E-06  6760   0.722E-03    0.158E-03
DAV:  27    -0.186891285936E+03   -0.89166E-04   -0.31420E-06  7240   0.380E-03
   1 F= -.18689129E+03 E0= -.18672064E+03  d E =-.186891E+03
       N       E                     dE             d eps       ncg     rms          rms(c)
DAV:   1    -0.187534177420E+03   -0.64298E+00   -0.27110E+02  8160   0.350E+01    0.469E+00
DAV:   2    -0.189603922974E+03   -0.20697E+01   -0.20456E+01 12280   0.159E+01    0.101E+01
DAV:   3    -0.189346135085E+03    0.25779E+00   -0.46026E+00 12360   0.126E+01    0.628E+00
DAV:   4    -0.188788975967E+03    0.55716E+00   -0.54369E-01 12520   0.426E+00    0.170E+00
DAV:   5    -0.188901409373E+03   -0.11243E+00   -0.47571E-01 12000   0.355E+00    0.504E+00
DAV:   6    -0.188751219372E+03    0.15019E+00   -0.64177E-01 12600   0.423E+00    0.197E+00
DAV:   7    -0.188740256323E+03    0.10963E-01   -0.14888E-01 11840   0.206E+00    0.195E+00
DAV:   8    -0.188711798736E+03    0.28458E-01   -0.81389E-02 13600   0.174E+00    0.941E-01
DAV:   9    -0.188702868808E+03    0.89299E-02   -0.16723E-02 10960   0.611E-01    0.246E-01
DAV:  10    -0.188702782263E+03    0.86545E-04   -0.37647E-03 11880   0.206E-01    0.184E-01
DAV:  11    -0.188702242207E+03    0.54006E-03   -0.20496E-03 11600   0.139E-01    0.107E-01
DAV:  12    -0.188702384326E+03   -0.14212E-03   -0.82223E-04 11320   0.875E-02    0.940E-02
DAV:  13    -0.188702290214E+03    0.94111E-04   -0.23848E-04  7960   0.531E-02
   2 F= -.18870229E+03 E0= -.18856407E+03  d E =-.181100E+01
       N       E                     dE             d eps       ncg     rms          rms(c)
DAV:   1    -0.190632725192E+03   -0.19303E+01   -0.31292E+01  9120   0.142E+01    0.445E+00
DAV:   2    -0.190583374922E+03    0.49350E-01   -0.27606E+00 11200   0.948E+00    0.725E+00
DAV:   3    -0.190115598452E+03    0.46778E+00   -0.13191E+00 12360   0.862E+00    0.426E+00
DAV:   4    -0.189902160986E+03    0.21344E+00   -0.70910E-01 12640   0.422E+00    0.251E+00
DAV:   5    -0.189858982737E+03    0.43178E-01   -0.34501E-01 12320   0.277E+00    0.241E+00
DAV:   6    -0.189804190534E+03    0.54792E-01   -0.12385E-01 12720   0.221E+00    0.776E-01
DAV:   7    -0.189797345615E+03    0.68449E-02   -0.14244E-02 11520   0.573E-01    0.212E-01
DAV:   8    -0.189798054063E+03   -0.70845E-03   -0.39876E-03 12440   0.320E-01    0.335E-01
DAV:   9    -0.189797356249E+03    0.69781E-03   -0.22366E-03 10720   0.306E-01    0.149E-01
DAV:  10    -0.189797660518E+03   -0.30427E-03   -0.94729E-04  9760   0.136E-01    0.131E-01
DAV:  11    -0.189797373752E+03    0.28677E-03   -0.47721E-04  9200   0.782E-02    0.209E-02
DAV:  12    -0.189797400720E+03   -0.26969E-04   -0.74990E-05  7280   0.285E-02
   3 F= -.18979740E+03 E0= -.18968094E+03  d E =-.109511E+01
       N       E                     dE             d eps       ncg     rms          rms(c)
DAV:   1    -0.191371862755E+03   -0.15745E+01   -0.75116E+01  8160   0.197E+01    0.457E+00
DAV:   2    -0.191188496409E+03    0.18337E+00   -0.53579E+00 13360   0.760E+00    0.449E+00
DAV:   3    -0.191345021663E+03   -0.15653E+00   -0.15076E+00 12200   0.905E+00    0.675E+00
DAV:   4    -0.190943412472E+03    0.40161E+00   -0.13509E+00 12440   0.765E+00    0.293E+00
DAV:   5    -0.190900924519E+03    0.42488E-01   -0.41531E-01 12280   0.388E+00    0.284E+00
DAV:   6    -0.190814643811E+03    0.86281E-01   -0.19723E-01 12320   0.311E+00    0.119E+00
DAV:   7    -0.190802852253E+03    0.11792E-01   -0.43062E-02 12560   0.110E+00    0.451E-01
DAV:   8    -0.190799474287E+03    0.33780E-02   -0.65842E-03 10320   0.339E-01    0.176E-01
DAV:   9    -0.190800175899E+03   -0.70161E-03   -0.23782E-03 12120   0.323E-01    0.299E-01
DAV:  10    -0.190799707890E+03    0.46801E-03   -0.20430E-03 11200   0.281E-01    0.103E-01
DAV:  11    -0.190799587352E+03    0.12054E-03   -0.54285E-04 10040   0.939E-02    0.478E-02
DAV:  12    -0.190799579887E+03    0.74653E-05   -0.10397E-04  7320   0.397E-02
   4 F= -.19079958E+03 E0= -.19070183E+03  d E =-.100218E+01
       N       E                     dE             d eps       ncg     rms          rms(c)
DAV:   1    -0.192241222240E+03   -0.14416E+01   -0.16126E+02  8160   0.283E+01    0.565E+00
DAV:   2    -0.191971198017E+03    0.27002E+00   -0.94091E+00 11040   0.776E+00    0.355E+00
DAV:   3    -0.192044996814E+03   -0.73799E-01   -0.18018E+00 12240   0.783E+00    0.605E+00
DAV:   4    -0.191850074537E+03    0.19492E+00   -0.14786E+00 12000   0.937E+00    0.458E+00
DAV:   5    -0.191597680406E+03    0.25239E+00   -0.59156E-01 12400   0.457E+00    0.153E+00
DAV:   6    -0.191585121329E+03    0.12559E-01   -0.14911E-01 12600   0.266E+00    0.153E+00
DAV:   7    -0.191567449301E+03    0.17672E-01   -0.81122E-02 12400   0.203E+00    0.717E-01
DAV:   8    -0.191560850998E+03    0.65983E-02   -0.13664E-02 11800   0.739E-01    0.396E-01
DAV:   9    -0.191559693204E+03    0.11578E-02   -0.45497E-03 11800   0.471E-01    0.203E-01
DAV:  10    -0.191559731102E+03   -0.37898E-04   -0.21824E-03 11520   0.192E-01    0.805E-02
DAV:  11    -0.191559681171E+03    0.49931E-04   -0.50835E-04 10760   0.838E-02
   5 F= -.19155968E+03 E0= -.19147336E+03  d E =-.760101E+00
       N       E                     dE             d eps       ncg     rms          rms(c)
DAV:   1    -0.191677173763E+03   -0.11744E+00   -0.86377E+00  8160   0.625E+00    0.738E-01
DAV:   2    -0.191740345821E+03   -0.63172E-01   -0.34717E-01 12880   0.294E+00    0.206E+00
DAV:   3    -0.191694820494E+03    0.45525E-01   -0.98230E-02 12520   0.237E+00    0.484E-01
DAV:   4    -0.191694918295E+03   -0.97801E-04   -0.12409E-02 11680   0.750E-01    0.593E-01
DAV:   5    -0.191691607133E+03    0.33112E-02   -0.83742E-03 11680   0.695E-01    0.269E-01
DAV:   6    -0.191691482159E+03    0.12497E-03   -0.36003E-03 11360   0.310E-01    0.191E-01
DAV:   7    -0.191691037019E+03    0.44514E-03   -0.20132E-03 11640   0.256E-01    0.175E-01
DAV:   8    -0.191690763681E+03    0.27334E-03   -0.72762E-04  9120   0.190E-01    0.498E-02
DAV:   9    -0.191690769800E+03   -0.61192E-05   -0.10246E-04  6240   0.536E-02
   6 F= -.19169077E+03 E0= -.19160599E+03  d E =-.131089E+00
       N       E                     dE             d eps       ncg     rms          rms(c)
DAV:   1    -0.191818086829E+03   -0.12732E+00   -0.10860E+01  8160   0.702E+00    0.741E-01
DAV:   2    -0.191862225020E+03   -0.44138E-01   -0.35205E-01 12520   0.247E+00    0.151E+00
DAV:   3    -0.191839268208E+03    0.22957E-01   -0.70960E-02 12520   0.206E+00    0.620E-01
DAV:   4    -0.191835586385E+03    0.36818E-02   -0.10804E-02 11840   0.706E-01    0.446E-01
DAV:   5    -0.191834699335E+03    0.88705E-03   -0.78854E-03 11760   0.691E-01    0.386E-01
DAV:   6    -0.191833939720E+03    0.75961E-03   -0.52680E-03 11800   0.442E-01    0.204E-01
DAV:   7    -0.191833073403E+03    0.86632E-03   -0.17235E-03 10400   0.171E-01    0.498E-02
DAV:   8    -0.191833153443E+03   -0.80040E-04   -0.32247E-04  8520   0.116E-01
   7 F= -.19183315E+03 E0= -.19175087E+03  d E =-.142384E+00
       N       E                     dE             d eps       ncg     rms          rms(c)
DAV:   1    -0.191961756953E+03   -0.12868E+00   -0.13282E+01  8160   0.781E+00    0.807E-01
DAV:   2    -0.192001108683E+03   -0.39352E-01   -0.45228E-01 12480   0.231E+00    0.108E+00
DAV:   3    -0.191995673606E+03    0.54351E-02   -0.56974E-02 12440   0.194E+00    0.866E-01
DAV:   4    -0.191985074319E+03    0.10599E-01   -0.13058E-02 12160   0.885E-01    0.275E-01
DAV:   5    -0.191988290909E+03   -0.32166E-02   -0.98180E-03 12720   0.723E-01    0.621E-01
DAV:   6    -0.191985006027E+03    0.32849E-02   -0.90947E-03 11840   0.748E-01    0.249E-01
DAV:   7    -0.191983999642E+03    0.10064E-02   -0.19260E-03 11360   0.230E-01    0.505E-02
DAV:   8    -0.191984058473E+03   -0.58831E-04   -0.33694E-04  8840   0.106E-01
   8 F= -.19198406E+03 E0= -.19190322E+03  d E =-.150905E+00
       N       E                     dE             d eps       ncg     rms          rms(c)
DAV:   1    -0.192118496797E+03   -0.13450E+00   -0.64879E+01  8160   0.173E+01    0.176E+00
DAV:   2    -0.192288356941E+03   -0.16986E+00   -0.22992E+00 11480   0.438E+00    0.161E+00
DAV:   3    -0.192330642036E+03   -0.42285E-01   -0.24624E-01 12080   0.415E+00    0.245E+00
DAV:   4    -0.192253115411E+03    0.77527E-01   -0.81266E-02 11760   0.265E+00    0.762E-01
DAV:   5    -0.192258029769E+03   -0.49144E-02   -0.36003E-02 12200   0.162E+00    0.109E+00
DAV:   6    -0.192247108224E+03    0.10922E-01   -0.32704E-02 12400   0.134E+00    0.445E-01
DAV:   7    -0.192245163529E+03    0.19447E-02   -0.95212E-03 11800   0.715E-01    0.370E-01
DAV:   8    -0.192243716732E+03    0.14468E-02   -0.28001E-03 12000   0.427E-01    0.106E-01
DAV:   9    -0.192243544933E+03    0.17180E-03   -0.72919E-04 10240   0.112E-01    0.533E-02
DAV:  10    -0.192243498206E+03    0.46727E-04   -0.23811E-04  8000   0.497E-02
   9 F= -.19224350E+03 E0= -.19216814E+03  d E =-.259440E+00
       N       E                     dE             d eps       ncg     rms          rms(c)
DAV:   1    -0.192293386712E+03   -0.49842E-01   -0.69913E+00  8160   0.568E+00    0.696E-01
DAV:   2    -0.192319960820E+03   -0.26574E-01   -0.31365E-01 12000   0.191E+00    0.100E+00
DAV:   3    -0.192316312388E+03    0.36484E-02   -0.43776E-02 12440   0.179E+00    0.828E-01
DAV:   4    -0.192307837066E+03    0.84753E-02   -0.11529E-02 12440   0.918E-01    0.306E-01
DAV:   5    -0.192308575436E+03   -0.73837E-03   -0.62519E-03 11880   0.674E-01    0.422E-01
DAV:   6    -0.192306613584E+03    0.19619E-02   -0.52371E-03 11840   0.538E-01    0.138E-01
DAV:   7    -0.192306476142E+03    0.13744E-03   -0.11200E-03 10840   0.239E-01    0.132E-01
DAV:   8    -0.192306290562E+03    0.18558E-03   -0.38120E-04  9600   0.165E-01    0.466E-02
DAV:   9    -0.192306266979E+03    0.23582E-04   -0.72599E-05  6680   0.500E-02
  10 F= -.19230627E+03 E0= -.19223317E+03  d E =-.627688E-01
       N       E                     dE             d eps       ncg     rms          rms(c)
DAV:   1    -0.192336288202E+03   -0.29998E-01   -0.30185E+00  8160   0.364E+00    0.426E-01
DAV:   2    -0.192352168636E+03   -0.15880E-01   -0.12686E-01 11200   0.144E+00    0.862E-01
DAV:   3    -0.192345044231E+03    0.71244E-02   -0.19238E-02 12480   0.121E+00    0.384E-01
DAV:   4    -0.192343353874E+03    0.16904E-02   -0.28952E-03 11920   0.414E-01    0.165E-01
DAV:   5    -0.192343483763E+03   -0.12989E-03   -0.17304E-03 12480   0.348E-01    0.202E-01
DAV:   6    -0.192343218692E+03    0.26507E-03   -0.14236E-03 12040   0.290E-01    0.107E-01
DAV:   7    -0.192343003794E+03    0.21490E-03   -0.42559E-04 10160   0.102E-01    0.238E-02
DAV:   8    -0.192343019517E+03   -0.15723E-04   -0.63809E-05  6960   0.578E-02
  11 F= -.19234302E+03 E0= -.19227183E+03  d E =-.367525E-01
       N       E                     dE             d eps       ncg     rms          rms(c)
DAV:   1    -0.192365153383E+03   -0.22150E-01   -0.16883E+00  8160   0.278E+00    0.353E-01
DAV:   2    -0.192372682516E+03   -0.75291E-02   -0.68976E-02 12080   0.107E+00    0.663E-01
DAV:   3    -0.192368860498E+03    0.38220E-02   -0.12572E-02 12480   0.970E-01    0.336E-01
DAV:   4    -0.192367449264E+03    0.14112E-02   -0.22816E-03 12520   0.356E-01    0.135E-01
DAV:   5    -0.192367554117E+03   -0.10485E-03   -0.13949E-03 12040   0.280E-01    0.180E-01
DAV:   6    -0.192367276366E+03    0.27775E-03   -0.11394E-03 10760   0.276E-01    0.916E-02
DAV:   7    -0.192367136631E+03    0.13973E-03   -0.25867E-04  8080   0.105E-01    0.272E-02
DAV:   8    -0.192367139585E+03   -0.29541E-05   -0.59061E-05  7920   0.587E-02
  12 F= -.19236714E+03 E0= -.19229704E+03  d E =-.241201E-01
       N       E                     dE             d eps       ncg     rms          rms(c)
DAV:   1    -0.192392904596E+03   -0.25768E-01   -0.17345E+01  8160   0.881E+00    0.964E-01
DAV:   2    -0.192468333990E+03   -0.75429E-01   -0.63610E-01 11400   0.313E+00    0.183E+00
DAV:   3    -0.192436753365E+03    0.31581E-01   -0.96542E-02 12400   0.268E+00    0.901E-01
DAV:   4    -0.192426495526E+03    0.10258E-01   -0.15500E-02 12480   0.941E-01    0.325E-01
DAV:   5    -0.192426134211E+03    0.36131E-03   -0.81826E-03 12440   0.559E-01    0.339E-01
DAV:   6    -0.192426788261E+03   -0.65405E-03   -0.79484E-03 12200   0.732E-01    0.418E-01
DAV:   7    -0.192424528887E+03    0.22594E-02   -0.34666E-03 11880   0.458E-01    0.106E-01
DAV:   8    -0.192424474807E+03    0.54080E-04   -0.47990E-04  9480   0.163E-01
  13 F= -.19242447E+03 E0= -.19235786E+03  d E =-.573352E-01
       N       E                     dE             d eps       ncg     rms          rms(c)
DAV:   1    -0.192433068684E+03   -0.85398E-02   -0.14383E+00  8160   0.255E+00    0.303E-01
DAV:   2    -0.192441028144E+03   -0.79595E-02   -0.72685E-02 12480   0.101E+00    0.556E-01
DAV:   3    -0.192438469139E+03    0.25590E-02   -0.98449E-03 12480   0.856E-01    0.307E-01
DAV:   4    -0.192437278516E+03    0.11906E-02   -0.16750E-03 11920   0.323E-01    0.108E-01
DAV:   5    -0.192437385826E+03   -0.10731E-03   -0.94862E-04 10560   0.227E-01    0.154E-01
DAV:   6    -0.192437232866E+03    0.15296E-03   -0.90413E-04 10760   0.242E-01    0.946E-02
DAV:   7    -0.192437122371E+03    0.11050E-03   -0.27981E-04  8080   0.125E-01    0.551E-02
DAV:   8    -0.192437091728E+03    0.30643E-04   -0.70043E-05  6840   0.753E-02
  14 F= -.19243709E+03 E0= -.19237102E+03  d E =-.126169E-01
       N       E                     dE             d eps       ncg     rms          rms(c)
DAV:   1    -0.192441452799E+03   -0.43304E-02   -0.39876E+00  8160   0.422E+00    0.462E-01
DAV:   2    -0.192459339189E+03   -0.17886E-01   -0.16445E-01 12040   0.150E+00    0.807E-01
DAV:   3    -0.192454015183E+03    0.53240E-02   -0.21422E-02 12200   0.127E+00    0.480E-01
DAV:   4    -0.192451148989E+03    0.28662E-02   -0.39422E-03 12480   0.501E-01    0.149E-01
DAV:   5    -0.192451029291E+03    0.11970E-03   -0.17373E-03 12320   0.211E-01    0.132E-01
DAV:   6    -0.192451141597E+03   -0.11231E-03   -0.14334E-03 12080   0.291E-01    0.171E-01
DAV:   7    -0.192450762536E+03    0.37906E-03   -0.54745E-04  9480   0.193E-01    0.324E-02
DAV:   8    -0.192450771954E+03   -0.94178E-05   -0.78771E-05  6160   0.662E-02
  15 F= -.19245077E+03 E0= -.19238577E+03  d E =-.136802E-01
       N       E                     dE             d eps       ncg     rms          rms(c)
DAV:   1    -0.192453042543E+03   -0.22800E-02   -0.17520E-01  8160   0.892E-01    0.104E-01
DAV:   2    -0.192453749660E+03   -0.70712E-03   -0.91757E-03 11440   0.308E-01    0.105E-01
DAV:   3    -0.192453747039E+03    0.26211E-05   -0.71591E-04 11160   0.224E-01
  16 F= -.19245375E+03 E0= -.19238891E+03  d E =-.297509E-02
       N       E                     dE             d eps       ncg     rms          rms(c)
DAV:   1    -0.192455337120E+03   -0.15875E-02   -0.94300E-02  8160   0.663E-01    0.924E-02
DAV:   2    -0.192455789079E+03   -0.45196E-03   -0.43017E-03 12240   0.243E-01    0.150E-01
DAV:   3    -0.192455596641E+03    0.19244E-03   -0.70748E-04 11120   0.231E-01    0.935E-02
DAV:   4    -0.192455505765E+03    0.90876E-04   -0.17820E-04  6800   0.107E-01
  17 F= -.19245551E+03 E0= -.19239096E+03  d E =-.175873E-02
       N       E                     dE             d eps       ncg     rms          rms(c)
DAV:   1    -0.192457306082E+03   -0.17094E-02   -0.13508E-01  8160   0.781E-01    0.106E-01
DAV:   2    -0.192458164791E+03   -0.85871E-03   -0.68814E-03 12240   0.336E-01    0.204E-01
DAV:   3    -0.192457726909E+03    0.43788E-03   -0.10960E-03 11080   0.293E-01    0.888E-02
DAV:   4    -0.192457677145E+03    0.49764E-04   -0.21592E-04  7720   0.123E-01
  18 F= -.19245768E+03 E0= -.19239333E+03  d E =-.217138E-02
       N       E                     dE             d eps       ncg     rms          rms(c)
DAV:   1    -0.192459255625E+03   -0.15287E-02   -0.14961E-01  8160   0.826E-01    0.111E-01
DAV:   2    -0.192459854258E+03   -0.59863E-03   -0.69869E-03 11560   0.284E-01    0.147E-01
DAV:   3    -0.192459729870E+03    0.12439E-03   -0.95901E-04 11040   0.262E-01    0.118E-01
DAV:   4    -0.192459581112E+03    0.14876E-03   -0.29525E-04  8240   0.143E-01    0.627E-02
DAV:   5    -0.192459582391E+03   -0.12790E-05   -0.17046E-04  7680   0.122E-01
  19 F= -.19245958E+03 E0= -.19239564E+03  d E =-.190525E-02
       N       E                     dE             d eps       ncg     rms          rms(c)
DAV:   1    -0.192460855553E+03   -0.12744E-02   -0.20105E-01  8160   0.951E-01    0.114E-01
DAV:   2    -0.192461981234E+03   -0.11257E-02   -0.99780E-03 11560   0.399E-01    0.217E-01
DAV:   3    -0.192461550502E+03    0.43073E-03   -0.14121E-03 11480   0.318E-01    0.106E-01
DAV:   4    -0.192461419147E+03    0.13135E-03   -0.20351E-04  7560   0.122E-01    0.502E-02
DAV:   5    -0.192461423167E+03   -0.40195E-05   -0.10227E-04  6680   0.987E-02
  20 F= -.19246142E+03 E0= -.19239779E+03  d E =-.184078E-02
       N       E                     dE             d eps       ncg     rms          rms(c)
DAV:   1    -0.192460233800E+03    0.11853E-02   -0.15079E+00  8160   0.260E+00    0.297E-01
DAV:   2    -0.192466356253E+03   -0.61225E-02   -0.74161E-02 11000   0.833E-01    0.313E-01
DAV:   3    -0.192467201186E+03   -0.84493E-03   -0.70585E-03 12480   0.723E-01    0.431E-01
DAV:   4    -0.192464927831E+03    0.22734E-02   -0.25449E-03 11720   0.457E-01    0.906E-02
DAV:   5    -0.192465013336E+03   -0.85506E-04   -0.92591E-04 10280   0.156E-01
  21 F= -.19246501E+03 E0= -.19240219E+03  d E =-.359017E-02
       N       E                     dE             d eps       ncg     rms          rms(c)
DAV:   1    -0.192465112337E+03   -0.18451E-03   -0.22871E-01  8160   0.104E+00    0.163E-01
DAV:   2    -0.192467868492E+03   -0.27562E-02   -0.12801E-02 12640   0.593E-01    0.442E-01
DAV:   3    -0.192465600852E+03    0.22676E-02   -0.37037E-03 11960   0.545E-01    0.108E-01
DAV:   4    -0.192465593644E+03    0.72082E-05   -0.50448E-04  8680   0.164E-01
  22 F= -.19246559E+03 E0= -.19240302E+03  d E =-.580307E-03
