 vasp.5.4.1 05Feb16 (build Jul 05 2020 17:13:04) complex                        
  
 executed on           IFC91_ompi date 2024.04.24  23:53:59
 running on   40 total cores
 distrk:  each k-point on   40 cores,    1 groups
 distr:  one band on NCORES_PER_BAND=   1 cores,   40 groups


--------------------------------------------------------------------------------------------------------


 INCAR:
 POTCAR:   PAW_PBE V 08Apr2002                    
 POTCAR:   PAW_PBE Mo 08Apr2002                   
 POTCAR:   PAW_PBE W 08Apr2002                    
 POTCAR:    PAW_PBE S 17Jan2003                   

 ----------------------------------------------------------------------------- 
|                                                                             |
|           W    W    AA    RRRRR   N    N  II  N    N   GGGG   !!!           |
|           W    W   A  A   R    R  NN   N  II  NN   N  G    G  !!!           |
|           W    W  A    A  R    R  N N  N  II  N N  N  G       !!!           |
|           W WW W  AAAAAA  RRRRR   N  N N  II  N  N N  G  GGG   !            |
|           WW  WW  A    A  R   R   N   NN  II  N   NN  G    G                |
|           W    W  A    A  R    R  N    N  II  N    N   GGGG   !!!           |
|                                                                             |
|      For optimal performance we recommend to set                            |
|        NCORE= 4 - approx SQRT( number of cores)                             |
|      NCORE specifies how many cores store one orbital (NPAR=cpu/NCORE).     |
|      This setting can  greatly improve the performance of VASP for DFT.     |
|      The default, NPAR=number of cores might be grossly inefficient         |
|      on modern multi-core architectures or massively parallel machines.     |
|      Do your own testing !!!!                                               |
|      Unfortunately you need to use the default for GW and RPA calculations. |
|      (for HF NCORE is supported but not extensively tested yet)             |
|                                                                             |
 ----------------------------------------------------------------------------- 

 POTCAR:   PAW_PBE V 08Apr2002                    
   VRHFIN =V: p6 d4 s1                                                          
   LEXCH  = PE                                                                  
   EATOM  =   170.8679 eV,   12.5584 Ry                                         
                                                                                
   TITEL  = PAW_PBE V 08Apr2002                                                 
   LULTRA =        F    use ultrasoft PP ?                                      
   IUNSCR =        1    unscreen: 0-lin 1-nonlin 2-no                           
   RPACOR =    2.000    partial core radius                                     
   POMASS =   50.941; ZVAL   =    5.000    mass and valenz                      
   RCORE  =    2.700    outmost cutoff radius                                   
   RWIGS  =    2.500; RWIGS  =    1.323    wigner-seitz radius (au A)           
   ENMAX  =  192.543; ENMIN  =  144.408 eV                                      
   RCLOC  =    1.779    cutoff for local pot                                    
   LCOR   =        T    correct aug charges                                     
   LPAW   =        T    paw PP                                                  
   EAUG   =  358.662                                                            
   DEXC   =    -.034                                                            
   RMAX   =    3.323    core radius for proj-oper                               
   RAUG   =    1.300    factor for augmentation sphere                          
   RDEP   =    2.762    radius for radial grids                                 
   QCUT   =   -3.762; QGAM   =    7.524    optimization parameters              
                                                                                
   Description                                                                  
     l     E      TYP  RCUT    TYP  RCUT                                        
     2   .000     23  2.700                                                     
     2   .000     23  2.700                                                     
     0   .000     23  2.700                                                     
     0  2.000     23  2.700                                                     
     1   .000     23  2.700                                                     
     1  2.000     23  2.700                                                     
     3   .000      7   .000                                                     
  local pseudopotential read in
  partial core-charges read in
  atomic valenz-charges read in
  non local Contribution for L=           2  read in
    real space projection operators read in
  non local Contribution for L=           2  read in
    real space projection operators read in
  non local Contribution for L=           0  read in
    real space projection operators read in
  non local Contribution for L=           0  read in
    real space projection operators read in
  non local Contribution for L=           1  read in
    real space projection operators read in
  non local Contribution for L=           1  read in
    real space projection operators read in
    PAW grid and wavefunctions read in
 
   number of l-projection  operators is LMAX  =           6
   number of lm-projection operators is LMMAX =          18
 
 POTCAR:   PAW_PBE Mo 08Apr2002                   
   VRHFIN =Mo: 4p5s4d                                                           
   LEXCH  = PE                                                                  
   EATOM  =   217.5180 eV,   15.9871 Ry                                         
                                                                                
   TITEL  = PAW_PBE Mo 08Apr2002                                                
   LULTRA =        F    use ultrasoft PP ?                                      
   IUNSCR =        1    unscreen: 0-lin 1-nonlin 2-no                           
   RPACOR =    2.200    partial core radius                                     
   POMASS =   95.940; ZVAL   =    6.000    mass and valenz                      
   RCORE  =    2.750    outmost cutoff radius                                   
   RWIGS  =    2.750; RWIGS  =    1.455    wigner-seitz radius (au A)           
   ENMAX  =  224.584; ENMIN  =  168.438 eV                                      
   RCLOC  =    2.111    cutoff for local pot                                    
   LCOR   =        T    correct aug charges                                     
   LPAW   =        T    paw PP                                                  
   EAUG   =  345.278                                                            
   DEXC   =    -.088                                                            
   RMAX   =    3.077    core radius for proj-oper                               
   RAUG   =    1.300    factor for augmentation sphere                          
   RDEP   =    2.815    radius for radial grids                                 
   QCUT   =   -4.063; QGAM   =    8.126    optimization parameters              
                                                                                
   Description                                                                  
     l     E      TYP  RCUT    TYP  RCUT                                        
     2   .000     23  2.500                                                     
     2   .000     23  2.500                                                     
     0   .000     23  2.600                                                     
     0  1.000     23  2.600                                                     
     1   .400     23  2.750                                                     
     1  2.000     23  2.750                                                     
     3   .000      7   .000                                                     
  local pseudopotential read in
  partial core-charges read in
  atomic valenz-charges read in
  non local Contribution for L=           2  read in
    real space projection operators read in
  non local Contribution for L=           2  read in
    real space projection operators read in
  non local Contribution for L=           0  read in
    real space projection operators read in
  non local Contribution for L=           0  read in
    real space projection operators read in
  non local Contribution for L=           1  read in
    real space projection operators read in
  non local Contribution for L=           1  read in
    real space projection operators read in
    PAW grid and wavefunctions read in
 
   number of l-projection  operators is LMAX  =           6
   number of lm-projection operators is LMMAX =          18
 
 POTCAR:   PAW_PBE W 08Apr2002                    
   VRHFIN =W : 6s5d                                                             
   LEXCH  = PE                                                                  
   EATOM  =   204.6100 eV,   15.0384 Ry                                         
                                                                                
   TITEL  = PAW_PBE W 08Apr2002                                                 
   LULTRA =        F    use ultrasoft PP ?                                      
   IUNSCR =        1    unscreen: 0-lin 1-nonlin 2-no                           
   RPACOR =    2.330    partial core radius                                     
   POMASS =  183.850; ZVAL   =    6.000    mass and valenz                      
   RCORE  =    2.750    outmost cutoff radius                                   
   RWIGS  =    2.750; RWIGS  =    1.455    wigner-seitz radius (au A)           
   ENMAX  =  223.057; ENMIN  =  167.293 eV                                      
   RCLOC  =    2.147    cutoff for local pot                                    
   LCOR   =        T    correct aug charges                                     
   LPAW   =        T    paw PP                                                  
   EAUG   =  373.438                                                            
   DEXC   =    -.060                                                            
   RMAX   =    3.087    core radius for proj-oper                               
   RAUG   =    1.300    factor for augmentation sphere                          
   RDEP   =    2.886    radius for radial grids                                 
   QCUT   =   -4.049; QGAM   =    8.098    optimization parameters              
                                                                                
   Description                                                                  
     l     E      TYP  RCUT    TYP  RCUT                                        
     2   .000     23  2.500                                                     
     2   .000     23  2.500                                                     
     0   .000     23  2.500                                                     
     0   .000     23  2.500                                                     
     1   .200     23  2.750                                                     
     1  2.000     23  2.750                                                     
     3   .000      7   .000                                                     
  local pseudopotential read in
  partial core-charges read in
  atomic valenz-charges read in
  non local Contribution for L=           2  read in
    real space projection operators read in
  non local Contribution for L=           2  read in
    real space projection operators read in
  non local Contribution for L=           0  read in
    real space projection operators read in
  non local Contribution for L=           0  read in
    real space projection operators read in
  non local Contribution for L=           1  read in
    real space projection operators read in
  non local Contribution for L=           1  read in
    real space projection operators read in
    PAW grid and wavefunctions read in
 
   number of l-projection  operators is LMAX  =           6
   number of lm-projection operators is LMMAX =          18
 
 POTCAR:    PAW_PBE S 17Jan2003                   
   VRHFIN =S : s2p4                                                             
   LEXCH  = PE                                                                  
   EATOM  =   276.8230 eV,   20.3459 Ry                                         
                                                                                
   TITEL  = PAW_PBE S 17Jan2003                                                 
   LULTRA =        F    use ultrasoft PP ?                                      
   IUNSCR =        1    unscreen: 0-lin 1-nonlin 2-no                           
   RPACOR =    1.500    partial core radius                                     
   POMASS =   32.066; ZVAL   =    6.000    mass and valenz                      
   RCORE  =    1.900    outmost cutoff radius                                   
   RWIGS  =    2.200; RWIGS  =    1.164    wigner-seitz radius (au A)           
   ENMAX  =  280.000; ENMIN  =  194.016 eV                                      
   ICORE  =        2    local potential                                         
   LCOR   =        T    correct aug charges                                     
   LPAW   =        T    paw PP                                                  
   EAUG   =  335.092                                                            
   DEXC   =     .000                                                            
   RMAX   =    2.867    core radius for proj-oper                               
   RAUG   =    1.300    factor for augmentation sphere                          
   RDEP   =    1.954    radius for radial grids                                 
   QCUT   =   -4.360; QGAM   =    8.721    optimization parameters              
                                                                                
   Description                                                                  
     l     E      TYP  RCUT    TYP  RCUT                                        
     0   .000     23  1.900                                                     
     0   .000     23  1.900                                                     
     1   .000     23  1.900                                                     
     1   .000     23  1.900                                                     
     2   .000     23  1.900                                                     
  local pseudopotential read in
  partial core-charges read in
  atomic valenz-charges read in
  non local Contribution for L=           0  read in
    real space projection operators read in
  non local Contribution for L=           0  read in
    real space projection operators read in
  non local Contribution for L=           1  read in
    real space projection operators read in
  non local Contribution for L=           1  read in
    real space projection operators read in
    PAW grid and wavefunctions read in
 
   number of l-projection  operators is LMAX  =           4
   number of lm-projection operators is LMMAX =           8
 

 ----------------------------------------------------------------------------- 
|                                                                             |
|  ADVICE TO THIS USER RUNNING 'VASP/VAMP'   (HEAR YOUR MASTER'S VOICE ...):  |
|                                                                             |
|      You have a (more or less) 'large supercell' and for larger cells       |
|      it might be more efficient to use real space projection operators      |
|      So try LREAL= Auto  in the INCAR   file.                               |
|      Mind: If you want to do a very accurate calculations keep the          |
|      reciprocal projection scheme          (i.e. LREAL=.FALSE.)             |
|                                                                             |
 ----------------------------------------------------------------------------- 

 PAW_PBE V 08Apr2002                    :
 energy of atom  1       EATOM= -170.8679
 kinetic energy error for atom=    0.0047 (will be added to EATOM!!)
 PAW_PBE Mo 08Apr2002                   :
 energy of atom  2       EATOM= -217.5180
 kinetic energy error for atom=    0.0215 (will be added to EATOM!!)
 PAW_PBE W 08Apr2002                    :
 energy of atom  3       EATOM= -204.6100
 kinetic energy error for atom=    0.0205 (will be added to EATOM!!)
  PAW_PBE S 17Jan2003                   :
 energy of atom  4       EATOM= -276.8230
 kinetic energy error for atom=    0.0122 (will be added to EATOM!!)
 
 
 POSCAR: crystal structure from VMoWS2 with Hexag
  positions in cartesian coordinates
  No initial velocities read in
 exchange correlation table for  LEXCH =        8
   RHO(1)=    0.500       N(1)  =     2000
   RHO(2)=  100.500       N(2)  =     4000
 


--------------------------------------------------------------------------------------------------------


 ion  position               nearest neighbor table
   1  0.667  0.000  0.000-  17 2.34  26 2.34  23 2.36  22 2.36  21 2.36  20 2.36
   2  0.000  0.667  0.000-  27 2.34  12 2.34  14 2.36  15 2.36  24 2.36  25 2.36
   3  0.667  0.333  0.000-  19 2.34  22 2.34  25 2.36  24 2.36  17 2.36  16 2.36
   4  0.667  0.667  0.000-  21 2.34  24 2.34  27 2.36  26 2.36  19 2.36  18 2.36   9 3.34   6 3.36
                             5 3.36
   5  0.333  0.333  0.000-  13 2.34  16 2.34  19 2.36  18 2.36  11 2.36  10 2.36   9 3.34   8 3.34
                             7 3.34   6 3.36   4 3.36
   6  0.000  0.000  0.000-  23 2.34  14 2.34  11 2.36  10 2.36  27 2.36  26 2.36   7 3.34   8 3.34
                             4 3.36   5 3.36
   7  1.000  0.333  0.000-  25 2.34  10 2.34  13 2.36  12 2.36  22 2.36  23 2.36   6 3.34   5 3.34
                             9 3.36
   8  0.333  0.000  0.000-  11 2.34  20 2.34  17 2.36  16 2.36  15 2.36  14 2.36   9 3.34   5 3.34
                             6 3.34
   9  0.333  0.667  0.000-  15 2.34  18 2.34  20 2.36  21 2.36  13 2.36  12 2.36   8 3.34   5 3.34
                             4 3.34   7 3.36
  10  0.111  0.222  0.955-   7 2.34   6 2.36   5 2.36
  11  0.222  0.111  0.045-   8 2.34   6 2.36   5 2.36
  12  0.111  0.556  0.955-   2 2.34   7 2.36   9 2.36
  13  0.222  0.444  0.045-   5 2.34   7 2.36   9 2.36
  14  0.111  0.889  0.955-   6 2.34   2 2.36   8 2.36
  15  0.222  0.777  0.045-   9 2.34   2 2.36   8 2.36
  16  0.444  0.222  0.955-   5 2.34   8 2.36   3 2.36
  17  0.556  0.111  0.045-   1 2.34   8 2.36   3 2.36
  18  0.444  0.556  0.955-   9 2.34   5 2.36   4 2.36
  19  0.556  0.444  0.045-   3 2.34   5 2.36   4 2.36
  20  0.444  0.889  0.955-   8 2.34   9 2.36   1 2.36
  21  0.556  0.777  0.045-   4 2.34   9 2.36   1 2.36
  22  0.777  0.222  0.955-   3 2.34   1 2.36   7 2.36
  23  0.889  0.111  0.045-   6 2.34   1 2.36   7 2.36
  24  0.777  0.556  0.955-   4 2.34   3 2.36   2 2.36
  25  0.889  0.444  0.045-   7 2.34   3 2.36   2 2.36
  26  0.777  0.889  0.955-   1 2.34   4 2.36   6 2.36
  27  0.889  0.777  0.045-   2 2.34   4 2.36   6 2.36
 

IMPORTANT INFORMATION: All symmetrisations will be switched off!
NOSYMM: (Re-)initialisation of all symmetry stuff for point group C_1.

 
 
 KPOINTS: K-POINTS 	#supercell of CrS2 in hexagona

Automatic generation of k-mesh.
Space group operators:
 irot       det(A)        alpha          n_x          n_y          n_z        tau_x        tau_y        tau_z
    1     1.000000     0.000000     1.000000     0.000000     0.000000     0.000000     0.000000     0.000000
 
 Subroutine IBZKPT returns following result:
 ===========================================
 
 Found     34 irreducible k-points:
 
 Following reciprocal coordinates:
            Coordinates               Weight
  0.000000  0.000000  0.000000      1.000000
  0.125000  0.000000  0.000000      2.000000
  0.250000  0.000000  0.000000      2.000000
  0.375000  0.000000  0.000000      2.000000
  0.500000  0.000000  0.000000      1.000000
  0.000000  0.125000  0.000000      2.000000
  0.125000  0.125000  0.000000      2.000000
  0.250000  0.125000  0.000000      2.000000
  0.375000  0.125000  0.000000      2.000000
  0.500000  0.125000  0.000000      2.000000
 -0.375000  0.125000  0.000000      2.000000
 -0.250000  0.125000  0.000000      2.000000
 -0.125000  0.125000  0.000000      2.000000
  0.000000  0.250000  0.000000      2.000000
  0.125000  0.250000  0.000000      2.000000
  0.250000  0.250000  0.000000      2.000000
  0.375000  0.250000  0.000000      2.000000
  0.500000  0.250000  0.000000      2.000000
 -0.375000  0.250000  0.000000      2.000000
 -0.250000  0.250000  0.000000      2.000000
 -0.125000  0.250000  0.000000      2.000000
 -0.000000  0.375000  0.000000      2.000000
  0.125000  0.375000  0.000000      2.000000
  0.250000  0.375000  0.000000      2.000000
  0.375000  0.375000  0.000000      2.000000
  0.500000  0.375000  0.000000      2.000000
 -0.375000  0.375000  0.000000      2.000000
 -0.250000  0.375000  0.000000      2.000000
 -0.125000  0.375000  0.000000      2.000000
  0.000000  0.500000  0.000000      1.000000
  0.125000  0.500000  0.000000      2.000000
  0.250000  0.500000  0.000000      2.000000
  0.375000  0.500000  0.000000      2.000000
  0.500000  0.500000  0.000000      1.000000
 
 Following cartesian coordinates:
            Coordinates               Weight
  0.000000  0.000000  0.000000      1.000000
  0.007209  0.012401  0.000000      2.000000
  0.014418  0.024802  0.000000      2.000000
  0.021626  0.037202  0.000000      2.000000
  0.028835  0.049603  0.000000      1.000000
 -0.007209  0.012401  0.000000      2.000000
  0.000000  0.024802  0.000000      2.000000
  0.007209  0.037202  0.000000      2.000000
  0.014418  0.049603  0.000000      2.000000
  0.021626  0.062004  0.000000      2.000000
 -0.028835 -0.024802  0.000000      2.000000
 -0.021626 -0.012401  0.000000      2.000000
 -0.014418  0.000000  0.000000      2.000000
 -0.014418  0.024802  0.000000      2.000000
 -0.007209  0.037202  0.000000      2.000000
  0.000000  0.049603  0.000000      2.000000
  0.007209  0.062004  0.000000      2.000000
  0.014418  0.074405  0.000000      2.000000
 -0.036044 -0.012401  0.000000      2.000000
 -0.028835  0.000000  0.000000      2.000000
 -0.021626  0.012401  0.000000      2.000000
 -0.021626  0.037202  0.000000      2.000000
 -0.014418  0.049603  0.000000      2.000000
 -0.007209  0.062004  0.000000      2.000000
  0.000000  0.074405  0.000000      2.000000
  0.007209  0.086806  0.000000      2.000000
 -0.043253  0.000000  0.000000      2.000000
 -0.036044  0.012401  0.000000      2.000000
 -0.028835  0.024802  0.000000      2.000000
 -0.028835  0.049603  0.000000      1.000000
 -0.021626  0.062004  0.000000      2.000000
 -0.014418  0.074405  0.000000      2.000000
 -0.007209  0.086806  0.000000      2.000000
  0.000000  0.099206  0.000000      1.000000
 


--------------------------------------------------------------------------------------------------------




 Dimension of arrays:
   k-points           NKPTS =     34   k-points in BZ     NKDIM =     34   number of bands    NBANDS=    120
   number of dos      NEDOS =    301   number of ions     NIONS =     27
   non local maximal  LDIM  =      6   non local SUM 2l+1 LMDIM =     18
   total plane-waves  NPLWV = 222264
   max r-space proj   IRMAX =      1   max aug-charges    IRDMAX=   5642
   dimension x,y,z NGX =    42 NGY =   42 NGZ =  126
   dimension x,y,z NGXF=    84 NGYF=   84 NGZF=  252
   support grid    NGXF=    84 NGYF=   84 NGZF=  252
   ions per type =               3   3   3  18
 NGX,Y,Z   is equivalent  to a cutoff of   6.96,  6.96,  6.98 a.u.
 NGXF,Y,Z  is equivalent  to a cutoff of  13.92, 13.92, 13.96 a.u.


 I would recommend the setting:
   dimension x,y,z NGX =    41 NGY =   41 NGZ =  123
 SYSTEM =  unknown system                          
 POSCAR =  crystal structure from VMoWS2 with Hexag

 Startparameter for this run:
   NWRITE =      2    write-flag & timer
   PREC   = normal    normal or accurate (medium, high low for compatibility)
   ISTART =      0    job   : 0-new  1-cont  2-samecut
   ICHARG =      2    charge: 1-file 2-atom 10-const
   ISPIN  =      1    spin polarized calculation?
   LNONCOLLINEAR =      F non collinear calculations
   LSORBIT =      F    spin-orbit coupling
   INIWAV =      1    electr: 0-lowe 1-rand  2-diag
   LASPH  =      F    aspherical Exc in radial PAW
   METAGGA=      F    non-selfconsistent MetaGGA calc.

 Electronic Relaxation 1
   ENCUT  =  280.0 eV  20.58 Ry    4.54 a.u.  13.68 13.68 40.93*2*pi/ulx,y,z
   ENINI  =  280.0     initial cutoff
   ENAUG  =  373.4 eV  augmentation charge cutoff
   NELM   =     60;   NELMIN=  2; NELMDL= -5     # of ELM steps 
   EDIFF  = 0.1E-03   stopping-criterion for ELM
   LREAL  =      F    real-space projection
   NLSPLINE    = F    spline interpolate recip. space projectors
   LCOMPAT=      F    compatible to vasp.4.4
   GGA_COMPAT  = T    GGA compatible to vasp.4.4-vasp.4.6
   LMAXPAW     = -100 max onsite density
   LMAXMIX     =    2 max onsite mixed and CHGCAR
   VOSKOWN=      0    Vosko Wilk Nusair interpolation
   ROPT   =    0.00000   0.00000   0.00000   0.00000
 Ionic relaxation
   EDIFFG = 0.1E-02   stopping-criterion for IOM
   NSW    =    100    number of steps for IOM
   NBLOCK =      1;   KBLOCK =    100    inner block; outer block 
   IBRION =      1    ionic relax: 0-MD 1-quasi-New 2-CG
   NFREE  =      0    steps in history (QN), initial steepest desc. (CG)
   ISIF   =      3    stress and relaxation
   IWAVPR =     11    prediction:  0-non 1-charg 2-wave 3-comb
   ISYM   =      0    0-nonsym 1-usesym 2-fastsym
   LCORR  =      T    Harris-Foulkes like correction to forces

   POTIM  = 0.5000    time-step for ionic-motion
   TEIN   =    0.0    initial temperature
   TEBEG  =    0.0;   TEEND  =   0.0 temperature during run
   SMASS  =  -3.00    Nose mass-parameter (am)
   estimated Nose-frequenzy (Omega)   =  0.10E-29 period in steps =****** mass=  -0.230E-26a.u.
   SCALEE = 1.0000    scale energy and forces
   NPACO  =    256;   APACO  = 16.0  distance and # of slots for P.C.
   PSTRESS=    0.0 pullay stress

  Mass of Ions in am
   POMASS =  50.94 95.94183.85 32.07
  Ionic Valenz
   ZVAL   =   5.00  6.00  6.00  6.00
  Atomic Wigner-Seitz radii
   RWIGS  =  -1.00 -1.00 -1.00 -1.00
  virtual crystal weights 
   VCA    =   1.00  1.00  1.00  1.00
   NELECT =     159.0000    total number of electrons
   NUPDOWN=      -1.0000    fix difference up-down

 DOS related values:
   EMIN   =  10.00;   EMAX   =-10.00  energy-range for DOS
   EFERMI =   0.00
   ISMEAR =     0;   SIGMA  =   0.20  broadening in eV -4-tet -1-fermi 0-gaus

 Electronic relaxation 2 (details)
   IALGO  =     38    algorithm
   LDIAG  =      T    sub-space diagonalisation (order eigenvalues)
   LSUBROT=      F    optimize rotation matrix (better conditioning)
   TURBO    =      0    0=normal 1=particle mesh
   IRESTART =      0    0=no restart 2=restart with 2 vectors
   NREBOOT  =      0    no. of reboots
   NMIN     =      0    reboot dimension
   EREF     =   0.00    reference energy to select bands
   IMIX   =      4    mixing-type and parameters
     AMIX     =   0.40;   BMIX     =  1.00
     AMIX_MAG =   1.60;   BMIX_MAG =  1.00
     AMIN     =   0.10
     WC   =   100.;   INIMIX=   1;  MIXPRE=   1;  MAXMIX= -45

 Intra band minimization:
   WEIMIN = 0.0010     energy-eigenvalue tresh-hold
   EBREAK =  0.21E-06  absolut break condition
   DEPER  =   0.30     relativ break condition  

   TIME   =   0.40     timestep for ELM

  volume/ion in A,a.u.               =      97.10       655.29
  Fermi-wavevector in a.u.,A,eV,Ry     =   0.643191  1.215456  5.628665  0.413695
  Thomas-Fermi vector in A             =   1.710110
 
 Write flags
   LWAVE  =      F    write WAVECAR
   LCHARG =      F    write CHGCAR
   LVTOT  =      F    write LOCPOT, total local potential
   LVHAR  =      F    write LOCPOT, Hartree potential only
   LELF   =      F    write electronic localiz. function (ELF)
   LORBIT =      0    0 simple, 1 ext, 2 COOP (PROOUT)


 Dipole corrections
   LMONO  =      F    monopole corrections only (constant potential shift)
   LDIPOL =      F    correct potential (dipole corrections)
   IDIPOL =      0    1-x, 2-y, 3-z, 4-all directions 
   EPSILON=  1.0000000 bulk dielectric constant

 Exchange correlation treatment:
   GGA     =    --    GGA type
   LEXCH   =     8    internal setting for exchange type
   VOSKOWN=      0    Vosko Wilk Nusair interpolation
   LHFCALC =     F    Hartree Fock is set to
   LHFONE  =     F    Hartree Fock one center treatment
   AEXX    =    0.0000 exact exchange contribution

 Linear response parameters
   LEPSILON=     F    determine dielectric tensor
   LRPA    =     F    only Hartree local field effects (RPA)
   LNABLA  =     F    use nabla operator in PAW spheres
   LVEL    =     F    velocity operator in full k-point grid
   LINTERFAST=   F  fast interpolation
   KINTER  =     0    interpolate to denser k-point grid
   CSHIFT  =0.1000    complex shift for real part using Kramers Kronig
   OMEGAMAX=  -1.0    maximum frequency
   DEG_THRESHOLD= 0.2000000E-02 threshold for treating states as degnerate
   RTIME   =    0.100 relaxation time in fs

 Orbital magnetization related:
   ORBITALMAG=     F  switch on orbital magnetization
   LCHIMAG   =     F  perturbation theory with respect to B field
   DQ        =  0.001000  dq finite difference perturbation B field



--------------------------------------------------------------------------------------------------------


 quasi-Newton-method for relaxation of ions
 charge density and potential will be updated during run
 non-spin polarized calculation
 Variant of blocked Davidson
 Davidson routine will perform the subspace rotation
 perform sub-space diagonalisation
    after iterative eigenvector-optimisation
 modified Broyden-mixing scheme, WC =      100.0
 initial mixing is a Kerker type mixing with AMIX =  0.4000 and BMIX =      1.0000
 Hartree-type preconditioning will be used
 using additional bands           40
 reciprocal scheme for non local part
 use partial core corrections
 calculate Harris-corrections to forces 
   (improved forces if not selfconsistent)
 use gradient corrections 
 use of overlap-Matrix (Vanderbilt PP)
 Gauss-broadening in eV      SIGMA  =   0.20


--------------------------------------------------------------------------------------------------------


  energy-cutoff  :      280.00
  volume of cell :     2621.81
      direct lattice vectors                 reciprocal lattice vectors
     8.669999960  5.039999894  0.000000000     0.057670129  0.099206348  0.000000000
    -8.669999821  5.040000133  0.000000000    -0.057670126  0.099206350  0.000000000
     0.000000000  0.000000000 30.000000000     0.000000000  0.000000000  0.033333333

  length of vectors
    10.028484344 10.028484344 30.000000000     0.114750788  0.114750788  0.033333333


 
 k-points in units of 2pi/SCALE and weight: K-POINTS 	#supercell of CrS2 in hexagona
   0.00000000  0.00000000  0.00000000       0.016
   0.00720877  0.01240079  0.00000000       0.031
   0.01441753  0.02480159  0.00000000       0.031
   0.02162630  0.03720238  0.00000000       0.031
   0.02883506  0.04960317  0.00000000       0.016
  -0.00720877  0.01240079  0.00000000       0.031
   0.00000000  0.02480159  0.00000000       0.031
   0.00720877  0.03720238  0.00000000       0.031
   0.01441753  0.04960317  0.00000000       0.031
   0.02162630  0.06200397  0.00000000       0.031
  -0.02883506 -0.02480159  0.00000000       0.031
  -0.02162630 -0.01240079  0.00000000       0.031
  -0.01441753  0.00000000  0.00000000       0.031
  -0.01441753  0.02480159  0.00000000       0.031
  -0.00720877  0.03720238  0.00000000       0.031
   0.00000000  0.04960317  0.00000000       0.031
   0.00720877  0.06200397  0.00000000       0.031
   0.01441753  0.07440476  0.00000000       0.031
  -0.03604383 -0.01240079  0.00000000       0.031
  -0.02883506  0.00000000  0.00000000       0.031
  -0.02162630  0.01240079  0.00000000       0.031
  -0.02162630  0.03720238  0.00000000       0.031
  -0.01441753  0.04960317  0.00000000       0.031
  -0.00720877  0.06200397  0.00000000       0.031
   0.00000000  0.07440476  0.00000000       0.031
   0.00720877  0.08680556  0.00000000       0.031
  -0.04325260  0.00000000  0.00000000       0.031
  -0.03604383  0.01240079  0.00000000       0.031
  -0.02883506  0.02480159  0.00000000       0.031
  -0.02883506  0.04960317  0.00000000       0.016
  -0.02162630  0.06200397  0.00000000       0.031
  -0.01441753  0.07440476  0.00000000       0.031
  -0.00720876  0.08680556  0.00000000       0.031
   0.00000000  0.09920635  0.00000000       0.016
 
 k-points in reciprocal lattice and weights: K-POINTS 	#supercell of CrS2 in hexagona
   0.00000000  0.00000000  0.00000000       0.016
   0.12500000  0.00000000  0.00000000       0.031
   0.25000000  0.00000000  0.00000000       0.031
   0.37500000  0.00000000  0.00000000       0.031
   0.50000000  0.00000000  0.00000000       0.016
   0.00000000  0.12500000  0.00000000       0.031
   0.12500000  0.12500000  0.00000000       0.031
   0.25000000  0.12500000  0.00000000       0.031
   0.37500000  0.12500000  0.00000000       0.031
   0.50000000  0.12500000  0.00000000       0.031
  -0.37500000  0.12500000  0.00000000       0.031
  -0.25000000  0.12500000  0.00000000       0.031
  -0.12500000  0.12500000  0.00000000       0.031
   0.00000000  0.25000000  0.00000000       0.031
   0.12500000  0.25000000  0.00000000       0.031
   0.25000000  0.25000000  0.00000000       0.031
   0.37500000  0.25000000  0.00000000       0.031
   0.50000000  0.25000000  0.00000000       0.031
  -0.37500000  0.25000000  0.00000000       0.031
  -0.25000000  0.25000000  0.00000000       0.031
  -0.12500000  0.25000000  0.00000000       0.031
  -0.00000000  0.37500000  0.00000000       0.031
   0.12500000  0.37500000  0.00000000       0.031
   0.25000000  0.37500000  0.00000000       0.031
   0.37500000  0.37500000  0.00000000       0.031
   0.50000000  0.37500000  0.00000000       0.031
  -0.37500000  0.37500000  0.00000000       0.031
  -0.25000000  0.37500000  0.00000000       0.031
  -0.12500000  0.37500000  0.00000000       0.031
   0.00000000  0.50000000  0.00000000       0.016
   0.12500000  0.50000000  0.00000000       0.031
   0.25000000  0.50000000  0.00000000       0.031
   0.37500000  0.50000000  0.00000000       0.031
   0.50000000  0.50000000  0.00000000       0.016
 
 position of ions in fractional coordinates (direct lattice) 
   0.66666669  0.00000000  0.00000000
   0.00000000  0.66666669  0.00000000
   0.66666669  0.33333334  0.00000000
   0.66666669  0.66666669  0.00000000
   0.33333334  0.33333334  0.00000000
   0.00000000  0.00000000  0.00000000
   1.00000000  0.33333334  0.00000000
   0.33333334  0.00000000  0.00000000
   0.33333334  0.66666669  0.00000000
   0.11068511  0.22244981  0.95539999
   0.22244981  0.11068511  0.04460000
   0.11068511  0.55578315  0.95539999
   0.22244981  0.44401845  0.04460000
   0.11068511  0.88911647  0.95539999
   0.22244981  0.77735180  0.04460000
   0.44401845  0.22244981  0.95539999
   0.55578315  0.11068511  0.04460000
   0.44401845  0.55578315  0.95539999
   0.55578315  0.44401845  0.04460000
   0.44401845  0.88911647  0.95539999
   0.55578315  0.77735180  0.04460000
   0.77735180  0.22244981  0.95539999
   0.88911647  0.11068511  0.04460000
   0.77735180  0.55578315  0.95539999
   0.88911647  0.44401845  0.04460000
   0.77735180  0.88911647  0.95539999
   0.88911647  0.77735180  0.04460000
 
 position of ions in cartesian coordinates  (Angst):
   5.78000015  3.36000003  0.00000000
  -5.78000005  3.36000019  0.00000000
   2.89000012  5.04000012  0.00000000
   0.00000009  6.72000022  0.00000000
   0.00000005  3.36000011  0.00000000
   0.00000000  0.00000000  0.00000000
   5.77999993  6.71999999  0.00000000
   2.89000007  1.68000002  0.00000000
  -2.88999998  5.04000020  0.00000000
  -0.96899991  1.67900001 28.66199970
   0.96899995  1.67899998  1.33799996
  -3.85899993  3.35900011 28.66199970
  -1.92100007  3.35900008  1.33799996
  -6.74899970  5.03900005 28.66199970
  -4.81100010  5.03900017  1.33799996
   1.92100017  3.35900003 28.66199970
   3.85900003  3.35900000  1.33799996
  -0.96899986  5.03900012 28.66199970
   0.96900000  5.03900009  1.33799996
  -3.85899963  6.71900006 28.66199970
  -1.92100003  6.71900019  1.33799996
   4.81100024  5.03900004 28.66199970
   6.74899984  5.03899987  1.33799996
   1.92100021  6.71900014 28.66199970
   3.85899981  6.71899996  1.33799996
  -0.96899956  8.39900008 28.66199970
   0.96899979  8.39900005  1.33799996
 


--------------------------------------------------------------------------------------------------------


 k-point  1 :   0.0000 0.0000 0.0000  plane waves:   27959
 k-point  2 :   0.1250 0.0000 0.0000  plane waves:   27889
 k-point  3 :   0.2500 0.0000 0.0000  plane waves:   27875
 k-point  4 :   0.3750 0.0000 0.0000  plane waves:   27893
 k-point  5 :   0.5000 0.0000 0.0000  plane waves:   27932
 k-point  6 :   0.0000 0.1250 0.0000  plane waves:   27889
 k-point  7 :   0.1250 0.1250 0.0000  plane waves:   27906
 k-point  8 :   0.2500 0.1250 0.0000  plane waves:   27898
 k-point  9 :   0.3750 0.1250 0.0000  plane waves:   27888
 k-point 10 :   0.5000 0.1250 0.0000  plane waves:   27873
 k-point 11 :  -0.3750 0.1250 0.0000  plane waves:   27874
 k-point 12 :  -0.2500 0.1250 0.0000  plane waves:   27895
 k-point 13 :  -0.1250 0.1250 0.0000  plane waves:   27879
 k-point 14 :   0.0000 0.2500 0.0000  plane waves:   27875
 k-point 15 :   0.1250 0.2500 0.0000  plane waves:   27898
 k-point 16 :   0.2500 0.2500 0.0000  plane waves:   27920
 k-point 17 :   0.3750 0.2500 0.0000  plane waves:   27901
 k-point 18 :   0.5000 0.2500 0.0000  plane waves:   27875
 k-point 19 :  -0.3750 0.2500 0.0000  plane waves:   27894
 k-point 20 :  -0.2500 0.2500 0.0000  plane waves:   27870
 k-point 21 :  -0.1250 0.2500 0.0000  plane waves:   27895
 k-point 22 :  -0.0000 0.3750 0.0000  plane waves:   27893
 k-point 23 :   0.1250 0.3750 0.0000  plane waves:   27888
 k-point 24 :   0.2500 0.3750 0.0000  plane waves:   27901
 k-point 25 :   0.3750 0.3750 0.0000  plane waves:   27860
 k-point 26 :   0.5000 0.3750 0.0000  plane waves:   27895
 k-point 27 :  -0.3750 0.3750 0.0000  plane waves:   27858
 k-point 28 :  -0.2500 0.3750 0.0000  plane waves:   27894
 k-point 29 :  -0.1250 0.3750 0.0000  plane waves:   27874
 k-point 30 :   0.0000 0.5000 0.0000  plane waves:   27932
 k-point 31 :   0.1250 0.5000 0.0000  plane waves:   27873
 k-point 32 :   0.2500 0.5000 0.0000  plane waves:   27875
 k-point 33 :   0.3750 0.5000 0.0000  plane waves:   27895
 k-point 34 :   0.5000 0.5000 0.0000  plane waves:   27910

 maximum and minimum number of plane-waves per node :     27959    27858

 maximum number of plane-waves:     27959
 maximum index in each direction: 
   IXMAX=   14   IYMAX=   13   IZMAX=   40
   IXMIN=  -14   IYMIN=  -14   IZMIN=  -40

 WARNING: aliasing errors must be expected set NGX to  58 to avoid them
 WARNING: aliasing errors must be expected set NGY to  56 to avoid them
 WARNING: aliasing errors must be expected set NGZ to 162 to avoid them
 aliasing errors are usually negligible using standard VASP settings
 and one can safely disregard these warnings

 serial   3D FFT for wavefunctions

 total amount of memory used by VASP on root node   650782. kBytes
========================================================================

   base      :      30000. kBytes
   nonl-proj :     559647. kBytes
   fftplans  :       2414. kBytes
   grid      :      12150. kBytes
   one-center:        419. kBytes
   wavefun   :      46152. kBytes
 
     INWAV:  cpu time    0.0000: real time    0.0000
 Broyden mixing: mesh for mixing (old mesh)
   NGX = 27   NGY = 27   NGZ = 81
  (NGX  = 84   NGY  = 84   NGZ  =252)
  gives a total of  59049 points

 initial charge density was supplied:
 charge density of overlapping atoms calculated
 number of electron     159.0000000 magnetization 
 keeping initial charge density in first step


--------------------------------------------------------------------------------------------------------


 Maximum index for augmentation-charges          148 (set IRDMAX)


--------------------------------------------------------------------------------------------------------


 First call to EWALD:  gamma=   0.129
 Maximum number of real-space cells 4x 4x 2
 Maximum number of reciprocal cells 2x 2x 5

 FEWALD executed in parallel
    FEWALD:  cpu time    0.0016: real time    0.0016


----------------------------------------- Iteration    1(   1)  ---------------------------------------


    POTLOK:  cpu time    0.0393: real time    0.0395
    SETDIJ:  cpu time    0.0040: real time    0.0040
     EDDAV:  cpu time   22.8237: real time   22.8823
       DOS:  cpu time    0.0015: real time    0.0015
    --------------------------------------------
      LOOP:  cpu time   22.8744: real time   22.9349

 eigenvalue-minimisations  :  8160
 total energy-change (2. order) : 0.1124206E+04  (-0.3585772E+04)
 number of electron     159.0000000 magnetization 
 augmentation part      159.0000000 magnetization 

 Free energy of the ion-electron system (eV)
  ---------------------------------------------------
  alpha Z        PSCENC =        81.65567618
  Ewald energy   TEWEN  =     41890.23009643
  -Hartree energ DENC   =    -47722.85861835
  -exchange      EXHF   =         0.00000000
  -V(xc)+E(xc)   XCENC  =      -242.92963158
  PAW double counting   =      3467.42045192    -2871.19716117
  entropy T*S    EENTRO =        -0.53104573
  eigenvalues    EBANDS =      -239.02602242
  atomic energy  EATOM  =      6761.44252427
  Solvation  Ediel_sol  =         0.00000000
  ---------------------------------------------------
  free energy    TOTEN  =      1124.20626956 eV

  energy without entropy =     1124.73731529  energy(sigma->0) =     1124.47179243


--------------------------------------------------------------------------------------------------------




----------------------------------------- Iteration    1(   2)  ---------------------------------------


     EDDAV:  cpu time   29.5080: real time   29.5789
       DOS:  cpu time    0.0011: real time    0.0011
    --------------------------------------------
      LOOP:  cpu time   29.5100: real time   29.5889

 eigenvalue-minimisations  : 11200
 total energy-change (2. order) :-0.1126108E+04  (-0.1083861E+04)
 number of electron     159.0000000 magnetization 
 augmentation part      159.0000000 magnetization 

 Free energy of the ion-electron system (eV)
  ---------------------------------------------------
  alpha Z        PSCENC =        81.65567618
  Ewald energy   TEWEN  =     41890.23009643
  -Hartree energ DENC   =    -47722.85861835
  -exchange      EXHF   =         0.00000000
  -V(xc)+E(xc)   XCENC  =      -242.92963158
  PAW double counting   =      3467.42045192    -2871.19716117
  entropy T*S    EENTRO =        -0.19910917
  eigenvalues    EBANDS =     -1365.46563089
  atomic energy  EATOM  =      6761.44252427
  Solvation  Ediel_sol  =         0.00000000
  ---------------------------------------------------
  free energy    TOTEN  =        -1.90140235 eV

  energy without entropy =       -1.70229318  energy(sigma->0) =       -1.80184776


--------------------------------------------------------------------------------------------------------




----------------------------------------- Iteration    1(   3)  ---------------------------------------


     EDDAV:  cpu time   28.8817: real time   28.9513
       DOS:  cpu time    0.0010: real time    0.0010
    --------------------------------------------
      LOOP:  cpu time   28.8837: real time   28.9594

 eigenvalue-minimisations  : 10920
 total energy-change (2. order) :-0.1979341E+03  (-0.1899617E+03)
 number of electron     159.0000000 magnetization 
 augmentation part      159.0000000 magnetization 

 Free energy of the ion-electron system (eV)
  ---------------------------------------------------
  alpha Z        PSCENC =        81.65567618
  Ewald energy   TEWEN  =     41890.23009643
  -Hartree energ DENC   =    -47722.85861835
  -exchange      EXHF   =         0.00000000
  -V(xc)+E(xc)   XCENC  =      -242.92963158
  PAW double counting   =      3467.42045192    -2871.19716117
  entropy T*S    EENTRO =        -0.26097844
  eigenvalues    EBANDS =     -1563.33786520
  atomic energy  EATOM  =      6761.44252427
  Solvation  Ediel_sol  =         0.00000000
  ---------------------------------------------------
  free energy    TOTEN  =      -199.83550593 eV

  energy without entropy =     -199.57452749  energy(sigma->0) =     -199.70501671


--------------------------------------------------------------------------------------------------------




----------------------------------------- Iteration    1(   4)  ---------------------------------------


     EDDAV:  cpu time   31.6470: real time   31.7230
       DOS:  cpu time    0.0011: real time    0.0011
    --------------------------------------------
      LOOP:  cpu time   31.6493: real time   31.7312

 eigenvalue-minimisations  : 12200
 total energy-change (2. order) :-0.9131316E+01  (-0.8864484E+01)
 number of electron     159.0000000 magnetization 
 augmentation part      159.0000000 magnetization 

 Free energy of the ion-electron system (eV)
  ---------------------------------------------------
  alpha Z        PSCENC =        81.65567618
  Ewald energy   TEWEN  =     41890.23009643
  -Hartree energ DENC   =    -47722.85861835
  -exchange      EXHF   =         0.00000000
  -V(xc)+E(xc)   XCENC  =      -242.92963158
  PAW double counting   =      3467.42045192    -2871.19716117
  entropy T*S    EENTRO =        -0.29764127
  eigenvalues    EBANDS =     -1572.43251820
  atomic energy  EATOM  =      6761.44252427
  Solvation  Ediel_sol  =         0.00000000
  ---------------------------------------------------
  free energy    TOTEN  =      -208.96682176 eV

  energy without entropy =     -208.66918049  energy(sigma->0) =     -208.81800113


--------------------------------------------------------------------------------------------------------




----------------------------------------- Iteration    1(   5)  ---------------------------------------


     EDDAV:  cpu time   29.9549: real time   30.0291
       DOS:  cpu time    0.0010: real time    0.0010
    CHARGE:  cpu time    0.5375: real time    0.5389
    MIXING:  cpu time    0.0020: real time    0.0019
    --------------------------------------------
      LOOP:  cpu time   30.4976: real time   30.5785

 eigenvalue-minimisations  : 11440
 total energy-change (2. order) :-0.3125835E+00  (-0.3117101E+00)
 number of electron     159.0000111 magnetization 
 augmentation part       -9.7971271 magnetization 

 Broyden mixing:
  rms(total) = 0.27470E+01    rms(broyden)= 0.27466E+01
  rms(prec ) = 0.29323E+01
  weight for this iteration     100.00

 Free energy of the ion-electron system (eV)
  ---------------------------------------------------
  alpha Z        PSCENC =        81.65567618
  Ewald energy   TEWEN  =     41890.23009643
  -Hartree energ DENC   =    -47722.85861835
  -exchange      EXHF   =         0.00000000
  -V(xc)+E(xc)   XCENC  =      -242.92963158
  PAW double counting   =      3467.42045192    -2871.19716117
  entropy T*S    EENTRO =        -0.29458240
  eigenvalues    EBANDS =     -1572.74816059
  atomic energy  EATOM  =      6761.44252427
  Solvation  Ediel_sol  =         0.00000000
  ---------------------------------------------------
  free energy    TOTEN  =      -209.27940528 eV

  energy without entropy =     -208.98482289  energy(sigma->0) =     -209.13211408


--------------------------------------------------------------------------------------------------------




----------------------------------------- Iteration    1(   6)  ---------------------------------------


    POTLOK:  cpu time    0.0355: real time    0.0356
    SETDIJ:  cpu time    0.0033: real time    0.0034
     EDDAV:  cpu time   32.5715: real time   32.6499
       DOS:  cpu time    0.0011: real time    0.0011
    CHARGE:  cpu time    0.4666: real time    0.4677
    MIXING:  cpu time    0.0021: real time    0.0023
    --------------------------------------------
      LOOP:  cpu time   33.0809: real time   33.1691

 eigenvalue-minimisations  : 12680
 total energy-change (2. order) :-0.2790755E+02  (-0.1077965E+02)
 number of electron     159.0000106 magnetization 
 augmentation part        7.0904342 magnetization 

 Broyden mixing:
  rms(total) = 0.59398E+01    rms(broyden)= 0.59391E+01
  rms(prec ) = 0.65215E+01
  weight for this iteration     100.00

 eigenvalues of (default mixing * dielectric matrix)
  average eigenvalue GAMMA=   0.2933
  0.2933

 Free energy of the ion-electron system (eV)
  ---------------------------------------------------
  alpha Z        PSCENC =        81.65567618
  Ewald energy   TEWEN  =     41890.23009643
  -Hartree energ DENC   =    -47701.21041255
  -exchange      EXHF   =         0.00000000
  -V(xc)+E(xc)   XCENC  =      -233.63048961
  PAW double counting   =      3676.40748313    -3082.49716852
  entropy T*S    EENTRO =        -0.27129621
  eigenvalues    EBANDS =     -1629.31336504
  atomic energy  EATOM  =      6761.44252427
  Solvation  Ediel_sol  =         0.00000000
  ---------------------------------------------------
  free energy    TOTEN  =      -237.18695192 eV

  energy without entropy =     -236.91565571  energy(sigma->0) =     -237.05130382


--------------------------------------------------------------------------------------------------------




----------------------------------------- Iteration    1(   7)  ---------------------------------------


    POTLOK:  cpu time    0.0350: real time    0.0354
    SETDIJ:  cpu time    0.0034: real time    0.0034
     EDDAV:  cpu time   33.6491: real time   33.7300
       DOS:  cpu time    0.0010: real time    0.0010
    CHARGE:  cpu time    0.5536: real time    0.5550
    MIXING:  cpu time    0.0012: real time    0.0012
    --------------------------------------------
      LOOP:  cpu time   34.2445: real time   34.3355

 eigenvalue-minimisations  : 13160
 total energy-change (2. order) : 0.4054129E+02  (-0.1776672E+02)
 number of electron     159.0000087 magnetization 
 augmentation part       -6.2251835 magnetization 

 Broyden mixing:
  rms(total) = 0.20371E+01    rms(broyden)= 0.20351E+01
  rms(prec ) = 0.22617E+01
  weight for this iteration     100.00

 eigenvalues of (default mixing * dielectric matrix)
  average eigenvalue GAMMA=   0.5398
  0.8684  0.2112

 Free energy of the ion-electron system (eV)
  ---------------------------------------------------
  alpha Z        PSCENC =        81.65567618
  Ewald energy   TEWEN  =     41890.23009643
  -Hartree energ DENC   =    -47738.75052074
  -exchange      EXHF   =         0.00000000
  -V(xc)+E(xc)   XCENC  =      -235.01404923
  PAW double counting   =      3764.21793100    -3178.26191335
  entropy T*S    EENTRO =        -0.33674657
  eigenvalues    EBANDS =     -1541.82866277
  atomic energy  EATOM  =      6761.44252427
  Solvation  Ediel_sol  =         0.00000000
  ---------------------------------------------------
  free energy    TOTEN  =      -196.64566477 eV

  energy without entropy =     -196.30891820  energy(sigma->0) =     -196.47729149


--------------------------------------------------------------------------------------------------------




----------------------------------------- Iteration    1(   8)  ---------------------------------------


    POTLOK:  cpu time    0.0324: real time    0.0325
    SETDIJ:  cpu time    0.0033: real time    0.0034
     EDDAV:  cpu time   30.6418: real time   30.7150
       DOS:  cpu time    0.0011: real time    0.0011
    CHARGE:  cpu time    0.5574: real time    0.5587
    MIXING:  cpu time    0.0013: real time    0.0013
    --------------------------------------------
      LOOP:  cpu time   31.2384: real time   31.3216

 eigenvalue-minimisations  : 11760
 total energy-change (2. order) : 0.6530335E+01  (-0.2048102E+01)
 number of electron     159.0000095 magnetization 
 augmentation part       -6.4025202 magnetization 

 Broyden mixing:
  rms(total) = 0.13756E+01    rms(broyden)= 0.13751E+01
  rms(prec ) = 0.14866E+01
  weight for this iteration     100.00

 eigenvalues of (default mixing * dielectric matrix)
  average eigenvalue GAMMA=   0.5258
  1.0473  0.2650  0.2650

 Free energy of the ion-electron system (eV)
  ---------------------------------------------------
  alpha Z        PSCENC =        81.65567618
  Ewald energy   TEWEN  =     41890.23009643
  -Hartree energ DENC   =    -47761.61385924
  -exchange      EXHF   =         0.00000000
  -V(xc)+E(xc)   XCENC  =      -235.05109335
  PAW double counting   =      3902.76090254    -3318.35541225
  entropy T*S    EENTRO =        -0.26823187
  eigenvalues    EBANDS =     -1510.91593246
  atomic energy  EATOM  =      6761.44252427
  Solvation  Ediel_sol  =         0.00000000
  ---------------------------------------------------
  free energy    TOTEN  =      -190.11532975 eV

  energy without entropy =     -189.84709789  energy(sigma->0) =     -189.98121382


--------------------------------------------------------------------------------------------------------




----------------------------------------- Iteration    1(   9)  ---------------------------------------


    POTLOK:  cpu time    0.0344: real time    0.0345
    SETDIJ:  cpu time    0.0034: real time    0.0034
     EDDAV:  cpu time   31.2178: real time   31.2940
       DOS:  cpu time    0.0010: real time    0.0010
    CHARGE:  cpu time    0.5660: real time    0.5674
    MIXING:  cpu time    0.0013: real time    0.0013
    --------------------------------------------
      LOOP:  cpu time   31.8248: real time   31.9113

 eigenvalue-minimisations  : 12040
 total energy-change (2. order) : 0.1803298E+01  (-0.3507600E+00)
 number of electron     159.0000094 magnetization 
 augmentation part       -5.7274966 magnetization 

 Broyden mixing:
  rms(total) = 0.93921E+00    rms(broyden)= 0.93878E+00
  rms(prec ) = 0.10107E+01
  weight for this iteration     100.00

 eigenvalues of (default mixing * dielectric matrix)
  average eigenvalue GAMMA=   0.6942
  1.7035  0.5732  0.2198  0.2801

 Free energy of the ion-electron system (eV)
  ---------------------------------------------------
  alpha Z        PSCENC =        81.65567618
  Ewald energy   TEWEN  =     41890.23009643
  -Hartree energ DENC   =    -47765.64645417
  -exchange      EXHF   =         0.00000000
  -V(xc)+E(xc)   XCENC  =      -234.37256908
  PAW double counting   =      3960.80835505    -3377.11736804
  entropy T*S    EENTRO =        -0.32724005
  eigenvalues    EBANDS =     -1504.98505278
  atomic energy  EATOM  =      6761.44252427
  Solvation  Ediel_sol  =         0.00000000
  ---------------------------------------------------
  free energy    TOTEN  =      -188.31203219 eV

  energy without entropy =     -187.98479214  energy(sigma->0) =     -188.14841217


--------------------------------------------------------------------------------------------------------




----------------------------------------- Iteration    1(  10)  ---------------------------------------


    POTLOK:  cpu time    0.0332: real time    0.0335
    SETDIJ:  cpu time    0.0032: real time    0.0032
     EDDAV:  cpu time   34.1836: real time   34.2659
       DOS:  cpu time    0.0011: real time    0.0011
    CHARGE:  cpu time    0.5701: real time    0.5715
    MIXING:  cpu time    0.0015: real time    0.0015
    --------------------------------------------
      LOOP:  cpu time   34.7940: real time   34.8860

 eigenvalue-minimisations  : 13400
 total energy-change (2. order) : 0.1177785E+01  (-0.1780452E+00)
 number of electron     159.0000092 magnetization 
 augmentation part       -4.4100714 magnetization 

 Broyden mixing:
  rms(total) = 0.34827E+00    rms(broyden)= 0.34795E+00
  rms(prec ) = 0.38112E+00
  weight for this iteration     100.00

 eigenvalues of (default mixing * dielectric matrix)
  average eigenvalue GAMMA=   0.6928
  1.8681  0.6124  0.5015  0.2243  0.2578

 Free energy of the ion-electron system (eV)
  ---------------------------------------------------
  alpha Z        PSCENC =        81.65567618
  Ewald energy   TEWEN  =     41890.23009643
  -Hartree energ DENC   =    -47777.84590148
  -exchange      EXHF   =         0.00000000
  -V(xc)+E(xc)   XCENC  =      -232.75672433
  PAW double counting   =      4088.59761161    -3506.54465351
  entropy T*S    EENTRO =        -0.34127228
  eigenvalues    EBANDS =     -1491.57160430
  atomic energy  EATOM  =      6761.44252427
  Solvation  Ediel_sol  =         0.00000000
  ---------------------------------------------------
  free energy    TOTEN  =      -187.13424741 eV

  energy without entropy =     -186.79297513  energy(sigma->0) =     -186.96361127


--------------------------------------------------------------------------------------------------------




----------------------------------------- Iteration    1(  11)  ---------------------------------------


    POTLOK:  cpu time    0.0353: real time    0.0356
    SETDIJ:  cpu time    0.0032: real time    0.0032
     EDDAV:  cpu time   32.4713: real time   32.5497
       DOS:  cpu time    0.0010: real time    0.0010
    CHARGE:  cpu time    0.5752: real time    0.5766
    MIXING:  cpu time    0.0014: real time    0.0014
    --------------------------------------------
      LOOP:  cpu time   33.0887: real time   33.1767

 eigenvalue-minimisations  : 12600
 total energy-change (2. order) : 0.1245167E+00  (-0.6779422E-01)
 number of electron     159.0000092 magnetization 
 augmentation part       -4.2819806 magnetization 

 Broyden mixing:
  rms(total) = 0.23462E+00    rms(broyden)= 0.23424E+00
  rms(prec ) = 0.25736E+00
  weight for this iteration     100.00

 eigenvalues of (default mixing * dielectric matrix)
  average eigenvalue GAMMA=   0.8681
  1.9180  1.9180  0.6151  0.2876  0.2219  0.2481

 Free energy of the ion-electron system (eV)
  ---------------------------------------------------
  alpha Z        PSCENC =        81.65567618
  Ewald energy   TEWEN  =     41890.23009643
  -Hartree energ DENC   =    -47783.80734546
  -exchange      EXHF   =         0.00000000
  -V(xc)+E(xc)   XCENC  =      -232.40279911
  PAW double counting   =      4126.03016409    -3544.28721842
  entropy T*S    EENTRO =        -0.34863840
  eigenvalues    EBANDS =     -1485.52219024
  atomic energy  EATOM  =      6761.44252427
  Solvation  Ediel_sol  =         0.00000000
  ---------------------------------------------------
  free energy    TOTEN  =      -187.00973066 eV

  energy without entropy =     -186.66109226  energy(sigma->0) =     -186.83541146


--------------------------------------------------------------------------------------------------------




----------------------------------------- Iteration    1(  12)  ---------------------------------------


    POTLOK:  cpu time    0.0347: real time    0.0351
    SETDIJ:  cpu time    0.0036: real time    0.0036
     EDDAV:  cpu time   33.4116: real time   33.4915
       DOS:  cpu time    0.0010: real time    0.0010
    CHARGE:  cpu time    0.5756: real time    0.5770
    MIXING:  cpu time    0.0015: real time    0.0015
    --------------------------------------------
      LOOP:  cpu time   34.0293: real time   34.1193

 eigenvalue-minimisations  : 13040
 total energy-change (2. order) :-0.4641380E-02  (-0.4430691E-01)
 number of electron     159.0000089 magnetization 
 augmentation part       -4.4706198 magnetization 

 Broyden mixing:
  rms(total) = 0.32606E+00    rms(broyden)= 0.32596E+00
  rms(prec ) = 0.36135E+00
  weight for this iteration     100.00

 eigenvalues of (default mixing * dielectric matrix)
  average eigenvalue GAMMA=   0.7967
  1.9931  1.9931  0.6171  0.2766  0.2766  0.2102  0.2102

 Free energy of the ion-electron system (eV)
  ---------------------------------------------------
  alpha Z        PSCENC =        81.65567618
  Ewald energy   TEWEN  =     41890.23009643
  -Hartree energ DENC   =    -47796.78183565
  -exchange      EXHF   =         0.00000000
  -V(xc)+E(xc)   XCENC  =      -232.07231211
  PAW double counting   =      4180.00723956    -3598.23547243
  entropy T*S    EENTRO =        -0.33403445
  eigenvalues    EBANDS =     -1472.92625384
  atomic energy  EATOM  =      6761.44252427
  Solvation  Ediel_sol  =         0.00000000
  ---------------------------------------------------
  free energy    TOTEN  =      -187.01437204 eV

  energy without entropy =     -186.68033759  energy(sigma->0) =     -186.84735481


--------------------------------------------------------------------------------------------------------




----------------------------------------- Iteration    1(  13)  ---------------------------------------


    POTLOK:  cpu time    0.0369: real time    0.0382
    SETDIJ:  cpu time    0.0034: real time    0.0034
     EDDAV:  cpu time   34.0256: real time   34.1071
       DOS:  cpu time    0.0010: real time    0.0010
    CHARGE:  cpu time    0.5760: real time    0.5774
    MIXING:  cpu time    0.0015: real time    0.0015
    --------------------------------------------
      LOOP:  cpu time   34.6465: real time   34.7315

 eigenvalue-minimisations  : 13320
 total energy-change (2. order) : 0.8456142E-01  (-0.2529424E-01)
 number of electron     159.0000089 magnetization 
 augmentation part       -4.4058372 magnetization 

 Broyden mixing:
  rms(total) = 0.19174E+00    rms(broyden)= 0.19159E+00
  rms(prec ) = 0.21250E+00
  weight for this iteration     100.00

 eigenvalues of (default mixing * dielectric matrix)
  average eigenvalue GAMMA=   0.7796
  2.2852  1.7040  0.7497  0.5900  0.2993  0.2246  0.2410  0.1430

 Free energy of the ion-electron system (eV)
  ---------------------------------------------------
  alpha Z        PSCENC =        81.65567618
  Ewald energy   TEWEN  =     41890.23009643
  -Hartree energ DENC   =    -47799.24194621
  -exchange      EXHF   =         0.00000000
  -V(xc)+E(xc)   XCENC  =      -231.98829005
  PAW double counting   =      4187.66074836    -3605.87883401
  entropy T*S    EENTRO =        -0.33644762
  eigenvalues    EBANDS =     -1470.47333797
  atomic energy  EATOM  =      6761.44252427
  Solvation  Ediel_sol  =         0.00000000
  ---------------------------------------------------
  free energy    TOTEN  =      -186.92981062 eV

  energy without entropy =     -186.59336300  energy(sigma->0) =     -186.76158681


--------------------------------------------------------------------------------------------------------




----------------------------------------- Iteration    1(  14)  ---------------------------------------


    POTLOK:  cpu time    0.0327: real time    0.0327
    SETDIJ:  cpu time    0.0033: real time    0.0033
     EDDAV:  cpu time   33.1091: real time   33.1883
       DOS:  cpu time    0.0002: real time    0.0011
    CHARGE:  cpu time    0.5745: real time    0.5759
    MIXING:  cpu time    0.0016: real time    0.0016
    --------------------------------------------
      LOOP:  cpu time   33.7232: real time   33.8123

 eigenvalue-minimisations  : 12920
 total energy-change (2. order) : 0.2964689E-01  (-0.1056042E-01)
 number of electron     159.0000089 magnetization 
 augmentation part       -4.1699431 magnetization 

 Broyden mixing:
  rms(total) = 0.89537E-01    rms(broyden)= 0.89393E-01
  rms(prec ) = 0.10108E+00
  weight for this iteration     100.00

 eigenvalues of (default mixing * dielectric matrix)
  average eigenvalue GAMMA=   0.7436
  2.2879  1.6417  0.9908  0.5988  0.3005  0.2766  0.2294  0.2294  0.1372

 Free energy of the ion-electron system (eV)
  ---------------------------------------------------
  alpha Z        PSCENC =        81.65567618
  Ewald energy   TEWEN  =     41890.23009643
  -Hartree energ DENC   =    -47802.59690193
  -exchange      EXHF   =         0.00000000
  -V(xc)+E(xc)   XCENC  =      -231.87289332
  PAW double counting   =      4192.45859412    -3610.65042744
  entropy T*S    EENTRO =        -0.34102106
  eigenvalues    EBANDS =     -1467.22581098
  atomic energy  EATOM  =      6761.44252427
  Solvation  Ediel_sol  =         0.00000000
  ---------------------------------------------------
  free energy    TOTEN  =      -186.90016373 eV

  energy without entropy =     -186.55914268  energy(sigma->0) =     -186.72965320


--------------------------------------------------------------------------------------------------------




----------------------------------------- Iteration    1(  15)  ---------------------------------------


    POTLOK:  cpu time    0.0328: real time    0.0329
    SETDIJ:  cpu time    0.0035: real time    0.0035
     EDDAV:  cpu time   31.7442: real time   31.8204
       DOS:  cpu time    0.0011: real time    0.0011
    CHARGE:  cpu time    0.5746: real time    0.5760
    MIXING:  cpu time    0.0018: real time    0.0018
    --------------------------------------------
      LOOP:  cpu time   32.3589: real time   32.4446

 eigenvalue-minimisations  : 12280
 total energy-change (2. order) : 0.6381346E-02  (-0.3700219E-02)
 number of electron     159.0000090 magnetization 
 augmentation part       -4.1168505 magnetization 

 Broyden mixing:
  rms(total) = 0.86432E-01    rms(broyden)= 0.86362E-01
  rms(prec ) = 0.95848E-01
  weight for this iteration     100.00

 eigenvalues of (default mixing * dielectric matrix)
  average eigenvalue GAMMA=   0.7017
  2.2884  1.6386  1.0938  0.5965  0.3512  0.3032  0.2279  0.2337  0.1501  0.1333

 Free energy of the ion-electron system (eV)
  ---------------------------------------------------
  alpha Z        PSCENC =        81.65567618
  Ewald energy   TEWEN  =     41890.23009643
  -Hartree energ DENC   =    -47804.92490459
  -exchange      EXHF   =         0.00000000
  -V(xc)+E(xc)   XCENC  =      -231.83648254
  PAW double counting   =      4192.79940704    -3610.96146333
  entropy T*S    EENTRO =        -0.34326758
  eigenvalues    EBANDS =     -1464.95536828
  atomic energy  EATOM  =      6761.44252427
  Solvation  Ediel_sol  =         0.00000000
  ---------------------------------------------------
  free energy    TOTEN  =      -186.89378239 eV

  energy without entropy =     -186.55051481  energy(sigma->0) =     -186.72214860


--------------------------------------------------------------------------------------------------------




----------------------------------------- Iteration    1(  16)  ---------------------------------------


    POTLOK:  cpu time    0.0333: real time    0.0334
    SETDIJ:  cpu time    0.0035: real time    0.0035
     EDDAV:  cpu time   33.8299: real time   33.9108
       DOS:  cpu time    0.0010: real time    0.0010
    CHARGE:  cpu time    0.5747: real time    0.5761
    MIXING:  cpu time    0.0019: real time    0.0019
    --------------------------------------------
      LOOP:  cpu time   34.4453: real time   34.5360

 eigenvalue-minimisations  : 13240
 total energy-change (2. order) : 0.3984915E-02  (-0.1382161E-02)
 number of electron     159.0000090 magnetization 
 augmentation part       -4.1303591 magnetization 

 Broyden mixing:
  rms(total) = 0.50369E-01    rms(broyden)= 0.50339E-01
  rms(prec ) = 0.56789E-01
  weight for this iteration     100.00

 eigenvalues of (default mixing * dielectric matrix)
  average eigenvalue GAMMA=   0.7656
  2.3709  1.9235  1.5100  0.6982  0.6204  0.3084  0.2677  0.2245  0.2401  0.1389
  0.1185

 Free energy of the ion-electron system (eV)
  ---------------------------------------------------
  alpha Z        PSCENC =        81.65567618
  Ewald energy   TEWEN  =     41890.23009643
  -Hartree energ DENC   =    -47806.23529355
  -exchange      EXHF   =         0.00000000
  -V(xc)+E(xc)   XCENC  =      -231.81941090
  PAW double counting   =      4193.10906110    -3611.25696358
  entropy T*S    EENTRO =        -0.34325933
  eigenvalues    EBANDS =     -1463.67222809
  atomic energy  EATOM  =      6761.44252427
  Solvation  Ediel_sol  =         0.00000000
  ---------------------------------------------------
  free energy    TOTEN  =      -186.88979747 eV

  energy without entropy =     -186.54653814  energy(sigma->0) =     -186.71816781


--------------------------------------------------------------------------------------------------------




----------------------------------------- Iteration    1(  17)  ---------------------------------------


    POTLOK:  cpu time    0.0334: real time    0.0335
    SETDIJ:  cpu time    0.0033: real time    0.0033
     EDDAV:  cpu time   32.8210: real time   32.8999
       DOS:  cpu time    0.0010: real time    0.0010
    CHARGE:  cpu time    0.5748: real time    0.5762
    MIXING:  cpu time    0.0018: real time    0.0018
    --------------------------------------------
      LOOP:  cpu time   33.4364: real time   33.5253

 eigenvalue-minimisations  : 12800
 total energy-change (2. order) : 0.2729794E-02  (-0.7357258E-03)
 number of electron     159.0000090 magnetization 
 augmentation part       -4.1928780 magnetization 

 Broyden mixing:
  rms(total) = 0.17588E-01    rms(broyden)= 0.17525E-01
  rms(prec ) = 0.21546E-01
  weight for this iteration     100.00

 eigenvalues of (default mixing * dielectric matrix)
  average eigenvalue GAMMA=   0.7793
  2.3450  2.3450  1.4392  0.8581  0.6037  0.4711  0.3089  0.2239  0.2558  0.2439
  0.1388  0.1178

 Free energy of the ion-electron system (eV)
  ---------------------------------------------------
  alpha Z        PSCENC =        81.65567618
  Ewald energy   TEWEN  =     41890.23009643
  -Hartree energ DENC   =    -47811.78907062
  -exchange      EXHF   =         0.00000000
  -V(xc)+E(xc)   XCENC  =      -231.74716552
  PAW double counting   =      4194.69297814    -3612.78209722
  entropy T*S    EENTRO =        -0.34133824
  eigenvalues    EBANDS =     -1458.24867109
  atomic energy  EATOM  =      6761.44252427
  Solvation  Ediel_sol  =         0.00000000
  ---------------------------------------------------
  free energy    TOTEN  =      -186.88706768 eV

  energy without entropy =     -186.54572943  energy(sigma->0) =     -186.71639856


--------------------------------------------------------------------------------------------------------




----------------------------------------- Iteration    1(  18)  ---------------------------------------


    POTLOK:  cpu time    0.0381: real time    0.0382
    SETDIJ:  cpu time    0.0034: real time    0.0034
     EDDAV:  cpu time   30.6864: real time   30.7597
       DOS:  cpu time    0.0010: real time    0.0010
    CHARGE:  cpu time    0.5745: real time    0.5758
    MIXING:  cpu time    0.0021: real time    0.0021
    --------------------------------------------
      LOOP:  cpu time   31.3065: real time   31.3896

 eigenvalue-minimisations  : 11800
 total energy-change (2. order) : 0.5422068E-03  (-0.2037772E-03)
 number of electron     159.0000090 magnetization 
 augmentation part       -4.2081096 magnetization 

 Broyden mixing:
  rms(total) = 0.17778E-01    rms(broyden)= 0.17768E-01
  rms(prec ) = 0.20632E-01
  weight for this iteration     100.00

 eigenvalues of (default mixing * dielectric matrix)
  average eigenvalue GAMMA=   0.7859
  2.3661  2.3661  1.2616  1.2616  0.6750  0.6180  0.3820  0.3066  0.2242  0.2575
  0.2422  0.1388  0.1177

 Free energy of the ion-electron system (eV)
  ---------------------------------------------------
  alpha Z        PSCENC =        81.65567618
  Ewald energy   TEWEN  =     41890.23009643
  -Hartree energ DENC   =    -47815.27857749
  -exchange      EXHF   =         0.00000000
  -V(xc)+E(xc)   XCENC  =      -231.71298215
  PAW double counting   =      4194.96142639    -3613.01693813
  entropy T*S    EENTRO =        -0.34105499
  eigenvalues    EBANDS =     -1454.82669600
  atomic energy  EATOM  =      6761.44252427
  Solvation  Ediel_sol  =         0.00000000
  ---------------------------------------------------
  free energy    TOTEN  =      -186.88652547 eV

  energy without entropy =     -186.54547048  energy(sigma->0) =     -186.71599798


--------------------------------------------------------------------------------------------------------




----------------------------------------- Iteration    1(  19)  ---------------------------------------


    POTLOK:  cpu time    0.0329: real time    0.0333
    SETDIJ:  cpu time    0.0036: real time    0.0036
     EDDAV:  cpu time   28.8484: real time   28.9179
       DOS:  cpu time    0.0011: real time    0.0011
    CHARGE:  cpu time    0.5760: real time    0.5774
    MIXING:  cpu time    0.0020: real time    0.0020
    --------------------------------------------
      LOOP:  cpu time   29.4653: real time   29.5448

 eigenvalue-minimisations  : 10960
 total energy-change (2. order) : 0.2425185E-03  (-0.7947817E-04)
 number of electron     159.0000090 magnetization 
 augmentation part       -4.1831575 magnetization 

 Broyden mixing:
  rms(total) = 0.45558E-02    rms(broyden)= 0.45389E-02
  rms(prec ) = 0.75287E-02
  weight for this iteration     100.00

 eigenvalues of (default mixing * dielectric matrix)
  average eigenvalue GAMMA=   0.8839
  2.6896  2.6896  1.5999  1.4810  0.9972  0.6282  0.6282  0.3736  0.3073  0.2242
  0.2577  0.2422  0.1388  0.1177

 Free energy of the ion-electron system (eV)
  ---------------------------------------------------
  alpha Z        PSCENC =        81.65567618
  Ewald energy   TEWEN  =     41890.23009643
  -Hartree energ DENC   =    -47817.69415236
  -exchange      EXHF   =         0.00000000
  -V(xc)+E(xc)   XCENC  =      -231.69275681
  PAW double counting   =      4194.41165112    -3612.45394234
  entropy T*S    EENTRO =        -0.34157944
  eigenvalues    EBANDS =     -1452.44380001
  atomic energy  EATOM  =      6761.44252427
  Solvation  Ediel_sol  =         0.00000000
  ---------------------------------------------------
  free energy    TOTEN  =      -186.88628295 eV

  energy without entropy =     -186.54470352  energy(sigma->0) =     -186.71549323


--------------------------------------------------------------------------------------------------------




----------------------------------------- Iteration    1(  20)  ---------------------------------------


    POTLOK:  cpu time    0.0322: real time    0.0325
    SETDIJ:  cpu time    0.0033: real time    0.0033
     EDDAV:  cpu time   24.8310: real time   24.8903
       DOS:  cpu time    0.0011: real time    0.0011
    CHARGE:  cpu time    0.5730: real time    0.5744
    MIXING:  cpu time    0.0022: real time    0.0022
    --------------------------------------------
      LOOP:  cpu time   25.4439: real time   25.5130

 eigenvalue-minimisations  :  9120
 total energy-change (2. order) :-0.8979083E-03  (-0.8542377E-04)
 number of electron     159.0000090 magnetization 
 augmentation part       -4.1872810 magnetization 

 Broyden mixing:
  rms(total) = 0.42143E-02    rms(broyden)= 0.42133E-02
  rms(prec ) = 0.56501E-02
  weight for this iteration     100.00

 eigenvalues of (default mixing * dielectric matrix)
  average eigenvalue GAMMA=   0.9202
  3.1214  2.5672  1.8776  1.5114  0.8982  0.8982  0.6334  0.6334  0.3737  0.3073
  0.2242  0.2576  0.2422  0.1388  0.1177

 Free energy of the ion-electron system (eV)
  ---------------------------------------------------
  alpha Z        PSCENC =        81.65567618
  Ewald energy   TEWEN  =     41890.23009643
  -Hartree energ DENC   =    -47824.33952559
  -exchange      EXHF   =         0.00000000
  -V(xc)+E(xc)   XCENC  =      -231.63623843
  PAW double counting   =      4193.08792925    -3611.10867835
  entropy T*S    EENTRO =        -0.34126097
  eigenvalues    EBANDS =     -1445.87770365
  atomic energy  EATOM  =      6761.44252427
  Solvation  Ediel_sol  =         0.00000000
  ---------------------------------------------------
  free energy    TOTEN  =      -186.88718086 eV

  energy without entropy =     -186.54591989  energy(sigma->0) =     -186.71655037


--------------------------------------------------------------------------------------------------------




----------------------------------------- Iteration    1(  21)  ---------------------------------------


    POTLOK:  cpu time    0.0328: real time    0.0332
    SETDIJ:  cpu time    0.0033: real time    0.0033
     EDDAV:  cpu time   22.8216: real time   22.8762
       DOS:  cpu time    0.0011: real time    0.0011
    CHARGE:  cpu time    0.5737: real time    0.5751
    MIXING:  cpu time    0.0021: real time    0.0021
    --------------------------------------------
      LOOP:  cpu time   23.4358: real time   23.4999

 eigenvalue-minimisations  :  8160
 total energy-change (2. order) :-0.8648239E-03  (-0.2200392E-04)
 number of electron     159.0000090 magnetization 
 augmentation part       -4.1804213 magnetization 

 Broyden mixing:
  rms(total) = 0.35736E-02    rms(broyden)= 0.35695E-02
  rms(prec ) = 0.45791E-02
  weight for this iteration     100.00

 eigenvalues of (default mixing * dielectric matrix)
  average eigenvalue GAMMA=   0.9532
  3.6102  2.4203  2.1677  1.5977  1.0529  1.0529  0.6360  0.6360  0.4160  0.3739
  0.3073  0.2242  0.2422  0.2577  0.1388  0.1177

 Free energy of the ion-electron system (eV)
  ---------------------------------------------------
  alpha Z        PSCENC =        81.65567618
  Ewald energy   TEWEN  =     41890.23009643
  -Hartree energ DENC   =    -47827.09992098
  -exchange      EXHF   =         0.00000000
  -V(xc)+E(xc)   XCENC  =      -231.61761378
  PAW double counting   =      4192.73155118    -3610.75215718
  entropy T*S    EENTRO =        -0.34139338
  eigenvalues    EBANDS =     -1443.13680842
  atomic energy  EATOM  =      6761.44252427
  Solvation  Ediel_sol  =         0.00000000
  ---------------------------------------------------
  free energy    TOTEN  =      -186.88804568 eV

  energy without entropy =     -186.54665230  energy(sigma->0) =     -186.71734899


--------------------------------------------------------------------------------------------------------




----------------------------------------- Iteration    1(  22)  ---------------------------------------


    POTLOK:  cpu time    0.0321: real time    0.0334
    SETDIJ:  cpu time    0.0033: real time    0.0033
     EDDAV:  cpu time   19.7906: real time   19.8380
       DOS:  cpu time    0.0012: real time    0.0012
    CHARGE:  cpu time    0.5758: real time    0.5772
    MIXING:  cpu time    0.0022: real time    0.0022
    --------------------------------------------
      LOOP:  cpu time   20.4075: real time   20.4650

 eigenvalue-minimisations  :  6720
 total energy-change (2. order) :-0.8089361E-03  (-0.1014211E-04)
 number of electron     159.0000090 magnetization 
 augmentation part       -4.1795409 magnetization 

 Broyden mixing:
  rms(total) = 0.33616E-02    rms(broyden)= 0.33602E-02
  rms(prec ) = 0.39724E-02
  weight for this iteration     100.00

 eigenvalues of (default mixing * dielectric matrix)
  average eigenvalue GAMMA=   1.0845
  4.8936  2.5296  2.5296  1.7183  1.4889  0.9901  0.9901  0.6269  0.6269  0.2242
  0.2422  0.2577  0.3073  0.3722  0.3823  0.1388  0.1177

 Free energy of the ion-electron system (eV)
  ---------------------------------------------------
  alpha Z        PSCENC =        81.65567618
  Ewald energy   TEWEN  =     41890.23009643
  -Hartree energ DENC   =    -47829.21337244
[...]
    104      -0.6191      0.00000
    105      -0.4450      0.00000
    106      -0.2950      0.00000
    107      -0.1633      0.00000
    108      -0.0132      0.00000
    109       0.0489      0.00000
    110       0.1238      0.00000
    111       0.4531      0.00000
    112       0.7161      0.00000
    113       0.8097      0.00000
    114       0.9069      0.00000
    115       1.0646      0.00000
    116       1.2124      0.00000
    117       1.2822      0.00000
    118       2.1324      0.00000
    119       2.3178      0.00000
    120       2.3807      0.00000

 k-point    34 :       0.5000    0.5000    0.0000
  band No.  band energies     occupation 
      1     -17.5049      2.00000
      2     -17.3591      2.00000
      3     -16.7589      2.00000
      4     -16.6788      2.00000
      5     -16.6721      2.00000
      6     -16.4358      2.00000
      7     -16.3301      2.00000
      8     -16.2392      2.00000
      9     -16.0444      2.00000
     10     -15.9950      2.00000
     11     -15.9365      2.00000
     12     -15.8454      2.00000
     13     -15.7222      2.00000
     14     -15.7083      2.00000
     15     -15.6544      2.00000
     16     -15.5562      2.00000
     17     -15.2894      2.00000
     18     -15.2546      2.00000
     19      -9.8371      2.00000
     20      -9.4164      2.00000
     21      -9.1697      2.00000
     22      -9.1064      2.00000
     23      -8.9541      2.00000
     24      -8.8278      2.00000
     25      -8.5374      2.00000
     26      -8.4611      2.00000
     27      -8.4187      2.00000
     28      -8.3028      2.00000
     29      -8.2777      2.00000
     30      -8.1957      2.00000
     31      -8.1468      2.00000
     32      -8.1067      2.00000
     33      -7.9655      2.00000
     34      -7.8813      2.00000
     35      -7.7770      2.00000
     36      -7.7362      2.00000
     37      -7.5234      2.00000
     38      -7.3525      2.00000
     39      -7.3104      2.00000
     40      -7.2371      2.00000
     41      -7.1265      2.00000
     42      -7.0824      2.00000
     43      -7.0551      2.00000
     44      -7.0429      2.00000
     45      -6.8169      2.00000
     46      -6.7465      2.00000
     47      -6.6172      2.00000
     48      -6.5829      2.00000
     49      -6.5607      2.00000
     50      -6.5302      2.00000
     51      -6.4532      2.00000
     52      -6.3386      2.00000
     53      -6.2595      2.00000
     54      -6.2211      2.00000
     55      -6.1681      2.00000
     56      -6.0747      2.00000
     57      -6.0442      2.00000
     58      -5.8810      2.00000
     59      -5.8394      2.00000
     60      -5.7936      2.00000
     61      -5.7036      2.00000
     62      -5.6125      2.00000
     63      -5.5327      2.00000
     64      -5.4020      2.00000
     65      -5.2781      2.00000
     66      -5.1905      2.00000
     67      -4.9556      2.00000
     68      -4.8684      2.00000
     69      -4.7926      2.00000
     70      -4.6594      2.00000
     71      -4.5139      2.00000
     72      -4.4457      2.00000
     73      -4.3566      2.00000
     74      -4.2299      2.00000
     75      -4.1563      2.00000
     76      -4.0492      2.00000
     77      -4.0240      2.00000
     78      -3.7288      1.99967
     79      -3.5524      1.98110
     80      -3.0945      0.37315
     81      -2.9871      0.09899
     82      -2.7688      0.00140
     83      -2.6634      0.00008
     84      -2.5473      0.00000
     85      -2.4515      0.00000
     86      -2.3640      0.00000
     87      -2.0541      0.00000
     88      -2.0209      0.00000
     89      -1.9806      0.00000
     90      -1.8247      0.00000
     91      -1.7005      0.00000
     92      -1.6204      0.00000
     93      -1.5101      0.00000
     94      -1.4350      0.00000
     95      -1.3300      0.00000
     96      -1.2128      0.00000
     97      -1.0685      0.00000
     98      -1.0608      0.00000
     99      -0.9733      0.00000
    100      -0.9085      0.00000
    101      -0.8554      0.00000
    102      -0.6833      0.00000
    103      -0.6455      0.00000
    104      -0.6237      0.00000
    105      -0.4084      0.00000
    106      -0.2800      0.00000
    107      -0.1651      0.00000
    108       0.0153      0.00000
    109       0.0282      0.00000
    110       0.0982      0.00000
    111       0.4355      0.00000
    112       0.7623      0.00000
    113       0.8316      0.00000
    114       0.9140      0.00000
    115       1.0639      0.00000
    116       1.1974      0.00000
    117       1.2664      0.00000
    118       2.1908      0.00000
    119       2.2565      0.00000
    120       2.4093      0.00000


--------------------------------------------------------------------------------------------------------


 soft charge-density along one line, spin component           1
         0         1         2         3         4         5         6         7         8         9
 total charge-density along one line
 
 pseudopotential strength for first ion, spin component:           1
 -7.229  -0.019   0.015  -0.010  -0.000   0.677   0.005  -0.004
 -0.019  -7.161  -0.007  -0.011   0.010   0.005   0.656   0.002
  0.015  -0.007  -7.097  -0.005  -0.028  -0.004   0.002   0.638
 -0.010  -0.011  -0.005  -7.120  -0.003   0.003   0.003   0.002
 -0.000   0.010  -0.028  -0.003  -7.231   0.000  -0.003   0.008
  0.677   0.005  -0.004   0.003   0.000   0.332  -0.001   0.001
  0.005   0.656   0.002   0.003  -0.003  -0.001   0.339  -0.001
 -0.004   0.002   0.638   0.002   0.008   0.001  -0.001   0.343
  0.003   0.003   0.002   0.644   0.002  -0.001  -0.001  -0.001
  0.000  -0.003   0.008   0.002   0.677  -0.000   0.001  -0.002
  0.004   0.003  -0.020   0.004  -0.008  -0.001  -0.001   0.005
  0.001   0.001  -0.007   0.001  -0.003  -0.000  -0.000   0.002
  0.006  -0.001   0.000   0.000   0.000   0.001   0.001  -0.000
  0.000  -0.000  -0.005   0.010  -0.004  -0.000   0.000   0.001
 -0.000   0.000  -0.001  -0.009   0.006   0.000  -0.000  -0.001
  0.003   0.001   0.000   0.000   0.000  -0.000  -0.000  -0.000
  0.000  -0.000  -0.002   0.008  -0.004  -0.000   0.000   0.001
 -0.000   0.000   0.001  -0.006   0.004   0.000  -0.000  -0.000
 total augmentation occupancy for first ion, spin component:           1
  0.850   0.126   0.032  -0.008  -0.007   0.441   0.196   0.004   0.004  -0.003  -0.000  -0.001  -0.011   0.001  -0.006  -0.002
  0.126   1.086  -0.021   0.006   0.001   0.194   0.645   0.002  -0.001  -0.001   0.003  -0.000   0.059   0.003   0.006   0.002
  0.032  -0.021   0.844  -0.043  -0.051   0.003   0.002   0.337  -0.037   0.003   0.165   0.004   0.005  -0.009   0.083  -0.000
 -0.008   0.006  -0.043   1.068  -0.158   0.004  -0.001  -0.037   0.632  -0.226  -0.026  -0.006  -0.002   0.091  -0.102  -0.000
 -0.007   0.001  -0.051  -0.158   0.788  -0.003  -0.002   0.001  -0.228   0.417   0.053  -0.002  -0.005  -0.077  -0.015   0.000
  0.441   0.194   0.003   0.004  -0.003   0.355   0.196   0.003   0.002  -0.002  -0.002  -0.000   0.035  -0.001   0.002  -0.000
  0.196   0.645   0.002  -0.001  -0.002   0.196   0.563   0.001   0.000  -0.002   0.008   0.000   0.061   0.001  -0.001   0.006
  0.004   0.002   0.337  -0.037   0.001   0.003   0.001   0.268  -0.026   0.008   0.043   0.009  -0.001  -0.005   0.022  -0.000
  0.004  -0.001  -0.037   0.632  -0.228   0.002   0.000  -0.026   0.575  -0.226  -0.054  -0.008  -0.001   0.104  -0.098  -0.000
 -0.003  -0.001   0.003  -0.226   0.417  -0.002  -0.002   0.008  -0.226   0.376  -0.015  -0.001  -0.000  -0.085   0.029   0.000
 -0.000   0.003   0.165  -0.026   0.053  -0.002   0.008   0.043  -0.054  -0.015   1.384   0.136   0.002  -0.025   0.052   0.000
 -0.001  -0.000   0.004  -0.006  -0.002  -0.000   0.000   0.009  -0.008  -0.001   0.136   0.026   0.000  -0.002   0.010   0.000
 -0.011   0.059   0.005  -0.002  -0.005   0.035   0.061  -0.001  -0.001  -0.000   0.002   0.000   0.339   0.002  -0.001   0.027
  0.001   0.003  -0.009   0.091  -0.077  -0.001   0.001  -0.005   0.104  -0.085  -0.025  -0.002   0.002   0.418  -0.016   0.000
 -0.006   0.006   0.083  -0.102  -0.015   0.002  -0.001   0.022  -0.098   0.029   0.052   0.010  -0.001  -0.016   0.358  -0.000
 -0.002   0.002  -0.000  -0.000   0.000  -0.000   0.006  -0.000  -0.000   0.000   0.000   0.000   0.027   0.000  -0.000   0.003
  0.000  -0.000   0.001  -0.001  -0.003  -0.000   0.000   0.000   0.006  -0.006  -0.000  -0.000   0.000   0.028  -0.000   0.000
  0.000  -0.000   0.003  -0.003  -0.004   0.000  -0.000   0.004  -0.007  -0.001   0.002   0.001  -0.000  -0.000   0.026  -0.000


------------------------ aborting loop because EDIFF is reached ----------------------------------------


    CHARGE:  cpu time    0.5351: real time    0.5364
    FORLOC:  cpu time    0.0090: real time    0.0090
    FORNL :  cpu time    6.5391: real time    6.5548
    STRESS:  cpu time   32.3147: real time   32.3920
    FORCOR:  cpu time    0.0387: real time    0.0388
    FORHAR:  cpu time    0.0148: real time    0.0149
    MIXING:  cpu time    0.0012: real time    0.0012
    OFIELD:  cpu time    0.0000: real time    0.0000

  FORCE on cell =-STRESS in cart. coord.  units (eV):
  Direction    XX          YY          ZZ          XY          YZ          ZX
  --------------------------------------------------------------------------------------
  Alpha Z    89.20538    89.20538    89.20538
  Ewald   49154.92916 49242.54487-54132.48553    -1.29404    -1.84740   -21.42925
  Hartree 49886.89468 49942.05616-49556.18430    -0.84679    -0.27750   -13.45443
  E(xc)    -611.42496  -609.03994  -617.69768    -0.01815     0.08608     0.93959
  Local  ************************101126.61463     1.69894     2.03309    44.77767
  n-local  1216.71507  1213.28322  1248.60728     0.13919    -0.48727     3.00617
  augment  -212.19905  -213.30613  -214.60087    -0.39823    -0.36408    -0.78408
  Kinetic  2020.19058  2001.74733  2054.77548     0.71967     0.84214   -12.94796
  Fock        0.00000     0.00000     0.00000     0.00000     0.00000     0.00000
  -------------------------------------------------------------------------------------
  Total       0.30500     0.26564    -1.76561     0.00059    -0.01495     0.10772
  in kB       0.20362     0.17734    -1.17872     0.00039    -0.00998     0.07192
  external pressure =       -0.27 kB  Pullay stress =        0.00 kB


 VOLUME and BASIS-vectors are now :
 -----------------------------------------------------------------------------
  energy-cutoff  :      280.00
  volume of cell :     2399.92
      direct lattice vectors                 reciprocal lattice vectors
     8.339624536  4.802377906  0.000000000     0.059915876  0.104182574  0.000000000
    -8.334317283  4.793104075  0.000000000    -0.060031803  0.104248917  0.000000000
     0.000000000  0.000000000 30.000000000     0.000000000  0.000000000  0.033333333

  length of vectors
     9.623521754  9.614296191 30.000000000     0.120182864  0.120298188  0.033333333


 FORCES acting on ions
    electron-ion (+dipol)            ewald-force                    non-local-force                 convergence-correction
 -----------------------------------------------------------------------------------------------
   0.224E+02 0.322E+00 -.249E+02   -.239E+02 -.269E+00 0.247E+02   0.146E+01 -.319E-02 0.162E+00   0.663E-01 -.480E-01 0.802E-01
   -.219E+02 -.155E+00 0.241E+02   0.233E+02 -.124E+00 -.240E+02   -.139E+01 0.285E+00 -.122E+00   -.412E-01 -.558E-02 -.678E-01
   -.265E+02 -.199E+01 0.125E+02   0.281E+02 0.240E+01 -.124E+02   -.157E+01 -.375E+00 -.165E+00   -.567E-01 -.343E-01 -.305E-01
   -.470E+01 -.196E+02 0.147E+01   0.476E+01 0.197E+02 -.145E+01   0.432E-01 0.160E-01 -.349E-01   -.112E+00 -.730E-01 0.134E-01
   -.740E+01 -.434E+01 0.209E+01   0.724E+01 0.420E+01 -.215E+01   0.235E+00 0.989E-01 0.562E-01   -.715E-01 0.420E-01 0.630E-02
   -.563E+00 0.231E+02 0.782E+00   0.626E+00 -.230E+02 -.836E+00   -.565E-02 -.131E+00 0.483E-01   -.681E-01 0.608E-01 0.766E-02
   0.359E+02 0.549E+01 -.138E+02   -.369E+02 -.584E+01 0.135E+02   0.992E+00 0.299E+00 0.255E+00   0.704E-01 0.343E-01 0.186E-01
   -.346E+02 0.341E+01 0.123E+02   0.357E+02 -.357E+01 -.122E+02   -.111E+01 0.112E+00 -.156E+00   -.989E-02 0.503E-01 -.920E-02
   0.365E+02 -.626E+01 -.166E+02   -.374E+02 0.656E+01 0.164E+02   0.833E+00 -.295E+00 0.191E+00   0.107E+00 0.903E-02 0.149E-01
   0.166E+02 0.703E+01 0.629E+03   -.174E+02 -.750E+01 -.633E+03   0.818E+00 0.426E+00 0.342E+01   0.158E-02 0.452E-01 0.190E-01
   -.197E+02 0.388E+01 -.625E+03   0.209E+02 -.444E+01 0.628E+03   -.107E+01 0.525E+00 -.335E+01   -.550E-01 0.412E-01 0.132E-01
   0.201E+02 -.161E+00 0.507E+03   -.205E+02 0.993E-01 -.512E+03   0.264E+00 0.401E-01 0.503E+01   0.163E+00 0.192E-01 -.536E-01
   0.251E+02 -.516E+00 -.628E+03   -.259E+02 0.598E+00 0.631E+03   0.780E+00 -.109E+00 -.373E+01   0.485E-01 0.242E-01 -.453E-01
   -.232E+02 0.906E+01 0.605E+03   0.239E+02 -.952E+01 -.608E+03   -.673E+00 0.375E+00 0.378E+01   -.452E-01 0.900E-01 -.100E+00
   -.495E+01 0.345E+01 -.490E+03   0.424E+01 -.365E+01 0.495E+03   0.584E+00 0.903E-01 -.495E+01   0.114E+00 0.946E-01 0.937E-01
   -.266E+02 -.349E+01 0.604E+03   0.277E+02 0.366E+01 -.608E+03   -.106E+01 -.132E+00 0.336E+01   -.702E-01 -.401E-01 -.295E-01
   -.150E+02 -.200E+01 -.495E+03   0.150E+02 0.222E+01 0.500E+03   0.966E-02 -.166E+00 -.480E+01   0.231E-01 -.586E-01 0.707E-01
   0.142E+02 -.705E+01 0.627E+03   -.152E+02 0.758E+01 -.630E+03   0.979E+00 -.561E+00 0.339E+01   0.270E-01 0.248E-01 0.898E-01
   -.204E+02 -.449E+01 -.604E+03   0.220E+02 0.507E+01 0.606E+03   -.143E+01 -.596E+00 -.293E+01   -.166E+00 0.137E-01 0.329E-02
   0.777E+01 -.480E+01 0.488E+03   -.728E+01 0.504E+01 -.493E+03   -.515E+00 -.201E+00 0.505E+01   0.369E-01 -.320E-01 -.243E-01
   0.222E+02 -.965E+01 -.608E+03   -.229E+02 0.999E+01 0.612E+03   0.603E+00 -.301E+00 -.392E+01   0.677E-01 -.349E-01 -.532E-01
   0.981E+01 0.542E+01 0.483E+03   -.995E+01 -.554E+01 -.488E+03   0.807E-01 0.971E-01 0.479E+01   0.709E-01 0.171E-01 -.653E-01
   0.226E+02 0.103E+02 -.604E+03   -.234E+02 -.107E+02 0.607E+03   0.768E+00 0.390E+00 -.377E+01   0.416E-02 0.149E-01 0.108E-01
   -.217E+02 -.643E+01 0.592E+03   0.228E+02 0.664E+01 -.595E+03   -.933E+00 -.143E+00 0.344E+01   -.137E+00 -.603E-01 -.872E-01
   -.380E+01 -.199E+01 -.484E+03   0.281E+01 0.190E+01 0.488E+03   0.859E+00 0.140E+00 -.473E+01   0.127E+00 -.395E-01 0.130E+00
   0.683E+01 -.134E+00 0.567E+03   -.887E+01 0.122E+00 -.570E+03   0.200E+01 0.897E-01 0.306E+01   0.135E-01 -.755E-01 -.141E-01
   -.822E+01 0.160E+01 -.564E+03   0.106E+02 -.159E+01 0.567E+03   -.220E+01 0.528E-01 -.295E+01   -.178E+00 -.624E-01 0.112E+00
 -----------------------------------------------------------------------------------------------
   0.737E+00 -.390E-01 -.525E+00   -.338E-13 -.417E-13 0.000E+00   -.662E+00 0.223E-01 0.417E+00   -.692E-01 0.171E-01 0.104E+00
 
 
 POSITION                                       TOTAL-FORCE (eV/Angst)
 -----------------------------------------------------------------------------------
      5.88440      3.19539      0.08816         0.028672      0.002605      0.027051
     -5.89090      3.18672     -0.08549        -0.014316      0.000175     -0.034358
      2.51200      4.79561     -0.05107        -0.007507      0.003056     -0.005043
     -0.02802      6.21297     -0.00306        -0.004177      0.010398     -0.001097
     -0.04127      3.17937     -0.00741         0.004942      0.008361     -0.004461
      0.00398      0.19424     -0.00198        -0.010873     -0.016454      0.002383
      5.85278      6.42675      0.04774         0.001306     -0.016508      0.002165
      2.48229      1.62874     -0.04413         0.003043      0.004414     -0.010414
     -2.47233      4.75773      0.05554         0.003156      0.011160     -0.003284
     -0.90153      1.62210     28.30384        -0.001752      0.000064      0.004846
      0.90004      1.63361      1.68327         0.002574      0.002443      0.005798
     -3.73881      3.19676     28.65358        -0.002013     -0.002806      0.011299
     -1.82624      3.19521      1.72194         0.005625     -0.003262      0.001935
     -6.51091      4.78642     28.34211        -0.004705      0.000874     -0.008120
     -4.64827      4.75563      1.28762        -0.007977     -0.009856     -0.012055
      1.85361      3.24021     28.35058        -0.001204     -0.002243     -0.001691
      3.72897      3.22572      1.31093         0.002590      0.000998     -0.008803
     -0.90234      4.76856     28.31004        -0.003814      0.001526      0.013081
      0.96296      4.77718      1.61471         0.004713     -0.000180     -0.007500
     -3.68077      6.42329     28.71914         0.004868      0.009376      0.021724
     -1.82234      6.39448      1.67069         0.003859      0.004370     -0.000788
      4.64509      4.76790     28.73445         0.005015     -0.011766      0.015258
      6.51230      4.79221      1.65675         0.002870     -0.007722      0.007270
      1.84885      6.36964     28.38364         0.001191      0.002634     -0.006528
      3.67846      6.41376      1.26781        -0.005699      0.005821     -0.021645
     -0.89202      7.99669     28.49261        -0.023580      0.002266      0.020233
      0.89331      7.99414      1.49798         0.013193      0.000257     -0.007258
 -----------------------------------------------------------------------------------
    total drift:                                0.005382      0.000381     -0.003738


--------------------------------------------------------------------------------------------------------



  FREE ENERGIE OF THE ION-ELECTRON SYSTEM (eV)
  ---------------------------------------------------
  free  energy   TOTEN  =      -192.46559364 eV

  energy  without entropy=     -192.34043918  energy(sigma->0) =     -192.40301641
 
 d Force = 0.9595133E-03[ 0.717E-03, 0.120E-02]  d Energy = 0.5803074E-03 0.379E-03
 d Force = 0.5697530E+00[ 0.588E+00, 0.552E+00]  d Ewald  =-0.3431733E+01 0.400E+01


--------------------------------------------------------------------------------------------------------


    POTLOK:  cpu time    0.0368: real time    0.0369


--------------------------------------------------------------------------------------------------------


 Quasi-Newton relaxation of ions (Broydens 2nd method)
  g(Force)  = 0.394E-03   g(Stress)= 0.292E-03

 retain information from N=  3 steps
 eigenvalues of (default step * inverse Hessian matrix)
  average eigenvalue of G=   2.8766
 eigenvalue spectrum of G is  4.2337  4.2337  0.1626


--------------------------------------------------------------------------------------------------------


  
 reached required accuracy - stopping structural energy minimisation
     LOOP+:  cpu time  151.3547: real time  151.7316
    4ORBIT:  cpu time    0.0000: real time    0.0000

 total amount of memory used by VASP on root node   650782. kBytes
========================================================================

   base      :      30000. kBytes
   nonl-proj :     559647. kBytes
   fftplans  :       2414. kBytes
   grid      :      12150. kBytes
   one-center:        419. kBytes
   wavefun   :      46152. kBytes
 
  
  
 General timing and accounting informations for this job:
 ========================================================
  
                  Total CPU time used (sec):     6429.065
                            User time (sec):     6370.642
                          System time (sec):       58.424
                         Elapsed time (sec):     6445.975
  
                   Maximum memory used (kb):      740064.
                   Average memory used (kb):           0.
  
                          Minor page faults:      1045514
                          Major page faults:            6
                 Voluntary context switches:         4812
