<?xml version="1.0" encoding="ISO-8859-1"?>
<modeling>
 <generator>
  <i name="program" type="string">vasp </i>
  <i name="version" type="string">5.4.1  </i>
  <i name="subversion" type="string">05Feb16 (build Jul 05 2020 17:13:04) complex                          parallel </i>
  <i name="platform" type="string">IFC91_ompi </i>
  <i name="date" type="string">2024 04 24 </i>
  <i name="time" type="string">23:53:59 </i>
 </generator>
 <incar>
  <i type="int" name="ISTART">     0</i>
  <i type="string" name="PREC">normal</i>
  <i type="string" name="ALGO"> Normal</i>
  <i type="int" name="ISPIN">     1</i>
  <i type="int" name="ICHARG">     2</i>
  <i type="int" name="IBRION">     1</i>
  <i type="int" name="NSW">   100</i>
  <i type="int" name="ISIF">     3</i>
  <i type="int" name="ISYM">     0</i>
  <i name="SYMPREC">      0.00000001</i>
  <i name="POTIM">      0.50000000</i>
  <i type="logical" name="LREAL"> F  </i>
  <i type="logical" name="LPLANE"> F  </i>
  <i type="int" name="ISMEAR">     0</i>
  <i type="logical" name="LWAVE"> F  </i>
  <i type="logical" name="LCHARG"> F  </i>
  <v type="int" name="KPOINT_BSE">    -1     0     0     0</v>
 </incar>
 <kpoints>
  <generation param="Gamma">
   <v type="int" name="divisions">       8        8        1 </v>
   <v name="usershift">      0.00000000       0.00000000       0.00000000 </v>
   <v name="genvec1">      0.12500000       0.00000000       0.00000000 </v>
   <v name="genvec2">     -0.00000000       0.12500000       0.00000000 </v>
   <v name="genvec3">      0.00000000       0.00000000       1.00000000 </v>
   <v name="shift">      0.00000000       0.00000000       0.00000000 </v>
  </generation>
  <varray name="kpointlist" >
   <v>       0.00000000       0.00000000       0.00000000 </v>
   <v>       0.12500000       0.00000000       0.00000000 </v>
   <v>       0.25000000       0.00000000       0.00000000 </v>
   <v>       0.37500000       0.00000000       0.00000000 </v>
   <v>       0.50000000       0.00000000       0.00000000 </v>
   <v>       0.00000000       0.12500000       0.00000000 </v>
   <v>       0.12500000       0.12500000       0.00000000 </v>
   <v>       0.25000000       0.12500000       0.00000000 </v>
   <v>       0.37500000       0.12500000       0.00000000 </v>
   <v>       0.50000000       0.12500000       0.00000000 </v>
   <v>      -0.37500000       0.12500000       0.00000000 </v>
   <v>      -0.25000000       0.12500000       0.00000000 </v>
   <v>      -0.12500000       0.12500000       0.00000000 </v>
   <v>       0.00000000       0.25000000       0.00000000 </v>
   <v>       0.12500000       0.25000000       0.00000000 </v>
   <v>       0.25000000       0.25000000       0.00000000 </v>
   <v>       0.37500000       0.25000000       0.00000000 </v>
   <v>       0.50000000       0.25000000       0.00000000 </v>
   <v>      -0.37500000       0.25000000       0.00000000 </v>
   <v>      -0.25000000       0.25000000       0.00000000 </v>
   <v>      -0.12500000       0.25000000       0.00000000 </v>
   <v>      -0.00000000       0.37500000       0.00000000 </v>
   <v>       0.12500000       0.37500000       0.00000000 </v>
   <v>       0.25000000       0.37500000       0.00000000 </v>
   <v>       0.37500000       0.37500000       0.00000000 </v>
   <v>       0.50000000       0.37500000       0.00000000 </v>
   <v>      -0.37500000       0.37500000       0.00000000 </v>
   <v>      -0.25000000       0.37500000       0.00000000 </v>
   <v>      -0.12500000       0.37500000       0.00000000 </v>
   <v>       0.00000000       0.50000000       0.00000000 </v>
   <v>       0.12500000       0.50000000       0.00000000 </v>
   <v>       0.25000000       0.50000000       0.00000000 </v>
   <v>       0.37500000       0.50000000       0.00000000 </v>
   <v>       0.50000000       0.50000000       0.00000000 </v>
  </varray>
  <varray name="weights" >
   <v>       0.01562500 </v>
   <v>       0.03125000 </v>
   <v>       0.03125000 </v>
   <v>       0.03125000 </v>
   <v>       0.01562500 </v>
   <v>       0.03125000 </v>
   <v>       0.03125000 </v>
   <v>       0.03125000 </v>
   <v>       0.03125000 </v>
   <v>       0.03125000 </v>
   <v>       0.03125000 </v>
   <v>       0.03125000 </v>
   <v>       0.03125000 </v>
   <v>       0.03125000 </v>
   <v>       0.03125000 </v>
   <v>       0.03125000 </v>
   <v>       0.03125000 </v>
   <v>       0.03125000 </v>
   <v>       0.03125000 </v>
   <v>       0.03125000 </v>
   <v>       0.03125000 </v>
   <v>       0.03125000 </v>
   <v>       0.03125000 </v>
   <v>       0.03125000 </v>
   <v>       0.03125000 </v>
   <v>       0.03125000 </v>
   <v>       0.03125000 </v>
   <v>       0.03125000 </v>
   <v>       0.03125000 </v>
   <v>       0.01562500 </v>
   <v>       0.03125000 </v>
   <v>       0.03125000 </v>
   <v>       0.03125000 </v>
   <v>       0.01562500 </v>
  </varray>
 </kpoints>
 <parameters>
  <separator name="general" >
   <i type="string" name="SYSTEM">unknown system</i>
   <i type="logical" name="LCOMPAT"> F  </i>
  </separator>
  <separator name="electronic" >
   <i type="string" name="PREC">normal</i>
   <i name="ENMAX">    280.00000000</i>
   <i name="ENAUG">    373.43800000</i>
   <i name="EDIFF">      0.00010000</i>
   <i type="int" name="IALGO">    38</i>
   <i type="int" name="IWAVPR">    11</i>
   <i type="int" name="NBANDS">   120</i>
   <i name="NELECT">    159.00000000</i>
   <i type="int" name="TURBO">     0</i>
   <i type="int" name="IRESTART">     0</i>
   <i type="int" name="NREBOOT">     0</i>
   <i type="int" name="NMIN">     0</i>
   <i name="EREF">      0.00000000</i>
   <separator name="electronic smearing" >
    <i type="int" name="ISMEAR">     0</i>
    <i name="SIGMA">      0.20000000</i>
    <i name="KSPACING">      0.50000000</i>
    <i type="logical" name="KGAMMA"> T  </i>
   </separator>
   <separator name="electronic projectors" >
    <i type="logical" name="LREAL"> F  </i>
    <v name="ROPT">      0.00000000      0.00000000      0.00000000      0.00000000</v>
    <i type="int" name="LMAXPAW">  -100</i>
    <i type="int" name="LMAXMIX">     2</i>
    <i type="logical" name="NLSPLINE"> F  </i>
   </separator>
   <separator name="electronic startup" >
    <i type="int" name="ISTART">     0</i>
    <i type="int" name="ICHARG">     2</i>
    <i type="int" name="INIWAV">     1</i>
   </separator>
   <separator name="electronic spin" >
    <i type="int" name="ISPIN">     1</i>
    <i type="logical" name="LNONCOLLINEAR"> F  </i>
    <v name="MAGMOM">      1.00000000      1.00000000      1.00000000      1.00000000      1.00000000      1.00000000      1.00000000      1.00000000      1.00000000      1.00000000      1.00000000      1.00000000      1.00000000      1.00000000      1.00000000      1.00000000      1.00000000      1.00000000      1.00000000      1.00000000
      1.00000000      1.00000000      1.00000000      1.00000000      1.00000000      1.00000000      1.00000000</v>
    <i name="NUPDOWN">     -1.00000000</i>
    <i type="logical" name="LSORBIT"> F  </i>
    <v name="SAXIS">      0.00000000      0.00000000      1.00000000</v>
    <i type="logical" name="LSPIRAL"> F  </i>
    <v name="QSPIRAL">      0.00000000      0.00000000      0.00000000</v>
    <i type="logical" name="LZEROZ"> F  </i>
   </separator>
   <separator name="electronic exchange-correlation" >
    <i type="logical" name="LASPH"> F  </i>
    <i type="logical" name="LMETAGGA"> F  </i>
   </separator>
   <separator name="electronic convergence" >
    <i type="int" name="NELM">    60</i>
    <i type="int" name="NELMDL">    -5</i>
    <i type="int" name="NELMIN">     2</i>
    <i name="ENINI">    280.00000000</i>
    <separator name="electronic convergence detail" >
     <i type="logical" name="LDIAG"> T  </i>
     <i type="logical" name="LSUBROT"> F  </i>
     <i name="WEIMIN">      0.00100000</i>
     <i name="EBREAK">      0.00000021</i>
     <i name="DEPER">      0.30000000</i>
     <i type="int" name="NRMM">     4</i>
     <i name="TIME">      0.40000000</i>
    </separator>
   </separator>
   <separator name="electronic mixer" >
    <i name="AMIX">      0.40000000</i>
    <i name="BMIX">      1.00000000</i>
    <i name="AMIN">      0.10000000</i>
    <i name="AMIX_MAG">      1.60000000</i>
    <i name="BMIX_MAG">      1.00000000</i>
    <separator name="electronic mixer details" >
     <i type="int" name="IMIX">     4</i>
     <i type="logical" name="MIXFIRST"> F  </i>
     <i type="int" name="MAXMIX">   -45</i>
     <i name="WC">    100.00000000</i>
     <i type="int" name="INIMIX">     1</i>
     <i type="int" name="MIXPRE">     1</i>
     <i type="int" name="MREMOVE">     5</i>
    </separator>
   </separator>
   <separator name="electronic dipolcorrection" >
    <i type="logical" name="LDIPOL"> F  </i>
    <i type="logical" name="LMONO"> F  </i>
    <i type="int" name="IDIPOL">     0</i>
    <i name="EPSILON">      1.00000000</i>
    <v name="DIPOL">   -100.00000000   -100.00000000   -100.00000000</v>
    <i name="EFIELD">      0.00000000</i>
   </separator>
  </separator>
  <separator name="grids" >
   <i type="int" name="NGX">    42</i>
   <i type="int" name="NGY">    42</i>
   <i type="int" name="NGZ">   126</i>
   <i type="int" name="NGXF">    84</i>
   <i type="int" name="NGYF">    84</i>
   <i type="int" name="NGZF">   252</i>
   <i type="logical" name="ADDGRID"> F  </i>
  </separator>
  <separator name="ionic" >
   <i type="int" name="NSW">   100</i>
   <i type="int" name="IBRION">     1</i>
   <i type="int" name="ISIF">     3</i>
   <i name="PSTRESS">      0.00000000</i>
   <i name="EDIFFG">      0.00100000</i>
   <i type="int" name="NFREE">     0</i>
   <i name="POTIM">      0.50000000</i>
   <i name="SMASS">     -3.00000000</i>
   <i name="SCALEE">      1.00000000</i>
  </separator>
  <separator name="ionic md" >
   <i name="TEBEG">      0.00010000</i>
   <i name="TEEND">      0.00010000</i>
   <i type="int" name="NBLOCK">     1</i>
   <i type="int" name="KBLOCK">   100</i>
   <i type="int" name="NPACO">   256</i>
   <i name="APACO">     16.00000000</i>
  </separator>
  <separator name="symmetry" >
   <i type="int" name="ISYM">     0</i>
   <i name="SYMPREC">      0.00000001</i>
  </separator>
  <separator name="dos" >
   <i type="logical" name="LORBIT"> F  </i>
   <v name="RWIGS">     -1.00000000     -1.00000000     -1.00000000     -1.00000000</v>
   <i type="int" name="NEDOS">   301</i>
   <i name="EMIN">     10.00000000</i>
   <i name="EMAX">    -10.00000000</i>
   <i name="EFERMI">      0.00000000</i>
  </separator>
  <separator name="writing" >
   <i type="int" name="NWRITE">     2</i>
   <i type="logical" name="LWAVE"> F  </i>
   <i type="logical" name="LCHARG"> F  </i>
   <i type="logical" name="LPARD"> F  </i>
   <i type="logical" name="LVTOT"> F  </i>
   <i type="logical" name="LVHAR"> F  </i>
   <i type="logical" name="LELF"> F  </i>
   <i type="logical" name="LOPTICS"> F  </i>
   <v name="STM">      0.00000000      0.00000000      0.00000000      0.00000000      0.00000000      0.00000000      0.00000000</v>
  </separator>
  <separator name="performance" >
   <i type="int" name="NPAR">    40</i>
   <i type="int" name="NSIM">     4</i>
   <i type="int" name="NBLK">    -1</i>
   <i type="logical" name="LPLANE"> F  </i>
   <i type="logical" name="LSCALAPACK"> T  </i>
   <i type="logical" name="LSCAAWARE"> F  </i>
   <i type="logical" name="LSCALU"> F  </i>
   <i type="logical" name="LASYNC"> F  </i>
   <i type="logical" name="LORBITALREAL"> F  </i>
  </separator>
  <separator name="miscellaneous" >
   <i type="int" name="IDIOT">     3</i>
   <i type="logical" name="LMUSIC"> F  </i>
   <v name="POMASS">     50.94100000     95.94000000    183.85000000     32.06600000</v>
   <v name="DARWINR">      0.00000000      0.00000000      0.00000000      0.00000000</v>
   <v name="DARWINV">      1.00000000      1.00000000      1.00000000      1.00000000</v>
   <i type="logical" name="LCORR"> T  </i>
  </separator>
  <i type="logical" name="GGA_COMPAT"> T  </i>
  <i type="logical" name="LBERRY"> F  </i>
  <i type="int" name="ICORELEVEL">     0</i>
  <i type="logical" name="LDAU"> F  </i>
  <i type="int" name="I_CONSTRAINED_M">     0</i>
  <separator name="electronic exchange-correlation" >
   <i type="string" name="GGA">--</i>
   <i type="int" name="VOSKOWN">     0</i>
   <i type="logical" name="LHFCALC"> F  </i>
   <i type="string" name="PRECFOCK"></i>
   <i type="logical" name="LSYMGRAD"> F  </i>
   <i type="logical" name="LHFONE"> F  </i>
   <i type="logical" name="LRHFCALC"> F  </i>
   <i type="logical" name="LTHOMAS"> F  </i>
   <i type="logical" name="LMODELHF"> F  </i>
   <i name="ENCUT4O">     -1.00000000</i>
   <i type="int" name="EXXOEP">     0</i>
   <i type="int" name="FOURORBIT">     0</i>
   <i name="AEXX">      0.00000000</i>
   <i name="HFALPHA">      0.00000000</i>
   <i name="MCALPHA">      0.00000000</i>
   <i name="ALDAX">      1.00000000</i>
   <i name="AGGAX">      1.00000000</i>
   <i name="ALDAC">      1.00000000</i>
   <i name="AGGAC">      1.00000000</i>
   <i type="int" name="NKREDX">     1</i>
   <i type="int" name="NKREDY">     1</i>
   <i type="int" name="NKREDZ">     1</i>
   <i type="logical" name="SHIFTRED"> F  </i>
   <i type="logical" name="ODDONLY"> F  </i>
   <i type="logical" name="EVENONLY"> F  </i>
   <i type="int" name="LMAXFOCK">     0</i>
   <i type="int" name="NMAXFOCKAE">     0</i>
   <i type="logical" name="LFOCKAEDFT"> F  </i>
   <i name="HFSCREEN">      0.00000000</i>
   <i name="HFSCREENC">      0.00000000</i>
   <i type="int" name="NBANDSGWLOW">     0</i>
  </separator>
  <separator name="vdW DFT" >
   <i type="logical" name="LUSE_VDW"> F  </i>
   <i name="Zab_VDW">     -0.84910000</i>
   <i name="PARAM1">      0.12340000</i>
   <i name="PARAM2">      1.00000000</i>
   <i name="PARAM3">      0.00000000</i>
  </separator>
  <separator name="model GW" >
   <i type="int" name="MODEL_GW">     0</i>
   <i name="MODEL_EPS0">     58.26239943</i>
   <i name="MODEL_ALPHA">      1.00000000</i>
  </separator>
  <separator name="linear response parameters" >
   <i type="logical" name="LEPSILON"> F  </i>
   <i type="logical" name="LRPA"> F  </i>
   <i type="logical" name="LNABLA"> F  </i>
   <i type="logical" name="LVEL"> F  </i>
   <i type="int" name="KINTER">     0</i>
   <i name="CSHIFT">      0.10000000</i>
   <i name="OMEGAMAX">     -1.00000000</i>
   <i name="DEG_THRESHOLD">      0.00200000</i>
  </separator>
  <separator name="orbital magnetization" >
   <i type="logical" name="NUCIND"> F  </i>
   <v name="MAGPOS">      0.00000000      0.00000000      0.00000000</v>
   <i type="logical" name="LNICSALL"> T  </i>
   <i type="logical" name="ORBITALMAG"> F  </i>
   <i type="logical" name="LMAGBLOCH"> F  </i>
   <i type="logical" name="LCHIMAG"> F  </i>
   <i type="logical" name="LGAUGE"> T  </i>
   <i type="int" name="MAGATOM">     0</i>
   <v name="MAGDIPOL">      0.00000000      0.00000000      0.00000000</v>
   <v name="AVECCONST">      0.00000000      0.00000000      0.00000000</v>
  </separator>
  <separator name="response functions" >
   <i type="logical" name="LADDER"> F  </i>
   <i type="logical" name="LFXC"> F  </i>
   <i type="logical" name="LHARTREE"> T  </i>
   <i type="int" name="IBSE">     0</i>
   <v type="int" name="KPOINT">    -1     0     0     0</v>
   <i type="logical" name="LTCTE"> F  </i>
   <i type="logical" name="LTETE"> F  </i>
   <i type="logical" name="LTRIPLET"> F  </i>
   <i type="logical" name="LFXCEPS"> F  </i>
   <i type="logical" name="LFXHEG"> F  </i>
   <i type="int" name="NATURALO">     0</i>
   <i type="logical" name="L2ORDER"> F  </i>
   <i type="logical" name="LUSEW"> F  </i>
   <i name="ENCUTGW">     -2.00000000</i>
   <i name="ENCUTGWSOFT">     -2.00000000</i>
   <i name="ENCUTLF">     -1.00000000</i>
   <i type="int" name="LMAXMP2">    -1</i>
   <i name="SCISSOR">      0.00000000</i>
   <i type="int" name="NOMEGA">     0</i>
   <i type="int" name="NOMEGAR">     0</i>
   <i type="int" name="NBANDSGW">    -1</i>
   <i type="int" name="NBANDSO">    -1</i>
   <i type="int" name="NBANDSV">    -1</i>
   <i type="int" name="NELM">     1</i>
   <i type="int" name="NELMHF">     1</i>
   <i type="int" name="DIM">     3</i>
   <i type="int" name="ANTIRES">     0</i>
   <i name="OMEGAMAX">    -30.00000000</i>
   <i name="OMEGAMIN">    -30.00000000</i>
   <i name="OMEGATL">   -200.00000000</i>
   <i type="int" name="OMEGAGRID">     0</i>
   <i name="CSHIFT">     -0.10000000</i>
   <i type="logical" name="SELFENERGY"> F  </i>
   <i type="logical" name="LSPECTRAL"> F  </i>
   <i type="logical" name="LSPECTRALGW"> F  </i>
   <i type="logical" name="LSINGLES"> F  </i>
   <i type="logical" name="LFERMIGW"> F  </i>
   <i type="logical" name="ODDONLYGW"> F  </i>
   <i type="logical" name="EVENONLYGW"> F  </i>
   <i type="int" name="NKREDLFX">     1</i>
   <i type="int" name="NKREDLFY">     1</i>
   <i type="int" name="NKREDLFZ">     1</i>
   <i type="int" name="MAXMEM">  1800</i>
   <i type="int" name="TELESCOPE">     0</i>
   <i type="int" name="TAUPAR">     1</i>
   <i type="int" name="OMEGAPAR">    -1</i>
   <i name="LAMBDA">      1.00000000</i>
  </separator>
  <separator name="External order field" >
   <i name="OFIELD_KAPPA">      0.00000000</i>
   <v name="OFIELD_K">      0.00000000      0.00000000      0.00000000</v>
   <i name="OFIELD_Q6_NEAR">      0.00000000</i>
   <i name="OFIELD_Q6_FAR">      0.00000000</i>
   <i name="OFIELD_A">      0.00000000</i>
  </separator>
 </parameters>
 <atominfo>
  <atoms>      27 </atoms>
  <types>       4 </types>
  <array name="atoms" >
   <dimension dim="1">ion</dimension>
   <field type="string">element</field>
   <field type="int">atomtype</field>
   <set>
    <rc><c>V </c><c>   1</c></rc>
    <rc><c>V </c><c>   1</c></rc>
    <rc><c>V </c><c>   1</c></rc>
    <rc><c>Mo</c><c>   2</c></rc>
    <rc><c>Mo</c><c>   2</c></rc>
    <rc><c>Mo</c><c>   2</c></rc>
    <rc><c>W </c><c>   3</c></rc>
    <rc><c>W </c><c>   3</c></rc>
    <rc><c>W </c><c>   3</c></rc>
    <rc><c>S </c><c>   4</c></rc>
    <rc><c>S </c><c>   4</c></rc>
    <rc><c>S </c><c>   4</c></rc>
    <rc><c>S </c><c>   4</c></rc>
    <rc><c>S </c><c>   4</c></rc>
    <rc><c>S </c><c>   4</c></rc>
    <rc><c>S </c><c>   4</c></rc>
    <rc><c>S </c><c>   4</c></rc>
    <rc><c>S </c><c>   4</c></rc>
    <rc><c>S </c><c>   4</c></rc>
    <rc><c>S </c><c>   4</c></rc>
    <rc><c>S </c><c>   4</c></rc>
    <rc><c>S </c><c>   4</c></rc>
    <rc><c>S </c><c>   4</c></rc>
    <rc><c>S </c><c>   4</c></rc>
    <rc><c>S </c><c>   4</c></rc>
    <rc><c>S </c><c>   4</c></rc>
    <rc><c>S </c><c>   4</c></rc>
   </set>
  </array>
  <array name="atomtypes" >
   <dimension dim="1">type</dimension>
   <field type="int">atomspertype</field>
   <field type="string">element</field>
   <field>mass</field>
   <field>valence</field>
   <field type="string">pseudopotential</field>
   <set>
    <rc><c>   3</c><c>V </c><c>     50.94100000</c><c>      5.00000000</c><c> PAW_PBE V 08Apr2002                    </c></rc>
    <rc><c>   3</c><c>Mo</c><c>     95.94000000</c><c>      6.00000000</c><c> PAW_PBE Mo 08Apr2002                   </c></rc>
    <rc><c>   3</c><c>W </c><c>    183.85000000</c><c>      6.00000000</c><c> PAW_PBE W 08Apr2002                    </c></rc>
    <rc><c>  18</c><c>S </c><c>     32.06600000</c><c>      6.00000000</c><c>  PAW_PBE S 17Jan2003                   </c></rc>
   </set>
  </array>
 </atominfo>
 <structure name="initialpos" >
  <crystal>
   <varray name="basis" >
    <v>       8.66999996       5.03999989       0.00000000 </v>
    <v>      -8.66999982       5.04000013       0.00000000 </v>
    <v>       0.00000000       0.00000000      30.00000000 </v>
   </varray>
   <i name="volume">   2621.80797419 </i>
   <varray name="rec_basis" >
    <v>       0.05767013       0.09920635       0.00000000 </v>
    <v>      -0.05767013       0.09920635       0.00000000 </v>
    <v>       0.00000000       0.00000000       0.03333333 </v>
   </varray>
  </crystal>
  <varray name="positions" >
   <v>       0.66666669       0.00000000       0.00000000 </v>
   <v>       0.00000000       0.66666669       0.00000000 </v>
   <v>       0.66666669       0.33333334       0.00000000 </v>
   <v>       0.66666669       0.66666669       0.00000000 </v>
   <v>       0.33333334       0.33333334       0.00000000 </v>
   <v>       0.00000000       0.00000000       0.00000000 </v>
   <v>       1.00000000       0.33333334       0.00000000 </v>
   <v>       0.33333334       0.00000000       0.00000000 </v>
   <v>       0.33333334       0.66666669       0.00000000 </v>
   <v>       0.11068511       0.22244981       0.95539999 </v>
   <v>       0.22244981       0.11068511       0.04460000 </v>
   <v>       0.11068511       0.55578315       0.95539999 </v>
   <v>       0.22244981       0.44401845       0.04460000 </v>
   <v>       0.11068511       0.88911647       0.95539999 </v>
   <v>       0.22244981       0.77735180       0.04460000 </v>
   <v>       0.44401845       0.22244981       0.95539999 </v>
   <v>       0.55578315       0.11068511       0.04460000 </v>
   <v>       0.44401845       0.55578315       0.95539999 </v>
   <v>       0.55578315       0.44401845       0.04460000 </v>
   <v>       0.44401845       0.88911647       0.95539999 </v>
   <v>       0.55578315       0.77735180       0.04460000 </v>
   <v>       0.77735180       0.22244981       0.95539999 </v>
   <v>       0.88911647       0.11068511       0.04460000 </v>
   <v>       0.77735180       0.55578315       0.95539999 </v>
   <v>       0.88911647       0.44401845       0.04460000 </v>
   <v>       0.77735180       0.88911647       0.95539999 </v>
   <v>       0.88911647       0.77735180       0.04460000 </v>
  </varray>
 </structure>
 <calculation>
  <scstep>
   <time name="dav">   22.82   22.88</time>
   <time name="total">   22.87   22.93</time>
   <energy>
    <i name="alphaZ">     81.65567618 </i>
    <i name="ewald">  41890.23009643 </i>
    <i name="hartreedc"> -47722.85861835 </i>
    <i name="XCdc">   -242.92963158 </i>
    <i name="pawpsdc">   3467.42045192 </i>
    <i name="pawaedc">  -2871.19716117 </i>
    <i name="eentropy">     -0.53104573 </i>
    <i name="bandstr">   -239.02602242 </i>
    <i name="atom">   6761.44252427 </i>
    <i name="e_fr_energy">   1124.20626956 </i>
    <i name="e_wo_entrp">   1124.73731529 </i>
    <i name="e_0_energy">   1124.47179243 </i>
   </energy>
  </scstep>
  <scstep>
   <time name="dav">   29.51   29.58</time>
   <time name="total">   29.51   29.59</time>
   <energy>
    <i name="e_fr_energy">     -1.90140235 </i>
    <i name="e_wo_entrp">     -1.70229318 </i>
    <i name="e_0_energy">     -1.80184776 </i>
   </energy>
  </scstep>
  <scstep>
   <time name="dav">   28.88   28.95</time>
   <time name="total">   28.88   28.96</time>
   <energy>
    <i name="e_fr_energy">   -199.83550593 </i>
    <i name="e_wo_entrp">   -199.57452749 </i>
    <i name="e_0_energy">   -199.70501671 </i>
   </energy>
  </scstep>
  <scstep>
   <time name="dav">   31.65   31.72</time>
   <time name="total">   31.65   31.73</time>
   <energy>
    <i name="e_fr_energy">   -208.96682176 </i>
    <i name="e_wo_entrp">   -208.66918049 </i>
    <i name="e_0_energy">   -208.81800113 </i>
   </energy>
  </scstep>
  <scstep>
   <time name="dav">   29.95   30.03</time>
   <time name="total">   30.50   30.58</time>
   <energy>
    <i name="e_fr_energy">   -209.27940528 </i>
    <i name="e_wo_entrp">   -208.98482289 </i>
    <i name="e_0_energy">   -209.13211408 </i>
   </energy>
  </scstep>
  <scstep>
   <time name="dav">   32.57   32.65</time>
   <time name="total">   33.08   33.17</time>
   <energy>
    <i name="e_fr_energy">   -237.18695192 </i>
    <i name="e_wo_entrp">   -236.91565571 </i>
    <i name="e_0_energy">   -237.05130382 </i>
   </energy>
  </scstep>
  <scstep>
   <time name="dav">   33.65   33.73</time>
   <time name="total">   34.24   34.34</time>
   <energy>
    <i name="e_fr_energy">   -196.64566477 </i>
    <i name="e_wo_entrp">   -196.30891820 </i>
    <i name="e_0_energy">   -196.47729149 </i>
   </energy>
  </scstep>
  <scstep>
   <time name="dav">   30.64   30.72</time>
   <time name="total">   31.24   31.32</time>
   <energy>
    <i name="e_fr_energy">   -190.11532975 </i>
    <i name="e_wo_entrp">   -189.84709789 </i>
    <i name="e_0_energy">   -189.98121382 </i>
   </energy>
  </scstep>
  <scstep>
   <time name="dav">   31.22   31.29</time>
   <time name="total">   31.82   31.91</time>
   <energy>
    <i name="e_fr_energy">   -188.31203219 </i>
    <i name="e_wo_entrp">   -187.98479214 </i>
    <i name="e_0_energy">   -188.14841217 </i>
   </energy>
  </scstep>
  <scstep>
   <time name="dav">   34.18   34.27</time>
   <time name="total">   34.79   34.89</time>
   <energy>
    <i name="e_fr_energy">   -187.13424741 </i>
    <i name="e_wo_entrp">   -186.79297513 </i>
    <i name="e_0_energy">   -186.96361127 </i>
   </energy>
  </scstep>
  <scstep>
   <time name="dav">   32.47   32.55</time>
   <time name="total">   33.09   33.18</time>
   <energy>
    <i name="e_fr_energy">   -187.00973066 </i>
    <i name="e_wo_entrp">   -186.66109226 </i>
    <i name="e_0_energy">   -186.83541146 </i>
   </energy>
  </scstep>
  <scstep>
   <time name="dav">   33.41   33.49</time>
   <time name="total">   34.03   34.12</time>
   <energy>
    <i name="e_fr_energy">   -187.01437204 </i>
    <i name="e_wo_entrp">   -186.68033759 </i>
    <i name="e_0_energy">   -186.84735481 </i>
   </energy>
  </scstep>
  <scstep>
   <time name="dav">   34.03   34.11</time>
   <time name="total">   34.65   34.73</time>
   <energy>
    <i name="e_fr_energy">   -186.92981062 </i>
    <i name="e_wo_entrp">   -186.59336300 </i>
    <i name="e_0_energy">   -186.76158681 </i>
   </energy>
  </scstep>
  <scstep>
   <time name="dav">   33.11   33.19</time>
   <time name="total">   33.72   33.81</time>
   <energy>
    <i name="e_fr_energy">   -186.90016373 </i>
    <i name="e_wo_entrp">   -186.55914268 </i>
    <i name="e_0_energy">   -186.72965320 </i>
   </energy>
  </scstep>
  <scstep>
   <time name="dav">   31.74   31.82</time>
   <time name="total">   32.36   32.44</time>
   <energy>
    <i name="e_fr_energy">   -186.89378239 </i>
    <i name="e_wo_entrp">   -186.55051481 </i>
    <i name="e_0_energy">   -186.72214860 </i>
   </energy>
  </scstep>
  <scstep>
   <time name="dav">   33.83   33.91</time>
   <time name="total">   34.45   34.54</time>
   <energy>
    <i name="e_fr_energy">   -186.88979747 </i>
    <i name="e_wo_entrp">   -186.54653814 </i>
    <i name="e_0_energy">   -186.71816781 </i>
   </energy>
  </scstep>
  <scstep>
   <time name="dav">   32.82   32.90</time>
   <time name="total">   33.44   33.53</time>
   <energy>
    <i name="e_fr_energy">   -186.88706768 </i>
    <i name="e_wo_entrp">   -186.54572943 </i>
    <i name="e_0_energy">   -186.71639856 </i>
   </energy>
  </scstep>
  <scstep>
   <time name="dav">   30.69   30.76</time>
   <time name="total">   31.31   31.39</time>
   <energy>
    <i name="e_fr_energy">   -186.88652547 </i>
    <i name="e_wo_entrp">   -186.54547048 </i>
    <i name="e_0_energy">   -186.71599798 </i>
   </energy>
  </scstep>
  <scstep>
   <time name="dav">   28.85   28.92</time>
   <time name="total">   29.47   29.54</time>
   <energy>
    <i name="e_fr_energy">   -186.88628295 </i>
    <i name="e_wo_entrp">   -186.54470352 </i>
    <i name="e_0_energy">   -186.71549323 </i>
   </energy>
  </scstep>
  <scstep>
   <time name="dav">   24.83   24.89</time>
   <time name="total">   25.44   25.51</time>
   <energy>
    <i name="e_fr_energy">   -186.88718086 </i>
    <i name="e_wo_entrp">   -186.54591989 </i>
    <i name="e_0_energy">   -186.71655037 </i>
   </energy>
  </scstep>
  <scstep>
   <time name="dav">   22.82   22.88</time>
   <time name="total">   23.44   23.50</time>
   <energy>
    <i name="e_fr_energy">   -186.88804568 </i>
    <i name="e_wo_entrp">   -186.54665230 </i>
    <i name="e_0_energy">   -186.71734899 </i>
   </energy>
  </scstep>
  <scstep>
   <time name="dav">   19.79   19.84</time>
   <time name="total">   20.41   20.47</time>
   <energy>
    <i name="e_fr_energy">   -186.88885462 </i>
    <i name="e_wo_entrp">   -186.54750278 </i>
    <i name="e_0_energy">   -186.71817870 </i>
   </energy>
  </scstep>
  <scstep>
   <time name="dav">   21.49   21.54</time>
   <time name="total">   22.10   22.16</time>
   <energy>
    <i name="e_fr_energy">   -186.89001464 </i>
    <i name="e_wo_entrp">   -186.54878302 </i>
    <i name="e_0_energy">   -186.71939883 </i>
   </energy>
  </scstep>
  <scstep>
   <time name="dav">   19.74   19.79</time>
   <time name="total">   20.36   20.41</time>
   <energy>
    <i name="e_fr_energy">   -186.89059131 </i>
    <i name="e_wo_entrp">   -186.54928820 </i>
    <i name="e_0_energy">   -186.71993976 </i>
   </energy>
  </scstep>
  <scstep>
   <time name="dav">   17.42   17.46</time>
   <time name="total">   18.04   18.09</time>
   <energy>
    <i name="e_fr_energy">   -186.89096174 </i>
    <i name="e_wo_entrp">   -186.54964151 </i>
    <i name="e_0_energy">   -186.72030163 </i>
   </energy>
  </scstep>
  <scstep>
   <time name="dav">   19.91   19.96</time>
   <time name="total">   20.53   20.59</time>
   <energy>
    <i name="e_fr_energy">   -186.89119677 </i>
    <i name="e_wo_entrp">   -186.54989900 </i>
    <i name="e_0_energy">   -186.72054789 </i>
   </energy>
  </scstep>
  <scstep>
   <time name="dav">   20.97   21.02</time>
   <time name="total">   21.01   21.07</time>
   <energy>
    <i name="alphaZ">     81.65567618 </i>
    <i name="ewald">  41890.23009643 </i>
    <i name="hartreedc"> -47833.12820563 </i>
    <i name="XCdc">   -231.59832808 </i>
    <i name="pawpsdc">   4192.16273446 </i>
    <i name="pawaedc">  -3610.18683674 </i>
    <i name="eentropy">     -0.34130121 </i>
    <i name="bandstr">  -1437.12764562 </i>
    <i name="atom">   6761.44252427 </i>
    <i name="e_fr_energy">   -186.89128594 </i>
    <i name="e_wo_entrp">   -186.54998473 </i>
    <i name="e_0_energy">   -186.72063533 </i>
   </energy>
  </scstep>
  <structure>
   <crystal>
    <varray name="basis" >
     <v>       8.66999996       5.03999989       0.00000000 </v>
     <v>      -8.66999982       5.04000013       0.00000000 </v>
     <v>       0.00000000       0.00000000      30.00000000 </v>
    </varray>
    <i name="volume">   2621.80797419 </i>
    <varray name="rec_basis" >
     <v>       0.05767013       0.09920635       0.00000000 </v>
     <v>      -0.05767013       0.09920635       0.00000000 </v>
     <v>       0.00000000       0.00000000       0.03333333 </v>
    </varray>
   </crystal>
   <varray name="positions" >
    <v>       0.66666669       0.00000000       0.00000000 </v>
    <v>       0.00000000       0.66666669       0.00000000 </v>
    <v>       0.66666669       0.33333334       0.00000000 </v>
    <v>       0.66666669       0.66666669       0.00000000 </v>
    <v>       0.33333334       0.33333334       0.00000000 </v>
    <v>       0.00000000       0.00000000       0.00000000 </v>
    <v>       1.00000000       0.33333334       0.00000000 </v>
    <v>       0.33333334       0.00000000       0.00000000 </v>
    <v>       0.33333334       0.66666669       0.00000000 </v>
    <v>       0.11068511       0.22244981       0.95539999 </v>
    <v>       0.22244981       0.11068511       0.04460000 </v>
    <v>       0.11068511       0.55578315       0.95539999 </v>
    <v>       0.22244981       0.44401845       0.04460000 </v>
    <v>       0.11068511       0.88911647       0.95539999 </v>
    <v>       0.22244981       0.77735180       0.04460000 </v>
    <v>       0.44401845       0.22244981       0.95539999 </v>
    <v>       0.55578315       0.11068511       0.04460000 </v>
    <v>       0.44401845       0.55578315       0.95539999 </v>
    <v>       0.55578315       0.44401845       0.04460000 </v>
    <v>       0.44401845       0.88911647       0.95539999 </v>
    <v>       0.55578315       0.77735180       0.04460000 </v>
    <v>       0.77735180       0.22244981       0.95539999 </v>
    <v>       0.88911647       0.11068511       0.04460000 </v>
    <v>       0.77735180       0.55578315       0.95539999 </v>
    <v>       0.88911647       0.44401845       0.04460000 </v>
    <v>       0.77735180       0.88911647       0.95539999 </v>
    <v>       0.88911647       0.77735180       0.04460000 </v>
   </varray>
  </structure>
  <varray name="forces" >
   <v>       0.35966116       0.04278392       0.08133465 </v>
   <v>      -0.43088991      -0.06510237      -0.08876446 </v>
   <v>      -0.35504992       0.02647676       0.00710129 </v>
   <v>       0.04752064       0.00828459      -0.02074587 </v>
   <v>      -0.01359406       0.00240176       0.02129823 </v>
   <v>       0.01074569      -0.01879507      -0.11582715 </v>
   <v>       0.40406664      -0.08523674      -0.00019004 </v>
   <v>      -0.50841894       0.07830310       0.03569372 </v>
   <v>       0.55021330      -0.00477494       0.12184349 </v>
   <v>      -0.03387490      -0.00398144      -2.91242472 </v>
   <v>       0.04424078       0.02323986       2.89245758 </v>
   <v>      -0.63952257      -0.00146406      -2.10789906 </v>
   <v>      -0.27821083       0.02568055       2.93582641 </v>
   <v>       0.61715291      -0.57533652      -2.19974055 </v>
   <v>      -0.45219231      -0.56607243       2.11326462 </v>
   <v>       0.61012574       0.54598736      -2.17397474 </v>
   <v>       0.25742389       0.51250131       1.41053341 </v>
   <v>      -0.02448620      -0.00932428      -2.91019406 </v>
   <v>       0.73981933      -0.00394312       2.10644374 </v>
   <v>       0.45738463       0.57169767      -2.11723792 </v>
   <v>      -0.64836909       0.55966653       2.19485132 </v>
   <v>      -0.23585603      -0.51860027      -1.39298141 </v>
   <v>      -0.64584544      -0.57132922       2.16965944 </v>
   <v>       0.90978337       0.01631212      -1.48624272 </v>
   <v>      -0.74687304       0.00252691       1.43282466 </v>
   <v>      -0.72967736       0.01517224      -2.10483982 </v>
   <v>       0.73472254      -0.00707421       2.10792995 </v>
  </varray>
  <varray name="stress" >
   <v>       7.48476275      -0.00408644      -1.57211649 </v>
   <v>      -0.00408643       4.27104358      -0.05335104 </v>
   <v>      -1.57211635      -0.05335106      30.28639959 </v>
  </varray>
  <energy>
   <i name="e_fr_energy">   -186.89128594 </i>
   <i name="e_wo_entrp">   -186.72063533 </i>
   <i name="e_0_energy">     -0.34130121 </i>
  </energy>
  <time name="totalsc">  820.19  822.38</time>
 </calculation>
 <calculation>
  <scstep>
   <time name="dav">   22.79   22.84</time>
   <time name="total">   23.41   23.47</time>
   <energy>
    <i name="alphaZ">     78.92138825 </i>
    <i name="ewald">  39380.44192519 </i>
    <i name="hartreedc"> -45338.04055300 </i>
    <i name="XCdc">   -239.05070131 </i>
    <i name="pawpsdc">   4192.14599488 </i>
    <i name="pawaedc">  -3610.17019351 </i>
    <i name="eentropy">     -0.27577790 </i>
    <i name="bandstr">  -1412.94878429 </i>
    <i name="atom">   6761.44252427 </i>
    <i name="e_fr_energy">   -187.53417742 </i>
    <i name="e_wo_entrp">   -187.25839952 </i>
    <i name="e_0_energy">   -187.39628847 </i>
   </energy>
  </scstep>
  <scstep>
   <time name="dav">   31.80   31.88</time>
   <time name="total">   32.42   32.50</time>
   <energy>
    <i name="e_fr_energy">   -189.60392297 </i>
    <i name="e_wo_entrp">   -189.26669608 </i>
    <i name="e_0_energy">   -189.43530952 </i>
   </energy>
  </scstep>
  <scstep>
   <time name="dav">   31.83   31.90</time>
   <time name="total">   32.46   32.54</time>
   <energy>
    <i name="e_fr_energy">   -189.34613509 </i>
    <i name="e_wo_entrp">   -189.07736229 </i>
    <i name="e_0_energy">   -189.21174869 </i>
   </energy>
  </scstep>
  <scstep>
   <time name="dav">   32.16   32.24</time>
   <time name="total">   32.78   32.87</time>
   <energy>
    <i name="e_fr_energy">   -188.78897597 </i>
    <i name="e_wo_entrp">   -188.51126088 </i>
    <i name="e_0_energy">   -188.65011843 </i>
   </energy>
  </scstep>
  <scstep>
   <time name="dav">   31.09   31.17</time>
   <time name="total">   31.72   31.80</time>
   <energy>
    <i name="e_fr_energy">   -188.90140937 </i>
    <i name="e_wo_entrp">   -188.61310275 </i>
    <i name="e_0_energy">   -188.75725606 </i>
   </energy>
  </scstep>
  <scstep>
   <time name="dav">   32.39   32.47</time>
   <time name="total">   33.01   33.10</time>
   <energy>
    <i name="e_fr_energy">   -188.75121937 </i>
    <i name="e_wo_entrp">   -188.47488414 </i>
    <i name="e_0_energy">   -188.61305176 </i>
   </energy>
  </scstep>
  <scstep>
   <time name="dav">   30.74   30.81</time>
   <time name="total">   31.37   31.45</time>
   <energy>
    <i name="e_fr_energy">   -188.74025632 </i>
    <i name="e_wo_entrp">   -188.46107664 </i>
    <i name="e_0_energy">   -188.60066648 </i>
   </energy>
  </scstep>
  <scstep>
   <time name="dav">   34.67   34.75</time>
   <time name="total">   35.29   35.39</time>
   <energy>
    <i name="e_fr_energy">   -188.71179874 </i>
    <i name="e_wo_entrp">   -188.43349773 </i>
    <i name="e_0_energy">   -188.57264823 </i>
   </energy>
  </scstep>
  <scstep>
   <time name="dav">   28.85   28.92</time>
   <time name="total">   29.48   29.56</time>
   <energy>
    <i name="e_fr_energy">   -188.70286881 </i>
    <i name="e_wo_entrp">   -188.42617147 </i>
    <i name="e_0_energy">   -188.56452014 </i>
   </energy>
  </scstep>
  <scstep>
   <time name="dav">   30.87   30.95</time>
   <time name="total">   31.50   31.58</time>
   <energy>
    <i name="e_fr_energy">   -188.70278226 </i>
    <i name="e_wo_entrp">   -188.42595262 </i>
    <i name="e_0_energy">   -188.56436744 </i>
   </energy>
  </scstep>
  <scstep>
   <time name="dav">   30.21   30.29</time>
   <time name="total">   30.84   30.92</time>
   <energy>
    <i name="e_fr_energy">   -188.70224221 </i>
    <i name="e_wo_entrp">   -188.42584882 </i>
    <i name="e_0_energy">   -188.56404551 </i>
   </energy>
  </scstep>
  <scstep>
   <time name="dav">   29.72   29.79</time>
   <time name="total">   30.34   30.42</time>
   <energy>
    <i name="e_fr_energy">   -188.70238433 </i>
    <i name="e_wo_entrp">   -188.42599304 </i>
    <i name="e_0_energy">   -188.56418868 </i>
   </energy>
  </scstep>
  <scstep>
   <time name="dav">   22.62   22.68</time>
   <time name="total">   22.66   22.72</time>
   <energy>
    <i name="alphaZ">     78.92138825 </i>
    <i name="ewald">  39380.44192519 </i>
    <i name="hartreedc"> -45348.73671387 </i>
    <i name="XCdc">   -237.96840099 </i>
    <i name="pawpsdc">   3950.66712768 </i>
    <i name="pawaedc">  -3365.18563996 </i>
    <i name="eentropy">     -0.27644660 </i>
    <i name="bandstr">  -1408.00805419 </i>
    <i name="atom">   6761.44252427 </i>
    <i name="e_fr_energy">   -188.70229021 </i>
    <i name="e_wo_entrp">   -188.42584361 </i>
    <i name="e_0_energy">   -188.56406691 </i>
   </energy>
  </scstep>
  <structure>
   <crystal>
    <varray name="basis" >
     <v>       8.85967798       5.10283565       0.00000000 </v>
     <v>      -8.85979827       5.10304308       0.00000000 </v>
     <v>       0.00000000       0.00000000      30.00000000 </v>
    </varray>
    <i name="volume">   2712.64238620 </i>
    <varray name="rec_basis" >
     <v>       0.05643622       0.09798341       0.00000000 </v>
     <v>      -0.05643393       0.09798208       0.00000000 </v>
     <v>       0.00000000       0.00000000       0.03333333 </v>
    </varray>
   </crystal>
   <varray name="positions" >
    <v>       0.66787208      -0.00079587       0.00013079 </v>
    <v>      -0.00151038       0.66755391      -0.00014274 </v>
    <v>       0.66580560       0.33444787       0.00001142 </v>
    <v>       0.66683855       0.66657413      -0.00003336 </v>
    <v>       0.33330702       0.33338266       0.00003425 </v>
    <v>      -0.00006006      -0.00011985      -0.00018626 </v>
    <v>       1.00071624       0.33180122      -0.00000031 </v>
    <v>       0.33229360       0.00178926       0.00005740 </v>
    <v>       0.33484127       0.66511305       0.00019594 </v>
    <v>       0.11057181       0.22252500       0.95071655 </v>
    <v>       0.22268412       0.11067325       0.04925133 </v>
    <v>       0.10889885       0.55755540       0.95201030 </v>
    <v>       0.22179869       0.44491539       0.04932107 </v>
    <v>       0.10964858       0.88464590       0.95186261 </v>
    <v>       0.21848253       0.77590066       0.04799832 </v>
    <v>       0.44832900       0.22336543       0.95190405 </v>
    <v>       0.55895217       0.11242174       0.04686826 </v>
    <v>       0.44390570       0.55580665       0.95072014 </v>
    <v>       0.55782258       0.44194129       0.04798735 </v>
    <v>       0.44802710       0.89058008       0.95199528 </v>
    <v>       0.55665784       0.78183421       0.04812951 </v>
    <v>       0.77421360       0.22062399       0.95315995 </v>
    <v>       0.88458525       0.10974759       0.04808900 </v>
    <v>       0.77996103       0.55333006       0.95300998 </v>
    <v>       0.88705064       0.44610847       0.04690411 </v>
    <v>       0.77539433       0.89121916       0.95201522 </v>
    <v>       0.89112672       0.77527382       0.04798974 </v>
   </varray>
  </structure>
  <varray name="forces" >
   <v>       0.32500089       0.00152597      -0.06862633 </v>
   <v>      -0.40475762      -0.00353773       0.05264665 </v>
   <v>      -0.30069427      -0.00383476       0.08602064 </v>
   <v>      -0.13528629      -0.07832159       0.00409320 </v>
   <v>      -0.19625065      -0.07786693       0.01219962 </v>
   <v>       0.05670872       0.15414391      -0.04011389 </v>
   <v>       0.52997614       0.09616579      -0.10316244 </v>
   <v>      -0.56271264       0.00990359       0.08694145 </v>
   <v>       0.62268031      -0.08886025      -0.06977622 </v>
   <v>      -0.13959443      -0.00291732      -0.16436209 </v>
   <v>       0.13360018      -0.00222801       0.13357538 </v>
   <v>       0.10027338      -0.00239072       0.21614612 </v>
   <v>      -0.08593214       0.00503547       0.15703363 </v>
   <v>       0.06897324       0.04294190      -0.10144394 </v>
   <v>       0.05857651       0.06251230      -0.25947107 </v>
   <v>       0.07514235      -0.04887511      -0.05582917 </v>
   <v>      -0.07060444      -0.07513140      -0.20018946 </v>
   <v>      -0.13956493      -0.00347824      -0.13227366 </v>
   <v>       0.07290490       0.01075219       0.07077777 </v>
   <v>      -0.06049426      -0.06212554       0.29872865 </v>
   <v>      -0.07393868      -0.03681008       0.10104312 </v>
   <v>       0.06238107       0.07663598       0.23370848 </v>
   <v>      -0.07512702       0.03747296       0.06168977 </v>
   <v>       0.03420419      -0.00190270      -0.01817726 </v>
   <v>       0.11173641      -0.00758658      -0.26929601 </v>
   <v>      -0.06131763       0.00264852      -0.07797108 </v>
   <v>       0.05411670      -0.00387163       0.04608814 </v>
  </varray>
  <varray name="stress" >
   <v>     -19.94352544      -0.00512894       0.17051966 </v>
   <v>      -0.00512892     -19.43135493      -0.00940153 </v>
   <v>       0.17051961      -0.00940119      -1.75457861 </v>
  </varray>
  <energy>
   <i name="e_fr_energy">   -188.70229021 </i>
   <i name="e_wo_entrp">   -188.56406691 </i>
   <i name="e_0_energy">     -0.27644660 </i>
  </energy>
  <time name="totalsc">  440.88  442.05</time>
 </calculation>
 <calculation>
  <scstep>
   <time name="dav">   24.84   24.90</time>
   <time name="total">   25.46   25.52</time>
   <energy>
    <i name="alphaZ">     82.35390618 </i>
    <i name="ewald">  41308.34727665 </i>
    <i name="hartreedc"> -47307.09769342 </i>
    <i name="XCdc">   -233.83773255 </i>
    <i name="pawpsdc">   3949.53670512 </i>
    <i name="pawaedc">  -3364.04462563 </i>
    <i name="eentropy">     -0.23218397 </i>
    <i name="bandstr">  -1387.10090184 </i>
    <i name="atom">   6761.44252427 </i>
    <i name="e_fr_energy">   -190.63272519 </i>
    <i name="e_wo_entrp">   -190.40054122 </i>
    <i name="e_0_energy">   -190.51663321 </i>
   </energy>
  </scstep>
  <scstep>
   <time name="dav">   29.35   29.42</time>
   <time name="total">   29.96   30.04</time>
   <energy>
    <i name="e_fr_energy">   -190.58337492 </i>
    <i name="e_wo_entrp">   -190.35504015 </i>
    <i name="e_0_energy">   -190.46920754 </i>
   </energy>
  </scstep>
  <scstep>
   <time name="dav">   31.82   31.89</time>
   <time name="total">   32.43   32.51</time>
   <energy>
    <i name="e_fr_energy">   -190.11559845 </i>
    <i name="e_wo_entrp">   -189.86664131 </i>
    <i name="e_0_energy">   -189.99111988 </i>
   </energy>
  </scstep>
  <scstep>
   <time name="dav">   32.47   32.54</time>
   <time name="total">   33.08   33.17</time>
   <energy>
    <i name="e_fr_energy">   -189.90216099 </i>
    <i name="e_wo_entrp">   -189.67392586 </i>
    <i name="e_0_energy">   -189.78804342 </i>
   </energy>
  </scstep>
  <scstep>
   <time name="dav">   31.70   31.78</time>
   <time name="total">   32.31   32.40</time>
   <energy>
    <i name="e_fr_energy">   -189.85898274 </i>
    <i name="e_wo_entrp">   -189.62420655 </i>
    <i name="e_0_energy">   -189.74159464 </i>
   </energy>
  </scstep>
  <scstep>
   <time name="dav">   32.66   32.74</time>
   <time name="total">   33.28   33.36</time>
   <energy>
    <i name="e_fr_energy">   -189.80419053 </i>
    <i name="e_wo_entrp">   -189.57022117 </i>
    <i name="e_0_energy">   -189.68720585 </i>
   </energy>
  </scstep>
  <scstep>
   <time name="dav">   30.03   30.10</time>
   <time name="total">   30.64   30.72</time>
   <energy>
    <i name="e_fr_energy">   -189.79734561 </i>
    <i name="e_wo_entrp">   -189.56476657 </i>
    <i name="e_0_energy">   -189.68105609 </i>
   </energy>
  </scstep>
  <scstep>
   <time name="dav">   32.01   32.09</time>
   <time name="total">   32.63   32.71</time>
   <energy>
    <i name="e_fr_energy">   -189.79805406 </i>
    <i name="e_wo_entrp">   -189.56532741 </i>
    <i name="e_0_energy">   -189.68169074 </i>
   </energy>
  </scstep>
  <scstep>
   <time name="dav">   28.32   28.38</time>
   <time name="total">   28.92   29.00</time>
   <energy>
    <i name="e_fr_energy">   -189.79735625 </i>
    <i name="e_wo_entrp">   -189.56452497 </i>
    <i name="e_0_energy">   -189.68094061 </i>
   </energy>
  </scstep>
  <scstep>
   <time name="dav">   26.24   26.31</time>
   <time name="total">   26.86   26.93</time>
   <energy>
    <i name="e_fr_energy">   -189.79766052 </i>
    <i name="e_wo_entrp">   -189.56482991 </i>
    <i name="e_0_energy">   -189.68124521 </i>
   </energy>
  </scstep>
  <scstep>
   <time name="dav">   25.14   25.20</time>
   <time name="total">   25.76   25.83</time>
   <energy>
    <i name="e_fr_energy">   -189.79737375 </i>
    <i name="e_wo_entrp">   -189.56442802 </i>
    <i name="e_0_energy">   -189.68090088 </i>
   </energy>
  </scstep>
  <scstep>
   <time name="dav">   21.07   21.12</time>
   <time name="total">   21.10   21.16</time>
   <energy>
    <i name="alphaZ">     82.35390618 </i>
    <i name="ewald">  41308.34727665 </i>
    <i name="hartreedc"> -47280.59513214 </i>
    <i name="XCdc">   -235.23189161 </i>
    <i name="pawpsdc">   4039.19577060 </i>
    <i name="pawaedc">  -3454.91026424 </i>
    <i name="eentropy">     -0.23292040 </i>
    <i name="bandstr">  -1410.16667004 </i>
    <i name="atom">   6761.44252427 </i>
    <i name="e_fr_energy">   -189.79740072 </i>
    <i name="e_wo_entrp">   -189.56448032 </i>
    <i name="e_0_energy">   -189.68094052 </i>
   </energy>
  </scstep>
  <structure>
   <crystal>
    <varray name="basis" >
     <v>       8.67062195       4.99671009       0.00000000 </v>
     <v>      -8.67079567       4.99701043       0.00000000 </v>
     <v>       0.00000000       0.00000000      30.00000000 </v>
    </varray>
    <i name="volume">   2599.57921680 </i>
    <varray name="rec_basis" >
     <v>       0.05766715       0.10006384       0.00000000 </v>
     <v>      -0.05766368       0.10006183       0.00000000 </v>
     <v>       0.00000000       0.00000000       0.03333333 </v>
    </varray>
   </crystal>
   <varray name="positions" >
    <v>       0.66818755      -0.00110623       0.00009177 </v>
    <v>      -0.00190601       0.66793769      -0.00011280 </v>
    <v>       0.66550967       0.33473096       0.00006034 </v>
    <v>       0.66657736       0.66657345      -0.00003103 </v>
    <v>       0.33298790       0.33344144       0.00004119 </v>
    <v>       0.00025222       0.00008322      -0.00020907 </v>
    <v>       1.00138726       0.33145172      -0.00005897 </v>
    <v>       0.33176836       0.00234758       0.00010684 </v>
    <v>       0.33529226       0.66436501       0.00015625 </v>
    <v>       0.11043253       0.22265452       0.95062308 </v>
    <v>       0.22280903       0.11054090       0.04932729 </v>
    <v>       0.10899140       0.55745486       0.95213322 </v>
    <v>       0.22172437       0.44500654       0.04941037 </v>
    <v>       0.10978677       0.88465128       0.95180492 </v>
    <v>       0.21864342       0.77594876       0.04785076 </v>
    <v>       0.44831965       0.22321138       0.95187230 </v>
    <v>       0.55875860       0.11236412       0.04675442 </v>
    <v>       0.44376551       0.55593521       0.95064492 </v>
    <v>       0.55791074       0.44188907       0.04802760 </v>
    <v>       0.44786501       0.89053447       0.95216516 </v>
    <v>       0.55652511       0.78184387       0.04818697 </v>
    <v>       0.77440177       0.22069204       0.95329286 </v>
    <v>       0.88457556       0.10988256       0.04812408 </v>
    <v>       0.77999078       0.55329395       0.95299964 </v>
    <v>       0.88714554       0.44598821       0.04675096 </v>
    <v>       0.77533972       0.89128262       0.95197088 </v>
    <v>       0.89117236       0.77521525       0.04801595 </v>
   </varray>
  </structure>
  <varray name="forces" >
   <v>       0.34391957      -0.02090431      -0.08315697 </v>
   <v>      -0.40975724       0.04008927       0.07424697 </v>
   <v>      -0.30061367      -0.02764122       0.08474714 </v>
   <v>      -0.19698377      -0.10304614       0.01329261 </v>
   <v>      -0.25986244      -0.10509850       0.00682573 </v>
   <v>       0.07514656       0.20245741      -0.01073007 </v>
   <v>       0.57433734       0.16076099      -0.08908193 </v>
   <v>      -0.57597456      -0.02239616       0.06901076 </v>
   <v>       0.65287279      -0.12588969      -0.08870816 </v>
   <v>      -0.04020472      -0.00175466      -0.73919461 </v>
   <v>       0.02877353      -0.00377138       0.70126723 </v>
   <v>      -0.04453779       0.00157597      -0.26961635 </v>
   <v>      -0.00863630      -0.00339865       0.74665928 </v>
   <v>       0.06445977      -0.08686732      -0.62286183 </v>
   <v>       0.00136395      -0.05663602       0.20918391 </v>
   <v>       0.06194875       0.08682248      -0.56462832 </v>
   <v>       0.01072035       0.05673514       0.24692229 </v>
   <v>      -0.03407680       0.00028105      -0.70053709 </v>
   <v>       0.13431527       0.01357431       0.55592700 </v>
   <v>      -0.00762957       0.05085577      -0.16817657 </v>
   <v>      -0.05828585       0.09896718       0.62365127 </v>
   <v>      -0.02084196      -0.04933347      -0.21012962 </v>
   <v>      -0.05906326      -0.08932694       0.56812685 </v>
   <v>       0.09913069      -0.00510321      -0.47647111 </v>
   <v>      -0.02081050      -0.00615970       0.16559989 </v>
   <v>      -0.12208019       0.00007191      -0.56485179 </v>
   <v>       0.11237005      -0.00486411       0.52268349 </v>
  </varray>
  <varray name="stress" >
   <v>     -10.17494407       0.01234858       0.17093419 </v>
   <v>       0.01234879      -9.76083149       0.00276436 </v>
   <v>       0.17093436       0.00276416       6.51845398 </v>
  </varray>
  <energy>
   <i name="e_fr_energy">   -189.79740072 </i>
   <i name="e_wo_entrp">   -189.68094052 </i>
   <i name="e_0_energy">     -0.23292040 </i>
  </energy>
  <time name="totalsc">  396.05  397.09</time>
 </calculation>
 <calculation>
  <scstep>
   <time name="dav">   22.77   22.82</time>
   <time name="total">   23.37   23.43</time>
   <energy>
    <i name="alphaZ">     85.82305202 </i>
    <i name="ewald">  42834.48378188 </i>
    <i name="hartreedc"> -48851.14089042 </i>
    <i name="XCdc">   -232.95763986 </i>
    <i name="pawpsdc">   4039.30107114 </i>
    <i name="pawaedc">  -3455.01346594 </i>
    <i name="eentropy">     -0.19156695 </i>
    <i name="bandstr">  -1373.11872890 </i>
    <i name="atom">   6761.44252427 </i>
    <i name="e_fr_energy">   -191.37186276 </i>
    <i name="e_wo_entrp">   -191.18029581 </i>
    <i name="e_0_energy">   -191.27607928 </i>
   </energy>
  </scstep>
  <scstep>
   <time name="dav">   34.06   34.14</time>
   <time name="total">   34.66   34.75</time>
   <energy>
    <i name="e_fr_energy">   -191.18849641 </i>
    <i name="e_wo_entrp">   -190.99900332 </i>
    <i name="e_0_energy">   -191.09374987 </i>
   </energy>
  </scstep>
  <scstep>
   <time name="dav">   31.45   31.52</time>
   <time name="total">   32.05   32.13</time>
   <energy>
    <i name="e_fr_energy">   -191.34502166 </i>
    <i name="e_wo_entrp">   -191.12106727 </i>
    <i name="e_0_energy">   -191.23304447 </i>
   </energy>
  </scstep>
  <scstep>
   <time name="dav">   31.98   32.06</time>
   <time name="total">   32.58   32.67</time>
   <energy>
    <i name="e_fr_energy">   -190.94341247 </i>
    <i name="e_wo_entrp">   -190.75259175 </i>
    <i name="e_0_energy">   -190.84800211 </i>
   </energy>
  </scstep>
  <scstep>
   <time name="dav">   31.62   31.70</time>
   <time name="total">   32.22   32.31</time>
   <energy>
    <i name="e_fr_energy">   -190.90092452 </i>
    <i name="e_wo_entrp">   -190.70637105 </i>
    <i name="e_0_energy">   -190.80364778 </i>
   </energy>
  </scstep>
  <scstep>
   <time name="dav">   31.71   31.78</time>
   <time name="total">   32.31   32.40</time>
   <energy>
    <i name="e_fr_energy">   -190.81464381 </i>
    <i name="e_wo_entrp">   -190.61650304 </i>
    <i name="e_0_energy">   -190.71557343 </i>
   </energy>
  </scstep>
  <scstep>
   <time name="dav">   32.23   32.31</time>
   <time name="total">   32.83   32.92</time>
   <energy>
    <i name="e_fr_energy">   -190.80285225 </i>
    <i name="e_wo_entrp">   -190.60876276 </i>
    <i name="e_0_energy">   -190.70580751 </i>
   </energy>
  </scstep>
  <scstep>
   <time name="dav">   27.42   27.48</time>
   <time name="total">   28.02   28.09</time>
   <energy>
    <i name="e_fr_energy">   -190.79947429 </i>
    <i name="e_wo_entrp">   -190.60420359 </i>
    <i name="e_0_energy">   -190.70183894 </i>
   </energy>
  </scstep>
  <scstep>
   <time name="dav">   31.31   31.39</time>
   <time name="total">   31.91   31.99</time>
   <energy>
    <i name="e_fr_energy">   -190.80017590 </i>
    <i name="e_wo_entrp">   -190.60466630 </i>
    <i name="e_0_energy">   -190.70242110 </i>
   </energy>
  </scstep>
  <scstep>
   <time name="dav">   29.33   29.40</time>
   <time name="total">   29.93   30.01</time>
   <energy>
    <i name="e_fr_energy">   -190.79970789 </i>
    <i name="e_wo_entrp">   -190.60415086 </i>
    <i name="e_0_energy">   -190.70192937 </i>
   </energy>
  </scstep>
  <scstep>
   <time name="dav">   26.83   26.90</time>
   <time name="total">   27.43   27.51</time>
   <energy>
    <i name="e_fr_energy">   -190.79958735 </i>
    <i name="e_wo_entrp">   -190.60411991 </i>
    <i name="e_0_energy">   -190.70185363 </i>
   </energy>
  </scstep>
  <scstep>
   <time name="dav">   21.15   21.20</time>
   <time name="total">   21.19   21.25</time>
   <energy>
    <i name="alphaZ">     85.82305202 </i>
    <i name="ewald">  42834.48378188 </i>
    <i name="hartreedc"> -48822.57676424 </i>
    <i name="XCdc">   -234.28580996 </i>
    <i name="pawpsdc">   4064.10055170 </i>
    <i name="pawaedc">  -3479.98385159 </i>
    <i name="eentropy">     -0.19550832 </i>
    <i name="bandstr">  -1399.60755566 </i>
    <i name="atom">   6761.44252427 </i>
    <i name="e_fr_energy">   -190.79957989 </i>
    <i name="e_wo_entrp">   -190.60407157 </i>
    <i name="e_0_energy">   -190.70182573 </i>
   </energy>
  </scstep>
  <structure>
   <crystal>
    <varray name="basis" >
     <v>       8.48818792       4.89863273       0.00000000 </v>
     <v>      -8.48762424       4.89765395       0.00000000 </v>
     <v>       0.00000000       0.00000000      30.00000000 </v>
    </varray>
    <i name="volume">   2494.49883088 </i>
    <varray name="rec_basis" >
     <v>       0.05890146       0.10207611       0.00000000 </v>
     <v>      -0.05891323       0.10208289       0.00000000 </v>
     <v>       0.00000000       0.00000000       0.03333333 </v>
    </varray>
   </crystal>
   <varray name="positions" >
    <v>       0.66927052      -0.00256262      -0.00009269 </v>
    <v>      -0.00303402       0.66978496       0.00005918 </v>
    <v>       0.66419120       0.33558455       0.00023473 </v>
    <v>       0.66506999       0.66666611       0.00000426 </v>
    <v>       0.33123149       0.33374492       0.00005078 </v>
    <v>       0.00193920       0.00117439      -0.00020645 </v>
    <v>       1.00469412       0.33048133      -0.00023152 </v>
    <v>       0.32944763       0.00422691       0.00023457 </v>
    <v>       0.33681333       0.66108191      -0.00004342 </v>
    <v>       0.11042137       0.22264945       0.94860674 </v>
    <v>       0.22273551       0.11055947       0.05125907 </v>
    <v>       0.10864299       0.55784272       0.95116442 </v>
    <v>       0.22176152       0.44488488       0.05145468 </v>
    <v>       0.10914621       0.88355785       0.95007459 </v>
    <v>       0.21791546       0.77537468       0.04867998 </v>
    <v>       0.44940596       0.22388778       0.95027320 </v>
    <v>       0.55959695       0.11289225       0.04764357 </v>
    <v>       0.44380444       0.55591848       0.94871416 </v>
    <v>       0.55857603       0.44140801       0.04958869 </v>
    <v>       0.44851256       0.89108585       0.95142233 </v>
    <v>       0.55729459       0.78298972       0.04991995 </v>
    <v>       0.77358517       0.22026424       0.95248266 </v>
    <v>       0.88351019       0.10919803       0.04972843 </v>
    <v>       0.78040193       0.55280295       0.95162576 </v>
    <v>       0.88684561       0.44621799       0.04746141 </v>
    <v>       0.77480572       0.89180469       0.95038985 </v>
    <v>       0.89162878       0.77469295       0.04950098 </v>
   </varray>
  </structure>
  <varray name="forces" >
   <v>       0.36428681      -0.01477388      -0.07784750 </v>
   <v>      -0.47876284       0.07191705       0.07107309 </v>
   <v>      -0.28065863      -0.04955378       0.04729539 </v>
   <v>      -0.23553881      -0.11209300       0.01470271 </v>
   <v>      -0.31401486      -0.13346537      -0.01325959 </v>
   <v>       0.09947417       0.23960441       0.02605287 </v>
   <v>       0.59075888       0.18282020      -0.01334709 </v>
   <v>      -0.64712481      -0.01440734      -0.00521546 </v>
   <v>       0.73528615      -0.17171805      -0.03164182 </v>
   <v>       0.07002362      -0.00815929      -0.59983918 </v>
   <v>      -0.07703103       0.01679533       0.54586351 </v>
   <v>       0.01667232       0.00044533      -0.11760604 </v>
   <v>       0.04047046      -0.00086930       0.59140952 </v>
   <v>      -0.01779517      -0.03822565      -0.48555695 </v>
   <v>       0.04491071       0.00319066       0.02422273 </v>
   <v>      -0.03403648       0.03155735      -0.37718589 </v>
   <v>      -0.01617489       0.00427550       0.14664804 </v>
   <v>       0.10027753      -0.00686084      -0.56672445 </v>
   <v>      -0.00445157      -0.00283121       0.39269673 </v>
   <v>      -0.03385604      -0.02259779       0.02130857 </v>
   <v>       0.00152477       0.02540071       0.47207349 </v>
   <v>       0.02489100       0.02091431      -0.08861363 </v>
   <v>       0.01927894      -0.00941997       0.37487973 </v>
   <v>      -0.00933887      -0.01182887      -0.37537158 </v>
   <v>       0.05082227      -0.00122332       0.05584181 </v>
   <v>       0.01867498       0.01313494      -0.39710764 </v>
   <v>      -0.02856861      -0.01202814       0.36524862 </v>
  </varray>
  <varray name="stress" >
   <v>      -5.63192479       0.00709401      -0.12069111 </v>
   <v>       0.00709383      -5.91102945       0.04470164 </v>
   <v>      -0.12069116       0.04470158       4.52457695 </v>
  </varray>
  <energy>
   <i name="e_fr_energy">   -190.79957989 </i>
   <i name="e_wo_entrp">   -190.70182573 </i>
   <i name="e_0_energy">     -0.19550832 </i>
  </energy>
  <time name="totalsc">  402.19  403.25</time>
 </calculation>
 <calculation>
  <scstep>
   <time name="dav">   22.82   22.88</time>
   <time name="total">   23.42   23.48</time>
   <energy>
    <i name="alphaZ">     90.15969952 </i>
    <i name="ewald">  44668.84632060 </i>
    <i name="hartreedc"> -50711.64562101 </i>
    <i name="XCdc">   -231.80721226 </i>
    <i name="pawpsdc">   4064.05454452 </i>
    <i name="pawaedc">  -3479.93369001 </i>
    <i name="eentropy">     -0.16501504 </i>
    <i name="bandstr">  -1353.19277284 </i>
    <i name="atom">   6761.44252427 </i>
    <i name="e_fr_energy">   -192.24122224 </i>
    <i name="e_wo_entrp">   -192.07620720 </i>
    <i name="e_0_energy">   -192.15871472 </i>
   </energy>
  </scstep>
  <scstep>
   <time name="dav">   28.97   29.04</time>
   <time name="total">   29.56   29.64</time>
   <energy>
    <i name="e_fr_energy">   -191.97119802 </i>
    <i name="e_wo_entrp">   -191.79495318 </i>
    <i name="e_0_energy">   -191.88307560 </i>
   </energy>
  </scstep>
  <scstep>
   <time name="dav">   31.56   31.64</time>
   <time name="total">   32.16   32.24</time>
   <energy>
    <i name="e_fr_energy">   -192.04499681 </i>
    <i name="e_wo_entrp">   -191.86295195 </i>
    <i name="e_0_energy">   -191.95397438 </i>
   </energy>
  </scstep>
  <scstep>
   <time name="dav">   31.03   31.10</time>
   <time name="total">   31.62   31.71</time>
   <energy>
    <i name="e_fr_energy">   -191.85007454 </i>
    <i name="e_wo_entrp">   -191.67206537 </i>
    <i name="e_0_energy">   -191.76106995 </i>
   </energy>
  </scstep>
  <scstep>
   <time name="dav">   31.91   31.98</time>
   <time name="total">   32.50   32.59</time>
   <energy>
    <i name="e_fr_energy">   -191.59768041 </i>
    <i name="e_wo_entrp">   -191.42778350 </i>
    <i name="e_0_energy">   -191.51273195 </i>
   </energy>
  </scstep>
  <scstep>
   <time name="dav">   32.39   32.47</time>
   <time name="total">   32.98   33.07</time>
   <energy>
    <i name="e_fr_energy">   -191.58512133 </i>
    <i name="e_wo_entrp">   -191.40258693 </i>
    <i name="e_0_energy">   -191.49385413 </i>
   </energy>
  </scstep>
  <scstep>
   <time name="dav">   31.92   32.00</time>
   <time name="total">   32.52   32.61</time>
   <energy>
    <i name="e_fr_energy">   -191.56744930 </i>
    <i name="e_wo_entrp">   -191.40024477 </i>
    <i name="e_0_energy">   -191.48384704 </i>
   </energy>
  </scstep>
  <scstep>
   <time name="dav">   30.62   30.70</time>
   <time name="total">   31.22   31.30</time>
   <energy>
    <i name="e_fr_energy">   -191.56085100 </i>
    <i name="e_wo_entrp">   -191.38900648 </i>
    <i name="e_0_energy">   -191.47492874 </i>
   </energy>
  </scstep>
  <scstep>
   <time name="dav">   30.64   30.72</time>
   <time name="total">   31.24   31.32</time>
   <energy>
    <i name="e_fr_energy">   -191.55969320 </i>
    <i name="e_wo_entrp">   -191.38741269 </i>
    <i name="e_0_energy">   -191.47355295 </i>
   </energy>
  </scstep>
  <scstep>
   <time name="dav">   30.07   30.14</time>
   <time name="total">   30.67   30.75</time>
   <energy>
    <i name="e_fr_energy">   -191.55973110 </i>
    <i name="e_wo_entrp">   -191.38727981 </i>
    <i name="e_0_energy">   -191.47350546 </i>
   </energy>
  </scstep>
  <scstep>
   <time name="dav">   28.37   28.44</time>
   <time name="total">   28.41   28.49</time>
   <energy>
    <i name="alphaZ">     90.15969952 </i>
    <i name="ewald">  44668.84632060 </i>
    <i name="hartreedc"> -50677.43698015 </i>
    <i name="XCdc">   -233.32449190 </i>
    <i name="pawpsdc">   4087.69207056 </i>
    <i name="pawaedc">  -3503.67405926 </i>
    <i name="eentropy">     -0.17264756 </i>
    <i name="bandstr">  -1385.09211726 </i>
    <i name="atom">   6761.44252427 </i>
    <i name="e_fr_energy">   -191.55968117 </i>
    <i name="e_wo_entrp">   -191.38703362 </i>
    <i name="e_0_energy">   -191.47335739 </i>
   </energy>
  </scstep>
  <structure>
   <crystal>
    <varray name="basis" >
     <v>       8.28837627       4.77637547       0.00000000 </v>
     <v>      -8.28700190       4.77399257       0.00000000 </v>
     <v>       0.00000000       0.00000000      30.00000000 </v>
    </varray>
    <i name="volume">   2374.51437917 </i>
    <varray name="rec_basis" >
     <v>       0.06031540       0.10469933       0.00000000 </v>
     <v>      -0.06034550       0.10471669       0.00000000 </v>
     <v>       0.00000000       0.00000000       0.03333333 </v>
    </varray>
   </crystal>
   <varray name="positions" >
    <v>       0.67156540      -0.00535876      -0.00041495 </v>
    <v>      -0.00537100       0.67399653       0.00036042 </v>
    <v>       0.66159226       0.33692725       0.00043868 </v>
    <v>       0.66196312       0.66696219       0.00006999 </v>
    <v>       0.32735677       0.33434206       0.00000402 </v>
    <v>       0.00560097       0.00343853      -0.00009536 </v>
    <v>       1.01120725       0.32866378      -0.00030984 </v>
    <v>       0.32471483       0.00840750       0.00023556 </v>
    <v>       0.33980041       0.65389560      -0.00021518 </v>
    <v>       0.11088035       0.22202082       0.94563442 </v>
    <v>       0.22229515       0.11132988       0.05402095 </v>
    <v>       0.10848806       0.55803408       0.95016385 </v>
    <v>       0.22208317       0.44448711       0.05441613 </v>
    <v>       0.10819119       0.88271169       0.94760275 </v>
    <v>       0.21770588       0.77480479       0.04931465 </v>
    <v>       0.45008472       0.22490366       0.94821297 </v>
    <v>       0.56014306       0.11335259       0.04869480 </v>
    <v>       0.44448524       0.55511613       0.94588099 </v>
    <v>       0.55877292       0.44121155       0.05167491 </v>
    <v>       0.44854681       0.89137280       0.95096580 </v>
    <v>       0.55807743       0.78381255       0.05234735 </v>
    <v>       0.77337047       0.22005522       0.95165145 </v>
    <v>       0.88300166       0.10851567       0.05178038 </v>
    <v>       0.78040140       0.55252220       0.94966520 </v>
    <v>       0.88690121       0.44612484       0.04814934 </v>
    <v>       0.77483724       0.89203331       0.94828233 </v>
    <v>       0.89151847       0.77453090       0.05146829 </v>
   </varray>
  </structure>
  <varray name="forces" >
   <v>       0.44335169       0.04346072      -0.00253997 </v>
   <v>      -0.60577406       0.04538430      -0.03938675 </v>
   <v>      -0.34240724      -0.06666859       0.02919261 </v>
   <v>      -0.08285497      -0.10404045      -0.05278764 </v>
   <v>      -0.07497462      -0.07331040      -0.07548143 </v>
   <v>       0.05129631       0.16267227      -0.00950914 </v>
   <v>       0.46475942       0.09694362       0.02908434 </v>
   <v>      -0.59457733       0.02744945      -0.05437345 </v>
   <v>       0.52907589      -0.10923911       0.09898640 </v>
   <v>       0.12106970      -0.02940204      -0.27773090 </v>
   <v>      -0.16638541       0.06327611       0.28322517 </v>
   <v>       0.11492317       0.02936573       0.19742835 </v>
   <v>       0.07232362       0.00076965       0.32613003 </v>
   <v>      -0.09454176       0.01262458      -0.19794285 </v>
   <v>       0.14955649       0.09981821      -0.32849576 </v>
   <v>      -0.13612629      -0.02703842      -0.13172274 </v>
   <v>      -0.05106325      -0.10912322      -0.13757762 </v>
   <v>       0.21898738      -0.04167826      -0.29972841 </v>
   <v>      -0.14502042      -0.02815616       0.09685412 </v>
   <v>      -0.09435236      -0.17985693       0.34204444 </v>
   <v>       0.03468104      -0.06629141       0.17238953 </v>
   <v>       0.10848369       0.12342604       0.15600721 </v>
   <v>       0.07896755       0.06523186       0.11962323 </v>
   <v>      -0.09757814       0.00488312      -0.07670060 </v>
   <v>       0.14687662       0.03728575      -0.21182805 </v>
   <v>       0.14980122       0.03627690      -0.08525372 </v>
   <v>      -0.19849793      -0.01406332       0.13009360 </v>
  </varray>
  <varray name="stress" >
   <v>       0.21262738       0.07492113      -0.44193499 </v>
   <v>       0.07492109      -0.20948355       0.12985481 </v>
   <v>      -0.44193490       0.12985477      -0.16303458 </v>
  </varray>
  <energy>
   <i name="e_fr_energy">   -191.55968117 </i>
   <i name="e_wo_entrp">   -191.47335739 </i>
   <i name="e_0_energy">     -0.17264756 </i>
  </energy>
  <time name="totalsc">  380.07  381.07</time>
 </calculation>
 <calculation>
  <scstep>
   <time name="dav">   22.81   22.86</time>
   <time name="total">   23.40   23.46</time>
   <energy>
    <i name="alphaZ">     90.12926353 </i>
    <i name="ewald">  44636.22592866 </i>
    <i name="hartreedc"> -50645.17248648 </i>
    <i name="XCdc">   -233.42897331 </i>
    <i name="pawpsdc">   4088.04849948 </i>
    <i name="pawaedc">  -3504.02712525 </i>
    <i name="eentropy">     -0.16649114 </i>
    <i name="bandstr">  -1384.72831353 </i>
    <i name="atom">   6761.44252427 </i>
    <i name="e_fr_energy">   -191.67717376 </i>
    <i name="e_wo_entrp">   -191.51068262 </i>
    <i name="e_0_energy">   -191.59392819 </i>
   </energy>
  </scstep>
  <scstep>
   <time name="dav">   33.02   33.10</time>
   <time name="total">   33.61   33.70</time>
   <energy>
    <i name="e_fr_energy">   -191.74034582 </i>
    <i name="e_wo_entrp">   -191.55421645 </i>
    <i name="e_0_energy">   -191.64728114 </i>
   </energy>
  </scstep>
  <scstep>
   <time name="dav">   32.18   32.25</time>
   <time name="total">   32.77   32.85</time>
   <energy>
    <i name="e_fr_energy">   -191.69482049 </i>
    <i name="e_wo_entrp">   -191.52780651 </i>
    <i name="e_0_energy">   -191.61131350 </i>
   </energy>
  </scstep>
  <scstep>
   <time name="dav">   30.37   30.44</time>
   <time name="total">   30.96   31.04</time>
   <energy>
    <i name="e_fr_energy">   -191.69491830 </i>
    <i name="e_wo_entrp">   -191.52511327 </i>
    <i name="e_0_energy">   -191.61001578 </i>
   </energy>
  </scstep>
  <scstep>
   <time name="dav">   30.38   30.45</time>
   <time name="total">   30.97   31.06</time>
   <energy>
    <i name="e_fr_energy">   -191.69160713 </i>
    <i name="e_wo_entrp">   -191.52195453 </i>
    <i name="e_0_energy">   -191.60678083 </i>
   </energy>
  </scstep>
  <scstep>
   <time name="dav">   29.70   29.77</time>
   <time name="total">   30.29   30.37</time>
   <energy>
    <i name="e_fr_energy">   -191.69148216 </i>
    <i name="e_wo_entrp">   -191.52130406 </i>
    <i name="e_0_energy">   -191.60639311 </i>
   </energy>
  </scstep>
  <scstep>
   <time name="dav">   30.30   30.37</time>
   <time name="total">   30.89   30.97</time>
   <energy>
    <i name="e_fr_energy">   -191.69103702 </i>
    <i name="e_wo_entrp">   -191.52154045 </i>
    <i name="e_0_energy">   -191.60628874 </i>
   </energy>
  </scstep>
  <scstep>
   <time name="dav">   24.96   25.02</time>
   <time name="total">   25.56   25.63</time>
   <energy>
    <i name="e_fr_energy">   -191.69076368 </i>
    <i name="e_wo_entrp">   -191.52096510 </i>
    <i name="e_0_energy">   -191.60586439 </i>
   </energy>
  </scstep>
  <scstep>
   <time name="dav">   18.82   18.87</time>
   <time name="total">   18.86   18.91</time>
   <energy>
    <i name="alphaZ">     90.12926353 </i>
    <i name="ewald">  44636.22592866 </i>
    <i name="hartreedc"> -50646.46812912 </i>
    <i name="XCdc">   -233.39303961 </i>
    <i name="pawpsdc">   4086.32617421 </i>
    <i name="pawaedc">  -3502.26463619 </i>
    <i name="eentropy">     -0.16955337 </i>
    <i name="bandstr">  -1383.51930218 </i>
    <i name="atom">   6761.44252427 </i>
    <i name="e_fr_energy">   -191.69076980 </i>
    <i name="e_wo_entrp">   -191.52121643 </i>
    <i name="e_0_energy">   -191.60599312 </i>
   </energy>
  </scstep>
  <structure>
   <crystal>
    <varray name="basis" >
     <v>       8.29518050       4.77620242       0.00000000 </v>
     <v>      -8.29195954       4.77061718       0.00000000 </v>
     <v>       0.00000000       0.00000000      30.00000000 </v>
    </varray>
    <i name="volume">   2375.31623527 </i>
    <varray name="rec_basis" >
     <v>       0.06025240       0.10472660       0.00000000 </v>
     <v>      -0.06032295       0.10476728       0.00000000 </v>
     <v>       0.00000000       0.00000000       0.03333333 </v>
    </varray>
   </crystal>
   <varray name="positions" >
    <v>       0.67301981      -0.00637635      -0.00041513 </v>
    <v>      -0.00684884       0.67590222       0.00029468 </v>
    <v>       0.66031529       0.33755916       0.00048223 </v>
    <v>       0.66124800       0.66667986      -0.00001407 </v>
    <v>       0.32682487       0.33418590      -0.00011451 </v>
    <v>       0.00651036       0.00407140      -0.00011170 </v>
    <v>       1.01293716       0.32783742      -0.00026287 </v>
    <v>       0.32320907       0.01019401       0.00014964 </v>
    <v>       0.34073513       0.65192659      -0.00005674 </v>
    <v>       0.11107435       0.22153710       0.94523543 </v>
    <v>       0.22213971       0.11210922       0.05443100 </v>
    <v>       0.10896539       0.55784689       0.95049092 </v>
    <v>       0.22228925       0.44428986       0.05489138 </v>
    <v>       0.10799786       0.88305787       0.94732344 </v>
    <v>       0.21863386       0.77488122       0.04878509 </v>
    <v>       0.44955036       0.22514349       0.94803347 </v>
    <v>       0.55944580       0.11295016       0.04846203 </v>
    <v>       0.44489531       0.55429390       0.94544566 </v>
    <v>       0.55821534       0.44148985       0.05179940 </v>
    <v>       0.44738208       0.89074532       0.95151469 </v>
    <v>       0.55783537       0.78337152       0.05258681 </v>
    <v>       0.77429886       0.22036163       0.95191082 </v>
    <v>       0.88356010       0.10862466       0.05194088 </v>
    <v>       0.78014553       0.55282978       0.94957059 </v>
    <v>       0.88750657       0.44588914       0.04780371 </v>
    <v>       0.77544602       0.89178117       0.94817640 </v>
    <v>       0.89088186       0.77503146       0.05164665 </v>
   </varray>
  </structure>
  <varray name="forces" >
   <v>       0.47081682       0.06780270      -0.00519120 </v>
   <v>      -0.60202842       0.02734253      -0.00584084 </v>
   <v>      -0.39189388      -0.07178168       0.06404481 </v>
   <v>      -0.06231859      -0.12397046      -0.03029187 </v>
   <v>      -0.04332577      -0.05511240      -0.03112066 </v>
   <v>       0.01408958       0.16598311       0.02850500 </v>
   <v>       0.48135363       0.06753856       0.02124585 </v>
   <v>      -0.58892256       0.02245451      -0.00874518 </v>
   <v>       0.55815533      -0.08364834       0.03245444 </v>
   <v>       0.09820700      -0.02396386      -0.23367540 </v>
   <v>      -0.13518105       0.03509259       0.22015389 </v>
   <v>       0.07347170       0.03335075       0.24654719 </v>
   <v>       0.08286626      -0.01250429       0.25770731 </v>
   <v>      -0.08289780       0.00771206      -0.19843862 </v>
   <v>       0.09947518       0.06197400      -0.36297398 </v>
   <v>      -0.07785336      -0.00102884      -0.17018354 </v>
   <v>      -0.04036251      -0.09339707      -0.20571790 </v>
   <v>       0.14286170      -0.02708318      -0.21347119 </v>
   <v>      -0.09966613      -0.01377814       0.08108096 </v>
   <v>      -0.08284510      -0.12344116       0.38039801 </v>
   <v>       0.04926509      -0.03264892       0.14977710 </v>
   <v>       0.08460214       0.08359913       0.21160436 </v>
   <v>       0.05552720       0.02672152       0.12884766 </v>
   <v>      -0.05404902       0.00513858      -0.09153970 </v>
   <v>       0.09871648       0.04126331      -0.27618746 </v>
   <v>       0.11046369       0.02308739      -0.08410408 </v>
   <v>      -0.15852761      -0.00670241       0.09511503 </v>
  </varray>
  <varray name="stress" >
   <v>       0.08463702      -0.00783521      -0.31472018 </v>
   <v>      -0.00783520      -0.13569003       0.03063377 </v>
   <v>      -0.31472015       0.03063387      -0.82702667 </v>
  </varray>
  <energy>
   <i name="e_fr_energy">   -191.69076980 </i>
   <i name="e_wo_entrp">   -191.60599312 </i>
   <i name="e_0_energy">     -0.16955337 </i>
  </energy>
  <time name="totalsc">  300.96  301.75</time>
 </calculation>
 <calculation>
  <scstep>
   <time name="dav">   22.79   22.85</time>
   <time name="total">   23.39   23.45</time>
   <energy>
    <i name="alphaZ">     90.12484549 </i>
    <i name="ewald">  44629.78548298 </i>
    <i name="hartreedc"> -50639.95871021 </i>
    <i name="XCdc">   -233.42423863 </i>
    <i name="pawpsdc">   4086.29720824 </i>
    <i name="pawaedc">  -3502.23546347 </i>
    <i name="eentropy">     -0.16290756 </i>
    <i name="bandstr">  -1383.68682794 </i>
    <i name="atom">   6761.44252427 </i>
    <i name="e_fr_energy">   -191.81808683 </i>
    <i name="e_wo_entrp">   -191.65517926 </i>
    <i name="e_0_energy">   -191.73663305 </i>
   </energy>
  </scstep>
  <scstep>
   <time name="dav">   32.18   32.26</time>
   <time name="total">   32.78   32.86</time>
   <energy>
    <i name="e_fr_energy">   -191.86222502 </i>
    <i name="e_wo_entrp">   -191.68693563 </i>
    <i name="e_0_energy">   -191.77458032 </i>
   </energy>
  </scstep>
  <scstep>
   <time name="dav">   32.16   32.24</time>
   <time name="total">   32.76   32.84</time>
   <energy>
    <i name="e_fr_energy">   -191.83926821 </i>
    <i name="e_wo_entrp">   -191.67795840 </i>
    <i name="e_0_energy">   -191.75861330 </i>
   </energy>
  </scstep>
  <scstep>
   <time name="dav">   30.69   30.76</time>
   <time name="total">   31.28   31.36</time>
   <energy>
    <i name="e_fr_energy">   -191.83558638 </i>
    <i name="e_wo_entrp">   -191.67088079 </i>
    <i name="e_0_energy">   -191.75323359 </i>
   </energy>
  </scstep>
  <scstep>
   <time name="dav">   30.54   30.61</time>
   <time name="total">   31.13   31.22</time>
   <energy>
    <i name="e_fr_energy">   -191.83469933 </i>
    <i name="e_wo_entrp">   -191.67035317 </i>
    <i name="e_0_energy">   -191.75252625 </i>
   </energy>
  </scstep>
  <scstep>
   <time name="dav">   30.62   30.70</time>
   <time name="total">   31.21   31.30</time>
   <energy>
    <i name="e_fr_energy">   -191.83393972 </i>
    <i name="e_wo_entrp">   -191.66931058 </i>
    <i name="e_0_energy">   -191.75162515 </i>
   </energy>
  </scstep>
  <scstep>
   <time name="dav">   27.63   27.70</time>
   <time name="total">   28.22   28.30</time>
   <energy>
    <i name="e_fr_energy">   -191.83307340 </i>
    <i name="e_wo_entrp">   -191.66858696 </i>
    <i name="e_0_energy">   -191.75083018 </i>
   </energy>
  </scstep>
  <scstep>
   <time name="dav">   23.68   23.73</time>
   <time name="total">   23.72   23.78</time>
   <energy>
    <i name="alphaZ">     90.12484549 </i>
    <i name="ewald">  44629.78548298 </i>
    <i name="hartreedc"> -50640.49819522 </i>
    <i name="XCdc">   -233.40094822 </i>
[...]
      <set comment="kpoint 31">
       <r>  -17.5112    1.0000 </r>
       <r>  -17.3047    1.0000 </r>
       <r>  -16.9276    1.0000 </r>
       <r>  -16.6906    1.0000 </r>
       <r>  -16.5007    1.0000 </r>
       <r>  -16.4696    1.0000 </r>
       <r>  -16.3367    1.0000 </r>
       <r>  -16.1828    1.0000 </r>
       <r>  -16.1444    1.0000 </r>
       <r>  -16.0604    1.0000 </r>
       <r>  -15.8774    1.0000 </r>
       <r>  -15.8260    1.0000 </r>
       <r>  -15.7778    1.0000 </r>
       <r>  -15.6780    1.0000 </r>
       <r>  -15.5712    1.0000 </r>
       <r>  -15.4753    1.0000 </r>
       <r>  -15.3623    1.0000 </r>
       <r>  -15.2832    1.0000 </r>
       <r>   -9.7887    1.0000 </r>
       <r>   -9.4691    1.0000 </r>
       <r>   -9.3827    1.0000 </r>
       <r>   -8.9409    1.0000 </r>
       <r>   -8.8187    1.0000 </r>
       <r>   -8.7351    1.0000 </r>
       <r>   -8.6230    1.0000 </r>
       <r>   -8.5626    1.0000 </r>
       <r>   -8.4297    1.0000 </r>
       <r>   -8.3196    1.0000 </r>
       <r>   -8.2582    1.0000 </r>
       <r>   -8.1711    1.0000 </r>
       <r>   -8.1151    1.0000 </r>
       <r>   -8.0550    1.0000 </r>
       <r>   -7.9593    1.0000 </r>
       <r>   -7.8953    1.0000 </r>
       <r>   -7.8349    1.0000 </r>
       <r>   -7.7799    1.0000 </r>
       <r>   -7.6189    1.0000 </r>
       <r>   -7.4635    1.0000 </r>
       <r>   -7.3731    1.0000 </r>
       <r>   -7.3139    1.0000 </r>
       <r>   -7.1388    1.0000 </r>
       <r>   -7.0731    1.0000 </r>
       <r>   -6.9629    1.0000 </r>
       <r>   -6.8803    1.0000 </r>
       <r>   -6.8361    1.0000 </r>
       <r>   -6.7669    1.0000 </r>
       <r>   -6.6960    1.0000 </r>
       <r>   -6.5645    1.0000 </r>
       <r>   -6.5163    1.0000 </r>
       <r>   -6.5013    1.0000 </r>
       <r>   -6.4130    1.0000 </r>
       <r>   -6.3364    1.0000 </r>
       <r>   -6.2626    1.0000 </r>
       <r>   -6.2242    1.0000 </r>
       <r>   -6.0770    1.0000 </r>
       <r>   -6.0148    1.0000 </r>
       <r>   -5.9877    1.0000 </r>
       <r>   -5.9572    1.0000 </r>
       <r>   -5.8653    1.0000 </r>
       <r>   -5.6910    1.0000 </r>
       <r>   -5.6414    1.0000 </r>
       <r>   -5.5606    1.0000 </r>
       <r>   -5.5149    1.0000 </r>
       <r>   -5.3963    1.0000 </r>
       <r>   -5.2722    1.0000 </r>
       <r>   -5.2090    1.0000 </r>
       <r>   -4.9545    1.0000 </r>
       <r>   -4.8729    1.0000 </r>
       <r>   -4.8002    1.0000 </r>
       <r>   -4.7164    1.0000 </r>
       <r>   -4.5491    1.0000 </r>
       <r>   -4.4646    1.0000 </r>
       <r>   -4.3851    1.0000 </r>
       <r>   -4.2751    1.0000 </r>
       <r>   -4.1481    1.0000 </r>
       <r>   -4.1086    1.0000 </r>
       <r>   -3.8468    1.0000 </r>
       <r>   -3.7162    0.9998 </r>
       <r>   -3.5860    0.9951 </r>
       <r>   -3.1496    0.3083 </r>
       <r>   -2.9620    0.0338 </r>
       <r>   -2.8515    0.0045 </r>
       <r>   -2.7181    0.0002 </r>
       <r>   -2.6014    0.0000 </r>
       <r>   -2.5302    0.0000 </r>
       <r>   -2.3527    0.0000 </r>
       <r>   -2.1746    0.0000 </r>
       <r>   -2.0956    0.0000 </r>
       <r>   -2.0219    0.0000 </r>
       <r>   -1.9280    0.0000 </r>
       <r>   -1.7068    0.0000 </r>
       <r>   -1.5003    0.0000 </r>
       <r>   -1.3508    0.0000 </r>
       <r>   -1.3249    0.0000 </r>
       <r>   -1.2494    0.0000 </r>
       <r>   -1.1803    0.0000 </r>
       <r>   -1.0790    0.0000 </r>
       <r>   -0.9701    0.0000 </r>
       <r>   -0.8897    0.0000 </r>
       <r>   -0.8551    0.0000 </r>
       <r>   -0.7790    0.0000 </r>
       <r>   -0.7504    0.0000 </r>
       <r>   -0.6759    0.0000 </r>
       <r>   -0.6223    0.0000 </r>
       <r>   -0.4956    0.0000 </r>
       <r>   -0.3962    0.0000 </r>
       <r>   -0.3218    0.0000 </r>
       <r>   -0.0560    0.0000 </r>
       <r>   -0.0170    0.0000 </r>
       <r>    0.2465    0.0000 </r>
       <r>    0.4601    0.0000 </r>
       <r>    0.5821    0.0000 </r>
       <r>    0.8903    0.0000 </r>
       <r>    0.9461    0.0000 </r>
       <r>    1.0556    0.0000 </r>
       <r>    1.2001    0.0000 </r>
       <r>    1.5232    0.0000 </r>
       <r>    2.1481    0.0000 </r>
       <r>    2.3084    0.0000 </r>
       <r>    2.4150    0.0000 </r>
      </set>
      <set comment="kpoint 32">
       <r>  -17.5360    1.0000 </r>
       <r>  -17.2266    1.0000 </r>
       <r>  -17.0299    1.0000 </r>
       <r>  -16.6998    1.0000 </r>
       <r>  -16.4579    1.0000 </r>
       <r>  -16.3712    1.0000 </r>
       <r>  -16.3230    1.0000 </r>
       <r>  -16.2448    1.0000 </r>
       <r>  -16.1246    1.0000 </r>
       <r>  -16.0409    1.0000 </r>
       <r>  -15.9442    1.0000 </r>
       <r>  -15.8553    1.0000 </r>
       <r>  -15.7744    1.0000 </r>
       <r>  -15.6767    1.0000 </r>
       <r>  -15.5684    1.0000 </r>
       <r>  -15.5154    1.0000 </r>
       <r>  -15.3492    1.0000 </r>
       <r>  -15.2432    1.0000 </r>
       <r>   -9.7474    1.0000 </r>
       <r>   -9.5774    1.0000 </r>
       <r>   -9.3981    1.0000 </r>
       <r>   -8.9731    1.0000 </r>
       <r>   -8.7377    1.0000 </r>
       <r>   -8.6269    1.0000 </r>
       <r>   -8.5311    1.0000 </r>
       <r>   -8.4563    1.0000 </r>
       <r>   -8.4102    1.0000 </r>
       <r>   -8.3775    1.0000 </r>
       <r>   -8.3025    1.0000 </r>
       <r>   -8.2433    1.0000 </r>
       <r>   -8.1324    1.0000 </r>
       <r>   -8.1012    1.0000 </r>
       <r>   -8.0473    1.0000 </r>
       <r>   -7.9180    1.0000 </r>
       <r>   -7.7964    1.0000 </r>
       <r>   -7.7744    1.0000 </r>
       <r>   -7.6255    1.0000 </r>
       <r>   -7.4322    1.0000 </r>
       <r>   -7.3484    1.0000 </r>
       <r>   -7.2420    1.0000 </r>
       <r>   -7.1976    1.0000 </r>
       <r>   -7.1401    1.0000 </r>
       <r>   -7.0262    1.0000 </r>
       <r>   -6.8792    1.0000 </r>
       <r>   -6.8394    1.0000 </r>
       <r>   -6.7190    1.0000 </r>
       <r>   -6.6548    1.0000 </r>
       <r>   -6.5932    1.0000 </r>
       <r>   -6.5181    1.0000 </r>
       <r>   -6.4563    1.0000 </r>
       <r>   -6.3995    1.0000 </r>
       <r>   -6.3576    1.0000 </r>
       <r>   -6.2578    1.0000 </r>
       <r>   -6.2255    1.0000 </r>
       <r>   -6.1291    1.0000 </r>
       <r>   -6.0229    1.0000 </r>
       <r>   -5.9588    1.0000 </r>
       <r>   -5.8839    1.0000 </r>
       <r>   -5.8423    1.0000 </r>
       <r>   -5.7017    1.0000 </r>
       <r>   -5.6182    1.0000 </r>
       <r>   -5.5790    1.0000 </r>
       <r>   -5.4938    1.0000 </r>
       <r>   -5.4053    1.0000 </r>
       <r>   -5.3730    1.0000 </r>
       <r>   -5.1876    1.0000 </r>
       <r>   -5.1383    1.0000 </r>
       <r>   -4.8574    1.0000 </r>
       <r>   -4.7588    1.0000 </r>
       <r>   -4.6618    1.0000 </r>
       <r>   -4.5085    1.0000 </r>
       <r>   -4.4740    1.0000 </r>
       <r>   -4.3955    1.0000 </r>
       <r>   -4.2629    1.0000 </r>
       <r>   -4.1910    1.0000 </r>
       <r>   -4.0933    1.0000 </r>
       <r>   -3.9381    1.0000 </r>
       <r>   -3.6726    0.9993 </r>
       <r>   -3.5358    0.9871 </r>
       <r>   -3.1564    0.3252 </r>
       <r>   -2.9015    0.0121 </r>
       <r>   -2.8285    0.0028 </r>
       <r>   -2.7204    0.0002 </r>
       <r>   -2.5669    0.0000 </r>
       <r>   -2.5045    0.0000 </r>
       <r>   -2.3659    0.0000 </r>
       <r>   -2.1189    0.0000 </r>
       <r>   -2.0660    0.0000 </r>
       <r>   -2.0081    0.0000 </r>
       <r>   -1.9421    0.0000 </r>
       <r>   -1.6944    0.0000 </r>
       <r>   -1.5224    0.0000 </r>
       <r>   -1.4179    0.0000 </r>
       <r>   -1.3967    0.0000 </r>
       <r>   -1.2779    0.0000 </r>
       <r>   -1.1789    0.0000 </r>
       <r>   -1.0777    0.0000 </r>
       <r>   -0.9815    0.0000 </r>
       <r>   -0.9528    0.0000 </r>
       <r>   -0.8649    0.0000 </r>
       <r>   -0.7922    0.0000 </r>
       <r>   -0.7328    0.0000 </r>
       <r>   -0.6483    0.0000 </r>
       <r>   -0.6301    0.0000 </r>
       <r>   -0.4930    0.0000 </r>
       <r>   -0.3415    0.0000 </r>
       <r>   -0.2212    0.0000 </r>
       <r>   -0.0300    0.0000 </r>
       <r>    0.0418    0.0000 </r>
       <r>    0.1873    0.0000 </r>
       <r>    0.4854    0.0000 </r>
       <r>    0.5965    0.0000 </r>
       <r>    0.8317    0.0000 </r>
       <r>    0.9184    0.0000 </r>
       <r>    1.0639    0.0000 </r>
       <r>    1.1864    0.0000 </r>
       <r>    1.3973    0.0000 </r>
       <r>    2.1099    0.0000 </r>
       <r>    2.2806    0.0000 </r>
       <r>    2.5758    0.0000 </r>
      </set>
      <set comment="kpoint 33">
       <r>  -17.5251    1.0000 </r>
       <r>  -17.3023    1.0000 </r>
       <r>  -16.9077    1.0000 </r>
       <r>  -16.7063    1.0000 </r>
       <r>  -16.4924    1.0000 </r>
       <r>  -16.4343    1.0000 </r>
       <r>  -16.3334    1.0000 </r>
       <r>  -16.2399    1.0000 </r>
       <r>  -16.0670    1.0000 </r>
       <r>  -15.9970    1.0000 </r>
       <r>  -15.9572    1.0000 </r>
       <r>  -15.8620    1.0000 </r>
       <r>  -15.7733    1.0000 </r>
       <r>  -15.6755    1.0000 </r>
       <r>  -15.6010    1.0000 </r>
       <r>  -15.5538    1.0000 </r>
       <r>  -15.3162    1.0000 </r>
       <r>  -15.2393    1.0000 </r>
       <r>   -9.8036    1.0000 </r>
       <r>   -9.5087    1.0000 </r>
       <r>   -9.2826    1.0000 </r>
       <r>   -9.0117    1.0000 </r>
       <r>   -8.9089    1.0000 </r>
       <r>   -8.6839    1.0000 </r>
       <r>   -8.5392    1.0000 </r>
       <r>   -8.4562    1.0000 </r>
       <r>   -8.4033    1.0000 </r>
       <r>   -8.3186    1.0000 </r>
       <r>   -8.2916    1.0000 </r>
       <r>   -8.2130    1.0000 </r>
       <r>   -8.1517    1.0000 </r>
       <r>   -8.1063    1.0000 </r>
       <r>   -8.0365    1.0000 </r>
       <r>   -7.8803    1.0000 </r>
       <r>   -7.7663    1.0000 </r>
       <r>   -7.7099    1.0000 </r>
       <r>   -7.6276    1.0000 </r>
       <r>   -7.3933    1.0000 </r>
       <r>   -7.3585    1.0000 </r>
       <r>   -7.2194    1.0000 </r>
       <r>   -7.1694    1.0000 </r>
       <r>   -7.1123    1.0000 </r>
       <r>   -7.0701    1.0000 </r>
       <r>   -6.8617    1.0000 </r>
       <r>   -6.8435    1.0000 </r>
       <r>   -6.7763    1.0000 </r>
       <r>   -6.6285    1.0000 </r>
       <r>   -6.5986    1.0000 </r>
       <r>   -6.5329    1.0000 </r>
       <r>   -6.4862    1.0000 </r>
       <r>   -6.4101    1.0000 </r>
       <r>   -6.3728    1.0000 </r>
       <r>   -6.2555    1.0000 </r>
       <r>   -6.2065    1.0000 </r>
       <r>   -6.1205    1.0000 </r>
       <r>   -6.0594    1.0000 </r>
       <r>   -6.0124    1.0000 </r>
       <r>   -5.9284    1.0000 </r>
       <r>   -5.8664    1.0000 </r>
       <r>   -5.7666    1.0000 </r>
       <r>   -5.6573    1.0000 </r>
       <r>   -5.5687    1.0000 </r>
       <r>   -5.4925    1.0000 </r>
       <r>   -5.4236    1.0000 </r>
       <r>   -5.3034    1.0000 </r>
       <r>   -5.2034    1.0000 </r>
       <r>   -5.0705    1.0000 </r>
       <r>   -4.8329    1.0000 </r>
       <r>   -4.8114    1.0000 </r>
       <r>   -4.5918    1.0000 </r>
       <r>   -4.5564    1.0000 </r>
       <r>   -4.4617    1.0000 </r>
       <r>   -4.3480    1.0000 </r>
       <r>   -4.2454    1.0000 </r>
       <r>   -4.1536    1.0000 </r>
       <r>   -4.0926    1.0000 </r>
       <r>   -4.0139    1.0000 </r>
       <r>   -3.6923    0.9996 </r>
       <r>   -3.5424    0.9886 </r>
       <r>   -3.1030    0.2032 </r>
       <r>   -2.9575    0.0315 </r>
       <r>   -2.7945    0.0013 </r>
       <r>   -2.6781    0.0001 </r>
       <r>   -2.5517    0.0000 </r>
       <r>   -2.4616    0.0000 </r>
       <r>   -2.3715    0.0000 </r>
       <r>   -2.0744    0.0000 </r>
       <r>   -2.0303    0.0000 </r>
       <r>   -1.9990    0.0000 </r>
       <r>   -1.8758    0.0000 </r>
       <r>   -1.6936    0.0000 </r>
       <r>   -1.5711    0.0000 </r>
       <r>   -1.4954    0.0000 </r>
       <r>   -1.4274    0.0000 </r>
       <r>   -1.3149    0.0000 </r>
       <r>   -1.1923    0.0000 </r>
       <r>   -1.0711    0.0000 </r>
       <r>   -1.0438    0.0000 </r>
       <r>   -0.9670    0.0000 </r>
       <r>   -0.8934    0.0000 </r>
       <r>   -0.8351    0.0000 </r>
       <r>   -0.6982    0.0000 </r>
       <r>   -0.6459    0.0000 </r>
       <r>   -0.6191    0.0000 </r>
       <r>   -0.4450    0.0000 </r>
       <r>   -0.2950    0.0000 </r>
       <r>   -0.1633    0.0000 </r>
       <r>   -0.0132    0.0000 </r>
       <r>    0.0489    0.0000 </r>
       <r>    0.1238    0.0000 </r>
       <r>    0.4531    0.0000 </r>
       <r>    0.7161    0.0000 </r>
       <r>    0.8097    0.0000 </r>
       <r>    0.9069    0.0000 </r>
       <r>    1.0646    0.0000 </r>
       <r>    1.2124    0.0000 </r>
       <r>    1.2822    0.0000 </r>
       <r>    2.1324    0.0000 </r>
       <r>    2.3178    0.0000 </r>
       <r>    2.3807    0.0000 </r>
      </set>
      <set comment="kpoint 34">
       <r>  -17.5049    1.0000 </r>
       <r>  -17.3591    1.0000 </r>
       <r>  -16.7589    1.0000 </r>
       <r>  -16.6788    1.0000 </r>
       <r>  -16.6721    1.0000 </r>
       <r>  -16.4358    1.0000 </r>
       <r>  -16.3301    1.0000 </r>
       <r>  -16.2392    1.0000 </r>
       <r>  -16.0444    1.0000 </r>
       <r>  -15.9950    1.0000 </r>
       <r>  -15.9365    1.0000 </r>
       <r>  -15.8454    1.0000 </r>
       <r>  -15.7222    1.0000 </r>
       <r>  -15.7083    1.0000 </r>
       <r>  -15.6544    1.0000 </r>
       <r>  -15.5562    1.0000 </r>
       <r>  -15.2894    1.0000 </r>
       <r>  -15.2546    1.0000 </r>
       <r>   -9.8371    1.0000 </r>
       <r>   -9.4164    1.0000 </r>
       <r>   -9.1697    1.0000 </r>
       <r>   -9.1064    1.0000 </r>
       <r>   -8.9541    1.0000 </r>
       <r>   -8.8278    1.0000 </r>
       <r>   -8.5374    1.0000 </r>
       <r>   -8.4611    1.0000 </r>
       <r>   -8.4187    1.0000 </r>
       <r>   -8.3028    1.0000 </r>
       <r>   -8.2777    1.0000 </r>
       <r>   -8.1957    1.0000 </r>
       <r>   -8.1468    1.0000 </r>
       <r>   -8.1067    1.0000 </r>
       <r>   -7.9655    1.0000 </r>
       <r>   -7.8813    1.0000 </r>
       <r>   -7.7770    1.0000 </r>
       <r>   -7.7362    1.0000 </r>
       <r>   -7.5234    1.0000 </r>
       <r>   -7.3525    1.0000 </r>
       <r>   -7.3104    1.0000 </r>
       <r>   -7.2371    1.0000 </r>
       <r>   -7.1265    1.0000 </r>
       <r>   -7.0824    1.0000 </r>
       <r>   -7.0551    1.0000 </r>
       <r>   -7.0429    1.0000 </r>
       <r>   -6.8169    1.0000 </r>
       <r>   -6.7465    1.0000 </r>
       <r>   -6.6172    1.0000 </r>
       <r>   -6.5829    1.0000 </r>
       <r>   -6.5607    1.0000 </r>
       <r>   -6.5302    1.0000 </r>
       <r>   -6.4532    1.0000 </r>
       <r>   -6.3386    1.0000 </r>
       <r>   -6.2595    1.0000 </r>
       <r>   -6.2211    1.0000 </r>
       <r>   -6.1681    1.0000 </r>
       <r>   -6.0747    1.0000 </r>
       <r>   -6.0442    1.0000 </r>
       <r>   -5.8810    1.0000 </r>
       <r>   -5.8394    1.0000 </r>
       <r>   -5.7936    1.0000 </r>
       <r>   -5.7036    1.0000 </r>
       <r>   -5.6125    1.0000 </r>
       <r>   -5.5327    1.0000 </r>
       <r>   -5.4020    1.0000 </r>
       <r>   -5.2781    1.0000 </r>
       <r>   -5.1905    1.0000 </r>
       <r>   -4.9556    1.0000 </r>
       <r>   -4.8684    1.0000 </r>
       <r>   -4.7926    1.0000 </r>
       <r>   -4.6594    1.0000 </r>
       <r>   -4.5139    1.0000 </r>
       <r>   -4.4457    1.0000 </r>
       <r>   -4.3566    1.0000 </r>
       <r>   -4.2299    1.0000 </r>
       <r>   -4.1563    1.0000 </r>
       <r>   -4.0492    1.0000 </r>
       <r>   -4.0240    1.0000 </r>
       <r>   -3.7288    0.9998 </r>
       <r>   -3.5524    0.9905 </r>
       <r>   -3.0945    0.1866 </r>
       <r>   -2.9871    0.0495 </r>
       <r>   -2.7688    0.0007 </r>
       <r>   -2.6634    0.0000 </r>
       <r>   -2.5473    0.0000 </r>
       <r>   -2.4515    0.0000 </r>
       <r>   -2.3640    0.0000 </r>
       <r>   -2.0541    0.0000 </r>
       <r>   -2.0209    0.0000 </r>
       <r>   -1.9806    0.0000 </r>
       <r>   -1.8247    0.0000 </r>
       <r>   -1.7005    0.0000 </r>
       <r>   -1.6204    0.0000 </r>
       <r>   -1.5101    0.0000 </r>
       <r>   -1.4350    0.0000 </r>
       <r>   -1.3300    0.0000 </r>
       <r>   -1.2128    0.0000 </r>
       <r>   -1.0685    0.0000 </r>
       <r>   -1.0608    0.0000 </r>
       <r>   -0.9733    0.0000 </r>
       <r>   -0.9085    0.0000 </r>
       <r>   -0.8554    0.0000 </r>
       <r>   -0.6833    0.0000 </r>
       <r>   -0.6455    0.0000 </r>
       <r>   -0.6237    0.0000 </r>
       <r>   -0.4084    0.0000 </r>
       <r>   -0.2800    0.0000 </r>
       <r>   -0.1651    0.0000 </r>
       <r>    0.0153    0.0000 </r>
       <r>    0.0282    0.0000 </r>
       <r>    0.0982    0.0000 </r>
       <r>    0.4355    0.0000 </r>
       <r>    0.7623    0.0000 </r>
       <r>    0.8316    0.0000 </r>
       <r>    0.9140    0.0000 </r>
       <r>    1.0639    0.0000 </r>
       <r>    1.1974    0.0000 </r>
       <r>    1.2664    0.0000 </r>
       <r>    2.1908    0.0000 </r>
       <r>    2.2565    0.0000 </r>
       <r>    2.4093    0.0000 </r>
      </set>
     </set>
    </set>
   </array>
  </eigenvalues>
  <separator name="orbital magnetization" >
   <v name="MAGDIPOLOUT">      0.00000000      0.00000000      0.00000000</v>
  </separator>
 </calculation>
 <structure name="finalpos" >
  <crystal>
   <varray name="basis" >
    <v>       8.33962454       4.80237791       0.00000000 </v>
    <v>      -8.33431728       4.79310407       0.00000000 </v>
    <v>       0.00000000       0.00000000      30.00000000 </v>
   </varray>
   <i name="volume">   2399.91688586 </i>
   <varray name="rec_basis" >
    <v>       0.05991588       0.10418257       0.00000000 </v>
    <v>      -0.06003180       0.10424892       0.00000000 </v>
    <v>       0.00000000       0.00000000       0.03333333 </v>
   </varray>
  </crystal>
  <varray name="positions" >
   <v>       0.68547300      -0.02013489       0.00293871 </v>
   <v>      -0.02095776       0.68585318      -0.00284953 </v>
   <v>       0.65012758       0.34913701      -0.00170231 </v>
   <v>       0.64560441       0.64937731      -0.00010205 </v>
   <v>       0.32876279       0.33392380      -0.00024691 </v>
   <v>       0.02047542       0.02001077      -0.00006611 </v>
   <v>       1.02022936       0.31862827       0.00159128 </v>
   <v>       0.31841459       0.02077788      -0.00147113 </v>
   <v>       0.34754088       0.64440680       0.00185148 </v>
   <v>       0.11497833       0.22322290       0.94346121 </v>
   <v>       0.22412076       0.11627151       0.05610897 </v>
   <v>       0.10903217       0.55770603       0.95511929 </v>
   <v>       0.22346498       0.44272967       0.05739810 </v>
   <v>       0.10855419       0.88984058       0.94473703 </v>
   <v>       0.21694909       0.77481365       0.04292069 </v>
   <v>       0.44863385       0.22651230       0.94501937 </v>
   <v>       0.55948817       0.11242035       0.04369765 </v>
   <v>       0.44273637       0.55128591       0.94366799 </v>
   <v>       0.55539570       0.44020742       0.05382366 </v>
   <v>       0.44865823       0.89058427       0.95730479 </v>
   <v>       0.55700625       0.77601608       0.05568981 </v>
   <v>       0.77504735       0.21819557       0.95781510 </v>
   <v>       0.88945483       0.10863798       0.05522507 </v>
   <v>       0.77438090       0.55303806       0.94612136 </v>
   <v>       0.88859968       0.44780273       0.04226023 </v>
   <v>       0.77966963       0.88719596       0.94975360 </v>
   <v>       0.88637372       0.77975335       0.04993256 </v>
  </varray>
 </structure>
</modeling>
