unknown system                          
           1
     8.859678    5.102836    0.000000
    -8.859798    5.103043    0.000000
     0.000000    0.000000   30.000000
   V    Mo   W    S 
   3   3   3  18
Direct configuration=     1
   0.66666669  0.00000000  0.00000000
   0.00000000  0.66666669  0.00000000
   0.66666669  0.33333334  0.00000000
   0.66666669  0.66666669  0.00000000
   0.33333334  0.33333334  0.00000000
   0.00000000  0.00000000  0.00000000
   1.00000000  0.33333334  0.00000000
   0.33333334  0.00000000  0.00000000
   0.33333334  0.66666669  0.00000000
   0.11068511  0.22244981  0.95539999
   0.22244981  0.11068511  0.04460000
   0.11068511  0.55578315  0.95539999
   0.22244981  0.44401845  0.04460000
   0.11068511  0.88911647  0.95539999
   0.22244981  0.77735180  0.04460000
   0.44401845  0.22244981  0.95539999
   0.55578315  0.11068511  0.04460000
   0.44401845  0.55578315  0.95539999
   0.55578315  0.44401845  0.04460000
   0.44401845  0.88911647  0.95539999
   0.55578315  0.77735180  0.04460000
   0.77735180  0.22244981  0.95539999
   0.88911647  0.11068511  0.04460000
   0.77735180  0.55578315  0.95539999
   0.88911647  0.44401845  0.04460000
   0.77735180  0.88911647  0.95539999
   0.88911647  0.77735180  0.04460000
unknown system                          
           1
     8.670622    4.996710    0.000000
    -8.670796    4.997010    0.000000
     0.000000    0.000000   30.000000
   V    Mo   W    S 
   3   3   3  18
Direct configuration=     2
   0.66787208 -0.00079587  0.00013079
  -0.00151038  0.66755391 -0.00014274
   0.66580560  0.33444787  0.00001142
   0.66683855  0.66657413 -0.00003336
   0.33330702  0.33338266  0.00003425
  -0.00006006 -0.00011985 -0.00018626
   1.00071624  0.33180122 -0.00000031
   0.33229360  0.00178926  0.00005740
   0.33484127  0.66511305  0.00019594
   0.11057181  0.22252500  0.95071655
   0.22268412  0.11067325  0.04925133
   0.10889885  0.55755540  0.95201030
   0.22179869  0.44491539  0.04932107
   0.10964858  0.88464590  0.95186261
   0.21848253  0.77590066  0.04799832
   0.44832900  0.22336543  0.95190405
   0.55895217  0.11242174  0.04686826
   0.44390570  0.55580665  0.95072014
   0.55782258  0.44194129  0.04798735
   0.44802710  0.89058008  0.95199528
   0.55665784  0.78183421  0.04812951
   0.77421360  0.22062399  0.95315995
   0.88458525  0.10974759  0.04808900
   0.77996103  0.55333006  0.95300998
   0.88705064  0.44610847  0.04690411
   0.77539433  0.89121916  0.95201522
   0.89112672  0.77527382  0.04798974
unknown system                          
           1
     8.488188    4.898633    0.000000
    -8.487624    4.897654    0.000000
     0.000000    0.000000   30.000000
   V    Mo   W    S 
   3   3   3  18
Direct configuration=     3
   0.66818755 -0.00110623  0.00009177
  -0.00190601  0.66793769 -0.00011280
   0.66550967  0.33473096  0.00006034
   0.66657736  0.66657345 -0.00003103
   0.33298790  0.33344144  0.00004119
   0.00025222  0.00008322 -0.00020907
   1.00138726  0.33145172 -0.00005897
   0.33176836  0.00234758  0.00010684
   0.33529226  0.66436501  0.00015625
   0.11043253  0.22265452  0.95062308
   0.22280903  0.11054090  0.04932729
   0.10899140  0.55745486  0.95213322
   0.22172437  0.44500654  0.04941037
   0.10978677  0.88465128  0.95180492
   0.21864342  0.77594876  0.04785076
   0.44831965  0.22321138  0.95187230
   0.55875860  0.11236412  0.04675442
   0.44376551  0.55593521  0.95064492
   0.55791074  0.44188907  0.04802760
   0.44786501  0.89053447  0.95216516
   0.55652511  0.78184387  0.04818697
   0.77440177  0.22069204  0.95329286
   0.88457556  0.10988256  0.04812408
   0.77999078  0.55329395  0.95299964
   0.88714554  0.44598821  0.04675096
   0.77533972  0.89128262  0.95197088
   0.89117236  0.77521525  0.04801595
unknown system                          
           1
     8.288376    4.776375    0.000000
    -8.287002    4.773993    0.000000
     0.000000    0.000000   30.000000
   V    Mo   W    S 
   3   3   3  18
Direct configuration=     4
   0.66927052 -0.00256262 -0.00009269
  -0.00303402  0.66978496  0.00005918
   0.66419120  0.33558455  0.00023473
   0.66506999  0.66666611  0.00000426
   0.33123149  0.33374492  0.00005078
   0.00193920  0.00117439 -0.00020645
   1.00469412  0.33048133 -0.00023152
   0.32944763  0.00422691  0.00023457
   0.33681333  0.66108191 -0.00004342
   0.11042137  0.22264945  0.94860674
   0.22273551  0.11055947  0.05125907
   0.10864299  0.55784272  0.95116442
   0.22176152  0.44488488  0.05145468
   0.10914621  0.88355785  0.95007459
   0.21791546  0.77537468  0.04867998
   0.44940596  0.22388778  0.95027320
   0.55959695  0.11289225  0.04764357
   0.44380444  0.55591848  0.94871416
   0.55857603  0.44140801  0.04958869
   0.44851256  0.89108585  0.95142233
   0.55729459  0.78298972  0.04991995
   0.77358517  0.22026424  0.95248266
   0.88351019  0.10919803  0.04972843
   0.78040193  0.55280295  0.95162576
   0.88684561  0.44621799  0.04746141
   0.77480572  0.89180469  0.95038985
   0.89162878  0.77469295  0.04950098
unknown system                          
           1
     8.295181    4.776202    0.000000
    -8.291960    4.770617    0.000000
     0.000000    0.000000   30.000000
   V    Mo   W    S 
   3   3   3  18
Direct configuration=     5
   0.67156540 -0.00535876 -0.00041495
  -0.00537100  0.67399653  0.00036042
   0.66159226  0.33692725  0.00043868
   0.66196312  0.66696219  0.00006999
   0.32735677  0.33434206  0.00000402
   0.00560097  0.00343853 -0.00009536
   1.01120725  0.32866378 -0.00030984
   0.32471483  0.00840750  0.00023556
   0.33980041  0.65389560 -0.00021518
   0.11088035  0.22202082  0.94563442
   0.22229515  0.11132988  0.05402095
   0.10848806  0.55803408  0.95016385
   0.22208317  0.44448711  0.05441613
   0.10819119  0.88271169  0.94760275
   0.21770588  0.77480479  0.04931465
   0.45008472  0.22490366  0.94821297
   0.56014306  0.11335259  0.04869480
   0.44448524  0.55511613  0.94588099
   0.55877292  0.44121155  0.05167491
   0.44854681  0.89137280  0.95096580
   0.55807743  0.78381255  0.05234735
   0.77337047  0.22005522  0.95165145
   0.88300166  0.10851567  0.05178038
   0.78040140  0.55252220  0.94966520
   0.88690121  0.44612484  0.04814934
   0.77483724  0.89203331  0.94828233
   0.89151847  0.77453090  0.05146829
unknown system                          
           1
     8.297858    4.774606    0.000000
    -8.294886    4.769457    0.000000
     0.000000    0.000000   30.000000
   V    Mo   W    S 
   3   3   3  18
Direct configuration=     6
   0.67301981 -0.00637635 -0.00041513
  -0.00684884  0.67590222  0.00029468
   0.66031529  0.33755916  0.00048223
   0.66124800  0.66667986 -0.00001407
   0.32682487  0.33418590 -0.00011451
   0.00651036  0.00407140 -0.00011170
   1.01293716  0.32783742 -0.00026287
   0.32320907  0.01019401  0.00014964
   0.34073513  0.65192659 -0.00005674
   0.11107435  0.22153710  0.94523543
   0.22213971  0.11210922  0.05443100
   0.10896539  0.55784689  0.95049092
   0.22228925  0.44428986  0.05489138
   0.10799786  0.88305787  0.94732344
   0.21863386  0.77488122  0.04878509
   0.44955036  0.22514349  0.94803347
   0.55944580  0.11295016  0.04846203
   0.44489531  0.55429390  0.94544566
   0.55821534  0.44148985  0.05179940
   0.44738208  0.89074532  0.95151469
   0.55783537  0.78337152  0.05258681
   0.77429886  0.22036163  0.95191082
   0.88356010  0.10862466  0.05194088
   0.78014553  0.55282978  0.94957059
   0.88750657  0.44588914  0.04780371
   0.77544602  0.89178117  0.94817640
   0.89088186  0.77503146  0.05164665
unknown system                          
           1
     8.309956    4.774042    0.000000
    -8.306368    4.767828    0.000000
     0.000000    0.000000   30.000000
   V    Mo   W    S 
   3   3   3  18
Direct configuration=     7
   0.67488863 -0.00748614 -0.00042205
  -0.00860700  0.67795077  0.00028279
   0.65867972  0.33840665  0.00059467
   0.66038149  0.66618616 -0.00006772
   0.32640955  0.33401394 -0.00016842
   0.00745091  0.00493448 -0.00006138
   1.01480408  0.32668199 -0.00022477
   0.32148401  0.01217514  0.00013492
   0.34203685  0.64972538  0.00000083
   0.11125118  0.22109520  0.94484652
   0.22190549  0.11272878  0.05479709
   0.10938685  0.55779599  0.95093747
   0.22248179  0.44395722  0.05532231
   0.10778420  0.88337373  0.94699229
   0.21929649  0.77491218  0.04813542
   0.44929198  0.22537756  0.94774879
   0.55879232  0.11255608  0.04808729
   0.44519477  0.55369519  0.94509227
   0.55781990  0.44173387  0.05192544
   0.44643212  0.89032365  0.95219402
   0.55780626  0.78302557  0.05283172
   0.77503531  0.22055687  0.95229424
   0.88388911  0.10860082  0.05215194
   0.78000179  0.55303281  0.94942433
   0.88805106  0.44580376  0.04730695
   0.77592638  0.89155394  0.94804491
   0.89033922  0.77550287  0.05179803
unknown system                          
           1
     8.325025    4.769909    0.000000
    -8.319557    4.760440    0.000000
     0.000000    0.000000   30.000000
   V    Mo   W    S 
   3   3   3  18
Direct configuration=     8
   0.67715636 -0.00867796 -0.00038874
  -0.01058591  0.68016436  0.00018675
   0.65658735  0.33957227  0.00063748
   0.65944912  0.66530113 -0.00015215
   0.32621894  0.33367008 -0.00026874
   0.00850147  0.00608296 -0.00004973
   1.01667585  0.32520779 -0.00012698
   0.31965882  0.01411955 -0.00001151
   0.34340519  0.64771111  0.00018321
   0.11155771  0.22058849  0.94441919
   0.22152148  0.11347446  0.05527060
   0.10977353  0.55778343  0.95149868
   0.22270022  0.44361049  0.05576236
   0.10753438  0.88375383  0.94666192
   0.21988383  0.77489528  0.04735215
   0.44917901  0.22559960  0.94743224
   0.55810166  0.11215904  0.04761097
   0.44561041  0.55297632  0.94466747
   0.55744606  0.44204128  0.05215171
   0.44551970  0.88998369  0.95301507
   0.55781228  0.78263178  0.05309778
   0.77575300  0.22074849  0.95280438
   0.88415253  0.10859178  0.05244967
   0.77985820  0.55314899  0.94925111
   0.88860610  0.44577275  0.04667042
   0.77644982  0.89121218  0.94787683
   0.88968736  0.77609127  0.05199776
unknown system                          
           1
     8.341364    4.779403    0.000000
    -8.334163    4.766910    0.000000
     0.000000    0.000000   30.000000
   V    Mo   W    S 
   3   3   3  18
Direct configuration=     9
   0.68246912 -0.01155467 -0.00013475
  -0.01473447  0.68475153 -0.00015428
   0.65200983  0.34262133  0.00060560
   0.65679262  0.66272659 -0.00032883
   0.32606128  0.33280689 -0.00040612
   0.01110729  0.00950960  0.00006961
   1.01995251  0.32130796  0.00021704
   0.31569887  0.01747859 -0.00031082
   0.34671727  0.64428416  0.00060709
   0.11252364  0.21958180  0.94357180
   0.22061945  0.11495378  0.05606182
   0.11041789  0.55778449  0.95300124
   0.22324893  0.44268351  0.05655326
   0.10682326  0.88473277  0.94595377
   0.22073760  0.77478575  0.04543525
   0.44911984  0.22603946  0.94665535
   0.55662007  0.11124196  0.04627947
   0.44644233  0.55161735  0.94395234
   0.55655585  0.44287310  0.05274942
   0.44400470  0.88966416  0.95505152
   0.55820051  0.78181645  0.05359270
   0.77712188  0.22098243  0.95418899
   0.88455492  0.10846727  0.05312586
   0.77953281  0.55338054  0.94880049
   0.88989239  0.44586931  0.04500670
   0.77755572  0.89022086  0.94756704
   0.88816832  0.77758750  0.05228834
unknown system                          
           1
     8.337335    4.783875    0.000000
    -8.329068    4.769504    0.000000
     0.000000    0.000000   30.000000
   V    Mo   W    S 
   3   3   3  18
Direct configuration=    10
   0.68387002 -0.01271186  0.00008430
  -0.01587007  0.68571924 -0.00039604
   0.65070729  0.34390753  0.00042131
   0.65538454  0.66114779 -0.00038613
   0.32631785  0.33253016 -0.00045597
   0.01221083  0.01110591  0.00004508
   1.02055686  0.32009642  0.00041611
   0.31495576  0.01810382 -0.00054198
   0.34760786  0.64385400  0.00082747
   0.11301459  0.21931491  0.94331882
   0.22031845  0.11546050  0.05632473
   0.11044707  0.55776557  0.95357694
   0.22344609  0.44241038  0.05677623
   0.10651489  0.88523370  0.94570567
   0.22075812  0.77464376  0.04481511
   0.44920915  0.22613354  0.94640773
   0.55638629  0.11106900  0.04573588
   0.44666080  0.55117936  0.94373290
   0.55621757  0.44318234  0.05304080
   0.44388148  0.88980539  0.95573481
   0.55851885  0.78161919  0.05382292
   0.77729477  0.22101071  0.95475378
   0.88469631  0.10835955  0.05347818
   0.77925689  0.55333896  0.94857416
   0.89022661  0.44589039  0.04436589
   0.77805833  0.88978572  0.94748009
   0.88756726  0.77825847  0.05234111
unknown system                          
           1
     8.343155    4.789658    0.000000
    -8.334729    4.775003    0.000000
     0.000000    0.000000   30.000000
   V    Mo   W    S 
   3   3   3  18
Direct configuration=    11
   0.68429411 -0.01361702  0.00032202
  -0.01641135  0.68581871 -0.00057000
   0.65035469  0.34491209  0.00018000
   0.65396533  0.65948405 -0.00037731
   0.32668113  0.33246791 -0.00043064
   0.01321584  0.01246468  0.00003072
   1.02049576  0.31946761  0.00057735
   0.31490667  0.01817345 -0.00065537
   0.34801075  0.64407191  0.00097276
   0.11342741  0.21942456  0.94330167
   0.22029957  0.11556835  0.05627929
   0.11033313  0.55770571  0.95399115
   0.22358579  0.44234325  0.05678345
   0.10634521  0.88570310  0.94559965
   0.22045571  0.77454709  0.04446778
   0.44930037  0.22610324  0.94628402
   0.55653076  0.11116350  0.04530122
   0.44654854  0.55106756  0.94373036
   0.55598835  0.44332830  0.05320361
   0.44424909  0.89004933  0.95611016
   0.55878522  0.78144420  0.05396219
   0.77712320  0.22094608  0.95521706
   0.88490689  0.10828812  0.05370311
   0.77890623  0.55325197  0.94838374
   0.89024699  0.44591239  0.04390849
   0.77839334  0.88943485  0.94757972
   0.88727572  0.77868946  0.05214367
unknown system                          
           1
     8.344696    4.797101    0.000000
    -8.336276    4.782434    0.000000
     0.000000    0.000000   30.000000
   V    Mo   W    S 
   3   3   3  18
Direct configuration=    12
   0.68451559 -0.01439073  0.00051502
  -0.01682868  0.68581023 -0.00071991
   0.65026528  0.34566341 -0.00003410
   0.65273303  0.65808264 -0.00035587
   0.32708331  0.33258614 -0.00041141
   0.01399856  0.01351666  0.00000382
   1.02038077  0.31903305  0.00069481
   0.31499913  0.01830594 -0.00076143
   0.34828315  0.64425880  0.00107454
   0.11373931  0.21967988  0.94329744
   0.22042967  0.11558990  0.05626087
   0.11022084  0.55770762  0.95421877
   0.22365819  0.44239045  0.05681317
   0.10631587  0.88602490  0.94552631
   0.22014527  0.77449419  0.04431231
   0.44933918  0.22601895  0.94616644
   0.55680712  0.11129962  0.04503374
   0.44629059  0.55102453  0.94371428
   0.55583128  0.44329489  0.05334258
   0.44468509  0.89021037  0.95628066
   0.55890678  0.78126968  0.05411181
   0.77686985  0.22084032  0.95553451
   0.88510298  0.10824069  0.05387419
   0.77861893  0.55320223  0.94817995
   0.89012320  0.44595028  0.04365574
   0.77857953  0.88917369  0.94773768
   0.88712063  0.77893614  0.05193399
unknown system                          
           1
     8.347015    4.799871    0.000000
    -8.339871    4.787421    0.000000
     0.000000    0.000000   30.000000
   V    Mo   W    S 
   3   3   3  18
Direct configuration=    13
   0.68536609 -0.01687866  0.00113193
  -0.01837313  0.68602324 -0.00120294
   0.64983335  0.34806431 -0.00065314
   0.64871336  0.65350902 -0.00028201
   0.32825945  0.33302026 -0.00034113
   0.01672033  0.01694896 -0.00006046
   1.02029985  0.31770180  0.00104244
   0.31521336  0.01895624 -0.00105245
   0.34913208  0.64458740  0.00140277
   0.11469216  0.22055865  0.94328978
   0.22093087  0.11571759  0.05618719
   0.10999428  0.55766443  0.95498323
   0.22386439  0.44253988  0.05690108
   0.10631078  0.88708122  0.94532040
   0.21929426  0.77445318  0.04372074
   0.44935100  0.22577798  0.94579879
   0.55753821  0.11169431  0.04415075
   0.44541949  0.55085189  0.94364363
   0.55537182  0.44307846  0.05371880
   0.44589466  0.89056654  0.95688067
   0.55912290  0.78049366  0.05456258
   0.77622357  0.22049535  0.95658377
   0.88588629  0.10814229  0.05436309
   0.77764995  0.55314627  0.94755784
   0.88974719  0.44607637  0.04283316
   0.77916349  0.88826344  0.94828623
   0.88659442  0.77968037  0.05123316
unknown system                          
           1
     8.345518    4.801695    0.000000
    -8.339386    4.790996    0.000000
     0.000000    0.000000   30.000000
   V    Mo   W    S 
   3   3   3  18
Direct configuration=    14
   0.68537693 -0.01749189  0.00136664
  -0.01887351  0.68601603 -0.00140009
   0.64986778  0.34851282 -0.00082884
   0.64789345  0.65232692 -0.00025295
   0.32858853  0.33325516 -0.00032387
   0.01746760  0.01765388 -0.00007834
   1.02033649  0.31783643  0.00112737
   0.31571654  0.01922629 -0.00111432
   0.34893080  0.64461086  0.00147858
   0.11501635  0.22112521  0.94325477
   0.22139070  0.11584517  0.05621716
   0.10993732  0.55767900  0.95511640
   0.22385000  0.44263571  0.05699288
   0.10645978  0.88740791  0.94524165
   0.21898458  0.77454537  0.04358218
   0.44928035  0.22577857  0.94563606
   0.55787813  0.11189727  0.04395526
   0.44485969  0.55075074  0.94355835
   0.55523193  0.44264598  0.05384639
   0.44632465  0.89056128  0.95696024
   0.55895908  0.77991393  0.05477755
   0.77598360  0.22029933  0.95687477
   0.88638446  0.10814827  0.05452570
   0.77719004  0.55324442  0.94730179
   0.88947206  0.44619303  0.04268889
   0.77932752  0.88780987  0.94853442
   0.88637959  0.77978691  0.05096128
unknown system                          
           1
     8.346731    4.802560    0.000000
    -8.340992    4.792544    0.000000
     0.000000    0.000000   30.000000
   V    Mo   W    S 
   3   3   3  18
Direct configuration=    15
   0.68561019 -0.01867689  0.00177493
  -0.01968917  0.68598112 -0.00176280
   0.64980161  0.34936827 -0.00115071
   0.64621823  0.65035896 -0.00020440
   0.32903764  0.33357699 -0.00029531
   0.01881250  0.01915331 -0.00011095
   1.02036999  0.31764724  0.00129739
   0.31632143  0.01975496 -0.00125069
   0.34896289  0.64462961  0.00162737
   0.11543612  0.22189847  0.94328823
   0.22207464  0.11599571  0.05618325
   0.10978409  0.55770213  0.95535996
   0.22385277  0.44276581  0.05708001
   0.10677523  0.88803114  0.94513923
   0.21846062  0.77466537  0.04331675
   0.44915788  0.22574254  0.94542550
   0.55841517  0.11214788  0.04360966
   0.44407811  0.55069437  0.94353583
   0.55503774  0.44205329  0.05400002
   0.44706147  0.89059677  0.95716102
   0.55872464  0.77902735  0.05503197
   0.77561906  0.21993579  0.95738095
   0.88714103  0.10818428  0.05473156
   0.77644345  0.55329342  0.94691758
   0.88910188  0.44641736  0.04240508
   0.77956025  0.88721743  0.94896326
   0.88604500  0.78005177  0.05054518
unknown system                          
           1
     8.344799    4.801976    0.000000
    -8.339230    4.792255    0.000000
     0.000000    0.000000   30.000000
   V    Mo   W    S 
   3   3   3  18
Direct configuration=    16
   0.68554297 -0.01876198  0.00187719
  -0.01979704  0.68590000 -0.00185694
   0.64985448  0.34920712 -0.00118312
   0.64639048  0.65054598 -0.00018742
   0.32894682  0.33359718 -0.00028263
   0.01883012  0.01909458 -0.00010062
   1.02035598  0.31788189  0.00131330
   0.31664425  0.01986419 -0.00126221
   0.34872150  0.64460822  0.00163639
   0.11541307  0.22210606  0.94329654
   0.22235262  0.11605769  0.05617807
   0.10972076  0.55772119  0.95530129
   0.22380568  0.44277737  0.05712187
   0.10700722  0.88818868  0.94510565
   0.21834268  0.77472354  0.04330132
   0.44909135  0.22582654  0.94537736
   0.55856004  0.11217194  0.04363895
   0.44387363  0.55071400  0.94354175
   0.55505448  0.44175983  0.05397617
   0.44723052  0.89055417  0.95714071
   0.55853277  0.77869629  0.05508563
   0.77557377  0.21976282  0.95740479
   0.88738239  0.10822395  0.05475875
   0.77621364  0.55328759  0.94683587
   0.88899962  0.44655322  0.04243953
   0.77955317  0.88714222  0.94905678
   0.88601749  0.78001018  0.05048493
unknown system                          
           1
     8.345237    4.802634    0.000000
    -8.339608    4.792808    0.000000
     0.000000    0.000000   30.000000
   V    Mo   W    S 
   3   3   3  18
Direct configuration=    17
   0.68549045 -0.01888301  0.00197592
  -0.01990669  0.68588029 -0.00195178
   0.64991869  0.34915958 -0.00122771
   0.64629786  0.65047161 -0.00018146
   0.32886322  0.33363541 -0.00027950
   0.01903058  0.01919901 -0.00010450
   1.02038496  0.31800144  0.00133471
   0.31680384  0.01993989 -0.00128253
   0.34859814  0.64455200  0.00164966
   0.11538217  0.22223579  0.94332572
   0.22253200  0.11607433  0.05615849
   0.10966687  0.55772388  0.95528200
   0.22377870  0.44278534  0.05713663
   0.10717022  0.88833394  0.94509372
   0.21823336  0.77476635  0.04326962
   0.44901003  0.22586204  0.94535079
   0.55864196  0.11217763  0.04364705
   0.44374871  0.55076284  0.94357407
   0.55506867  0.44161179  0.05395783
   0.44735449  0.89052453  0.95714604
   0.55837516  0.77842744  0.05512751
   0.77556302  0.21962762  0.95743949
   0.88759359  0.10828168  0.05478424
   0.77605769  0.55330529  0.94677984
   0.88895888  0.44667326  0.04244045
   0.77957676  0.88709004  0.94912689
   0.88602109  0.77999445  0.05042670
unknown system                          
           1
     8.343628    4.802108    0.000000
    -8.338013    4.792305    0.000000
     0.000000    0.000000   30.000000
   V    Mo   W    S 
   3   3   3  18
Direct configuration=    18
   0.68548521 -0.01905978  0.00208911
  -0.02007144  0.68585256 -0.00205760
   0.64995454  0.34914743 -0.00128297
   0.64624858  0.65036083 -0.00016820
   0.32885217  0.33367632 -0.00027423
   0.01915830  0.01925675 -0.00009946
   1.02035479  0.31811115  0.00136850
   0.31704873  0.02003968 -0.00130905
   0.34844926  0.64456713  0.00167561
   0.11533716  0.22238786  0.94333646
   0.22275785  0.11611601  0.05615550
   0.10957842  0.55774346  0.95524861
   0.22373590  0.44278701  0.05717573
   0.10735539  0.88848948  0.94505320
   0.21807170  0.77477915  0.04323356
   0.44896568  0.22595874  0.94531531
   0.55879168  0.11220851  0.04365653
   0.44359423  0.55080291  0.94358486
   0.55511751  0.44139752  0.05392621
   0.44753941  0.89051578  0.95715296
   0.55819865  0.77814462  0.05519095
   0.77549329  0.21944003  0.95748435
   0.88781987  0.10832951  0.05482551
   0.77584616  0.55327090  0.94670865
   0.88888896  0.44682755  0.04243376
   0.77958099  0.88709559  0.94921783
   0.88606147  0.77996773  0.05035820
unknown system                          
           1
     8.342872    4.802143    0.000000
    -8.337306    4.792424    0.000000
     0.000000    0.000000   30.000000
   V    Mo   W    S 
   3   3   3  18
Direct configuration=    19
   0.68548060 -0.01925567  0.00221764
  -0.02018979  0.68581579 -0.00218124
   0.65001138  0.34912194 -0.00134541
   0.64607744  0.65024057 -0.00015888
   0.32882261  0.33375607 -0.00027220
   0.01937121  0.01942315 -0.00009767
   1.02033332  0.31819704  0.00139279
   0.31726007  0.02015055 -0.00132851
   0.34833350  0.64453944  0.00169279
   0.11527079  0.22252215  0.94336880
   0.22297809  0.11612650  0.05613472
   0.10950328  0.55773427  0.95522891
   0.22369500  0.44278711  0.05720471
   0.10756527  0.88869333  0.94501185
   0.21791516  0.77480508  0.04318965
   0.44888439  0.22603182  0.94527342
   0.55890154  0.11221032  0.04366229
   0.44346109  0.55088209  0.94361639
   0.55515045  0.44121444  0.05390425
   0.44772262  0.89051313  0.95717118
   0.55801852  0.77782712  0.05525685
   0.77544751  0.21923082  0.95753439
   0.88805918  0.10837642  0.05487265
   0.77561840  0.55324600  0.94662099
   0.88885595  0.44698417  0.04242296
   0.77958783  0.88708899  0.94930471
   0.88607905  0.77995179  0.05030186
unknown system                          
           1
     8.340462    4.802198    0.000000
    -8.335231    4.793057    0.000000
     0.000000    0.000000   30.000000
   V    Mo   W    S 
   3   3   3  18
Direct configuration=    20
   0.68544268 -0.01941568  0.00235838
  -0.02036681  0.68580362 -0.00229979
   0.65000350  0.34914183 -0.00141558
   0.64598244  0.64998139 -0.00014186
   0.32886421  0.33380030 -0.00026232
   0.01960049  0.01952016 -0.00008723
   1.02032442  0.31832797  0.00144051
   0.31753781  0.02028929 -0.00136336
   0.34813516  0.64452562  0.00173389
   0.11521287  0.22266732  0.94337313
   0.22320106  0.11616747  0.05613488
   0.10941102  0.55773449  0.95519913
   0.22363907  0.44278230  0.05724497
   0.10777055  0.88892513  0.94495459
   0.21773128  0.77480395  0.04313915
   0.44884812  0.22614503  0.94522783
   0.55903416  0.11226104  0.04367198
   0.44331565  0.55094736  0.94361166
   0.55521371  0.44101352  0.05387682
   0.44790313  0.89052190  0.95718838
   0.55780258  0.77745902  0.05535354
   0.77536299  0.21903565  0.95758585
   0.88835376  0.10844095  0.05494957
   0.77534182  0.55318991  0.94652545
   0.88878956  0.44714058  0.04239495
   0.77962282  0.88709408  0.94938305
   0.88613640  0.77991024  0.05022233
unknown system                          
           1
     8.339625    4.802378    0.000000
    -8.334317    4.793104    0.000000
     0.000000    0.000000   30.000000
   V    Mo   W    S 
   3   3   3  18
Direct configuration=    21
   0.68544768 -0.01993698  0.00275351
  -0.02080953  0.68581046 -0.00268234
   0.65008368  0.34915246 -0.00162813
   0.64567601  0.64948174 -0.00012699
   0.32885577  0.33394894 -0.00026392
   0.02023670  0.01987905 -0.00008446
   1.02026331  0.31856326  0.00153524
   0.31820053  0.02065017 -0.00144138
   0.34771271  0.64443587  0.00180415
   0.11503933  0.22308614  0.94344334
   0.22388032  0.11624771  0.05612377
   0.10913474  0.55772346  0.95513424
   0.22350820  0.44274751  0.05736919
   0.10834803  0.88958036  0.94479970
   0.21716663  0.77481277  0.04298815
   0.44870913  0.22644181  0.94507969
   0.55938824  0.11237999  0.04369569
   0.44289178  0.55119032  0.94365985
   0.55534531  0.44041559  0.05384307
   0.44845928  0.89056136  0.95726142
   0.55721374  0.77639989  0.05560954
   0.77512920  0.21843182  0.95775073
   0.88916199  0.10859468  0.05515780
   0.77460524  0.55306666  0.94623908
   0.88863191  0.44761840  0.04230969
   0.77964873  0.88714151  0.94965592
   0.88628580  0.77978949  0.05001335
unknown system                          
           1
     8.339625    4.802378    0.000000
    -8.334317    4.793104    0.000000
     0.000000    0.000000   30.000000
   V    Mo   W    S 
   3   3   3  18
Direct configuration=    22
   0.68547300 -0.02013489  0.00293871
  -0.02095776  0.68585318 -0.00284953
   0.65012758  0.34913701 -0.00170231
   0.64560441  0.64937731 -0.00010205
   0.32876279  0.33392380 -0.00024691
   0.02047542  0.02001077 -0.00006611
   1.02022936  0.31862827  0.00159128
   0.31841459  0.02077788 -0.00147113
   0.34754088  0.64440680  0.00185148
   0.11497833  0.22322290  0.94346121
   0.22412076  0.11627151  0.05610897
   0.10903217  0.55770603  0.95511929
   0.22346498  0.44272967  0.05739810
   0.10855419  0.88984058  0.94473703
   0.21694909  0.77481365  0.04292069
   0.44863385  0.22651230  0.94501937
   0.55948817  0.11242035  0.04369765
   0.44273637  0.55128591  0.94366799
   0.55539570  0.44020742  0.05382366
   0.44865823  0.89058427  0.95730479
   0.55700625  0.77601608  0.05568981
   0.77504735  0.21819557  0.95781510
   0.88945483  0.10863798  0.05522507
   0.77438090  0.55303806  0.94612136
   0.88859968  0.44780273  0.04226023
   0.77966963  0.88719596  0.94975360
   0.88637372  0.77975335  0.04993256
