   27   27  100    1
  0.9710400E+02  0.1002848E-08  0.1002848E-08  0.3000000E-08  0.5000000E-15
  1.000000000000000E-004
  CAR 
 unknown system                          
    159     34    120
 
  0.0000000E+00  0.0000000E+00  0.0000000E+00  0.1562500E-01
    1      -17.807686   1.000000
    2      -16.732677   1.000000
    3      -16.585502   1.000000
    4      -16.556848   1.000000
    5      -16.480584   1.000000
    6      -16.417656   1.000000
    7      -16.401297   1.000000
    8      -16.384466   1.000000
    9      -16.205972   1.000000
   10      -16.106127   1.000000
   11      -16.046953   1.000000
   12      -16.008390   1.000000
   13      -15.839998   1.000000
   14      -15.833008   1.000000
   15      -15.552540   1.000000
   16      -15.502590   1.000000
   17      -15.499351   1.000000
   18      -15.258767   1.000000
   19       -9.147503   1.000000
   20       -8.869382   1.000000
   21       -8.848505   1.000000
   22       -8.796439   1.000000
   23       -8.731373   1.000000
   24       -8.710540   1.000000
   25       -8.635149   1.000000
   26       -8.617473   1.000000
   27       -8.542276   1.000000
   28       -8.482260   1.000000
   29       -8.448768   1.000000
   30       -8.334074   1.000000
   31       -8.251625   1.000000
   32       -8.241577   1.000000
   33       -8.191633   1.000000
   34       -8.130563   1.000000
   35       -7.980264   1.000000
   36       -7.832824   1.000000
   37       -7.754393   1.000000
   38       -7.555200   1.000000
   39       -7.471202   1.000000
   40       -7.413510   1.000000
   41       -7.278351   1.000000
   42       -7.276097   1.000000
   43       -7.154287   1.000000
   44       -6.961097   1.000000
   45       -6.865383   1.000000
   46       -6.851077   1.000000
   47       -6.770421   1.000000
   48       -6.742981   1.000000
   49       -6.572968   1.000000
   50       -6.567963   1.000000
   51       -6.510234   1.000000
   52       -6.416818   1.000000
   53       -6.244325   1.000000
   54       -6.131365   1.000000
   55       -6.116042   1.000000
   56       -6.000907   1.000000
   57       -5.899582   1.000000
   58       -5.833984   1.000000
   59       -5.815218   1.000000
   60       -5.571016   1.000000
   61       -5.547388   1.000000
   62       -5.393828   1.000000
   63       -5.316521   1.000000
   64       -5.214493   1.000000
   65       -5.070183   1.000000
   66       -4.980327   1.000000
   67       -4.928309   1.000000
   68       -4.770811   1.000000
   69       -4.704951   1.000000
   70       -4.642549   1.000000
   71       -4.595479   1.000000
   72       -4.531706   1.000000
   73       -4.481592   1.000000
   74       -4.327162   1.000000
   75       -4.088939   1.000000
   76       -4.080295   1.000000
   77       -3.681421   0.987367
   78       -3.530084   0.878432
   79       -3.490472   0.812484
   80       -3.460328   0.749823
   81       -3.228729   0.167594
   82       -2.799342   0.000032
   83       -2.741634   0.000005
   84       -2.624257   0.000000
   85       -2.425754   0.000000
   86       -2.321123   0.000000
   87       -2.228780   0.000000
   88       -2.154413   0.000000
   89       -1.987554   0.000000
   90       -1.945096   0.000000
   91       -1.541351   0.000000
   92       -1.482353   0.000000
   93       -1.422537   0.000000
   94       -1.253304   0.000000
   95       -1.223638   0.000000
   96       -1.154171   0.000000
   97       -1.122260   0.000000
   98       -1.109034   0.000000
   99       -0.846624   0.000000
  100       -0.689903   0.000000
  101       -0.652403   0.000000
  102       -0.619851   0.000000
  103       -0.449407   0.000000
  104       -0.420775   0.000000
  105       -0.366256   0.000000
  106       -0.059957   0.000000
  107       -0.021783   0.000000
  108        0.133193   0.000000
  109        0.147591   0.000000
  110        0.251569   0.000000
  111        0.331147   0.000000
  112        0.409700   0.000000
  113        0.536884   0.000000
  114        0.981013   0.000000
  115        1.037769   0.000000
  116        1.104541   0.000000
  117        1.464481   0.000000
  118        1.653037   0.000000
  119        1.838684   0.000000
  120        2.162898   0.000000
 
  0.1250000E+00  0.2775558E-16  0.0000000E+00  0.3125000E-01
    1      -17.781656   1.000000
    2      -16.774799   1.000000
    3      -16.684451   1.000000
    4      -16.594477   1.000000
    5      -16.500116   1.000000
    6      -16.416728   1.000000
    7      -16.375863   1.000000
    8      -16.311711   1.000000
    9      -16.204791   1.000000
   10      -16.081986   1.000000
   11      -16.005615   1.000000
   12      -15.965543   1.000000
   13      -15.856271   1.000000
   14      -15.804829   1.000000
   15      -15.583533   1.000000
   16      -15.502801   1.000000
   17      -15.490877   1.000000
   18      -15.272034   1.000000
   19       -9.121036   1.000000
   20       -9.089512   1.000000
   21       -8.926531   1.000000
   22       -8.887302   1.000000
   23       -8.829617   1.000000
   24       -8.768449   1.000000
   25       -8.685022   1.000000
   26       -8.611113   1.000000
   27       -8.533394   1.000000
   28       -8.410913   1.000000
   29       -8.340856   1.000000
   30       -8.295503   1.000000
   31       -8.244196   1.000000
   32       -8.142559   1.000000
   33       -8.057482   1.000000
   34       -7.955039   1.000000
   35       -7.928635   1.000000
   36       -7.786321   1.000000
   37       -7.776031   1.000000
   38       -7.532586   1.000000
   39       -7.440255   1.000000
   40       -7.401527   1.000000
   41       -7.302070   1.000000
   42       -7.249732   1.000000
   43       -7.177894   1.000000
   44       -7.002011   1.000000
   45       -6.953800   1.000000
   46       -6.853461   1.000000
   47       -6.776981   1.000000
   48       -6.724016   1.000000
   49       -6.621893   1.000000
   50       -6.589506   1.000000
   51       -6.514303   1.000000
   52       -6.339292   1.000000
   53       -6.253375   1.000000
   54       -6.152141   1.000000
   55       -6.049716   1.000000
   56       -6.019438   1.000000
   57       -5.914451   1.000000
   58       -5.846403   1.000000
   59       -5.763257   1.000000
   60       -5.554116   1.000000
   61       -5.492605   1.000000
   62       -5.422219   1.000000
   63       -5.307318   1.000000
   64       -5.276499   1.000000
   65       -5.181549   1.000000
   66       -5.001711   1.000000
   67       -4.972973   1.000000
   68       -4.935722   1.000000
   69       -4.779337   1.000000
   70       -4.598128   1.000000
   71       -4.537614   1.000000
   72       -4.445148   1.000000
   73       -4.360000   1.000000
   74       -4.280099   1.000000
   75       -4.107109   1.000000
   76       -3.992660   0.999995
   77       -3.742574   0.996204
   78       -3.670201   0.984534
   79       -3.608467   0.957414
   80       -3.335993   0.418691
   81       -3.171723   0.085843
   82       -2.826854   0.000071
   83       -2.729888   0.000004
   84       -2.589594   0.000000
   85       -2.469592   0.000000
   86       -2.283606   0.000000
   87       -2.192335   0.000000
   88       -2.128854   0.000000
   89       -2.017442   0.000000
   90       -1.885038   0.000000
   91       -1.576131   0.000000
   92       -1.480622   0.000000
   93       -1.407407   0.000000
   94       -1.260579   0.000000
   95       -1.233721   0.000000
   96       -1.163425   0.000000
   97       -1.108673   0.000000
   98       -1.089971   0.000000
   99       -0.836639   0.000000
  100       -0.747707   0.000000
  101       -0.688018   0.000000
  102       -0.654553   0.000000
  103       -0.522080   0.000000
  104       -0.509318   0.000000
  105       -0.417276   0.000000
  106       -0.126477   0.000000
  107       -0.087661   0.000000
  108        0.100098   0.000000
  109        0.185633   0.000000
  110        0.222359   0.000000
  111        0.408949   0.000000
  112        0.516583   0.000000
  113        0.617857   0.000000
  114        0.969606   0.000000
  115        1.056626   0.000000
  116        1.115390   0.000000
  117        1.405744   0.000000
  118        1.698693   0.000000
  119        1.876050   0.000000
  120        2.198266   0.000000
 
  0.2500000E+00  0.5551115E-16  0.0000000E+00  0.3125000E-01
    1      -17.704511   1.000000
    2      -16.974288   1.000000
    3      -16.716755   1.000000
    4      -16.654241   1.000000
    5      -16.563151   1.000000
    6      -16.412283   1.000000
    7      -16.313084   1.000000
    8      -16.265351   1.000000
    9      -16.139968   1.000000
   10      -16.050475   1.000000
   11      -15.954536   1.000000
   12      -15.904439   1.000000
   13      -15.856697   1.000000
   14      -15.726164   1.000000
   15      -15.639129   1.000000
   16      -15.513076   1.000000
   17      -15.485702   1.000000
   18      -15.304068   1.000000
   19       -9.433117   1.000000
   20       -9.100144   1.000000
   21       -9.038708   1.000000
   22       -9.001414   1.000000
   23       -8.957831   1.000000
   24       -8.863961   1.000000
   25       -8.677154   1.000000
   26       -8.634400   1.000000
   27       -8.463374   1.000000
   28       -8.330127   1.000000
   29       -8.249919   1.000000
   30       -8.228250   1.000000
   31       -8.143971   1.000000
   32       -8.040466   1.000000
   33       -7.982379   1.000000
   34       -7.894032   1.000000
   35       -7.844151   1.000000
   36       -7.727403   1.000000
   37       -7.562001   1.000000
   38       -7.499629   1.000000
   39       -7.399374   1.000000
   40       -7.357111   1.000000
   41       -7.276118   1.000000
   42       -7.267701   1.000000
   43       -7.105538   1.000000
   44       -7.023879   1.000000
   45       -6.964134   1.000000
   46       -6.892868   1.000000
   47       -6.844099   1.000000
   48       -6.782529   1.000000
   49       -6.648088   1.000000
   50       -6.507319   1.000000
   51       -6.463736   1.000000
   52       -6.328862   1.000000
   53       -6.183641   1.000000
   54       -6.157866   1.000000
   55       -6.115089   1.000000
   56       -6.004882   1.000000
   57       -5.913919   1.000000
   58       -5.816569   1.000000
   59       -5.748451   1.000000
   60       -5.570703   1.000000
   61       -5.546267   1.000000
   62       -5.466990   1.000000
   63       -5.423792   1.000000
   64       -5.409377   1.000000
   65       -5.304058   1.000000
   66       -5.133201   1.000000
   67       -4.981795   1.000000
   68       -4.936952   1.000000
   69       -4.787552   1.000000
   70       -4.620213   1.000000
   71       -4.449441   1.000000
   72       -4.358325   1.000000
   73       -4.245770   1.000000
   74       -4.171307   1.000000
   75       -4.158921   1.000000
   76       -4.037963   0.999999
   77       -3.873540   0.999838
   78       -3.678438   0.986661
   79       -3.598794   0.950838
   80       -3.306460   0.339408
   81       -3.118257   0.040504
   82       -2.856669   0.000162
   83       -2.720534   0.000003
   84       -2.540608   0.000000
   85       -2.493795   0.000000
   86       -2.306601   0.000000
   87       -2.129792   0.000000
   88       -2.015044   0.000000
   89       -1.984002   0.000000
   90       -1.814787   0.000000
   91       -1.621762   0.000000
   92       -1.512836   0.000000
   93       -1.384233   0.000000
   94       -1.281057   0.000000
   95       -1.237445   0.000000
   96       -1.193017   0.000000
   97       -1.085231   0.000000
   98       -1.064309   0.000000
   99       -0.895346   0.000000
  100       -0.817850   0.000000
  101       -0.769919   0.000000
  102       -0.760869   0.000000
  103       -0.665387   0.000000
  104       -0.597474   0.000000
  105       -0.504263   0.000000
  106       -0.309617   0.000000
  107       -0.196575   0.000000
  108        0.053328   0.000000
  109        0.168986   0.000000
  110        0.231720   0.000000
  111        0.488029   0.000000
  112        0.690902   0.000000
  113        0.794290   0.000000
  114        0.942372   0.000000
  115        1.113007   0.000000
  116        1.166340   0.000000
  117        1.291305   0.000000
  118        1.823998   0.000000
  119        1.984241   0.000000
  120        2.303173   0.000000
 
  0.3750000E+00  0.0000000E+00  0.0000000E+00  0.3125000E-01
    1      -17.579600   1.000000
    2      -17.198903   1.000000
    3      -16.743053   1.000000
    4      -16.682873   1.000000
    5      -16.582727   1.000000
    6      -16.456759   1.000000
    7      -16.276240   1.000000
    8      -16.195852   1.000000
    9      -16.093114   1.000000
   10      -16.001646   1.000000
   11      -15.950847   1.000000
   12      -15.882130   1.000000
   13      -15.800037   1.000000
   14      -15.709134   1.000000
   15      -15.657279   1.000000
   16      -15.513561   1.000000
   17      -15.488068   1.000000
   18      -15.335061   1.000000
   19       -9.671381   1.000000
   20       -9.187437   1.000000
   21       -9.120003   1.000000
   22       -9.084318   1.000000
   23       -9.006530   1.000000
   24       -8.858228   1.000000
   25       -8.614394   1.000000
   26       -8.562864   1.000000
   27       -8.435694   1.000000
   28       -8.297562   1.000000
   29       -8.279874   1.000000
   30       -8.189643   1.000000
   31       -8.063241   1.000000
   32       -8.015001   1.000000
   33       -7.980655   1.000000
   34       -7.879837   1.000000
   35       -7.772936   1.000000
   36       -7.714953   1.000000
   37       -7.572093   1.000000
   38       -7.433148   1.000000
   39       -7.368020   1.000000
   40       -7.347539   1.000000
   41       -7.277404   1.000000
   42       -7.164923   1.000000
   43       -7.098273   1.000000
   44       -7.021227   1.000000
   45       -6.885659   1.000000
   46       -6.836955   1.000000
   47       -6.682257   1.000000
   48       -6.652106   1.000000
   49       -6.562202   1.000000
   50       -6.485570   1.000000
   51       -6.392326   1.000000
   52       -6.320451   1.000000
   53       -6.236755   1.000000
   54       -6.131511   1.000000
   55       -6.095477   1.000000
   56       -6.041855   1.000000
   57       -5.978945   1.000000
   58       -5.945851   1.000000
   59       -5.843420   1.000000
   60       -5.701049   1.000000
   61       -5.649777   1.000000
   62       -5.567823   1.000000
   63       -5.525944   1.000000
   64       -5.413971   1.000000
   65       -5.342708   1.000000
   66       -5.156481   1.000000
   67       -5.003827   1.000000
   68       -4.845663   1.000000
   69       -4.766019   1.000000
   70       -4.688679   1.000000
   71       -4.606221   1.000000
   72       -4.308910   1.000000
   73       -4.212034   1.000000
   74       -4.164004   1.000000
   75       -4.116454   1.000000
   76       -4.033044   0.999999
   77       -3.849839   0.999696
   78       -3.629103   0.969074
   79       -3.494773   0.820560
   80       -3.358026   0.480280
   81       -3.091597   0.026594
   82       -2.859263   0.000174
   83       -2.749898   0.000007
   84       -2.519168   0.000000
   85       -2.460175   0.000000
   86       -2.359638   0.000000
   87       -2.053300   0.000000
   88       -1.928314   0.000000
   89       -1.905645   0.000000
   90       -1.777081   0.000000
   91       -1.633032   0.000000
   92       -1.528749   0.000000
   93       -1.410117   0.000000
   94       -1.303499   0.000000
   95       -1.238960   0.000000
   96       -1.212033   0.000000
   97       -1.090564   0.000000
   98       -1.075585   0.000000
   99       -1.006080   0.000000
  100       -0.899785   0.000000
  101       -0.853056   0.000000
  102       -0.790770   0.000000
  103       -0.755056   0.000000
  104       -0.624124   0.000000
  105       -0.564947   0.000000
  106       -0.450399   0.000000
  107       -0.317028   0.000000
  108       -0.002304   0.000000
  109        0.147391   0.000000
  110        0.211755   0.000000
  111        0.496311   0.000000
  112        0.833962   0.000000
  113        0.923279   0.000000
  114        0.962058   0.000000
  115        1.166431   0.000000
  116        1.194230   0.000000
  117        1.242043   0.000000
  118        2.010355   0.000000
  119        2.156734   0.000000
  120        2.475131   0.000000
 
  0.5000000E+00  0.1110223E-15  0.0000000E+00  0.1562500E-01
    1      -17.438796   1.000000
    2      -17.375199   1.000000
    3      -16.754783   1.000000
    4      -16.693871   1.000000
    5      -16.578925   1.000000
    6      -16.478373   1.000000
    7      -16.281009   1.000000
    8      -16.104575   1.000000
    9      -16.083745   1.000000
   10      -16.068389   1.000000
   11      -15.912162   1.000000
   12      -15.834701   1.000000
   13      -15.785939   1.000000
   14      -15.736538   1.000000
   15      -15.672884   1.000000
   16      -15.496936   1.000000
   17      -15.489740   1.000000
   18      -15.347230   1.000000
   19       -9.755870   1.000000
   20       -9.220753   1.000000
   21       -9.153564   1.000000
   22       -9.117633   1.000000
   23       -9.056505   1.000000
   24       -8.710853   1.000000
   25       -8.653359   1.000000
   26       -8.577474   1.000000
   27       -8.413234   1.000000
   28       -8.352042   1.000000
   29       -8.185450   1.000000
   30       -8.173440   1.000000
   31       -8.074692   1.000000
   32       -8.035807   1.000000
   33       -7.940079   1.000000
   34       -7.878393   1.000000
   35       -7.827241   1.000000
   36       -7.659223   1.000000
   37       -7.590662   1.000000
   38       -7.496818   1.000000
   39       -7.406023   1.000000
   40       -7.345899   1.000000
   41       -7.262851   1.000000
   42       -7.086138   1.000000
   43       -7.045808   1.000000
   44       -6.990083   1.000000
   45       -6.840361   1.000000
   46       -6.658201   1.000000
   47       -6.638695   1.000000
   48       -6.569646   1.000000
   49       -6.499405   1.000000
   50       -6.477934   1.000000
   51       -6.366974   1.000000
   52       -6.347167   1.000000
   53       -6.339532   1.000000
   54       -6.272736   1.000000
   55       -6.123688   1.000000
   56       -6.004344   1.000000
   57       -5.955871   1.000000
   58       -5.908961   1.000000
   59       -5.803261   1.000000
   60       -5.724204   1.000000
   61       -5.690335   1.000000
   62       -5.601705   1.000000
   63       -5.561041   1.000000
   64       -5.550196   1.000000
   65       -5.419254   1.000000
   66       -5.126265   1.000000
   67       -5.119409   1.000000
   68       -4.787826   1.000000
   69       -4.775674   1.000000
   70       -4.725846   1.000000
   71       -4.508487   1.000000
   72       -4.443844   1.000000
   73       -4.171239   1.000000
   74       -4.153113   1.000000
   75       -4.116142   1.000000
   76       -3.961003   0.999987
   77       -3.853150   0.999721
   78       -3.560148   0.916171
   79       -3.462751   0.755238
   80       -3.411045   0.627580
   81       -3.075368   0.020273
   82       -2.853549   0.000149
   83       -2.779568   0.000017
   84       -2.504192   0.000000
   85       -2.449642   0.000000
   86       -2.374121   0.000000
   87       -2.022261   0.000000
   88       -1.896260   0.000000
   89       -1.870785   0.000000
   90       -1.777634   0.000000
   91       -1.630588   0.000000
   92       -1.492817   0.000000
   93       -1.450177   0.000000
   94       -1.318676   0.000000
   95       -1.240199   0.000000
   96       -1.219739   0.000000
   97       -1.131459   0.000000
   98       -1.105067   0.000000
   99       -1.000364   0.000000
  100       -0.954698   0.000000
  101       -0.843920   0.000000
  102       -0.821879   0.000000
  103       -0.787125   0.000000
  104       -0.614077   0.000000
  105       -0.588009   0.000000
  106       -0.511719   0.000000
  107       -0.368224   0.000000
  108       -0.026337   0.000000
  109        0.142107   0.000000
  110        0.197076   0.000000
  111        0.486063   0.000000
  112        0.880138   0.000000
  113        0.923304   0.000000
  114        1.079873   0.000000
  115        1.100017   0.000000
  116        1.204068   0.000000
  117        1.267922   0.000000
  118        2.243347   0.000000
  119        2.251592   0.000000
  120        2.374787   0.000000
 
  0.0000000E+00  0.1250000E+00  0.0000000E+00  0.3125000E-01
    1      -17.781920   1.000000
    2      -16.783186   1.000000
    3      -16.658600   1.000000
    4      -16.605240   1.000000
    5      -16.539631   1.000000
    6      -16.416378   1.000000
    7      -16.343895   1.000000
    8      -16.292507   1.000000
    9      -16.181746   1.000000
   10      -16.099186   1.000000
   11      -16.031118   1.000000
   12      -15.968678   1.000000
   13      -15.837886   1.000000
   14      -15.823310   1.000000
   15      -15.576657   1.000000
   16      -15.506961   1.000000
   17      -15.496034   1.000000
   18      -15.265617   1.000000
   19       -9.128962   1.000000
   20       -9.090432   1.000000
   21       -8.963997   1.000000
   22       -8.893983   1.000000
   23       -8.837640   1.000000
   24       -8.686370   1.000000
   25       -8.649971   1.000000
   26       -8.612360   1.000000
   27       -8.523098   1.000000
   28       -8.442272   1.000000
   29       -8.364271   1.000000
   30       -8.271526   1.000000
   31       -8.234465   1.000000
   32       -8.134010   1.000000
   33       -8.093838   1.000000
   34       -7.989086   1.000000
   35       -7.914051   1.000000
   36       -7.801078   1.000000
   37       -7.687509   1.000000
   38       -7.621805   1.000000
   39       -7.524170   1.000000
   40       -7.349709   1.000000
   41       -7.307045   1.000000
   42       -7.246841   1.000000
   43       -7.139886   1.000000
   44       -7.017549   1.000000
   45       -6.956213   1.000000
   46       -6.841271   1.000000
   47       -6.793547   1.000000
   48       -6.666287   1.000000
   49       -6.600869   1.000000
   50       -6.553720   1.000000
   51       -6.488606   1.000000
   52       -6.376381   1.000000
   53       -6.247225   1.000000
   54       -6.175953   1.000000
   55       -6.116981   1.000000
   56       -5.997872   1.000000
   57       -5.935026   1.000000
   58       -5.841513   1.000000
   59       -5.770002   1.000000
   60       -5.569429   1.000000
   61       -5.521167   1.000000
   62       -5.417721   1.000000
   63       -5.368253   1.000000
   64       -5.235398   1.000000
   65       -5.100752   1.000000
   66       -5.045990   1.000000
   67       -4.955002   1.000000
   68       -4.866438   1.000000
   69       -4.732315   1.000000
   70       -4.647121   1.000000
   71       -4.546606   1.000000
   72       -4.492865   1.000000
   73       -4.431755   1.000000
   74       -4.182757   1.000000
   75       -4.111299   1.000000
   76       -4.005920   0.999997
   77       -3.749516   0.996724
   78       -3.660496   0.981661
   79       -3.602117   0.953184
   80       -3.404401   0.609676
   81       -3.116881   0.039664
   82       -2.792903   0.000026
   83       -2.713939   0.000002
   84       -2.623887   0.000000
   85       -2.417313   0.000000
   86       -2.309285   0.000000
   87       -2.197495   0.000000
   88       -2.134655   0.000000
   89       -1.998424   0.000000
   90       -1.909501   0.000000
   91       -1.564715   0.000000
   92       -1.499134   0.000000
   93       -1.403325   0.000000
   94       -1.253495   0.000000
   95       -1.224937   0.000000
   96       -1.169183   0.000000
   97       -1.108255   0.000000
   98       -1.091032   0.000000
   99       -0.846336   0.000000
  100       -0.760704   0.000000
  101       -0.729241   0.000000
  102       -0.690800   0.000000
  103       -0.550473   0.000000
  104       -0.461399   0.000000
  105       -0.399657   0.000000
  106       -0.067718   0.000000
  107       -0.039444   0.000000
  108        0.087310   0.000000
  109        0.161084   0.000000
  110        0.286187   0.000000
  111        0.379052   0.000000
  112        0.475104   0.000000
  113        0.567474   0.000000
  114        0.966511   0.000000
  115        1.056309   0.000000
  116        1.127666   0.000000
  117        1.433423   0.000000
  118        1.696866   0.000000
  119        1.876841   0.000000
  120        2.198078   0.000000
 
  0.1250000E+00  0.1250000E+00  0.0000000E+00  0.3125000E-01
    1      -17.730328   1.000000
    2      -16.887536   1.000000
    3      -16.778901   1.000000
    4      -16.654684   1.000000
    5      -16.454800   1.000000
    6      -16.406410   1.000000
    7      -16.367623   1.000000
    8      -16.258480   1.000000
    9      -16.160288   1.000000
   10      -16.069485   1.000000
   11      -15.989918   1.000000
   12      -15.913023   1.000000
   13      -15.835920   1.000000
   14      -15.772235   1.000000
   15      -15.619869   1.000000
   16      -15.512606   1.000000
   17      -15.485238   1.000000
   18      -15.289996   1.000000
   19       -9.281261   1.000000
   20       -9.238630   1.000000
   21       -9.068023   1.000000
   22       -8.981399   1.000000
   23       -8.800991   1.000000
   24       -8.753298   1.000000
   25       -8.665647   1.000000
   26       -8.613423   1.000000
   27       -8.530113   1.000000
   28       -8.347527   1.000000
   29       -8.328172   1.000000
   30       -8.245858   1.000000
   31       -8.213836   1.000000
   32       -8.088866   1.000000
   33       -7.953471   1.000000
   34       -7.902138   1.000000
   35       -7.820182   1.000000
   36       -7.775315   1.000000
   37       -7.590913   1.000000
   38       -7.533402   1.000000
   39       -7.380390   1.000000
   40       -7.344159   1.000000
   41       -7.307577   1.000000
   42       -7.252993   1.000000
   43       -7.161528   1.000000
   44       -7.043954   1.000000
   45       -6.996426   1.000000
   46       -6.903845   1.000000
   47       -6.792190   1.000000
   48       -6.742517   1.000000
   49       -6.635198   1.000000
   50       -6.536378   1.000000
   51       -6.468472   1.000000
   52       -6.318918   1.000000
   53       -6.248319   1.000000
   54       -6.133643   1.000000
   55       -6.089551   1.000000
   56       -6.045075   1.000000
   57       -5.896095   1.000000
   58       -5.853784   1.000000
   59       -5.710934   1.000000
   60       -5.610675   1.000000
   61       -5.521390   1.000000
   62       -5.458475   1.000000
   63       -5.403965   1.000000
   64       -5.326132   1.000000
   65       -5.189441   1.000000
   66       -5.160055   1.000000
   67       -5.010751   1.000000
   68       -4.929612   1.000000
   69       -4.754006   1.000000
   70       -4.620421   1.000000
   71       -4.493673   1.000000
   72       -4.393530   1.000000
   73       -4.275774   1.000000
   74       -4.146226   1.000000
   75       -4.123844   1.000000
   76       -4.061596   1.000000
   77       -3.821736   0.999380
   78       -3.714040   0.993206
   79       -3.639042   0.973666
   80       -3.321870   0.380141
   81       -3.090385   0.026071
   82       -2.832395   0.000083
   83       -2.700664   0.000001
   84       -2.578846   0.000000
   85       -2.454301   0.000000
   86       -2.284554   0.000000
   87       -2.172434   0.000000
   88       -2.055067   0.000000
   89       -1.996989   0.000000
   90       -1.836347   0.000000
   91       -1.608262   0.000000
   92       -1.507117   0.000000
   93       -1.391810   0.000000
   94       -1.267364   0.000000
   95       -1.239212   0.000000
   96       -1.182306   0.000000
   97       -1.094122   0.000000
   98       -1.073917   0.000000
   99       -0.855980   0.000000
  100       -0.844162   0.000000
  101       -0.787462   0.000000
  102       -0.723766   0.000000
  103       -0.639066   0.000000
  104       -0.593417   0.000000
  105       -0.447417   0.000000
  106       -0.224733   0.000000
  107       -0.132136   0.000000
  108        0.064846   0.000000
  109        0.182668   0.000000
  110        0.259084   0.000000
  111        0.459237   0.000000
  112        0.591557   0.000000
  113        0.723462   0.000000
  114        0.939515   0.000000
  115        1.063747   0.000000
  116        1.179394   0.000000
  117        1.364209   0.000000
  118        1.782582   0.000000
  119        1.949455   0.000000
  120        2.268207   0.000000
 
  0.2500000E+00  0.1250000E+00  0.0000000E+00  0.3125000E-01
    1      -17.629159   1.000000
    2      -17.077478   1.000000
    3      -16.891837   1.000000
    4      -16.629102   1.000000
    5      -16.475871   1.000000
    6      -16.418124   1.000000
    7      -16.290354   1.000000
    8      -16.257236   1.000000
    9      -16.104319   1.000000
   10      -16.014062   1.000000
   11      -15.961574   1.000000
   12      -15.920611   1.000000
   13      -15.809541   1.000000
   14      -15.693767   1.000000
   15      -15.664358   1.000000
   16      -15.515676   1.000000
   17      -15.482336   1.000000
   18      -15.321008   1.000000
   19       -9.557728   1.000000
   20       -9.354544   1.000000
   21       -9.181108   1.000000
   22       -8.950909   1.000000
   23       -8.854596   1.000000
   24       -8.781316   1.000000
   25       -8.626224   1.000000
   26       -8.577047   1.000000
   27       -8.447944   1.000000
   28       -8.334056   1.000000
   29       -8.255042   1.000000
   30       -8.204894   1.000000
   31       -8.152507   1.000000
   32       -8.044023   1.000000
   33       -8.033424   1.000000
   34       -7.921359   1.000000
   35       -7.864673   1.000000
   36       -7.613006   1.000000
   37       -7.505222   1.000000
   38       -7.433654   1.000000
   39       -7.346136   1.000000
   40       -7.316489   1.000000
   41       -7.272147   1.000000
   42       -7.201543   1.000000
   43       -7.100193   1.000000
   44       -7.062279   1.000000
   45       -6.951245   1.000000
   46       -6.810166   1.000000
   47       -6.754114   1.000000