       N       E                     dE             d eps       ncg     rms          rms(c)
DAV:   1     0.112452630659E+04    0.11245E+04   -0.35853E+04  8160   0.577E+02
DAV:   2    -0.374508217390E+01   -0.11283E+04   -0.10876E+04 11400   0.173E+02
DAV:   3    -0.199951330690E+03   -0.19621E+03   -0.18816E+03 10880   0.817E+01
DAV:   4    -0.209039109669E+03   -0.90878E+01   -0.88408E+01 12240   0.261E+01
DAV:   5    -0.209350602126E+03   -0.31149E+00   -0.31074E+00 11160   0.347E+00    0.275E+01
DAV:   6    -0.236557416263E+03   -0.27207E+02   -0.10037E+02 12800   0.596E+01    0.595E+01
DAV:   7    -0.196087385728E+03    0.40470E+02   -0.16751E+02 12520   0.146E+02    0.198E+01
DAV:   8    -0.189218136540E+03    0.68692E+01   -0.16349E+01 12200   0.123E+01    0.118E+01
DAV:   9    -0.188013659898E+03    0.12045E+01   -0.29917E+00 13440   0.661E+00    0.824E+00
DAV:  10    -0.187021831450E+03    0.99183E+00   -0.14385E+00 13000   0.677E+00    0.201E+00
DAV:  11    -0.187219242377E+03   -0.19741E+00   -0.80594E-01 13200   0.455E+00    0.479E+00
DAV:  12    -0.187060129488E+03    0.15911E+00   -0.39449E-01 12240   0.413E+00    0.344E+00
DAV:  13    -0.186941212762E+03    0.11892E+00   -0.20755E-01 12360   0.288E+00    0.121E+00
DAV:  14    -0.186934578528E+03    0.66342E-02   -0.46770E-02 13080   0.117E+00    0.103E+00
DAV:  15    -0.186928146194E+03    0.64323E-02   -0.15115E-02 13320   0.625E-01    0.591E-01
DAV:  16    -0.186923934029E+03    0.42122E-02   -0.88300E-03 13040   0.399E-01    0.168E-01
DAV:  17    -0.186923688087E+03    0.24594E-03   -0.34450E-03 12080   0.166E-01    0.206E-01
DAV:  18    -0.186923149622E+03    0.53847E-03   -0.15919E-03 12480   0.177E-01    0.863E-02
DAV:  19    -0.186923553228E+03   -0.40361E-03   -0.74331E-04 10800   0.792E-02    0.942E-02
DAV:  20    -0.186924102143E+03   -0.54892E-03   -0.64224E-04  9720   0.844E-02    0.790E-02
DAV:  21    -0.186925251908E+03   -0.11498E-02   -0.35520E-04  9160   0.749E-02    0.241E-02
DAV:  22    -0.186926139803E+03   -0.88790E-03   -0.92261E-05  7120   0.267E-02    0.275E-02
DAV:  23    -0.186926855063E+03   -0.71526E-03   -0.62353E-05  7800   0.230E-02    0.143E-02
DAV:  24    -0.186927531271E+03   -0.67621E-03   -0.42234E-05  7040   0.199E-02    0.999E-03
DAV:  25    -0.186927906892E+03   -0.37562E-03   -0.11306E-05  6200   0.139E-02    0.526E-03
DAV:  26    -0.186928118894E+03   -0.21200E-03   -0.76448E-06  6800   0.800E-03    0.294E-03
DAV:  27    -0.186928203882E+03   -0.84988E-04   -0.31187E-06  7160   0.558E-03
   1 F= -.18692820E+03 E0= -.18675598E+03  d E =-.186928E+03
       N       E                     dE             d eps       ncg     rms          rms(c)
DAV:   1    -0.187487603065E+03   -0.55948E+00   -0.26699E+02  8160   0.346E+01    0.463E+00
DAV:   2    -0.189404070476E+03   -0.19165E+01   -0.20559E+01 12920   0.154E+01    0.883E+00
DAV:   3    -0.189395226104E+03    0.88444E-02   -0.40607E+00 12360   0.117E+01    0.701E+00
DAV:   4    -0.188763671553E+03    0.63155E+00   -0.60204E-01 12160   0.457E+00    0.173E+00
DAV:   5    -0.188773525471E+03   -0.98539E-02   -0.31839E-01 10200   0.155E+00    0.236E+00
DAV:   6    -0.188716958029E+03    0.56567E-01   -0.30109E-01 12160   0.221E+00    0.203E+00
DAV:   7    -0.188721660124E+03   -0.47021E-02   -0.17720E-01 12160   0.262E+00    0.234E+00
DAV:   8    -0.188677761353E+03    0.43899E-01   -0.81857E-02 12880   0.153E+00    0.376E-01
DAV:   9    -0.188675754207E+03    0.20071E-02   -0.67799E-03 10520   0.284E-01    0.200E-01
DAV:  10    -0.188677123715E+03   -0.13695E-02   -0.45641E-03 13520   0.394E-01    0.482E-01
DAV:  11    -0.188675332360E+03    0.17914E-02   -0.36266E-03 12440   0.354E-01    0.107E-01
DAV:  12    -0.188675446972E+03   -0.11461E-03   -0.64871E-04 11360   0.976E-02    0.796E-02
DAV:  13    -0.188675378661E+03    0.68311E-04   -0.19435E-04  8000   0.467E-02
   2 F= -.18867538E+03 E0= -.18853342E+03  d E =-.174717E+01
       N       E                     dE             d eps       ncg     rms          rms(c)
DAV:   1    -0.190573862803E+03   -0.18984E+01   -0.30372E+01  8880   0.141E+01    0.447E+00
DAV:   2    -0.190675350768E+03   -0.10149E+00   -0.29226E+00 11360   0.101E+01    0.807E+00
DAV:   3    -0.190029063520E+03    0.64629E+00   -0.13790E+00 12320   0.857E+00    0.392E+00
DAV:   4    -0.189846480291E+03    0.18258E+00   -0.66519E-01 12280   0.364E+00    0.250E+00
DAV:   5    -0.189768031389E+03    0.78449E-01   -0.28893E-01 12000   0.196E+00    0.120E+00
DAV:   6    -0.189749691562E+03    0.18340E-01   -0.60801E-02 11840   0.138E+00    0.862E-01
DAV:   7    -0.189743935567E+03    0.57560E-02   -0.14661E-02 11440   0.715E-01    0.201E-01
DAV:   8    -0.189743970810E+03   -0.35243E-04   -0.21059E-03 12400   0.164E-01    0.147E-01
DAV:   9    -0.189744111851E+03   -0.14104E-03   -0.10787E-03 10600   0.145E-01    0.153E-01
DAV:  10    -0.189744609685E+03   -0.49783E-03   -0.14572E-03 10480   0.266E-01    0.261E-01
DAV:  11    -0.189743972700E+03    0.63699E-03   -0.85609E-04  9160   0.195E-01    0.219E-02
DAV:  12    -0.189743996387E+03   -0.23687E-04   -0.66711E-05  5760   0.280E-02
   3 F= -.18974400E+03 E0= -.18962431E+03  d E =-.106862E+01
       N       E                     dE             d eps       ncg     rms          rms(c)
DAV:   1    -0.191236308688E+03   -0.14923E+01   -0.63102E+01  8160   0.182E+01    0.464E+00
DAV:   2    -0.191351004235E+03   -0.11470E+00   -0.55886E+00 13600   0.100E+01    0.683E+00
DAV:   3    -0.191001162365E+03    0.34984E+00   -0.16822E+00 12040   0.922E+00    0.493E+00
DAV:   4    -0.190759352413E+03    0.24181E+00   -0.86774E-01 12280   0.506E+00    0.256E+00
DAV:   5    -0.190666880750E+03    0.92472E-01   -0.27715E-01 12160   0.209E+00    0.123E+00
DAV:   6    -0.190657316794E+03    0.95640E-02   -0.10653E-01 11720   0.199E+00    0.143E+00
DAV:   7    -0.190643572577E+03    0.13744E-01   -0.52388E-02 11400   0.159E+00    0.599E-01
DAV:   8    -0.190638735556E+03    0.48370E-02   -0.67678E-03 12240   0.471E-01    0.118E-01
DAV:   9    -0.190639298937E+03   -0.56338E-03   -0.19503E-03 10840   0.152E-01    0.153E-01
DAV:  10    -0.190639125763E+03    0.17317E-03   -0.90926E-04 10640   0.191E-01    0.117E-01
DAV:  11    -0.190639046557E+03    0.79206E-04   -0.32094E-04  7920   0.124E-01
   4 F= -.19063905E+03 E0= -.19053883E+03  d E =-.895050E+00
       N       E                     dE             d eps       ncg     rms          rms(c)
DAV:   1    -0.191939667151E+03   -0.13005E+01   -0.11431E+02  8160   0.242E+01    0.569E+00
DAV:   2    -0.192054650247E+03   -0.11498E+00   -0.93612E+00 13560   0.118E+01    0.707E+00
DAV:   3    -0.191733134814E+03    0.32152E+00   -0.23323E+00 11760   0.113E+01    0.628E+00
DAV:   4    -0.191363286577E+03    0.36985E+00   -0.13662E+00 12240   0.751E+00    0.316E+00
DAV:   5    -0.191205729820E+03    0.15756E+00   -0.42977E-01 12600   0.313E+00    0.159E+00
DAV:   6    -0.191202886184E+03    0.28436E-02   -0.18778E-01 12560   0.303E+00    0.196E+00
DAV:   7    -0.191169592368E+03    0.33294E-01   -0.88401E-02 12400   0.214E+00    0.549E-01
DAV:   8    -0.191164365324E+03    0.52270E-02   -0.90720E-03 11200   0.467E-01    0.148E-01
DAV:   9    -0.191165215647E+03   -0.85032E-03   -0.33479E-03 11360   0.254E-01    0.222E-01
DAV:  10    -0.191164843896E+03    0.37175E-03   -0.13732E-03 10400   0.275E-01    0.102E-01
DAV:  11    -0.191164773515E+03    0.70382E-04   -0.25833E-04  6960   0.997E-02
   5 F= -.19116477E+03 E0= -.19107389E+03  d E =-.525727E+00
       N       E                     dE             d eps       ncg     rms          rms(c)
DAV:   1    -0.191205032918E+03   -0.40189E-01   -0.36028E+00  8160   0.406E+00    0.521E-01
DAV:   2    -0.191217065474E+03   -0.12033E-01   -0.14425E-01 13200   0.127E+00    0.725E-01
DAV:   3    -0.191213617535E+03    0.34479E-02   -0.30684E-02 12440   0.122E+00    0.688E-01
DAV:   4    -0.191209617572E+03    0.40000E-02   -0.12055E-02 11280   0.806E-01    0.310E-01
DAV:   5    -0.191208191980E+03    0.14256E-02   -0.37622E-03 10160   0.379E-01    0.201E-01
DAV:   6    -0.191208431291E+03   -0.23931E-03   -0.25091E-03 12200   0.379E-01    0.233E-01
DAV:   7    -0.191207801641E+03    0.62965E-03   -0.94907E-04 10400   0.221E-01    0.343E-02
DAV:   8    -0.191207836322E+03   -0.34681E-04   -0.10804E-04  6160   0.656E-02
   6 F= -.19120784E+03 E0= -.19111433E+03  d E =-.430628E-01
       N       E                     dE             d eps       ncg     rms          rms(c)
DAV:   1    -0.191220008773E+03   -0.12207E-01   -0.32266E-01  8160   0.122E+00    0.173E-01
DAV:   2    -0.191220797030E+03   -0.78826E-03   -0.12414E-02 11640   0.366E-01    0.222E-01
DAV:   3    -0.191220744789E+03    0.52241E-04   -0.30856E-03 12480   0.409E-01    0.245E-01
DAV:   4    -0.191220170833E+03    0.57396E-03   -0.13703E-03  9880   0.274E-01    0.993E-02
DAV:   5    -0.191220097963E+03    0.72870E-04   -0.48911E-04  9040   0.140E-01
   7 F= -.19122010E+03 E0= -.19112552E+03  d E =-.122616E-01
       N       E                     dE             d eps       ncg     rms          rms(c)
DAV:   1    -0.191218967052E+03    0.12038E-02   -0.99752E-01  8160   0.238E+00    0.583E-01
DAV:   2    -0.191216600026E+03    0.23670E-02   -0.71888E-02 12440   0.101E+00    0.717E-01
DAV:   3    -0.191216980531E+03   -0.38051E-03   -0.31047E-02 11720   0.135E+00    0.801E-01
DAV:   4    -0.191210305364E+03    0.66752E-02   -0.15670E-02 11440   0.911E-01    0.344E-01
DAV:   5    -0.191210488241E+03   -0.18288E-03   -0.74940E-03 10440   0.624E-01    0.409E-01
DAV:   6    -0.191208436174E+03    0.20521E-02   -0.33385E-03 11960   0.410E-01    0.670E-02
DAV:   7    -0.191208502870E+03   -0.66697E-04   -0.42779E-04  9640   0.101E-01
   8 F= -.19120850E+03 E0= -.19111557E+03  d E =0.115951E-01
       N       E                     dE             d eps       ncg     rms          rms(c)
DAV:   1    -0.191289102543E+03   -0.80666E-01   -0.65933E+00  8160   0.567E+00    0.952E-01
DAV:   2    -0.191298031480E+03   -0.89289E-02   -0.25741E-01 12920   0.197E+00    0.135E+00
DAV:   3    -0.191289800797E+03    0.82307E-02   -0.88593E-02 12200   0.226E+00    0.114E+00
DAV:   4    -0.191276342439E+03    0.13458E-01   -0.36700E-02 12280   0.135E+00    0.603E-01
DAV:   5    -0.191276096870E+03    0.24557E-03   -0.21869E-02 10800   0.103E+00    0.731E-01
DAV:   6    -0.191270673399E+03    0.54235E-02   -0.12893E-02 11880   0.795E-01    0.211E-01
DAV:   7    -0.191270110166E+03    0.56323E-03   -0.21421E-03 10800   0.233E-01    0.808E-02
DAV:   8    -0.191270161023E+03   -0.50856E-04   -0.64133E-04 11200   0.168E-01
   9 F= -.19127016E+03 E0= -.19117282E+03  d E =-.616582E-01
       N       E                     dE             d eps       ncg     rms          rms(c)
DAV:   1    -0.191291683449E+03   -0.21573E-01   -0.72656E-01  8160   0.185E+00    0.282E-01
DAV:   2    -0.191293560682E+03   -0.18772E-02   -0.31394E-02 12720   0.650E-01    0.413E-01
DAV:   3    -0.191292462977E+03    0.10977E-02   -0.79305E-03 11840   0.642E-01    0.322E-01
DAV:   4    -0.191291640331E+03    0.82265E-03   -0.34244E-03 10760   0.396E-01    0.196E-01
DAV:   5    -0.191291370550E+03    0.26978E-03   -0.18055E-03  9760   0.305E-01    0.183E-01
DAV:   6    -0.191291061619E+03    0.30893E-03   -0.92835E-04  9760   0.223E-01    0.725E-02
DAV:   7    -0.191291002446E+03    0.59173E-04   -0.14027E-04  6120   0.748E-02
  10 F= -.19129100E+03 E0= -.19119330E+03  d E =-.208414E-01
       N       E                     dE             d eps       ncg     rms          rms(c)
DAV:   1    -0.191340714560E+03   -0.49653E-01   -0.30304E+00  8160   0.369E+00    0.387E-01
DAV:   2    -0.191349705377E+03   -0.89908E-02   -0.81180E-02 13560   0.104E+00    0.686E-01
DAV:   3    -0.191346091409E+03    0.36140E-02   -0.19838E-02 12120   0.103E+00    0.480E-01
DAV:   4    -0.191343942554E+03    0.21489E-02   -0.56189E-03 11400   0.513E-01    0.197E-01
DAV:   5    -0.191343545338E+03    0.39722E-03   -0.19467E-03 11680   0.288E-01    0.183E-01
DAV:   6    -0.191343475719E+03    0.69619E-04   -0.13601E-03 11200   0.284E-01    0.143E-01
DAV:   7    -0.191343227759E+03    0.24796E-03   -0.41913E-04  8240   0.138E-01    0.282E-02
DAV:   8    -0.191343229228E+03   -0.14690E-05   -0.67623E-05  6160   0.434E-02
  11 F= -.19134323E+03 E0= -.19124572E+03  d E =-.522268E-01
       N       E                     dE             d eps       ncg     rms          rms(c)
DAV:   1    -0.191293870465E+03    0.49357E-01   -0.26715E+00  8160   0.351E+00    0.438E-01
DAV:   2    -0.191299768051E+03   -0.58976E-02   -0.79243E-02 13320   0.102E+00    0.645E-01
DAV:   3    -0.191297909181E+03    0.18589E-02   -0.20947E-02 11880   0.108E+00    0.590E-01
DAV:   4    -0.191294408379E+03    0.35008E-02   -0.84150E-03 11520   0.637E-01    0.215E-01
DAV:   5    -0.191293967376E+03    0.44100E-03   -0.27856E-03 11360   0.311E-01    0.205E-01
DAV:   6    -0.191293778030E+03    0.18935E-03   -0.18421E-03 11760   0.318E-01    0.159E-01
DAV:   7    -0.191293490855E+03    0.28718E-03   -0.61502E-04  9800   0.166E-01    0.367E-02
DAV:   8    -0.191293476403E+03    0.14452E-04   -0.75283E-05  6480   0.382E-02
  12 F= -.19129348E+03 E0= -.19119592E+03  d E =0.497528E-01
       N       E                     dE             d eps       ncg     rms          rms(c)
DAV:   1    -0.191376109130E+03   -0.82618E-01   -0.65714E+00  8160   0.556E+00    0.728E-01
DAV:   2    -0.191389025824E+03   -0.12917E-01   -0.21069E-01 13560   0.163E+00    0.988E-01
DAV:   3    -0.191386238726E+03    0.27871E-02   -0.54776E-02 11400   0.174E+00    0.933E-01
DAV:   4    -0.191376613655E+03    0.96251E-02   -0.21115E-02 11920   0.105E+00    0.395E-01
DAV:   5    -0.191376284775E+03    0.32888E-03   -0.10274E-02 11200   0.687E-01    0.482E-01
DAV:   6    -0.191374216007E+03    0.20688E-02   -0.67939E-03 11520   0.597E-01    0.204E-01
DAV:   7    -0.191373648333E+03    0.56767E-03   -0.15079E-03 10880   0.213E-01    0.534E-02
DAV:   8    -0.191373588381E+03    0.59952E-04   -0.22025E-04  8600   0.583E-02
  13 F= -.19137359E+03 E0= -.19127645E+03  d E =-.801120E-01
       N       E                     dE             d eps       ncg     rms          rms(c)
DAV:   1    -0.191399328907E+03   -0.25681E-01   -0.58687E-01  8160   0.164E+00    0.193E-01
DAV:   2    -0.191401796098E+03   -0.24672E-02   -0.19171E-02 12800   0.622E-01    0.415E-01
DAV:   3    -0.191400032812E+03    0.17633E-02   -0.42689E-03 11800   0.499E-01    0.160E-01
DAV:   4    -0.191399879162E+03    0.15365E-03   -0.10670E-03  9680   0.214E-01    0.128E-01
DAV:   5    -0.191399828538E+03    0.50624E-04   -0.80701E-04 10080   0.215E-01
  14 F= -.19139983E+03 E0= -.19130401E+03  d E =-.262402E-01
       N       E                     dE             d eps       ncg     rms          rms(c)
DAV:   1    -0.191466470798E+03   -0.66592E-01   -0.40857E+00  8160   0.430E+00    0.448E-01
DAV:   2    -0.191478682521E+03   -0.12212E-01   -0.10999E-01 13520   0.135E+00    0.841E-01
DAV:   3    -0.191472006306E+03    0.66762E-02   -0.20751E-02 12160   0.111E+00    0.404E-01
DAV:   4    -0.191470672880E+03    0.13334E-02   -0.54323E-03 11160   0.510E-01    0.281E-01
DAV:   5    -0.191470464173E+03    0.20871E-03   -0.40611E-03 10120   0.488E-01    0.284E-01
DAV:   6    -0.191469802362E+03    0.66181E-03   -0.21154E-03 12680   0.322E-01    0.106E-01
DAV:   7    -0.191469574926E+03    0.22744E-03   -0.48626E-04  9480   0.100E-01    0.240E-02
DAV:   8    -0.191469578038E+03   -0.31127E-05   -0.67910E-05  6880   0.275E-02
  15 F= -.19146958E+03 E0= -.19137779E+03  d E =-.697495E-01
       N       E                     dE             d eps       ncg     rms          rms(c)
DAV:   1    -0.191494870499E+03   -0.25296E-01   -0.48036E-01  8160   0.148E+00    0.159E-01
DAV:   2    -0.191496113444E+03   -0.12429E-02   -0.14144E-02 13520   0.411E-01    0.245E-01
DAV:   3    -0.191495824966E+03    0.28848E-03   -0.28973E-03 11320   0.411E-01    0.202E-01
DAV:   4    -0.191495370915E+03    0.45405E-03   -0.81023E-04  9080   0.207E-01    0.621E-02
DAV:   5    -0.191495335954E+03    0.34961E-04   -0.22602E-04  6000   0.807E-02
  16 F= -.19149534E+03 E0= -.19140512E+03  d E =-.257579E-01
       N       E                     dE             d eps       ncg     rms          rms(c)
DAV:   1    -0.191523547109E+03   -0.28176E-01   -0.62186E-01  8160   0.181E+00    0.413E-01
DAV:   2    -0.191527627135E+03   -0.40800E-02   -0.39113E-02 11400   0.115E+00    0.843E-01
DAV:   3    -0.191520389882E+03    0.72373E-02   -0.15767E-02 11360   0.103E+00    0.281E-01
DAV:   4    -0.191519165344E+03    0.12245E-02   -0.33175E-03 12240   0.309E-01    0.182E-01
DAV:   5    -0.191519519408E+03   -0.35406E-03   -0.32388E-03 11280   0.400E-01    0.303E-01
DAV:   6    -0.191518479013E+03    0.10404E-02   -0.18628E-03 10640   0.332E-01    0.512E-02
DAV:   7    -0.191518472750E+03    0.62636E-05   -0.12723E-04  5600   0.607E-02
  17 F= -.19151847E+03 E0= -.19142943E+03  d E =-.231368E-01
       N       E                     dE             d eps       ncg     rms          rms(c)
DAV:   1    -0.191603463806E+03   -0.84985E-01   -0.61179E+00  8160   0.527E+00    0.549E-01
DAV:   2    -0.191625545818E+03   -0.22082E-01   -0.18451E-01 12600   0.178E+00    0.109E+00
DAV:   3    -0.191613676651E+03    0.11869E-01   -0.33975E-02 12200   0.146E+00    0.483E-01
DAV:   4    -0.191611574787E+03    0.21019E-02   -0.72609E-03 11080   0.621E-01    0.322E-01
DAV:   5    -0.191611207605E+03    0.36718E-03   -0.47617E-03 10120   0.561E-01    0.316E-01
DAV:   6    -0.191610376815E+03    0.83079E-03   -0.26360E-03 12720   0.366E-01    0.124E-01
DAV:   7    -0.191610067875E+03    0.30894E-03   -0.75295E-04  9560   0.126E-01    0.441E-02
DAV:   8    -0.191610079205E+03   -0.11330E-04   -0.15262E-04  6600   0.906E-02
  18 F= -.19161008E+03 E0= -.19152703E+03  d E =-.916065E-01
       N       E                     dE             d eps       ncg     rms          rms(c)
DAV:   1    -0.191670562636E+03   -0.60495E-01   -0.31811E+00  8160   0.383E+00    0.396E-01
DAV:   2    -0.191678508632E+03   -0.79460E-02   -0.96730E-02 12160   0.980E-01    0.541E-01
DAV:   3    -0.191677907916E+03    0.60072E-03   -0.16431E-02 12400   0.101E+00    0.518E-01
DAV:   4    -0.191674735294E+03    0.31726E-02   -0.46476E-03 11240   0.539E-01    0.143E-01
DAV:   5    -0.191674781356E+03   -0.46061E-04   -0.16588E-03 12360   0.265E-01    0.183E-01
DAV:   6    -0.191674663568E+03    0.11779E-03   -0.13345E-03 10880   0.305E-01    0.147E-01
DAV:   7    -0.191674356121E+03    0.30745E-03   -0.43289E-04  8360   0.158E-01    0.257E-02
DAV:   8    -0.191674361462E+03   -0.53409E-05   -0.69848E-05  6080   0.350E-02
  19 F= -.19167436E+03 E0= -.19159432E+03  d E =-.642823E-01
       N       E                     dE             d eps       ncg     rms          rms(c)
DAV:   1    -0.191792814859E+03   -0.11846E+00   -0.59984E+01  8160   0.166E+01    0.162E+00
DAV:   2    -0.191968777703E+03   -0.17596E+00   -0.19365E+00 11920   0.430E+00    0.229E+00
DAV:   3    -0.191941584786E+03    0.27193E-01   -0.27024E-01 12360   0.408E+00    0.186E+00
DAV:   4    -0.191898506613E+03    0.43078E-01   -0.68052E-02 12240   0.213E+00    0.653E-01
DAV:   5    -0.191900468939E+03   -0.19623E-02   -0.28456E-02 12440   0.141E+00    0.866E-01
DAV:   6    -0.191893916025E+03    0.65529E-02   -0.20810E-02 12720   0.120E+00    0.426E-01
DAV:   7    -0.191890434205E+03    0.34818E-02   -0.65820E-03 11720   0.457E-01    0.974E-02
DAV:   8    -0.191890538846E+03   -0.10464E-03   -0.12680E-03 11760   0.192E-01    0.125E-01
DAV:   9    -0.191890408461E+03    0.13039E-03   -0.71854E-04 10440   0.213E-01    0.921E-02
DAV:  10    -0.191890281234E+03    0.12723E-03   -0.22918E-04  6840   0.105E-01    0.201E-02
DAV:  11    -0.191890302585E+03   -0.21351E-04   -0.95413E-05  6640   0.324E-02
  20 F= -.19189030E+03 E0= -.19181236E+03  d E =-.215941E+00
       N       E                     dE             d eps       ncg     rms          rms(c)
DAV:   1    -0.191914195285E+03   -0.23914E-01   -0.12229E+00  8160   0.249E+00    0.508E-01
DAV:   2    -0.191918403502E+03   -0.42082E-02   -0.85558E-02 11720   0.131E+00    0.751E-01
DAV:   3    -0.191913821019E+03    0.45825E-02   -0.18811E-02 11320   0.121E+00    0.436E-01
DAV:   4    -0.191910965898E+03    0.28551E-02   -0.54844E-03 12320   0.561E-01    0.235E-01
DAV:   5    -0.191911420110E+03   -0.45421E-03   -0.45226E-03 11520   0.519E-01    0.350E-01
DAV:   6    -0.191909941484E+03    0.14786E-02   -0.25759E-03 11680   0.421E-01    0.646E-02
DAV:   7    -0.191909941004E+03    0.48043E-06   -0.25430E-04  7280   0.980E-02
  21 F= -.19190994E+03 E0= -.19183034E+03  d E =-.196384E-01
       N       E                     dE             d eps       ncg     rms          rms(c)
DAV:   1    -0.191928796099E+03   -0.18855E-01   -0.11855E+00  8160   0.232E+00    0.302E-01
DAV:   2    -0.191935807214E+03   -0.70111E-02   -0.55086E-02 10680   0.117E+00    0.648E-01
DAV:   3    -0.191930975018E+03    0.48322E-02   -0.10504E-02 12280   0.831E-01    0.193E-01
DAV:   4    -0.191930588844E+03    0.38617E-03   -0.15533E-03 11200   0.289E-01    0.169E-01
DAV:   5    -0.191930614541E+03   -0.25697E-04   -0.13054E-03 10280   0.320E-01    0.184E-01
DAV:   6    -0.191930217748E+03    0.39679E-03   -0.80993E-04 11400   0.204E-01    0.400E-02
DAV:   7    -0.191930203906E+03    0.13843E-04   -0.12363E-04  5960   0.530E-02
  22 F= -.19193020E+03 E0= -.19185056E+03  d E =-.202629E-01
       N       E                     dE             d eps       ncg     rms          rms(c)
DAV:   1    -0.191945836778E+03   -0.15619E-01   -0.10413E+00  8160   0.218E+00    0.242E-01
DAV:   2    -0.191949008469E+03   -0.31717E-02   -0.40908E-02 12040   0.636E-01    0.295E-01
DAV:   3    -0.191949116224E+03   -0.10775E-03   -0.55893E-03 12440   0.611E-01    0.315E-01
DAV:   4    -0.191947804693E+03    0.13115E-02   -0.16751E-03 10800   0.346E-01    0.706E-02
DAV:   5    -0.191947873595E+03   -0.68902E-04   -0.66908E-04  9800   0.143E-01
  23 F= -.19194787E+03 E0= -.19186734E+03  d E =-.176697E-01
       N       E                     dE             d eps       ncg     rms          rms(c)
DAV:   1    -0.191967245830E+03   -0.19441E-01   -0.12395E+01  8160   0.746E+00    0.755E-01
DAV:   2    -0.192008398896E+03   -0.41153E-01   -0.45100E-01 11880   0.219E+00    0.107E+00
DAV:   3    -0.192003855080E+03    0.45438E-02   -0.61378E-02 12320   0.197E+00    0.873E-01
DAV:   4    -0.191993482535E+03    0.10373E-01   -0.13124E-02 12280   0.942E-01    0.249E-01
DAV:   5    -0.191995889134E+03   -0.24066E-02   -0.68096E-03 12600   0.712E-01    0.502E-01
DAV:   6    -0.191992632827E+03    0.32563E-02   -0.46593E-03 11160   0.576E-01    0.782E-02
DAV:   7    -0.191992591818E+03    0.41009E-04   -0.59745E-04 10280   0.987E-02
  24 F= -.19199259E+03 E0= -.19190971E+03  d E =-.447182E-01
       N       E                     dE             d eps       ncg     rms          rms(c)
DAV:   1    -0.192000446406E+03   -0.78136E-02   -0.35949E+00  8160   0.404E+00    0.466E-01
DAV:   2    -0.192011880382E+03   -0.11434E-01   -0.15894E-01 12040   0.123E+00    0.466E-01
DAV:   3    -0.192013593404E+03   -0.17130E-02   -0.16858E-02 11600   0.107E+00    0.607E-01
DAV:   4    -0.192008847965E+03    0.47454E-02   -0.64871E-03 11360   0.721E-01    0.188E-01
DAV:   5    -0.192009140586E+03   -0.29262E-03   -0.30360E-03 10680   0.407E-01    0.261E-01
DAV:   6    -0.192008460761E+03    0.67982E-03   -0.21947E-03 12000   0.376E-01    0.114E-01
DAV:   7    -0.192008253803E+03    0.20696E-03   -0.50808E-04  8960   0.115E-01    0.339E-02
DAV:   8    -0.192008235207E+03    0.18596E-04   -0.74076E-05  8000   0.408E-02
  25 F= -.19200824E+03 E0= -.19192392E+03  d E =-.156434E-01
       N       E                     dE             d eps       ncg     rms          rms(c)
DAV:   1    -0.192010011691E+03   -0.17579E-02   -0.29584E+00  8160   0.361E+00    0.355E-01
DAV:   2    -0.192020066684E+03   -0.10055E-01   -0.10848E-01 11760   0.108E+00    0.487E-01
DAV:   3    -0.192019097055E+03    0.96963E-03   -0.13858E-02 12080   0.914E-01    0.407E-01
DAV:   4    -0.192017036200E+03    0.20609E-02   -0.31145E-03 11360   0.470E-01    0.148E-01
DAV:   5    -0.192017270023E+03   -0.23382E-03   -0.12655E-03 11160   0.329E-01    0.201E-01
DAV:   6    -0.192016825773E+03    0.44425E-03   -0.10395E-03 11520   0.233E-01    0.495E-02
DAV:   7    -0.192016811666E+03    0.14107E-04   -0.17015E-04  5720   0.928E-02
  26 F= -.19201681E+03 E0= -.19193200E+03  d E =-.857646E-02
       N       E                     dE             d eps       ncg     rms          rms(c)
DAV:   1    -0.192017429959E+03   -0.60419E-03   -0.77760E-02  8160   0.599E-01    0.751E-02
DAV:   2    -0.192017895426E+03   -0.46547E-03   -0.32008E-03 11640   0.286E-01    0.168E-01
DAV:   3    -0.192017537031E+03    0.35840E-03   -0.67724E-04 10160   0.219E-01    0.451E-02
DAV:   4    -0.192017526212E+03    0.10819E-04   -0.95241E-05  6040   0.704E-02
  27 F= -.19201753E+03 E0= -.19193262E+03  d E =-.714546E-03
       N       E                     dE             d eps       ncg     rms          rms(c)
DAV:   1    -0.192018908051E+03   -0.13710E-02   -0.12440E-01  8160   0.743E-01    0.803E-02
DAV:   2    -0.192019265782E+03   -0.35773E-03   -0.45244E-03 12200   0.202E-01    0.851E-02
DAV:   3    -0.192019279972E+03   -0.14191E-04   -0.46102E-04 11280   0.178E-01
  28 F= -.19201928E+03 E0= -.19193414E+03  d E =-.175376E-02
       N       E                     dE             d eps       ncg     rms          rms(c)
DAV:   1    -0.192019667515E+03   -0.40173E-03   -0.15895E-02  8160   0.288E-01    0.494E-02
DAV:   2    -0.192019692376E+03   -0.24861E-04   -0.60574E-04 10440   0.742E-02
  29 F= -.19201969E+03 E0= -.19193446E+03  d E =-.412404E-03
       N       E                     dE             d eps       ncg     rms          rms(c)
DAV:   1    -0.192020881469E+03   -0.12140E-02   -0.11343E-01  8160   0.710E-01    0.866E-02
DAV:   2    -0.192021412374E+03   -0.53091E-03   -0.39796E-03 12280   0.260E-01    0.174E-01
DAV:   3    -0.192021064285E+03    0.34809E-03   -0.92744E-04 10200   0.242E-01    0.683E-02
DAV:   4    -0.192021057678E+03    0.66065E-05   -0.10991E-04  5760   0.925E-02
  30 F= -.19202106E+03 E0= -.19193590E+03  d E =-.136530E-02
       N       E                     dE             d eps       ncg     rms          rms(c)
DAV:   1    -0.192022256077E+03   -0.11918E-02   -0.13524E-01  8160   0.777E-01    0.895E-02
DAV:   2    -0.192022807823E+03   -0.55175E-03   -0.47978E-03 12240   0.254E-01    0.155E-01
DAV:   3    -0.192022555641E+03    0.25218E-03   -0.73402E-04 10160   0.233E-01    0.796E-02
DAV:   4    -0.192022525936E+03    0.29705E-04   -0.12742E-04  5600   0.102E-01
  31 F= -.19202253E+03 E0= -.19193729E+03  d E =-.146826E-02
       N       E                     dE             d eps       ncg     rms          rms(c)
DAV:   1    -0.192023214438E+03   -0.65880E-03   -0.44158E-02  8160   0.450E-01    0.633E-02
DAV:   2    -0.192023468201E+03   -0.25376E-03   -0.17702E-03 12640   0.183E-01    0.129E-01
DAV:   3    -0.192023261758E+03    0.20644E-03   -0.44182E-04  8880   0.171E-01    0.448E-02
DAV:   4    -0.192023274660E+03   -0.12903E-04   -0.72638E-05  5680   0.760E-02
  32 F= -.19202327E+03 E0= -.19193817E+03  d E =-.748724E-03
       N       E                     dE             d eps       ncg     rms          rms(c)
DAV:   1    -0.192024203323E+03   -0.94157E-03   -0.10332E-01  8160   0.678E-01    0.762E-02
DAV:   2    -0.192024569943E+03   -0.36662E-03   -0.34745E-03 13040   0.235E-01    0.126E-01
DAV:   3    -0.192024398443E+03    0.17150E-03   -0.45389E-04  9400   0.189E-01    0.642E-02
DAV:   4    -0.192024382913E+03    0.15530E-04   -0.99156E-05  5480   0.862E-02
  33 F= -.19202438E+03 E0= -.19193922E+03  d E =-.110825E-02
       N       E                     dE             d eps       ncg     rms          rms(c)
DAV:   1    -0.192025127282E+03   -0.72884E-03   -0.64730E-02  8160   0.541E-01    0.702E-02
DAV:   2    -0.192025532342E+03   -0.40506E-03   -0.24989E-03 12960   0.224E-01    0.162E-01
DAV:   3    -0.192025210345E+03    0.32200E-03   -0.67399E-04  9120   0.210E-01    0.484E-02
DAV:   4    -0.192025226899E+03   -0.16554E-04   -0.79021E-05  5440   0.745E-02
  34 F= -.19202523E+03 E0= -.19194017E+03  d E =-.843986E-03
