<?xml version="1.0" encoding="ISO-8859-1"?>
<modeling>
 <generator>
  <i name="program" type="string">vasp </i>
  <i name="version" type="string">5.4.1  </i>
  <i name="subversion" type="string">05Feb16 (build Jul 05 2020 17:13:04) complex                          parallel </i>
  <i name="platform" type="string">IFC91_ompi </i>
  <i name="date" type="string">2024 04 24 </i>
  <i name="time" type="string">01:09:41 </i>
 </generator>
 <incar>
  <i type="int" name="ISTART">     0</i>
  <i type="string" name="PREC">normal</i>
  <i type="string" name="ALGO"> Normal</i>
  <i type="int" name="ISPIN">     1</i>
  <i type="int" name="ICHARG">     2</i>
  <i type="int" name="IBRION">     1</i>
  <i type="int" name="NSW">   100</i>
  <i type="int" name="ISIF">     3</i>
  <i type="int" name="ISYM">     0</i>
  <i name="SYMPREC">      0.00000001</i>
  <i name="POTIM">      0.50000000</i>
  <i type="logical" name="LREAL"> F  </i>
  <i type="logical" name="LPLANE"> F  </i>
  <i type="int" name="ISMEAR">     0</i>
  <i type="logical" name="LWAVE"> F  </i>
  <i type="logical" name="LCHARG"> F  </i>
  <v type="int" name="KPOINT_BSE">    -1     0     0     0</v>
 </incar>
 <kpoints>
  <generation param="Gamma">
   <v type="int" name="divisions">       8        8        1 </v>
   <v name="usershift">      0.00000000       0.00000000       0.00000000 </v>
   <v name="genvec1">      0.12500000       0.00000000       0.00000000 </v>
   <v name="genvec2">     -0.00000000       0.12500000       0.00000000 </v>
   <v name="genvec3">      0.00000000       0.00000000       1.00000000 </v>
   <v name="shift">      0.00000000       0.00000000       0.00000000 </v>
  </generation>
  <varray name="kpointlist" >
   <v>       0.00000000       0.00000000       0.00000000 </v>
   <v>       0.12500000       0.00000000       0.00000000 </v>
   <v>       0.25000000       0.00000000       0.00000000 </v>
   <v>       0.37500000       0.00000000       0.00000000 </v>
   <v>       0.50000000       0.00000000       0.00000000 </v>
   <v>       0.00000000       0.12500000       0.00000000 </v>
   <v>       0.12500000       0.12500000       0.00000000 </v>
   <v>       0.25000000       0.12500000       0.00000000 </v>
   <v>       0.37500000       0.12500000       0.00000000 </v>
   <v>       0.50000000       0.12500000       0.00000000 </v>
   <v>      -0.37500000       0.12500000       0.00000000 </v>
   <v>      -0.25000000       0.12500000       0.00000000 </v>
   <v>      -0.12500000       0.12500000       0.00000000 </v>
   <v>       0.00000000       0.25000000       0.00000000 </v>
   <v>       0.12500000       0.25000000       0.00000000 </v>
   <v>       0.25000000       0.25000000       0.00000000 </v>
   <v>       0.37500000       0.25000000       0.00000000 </v>
   <v>       0.50000000       0.25000000       0.00000000 </v>
   <v>      -0.37500000       0.25000000       0.00000000 </v>
   <v>      -0.25000000       0.25000000       0.00000000 </v>
   <v>      -0.12500000       0.25000000       0.00000000 </v>
   <v>      -0.00000000       0.37500000       0.00000000 </v>
   <v>       0.12500000       0.37500000       0.00000000 </v>
   <v>       0.25000000       0.37500000       0.00000000 </v>
   <v>       0.37500000       0.37500000       0.00000000 </v>
   <v>       0.50000000       0.37500000       0.00000000 </v>
   <v>      -0.37500000       0.37500000       0.00000000 </v>
   <v>      -0.25000000       0.37500000       0.00000000 </v>
   <v>      -0.12500000       0.37500000       0.00000000 </v>
   <v>       0.00000000       0.50000000       0.00000000 </v>
   <v>       0.12500000       0.50000000       0.00000000 </v>
   <v>       0.25000000       0.50000000       0.00000000 </v>
   <v>       0.37500000       0.50000000       0.00000000 </v>
   <v>       0.50000000       0.50000000       0.00000000 </v>
  </varray>
  <varray name="weights" >
   <v>       0.01562500 </v>
   <v>       0.03125000 </v>
   <v>       0.03125000 </v>
   <v>       0.03125000 </v>
   <v>       0.01562500 </v>
   <v>       0.03125000 </v>
   <v>       0.03125000 </v>
   <v>       0.03125000 </v>
   <v>       0.03125000 </v>
   <v>       0.03125000 </v>
   <v>       0.03125000 </v>
   <v>       0.03125000 </v>
   <v>       0.03125000 </v>
   <v>       0.03125000 </v>
   <v>       0.03125000 </v>
   <v>       0.03125000 </v>
   <v>       0.03125000 </v>
   <v>       0.03125000 </v>
   <v>       0.03125000 </v>
   <v>       0.03125000 </v>
   <v>       0.03125000 </v>
   <v>       0.03125000 </v>
   <v>       0.03125000 </v>
   <v>       0.03125000 </v>
   <v>       0.03125000 </v>
   <v>       0.03125000 </v>
   <v>       0.03125000 </v>
   <v>       0.03125000 </v>
   <v>       0.03125000 </v>
   <v>       0.01562500 </v>
   <v>       0.03125000 </v>
   <v>       0.03125000 </v>
   <v>       0.03125000 </v>
   <v>       0.01562500 </v>
  </varray>
 </kpoints>
 <parameters>
  <separator name="general" >
   <i type="string" name="SYSTEM">unknown system</i>
   <i type="logical" name="LCOMPAT"> F  </i>
  </separator>
  <separator name="electronic" >
   <i type="string" name="PREC">normal</i>
   <i name="ENMAX">    280.00000000</i>
   <i name="ENAUG">    373.43800000</i>
   <i name="EDIFF">      0.00010000</i>
   <i type="int" name="IALGO">    38</i>
   <i type="int" name="IWAVPR">    11</i>
   <i type="int" name="NBANDS">   120</i>
   <i name="NELECT">    159.00000000</i>
   <i type="int" name="TURBO">     0</i>
   <i type="int" name="IRESTART">     0</i>
   <i type="int" name="NREBOOT">     0</i>
   <i type="int" name="NMIN">     0</i>
   <i name="EREF">      0.00000000</i>
   <separator name="electronic smearing" >
    <i type="int" name="ISMEAR">     0</i>
    <i name="SIGMA">      0.20000000</i>
    <i name="KSPACING">      0.50000000</i>
    <i type="logical" name="KGAMMA"> T  </i>
   </separator>
   <separator name="electronic projectors" >
    <i type="logical" name="LREAL"> F  </i>
    <v name="ROPT">      0.00000000      0.00000000      0.00000000      0.00000000</v>
    <i type="int" name="LMAXPAW">  -100</i>
    <i type="int" name="LMAXMIX">     2</i>
    <i type="logical" name="NLSPLINE"> F  </i>
   </separator>
   <separator name="electronic startup" >
    <i type="int" name="ISTART">     0</i>
    <i type="int" name="ICHARG">     2</i>
    <i type="int" name="INIWAV">     1</i>
   </separator>
   <separator name="electronic spin" >
    <i type="int" name="ISPIN">     1</i>
    <i type="logical" name="LNONCOLLINEAR"> F  </i>
    <v name="MAGMOM">      1.00000000      1.00000000      1.00000000      1.00000000      1.00000000      1.00000000      1.00000000      1.00000000      1.00000000      1.00000000      1.00000000      1.00000000      1.00000000      1.00000000      1.00000000      1.00000000      1.00000000      1.00000000      1.00000000      1.00000000
      1.00000000      1.00000000      1.00000000      1.00000000      1.00000000      1.00000000      1.00000000</v>
    <i name="NUPDOWN">     -1.00000000</i>
    <i type="logical" name="LSORBIT"> F  </i>
    <v name="SAXIS">      0.00000000      0.00000000      1.00000000</v>
    <i type="logical" name="LSPIRAL"> F  </i>
    <v name="QSPIRAL">      0.00000000      0.00000000      0.00000000</v>
    <i type="logical" name="LZEROZ"> F  </i>
   </separator>
   <separator name="electronic exchange-correlation" >
    <i type="logical" name="LASPH"> F  </i>
    <i type="logical" name="LMETAGGA"> F  </i>
   </separator>
   <separator name="electronic convergence" >
    <i type="int" name="NELM">    60</i>
    <i type="int" name="NELMDL">    -5</i>
    <i type="int" name="NELMIN">     2</i>
    <i name="ENINI">    280.00000000</i>
    <separator name="electronic convergence detail" >
     <i type="logical" name="LDIAG"> T  </i>
     <i type="logical" name="LSUBROT"> F  </i>
     <i name="WEIMIN">      0.00100000</i>
     <i name="EBREAK">      0.00000021</i>
     <i name="DEPER">      0.30000000</i>
     <i type="int" name="NRMM">     4</i>
     <i name="TIME">      0.40000000</i>
    </separator>
   </separator>
   <separator name="electronic mixer" >
    <i name="AMIX">      0.40000000</i>
    <i name="BMIX">      1.00000000</i>
    <i name="AMIN">      0.10000000</i>
    <i name="AMIX_MAG">      1.60000000</i>
    <i name="BMIX_MAG">      1.00000000</i>
    <separator name="electronic mixer details" >
     <i type="int" name="IMIX">     4</i>
     <i type="logical" name="MIXFIRST"> F  </i>
     <i type="int" name="MAXMIX">   -45</i>
     <i name="WC">    100.00000000</i>
     <i type="int" name="INIMIX">     1</i>
     <i type="int" name="MIXPRE">     1</i>
     <i type="int" name="MREMOVE">     5</i>
    </separator>
   </separator>
   <separator name="electronic dipolcorrection" >
    <i type="logical" name="LDIPOL"> F  </i>
    <i type="logical" name="LMONO"> F  </i>
    <i type="int" name="IDIPOL">     0</i>
    <i name="EPSILON">      1.00000000</i>
    <v name="DIPOL">   -100.00000000   -100.00000000   -100.00000000</v>
    <i name="EFIELD">      0.00000000</i>
   </separator>
  </separator>
  <separator name="grids" >
   <i type="int" name="NGX">    42</i>
   <i type="int" name="NGY">    42</i>
   <i type="int" name="NGZ">   126</i>
   <i type="int" name="NGXF">    84</i>
   <i type="int" name="NGYF">    84</i>
   <i type="int" name="NGZF">   252</i>
   <i type="logical" name="ADDGRID"> F  </i>
  </separator>
  <separator name="ionic" >
   <i type="int" name="NSW">   100</i>
   <i type="int" name="IBRION">     1</i>
   <i type="int" name="ISIF">     3</i>
   <i name="PSTRESS">      0.00000000</i>
   <i name="EDIFFG">      0.00100000</i>
   <i type="int" name="NFREE">     0</i>
   <i name="POTIM">      0.50000000</i>
   <i name="SMASS">     -3.00000000</i>
   <i name="SCALEE">      1.00000000</i>
  </separator>
  <separator name="ionic md" >
   <i name="TEBEG">      0.00010000</i>
   <i name="TEEND">      0.00010000</i>
   <i type="int" name="NBLOCK">     1</i>
   <i type="int" name="KBLOCK">   100</i>
   <i type="int" name="NPACO">   256</i>
   <i name="APACO">     16.00000000</i>
  </separator>
  <separator name="symmetry" >
   <i type="int" name="ISYM">     0</i>
   <i name="SYMPREC">      0.00000001</i>
  </separator>
  <separator name="dos" >
   <i type="logical" name="LORBIT"> F  </i>
   <v name="RWIGS">     -1.00000000     -1.00000000     -1.00000000     -1.00000000</v>
   <i type="int" name="NEDOS">   301</i>
   <i name="EMIN">     10.00000000</i>
   <i name="EMAX">    -10.00000000</i>
   <i name="EFERMI">      0.00000000</i>
  </separator>
  <separator name="writing" >
   <i type="int" name="NWRITE">     2</i>
   <i type="logical" name="LWAVE"> F  </i>
   <i type="logical" name="LCHARG"> F  </i>
   <i type="logical" name="LPARD"> F  </i>
   <i type="logical" name="LVTOT"> F  </i>
   <i type="logical" name="LVHAR"> F  </i>
   <i type="logical" name="LELF"> F  </i>
   <i type="logical" name="LOPTICS"> F  </i>
   <v name="STM">      0.00000000      0.00000000      0.00000000      0.00000000      0.00000000      0.00000000      0.00000000</v>
  </separator>
  <separator name="performance" >
   <i type="int" name="NPAR">    40</i>
   <i type="int" name="NSIM">     4</i>
   <i type="int" name="NBLK">    -1</i>
   <i type="logical" name="LPLANE"> F  </i>
   <i type="logical" name="LSCALAPACK"> T  </i>
   <i type="logical" name="LSCAAWARE"> F  </i>
   <i type="logical" name="LSCALU"> F  </i>
   <i type="logical" name="LASYNC"> F  </i>
   <i type="logical" name="LORBITALREAL"> F  </i>
  </separator>
  <separator name="miscellaneous" >
   <i type="int" name="IDIOT">     3</i>
   <i type="logical" name="LMUSIC"> F  </i>
   <v name="POMASS">     50.94100000     95.94000000    183.85000000     32.06600000</v>
   <v name="DARWINR">      0.00000000      0.00000000      0.00000000      0.00000000</v>
   <v name="DARWINV">      1.00000000      1.00000000      1.00000000      1.00000000</v>
   <i type="logical" name="LCORR"> T  </i>
  </separator>
  <i type="logical" name="GGA_COMPAT"> T  </i>
  <i type="logical" name="LBERRY"> F  </i>
  <i type="int" name="ICORELEVEL">     0</i>
  <i type="logical" name="LDAU"> F  </i>
  <i type="int" name="I_CONSTRAINED_M">     0</i>
  <separator name="electronic exchange-correlation" >
   <i type="string" name="GGA">--</i>
   <i type="int" name="VOSKOWN">     0</i>
   <i type="logical" name="LHFCALC"> F  </i>
   <i type="string" name="PRECFOCK"></i>
   <i type="logical" name="LSYMGRAD"> F  </i>
   <i type="logical" name="LHFONE"> F  </i>
   <i type="logical" name="LRHFCALC"> F  </i>
   <i type="logical" name="LTHOMAS"> F  </i>
   <i type="logical" name="LMODELHF"> F  </i>
   <i name="ENCUT4O">     -1.00000000</i>
   <i type="int" name="EXXOEP">     0</i>
   <i type="int" name="FOURORBIT">     0</i>
   <i name="AEXX">      0.00000000</i>
   <i name="HFALPHA">      0.00000000</i>
   <i name="MCALPHA">      0.00000000</i>
   <i name="ALDAX">      1.00000000</i>
   <i name="AGGAX">      1.00000000</i>
   <i name="ALDAC">      1.00000000</i>
   <i name="AGGAC">      1.00000000</i>
   <i type="int" name="NKREDX">     1</i>
   <i type="int" name="NKREDY">     1</i>
   <i type="int" name="NKREDZ">     1</i>
   <i type="logical" name="SHIFTRED"> F  </i>
   <i type="logical" name="ODDONLY"> F  </i>
   <i type="logical" name="EVENONLY"> F  </i>
   <i type="int" name="LMAXFOCK">     0</i>
   <i type="int" name="NMAXFOCKAE">     0</i>
   <i type="logical" name="LFOCKAEDFT"> F  </i>
   <i name="HFSCREEN">      0.00000000</i>
   <i name="HFSCREENC">      0.00000000</i>
   <i type="int" name="NBANDSGWLOW">     0</i>
  </separator>
  <separator name="vdW DFT" >
   <i type="logical" name="LUSE_VDW"> F  </i>
   <i name="Zab_VDW">     -0.84910000</i>
   <i name="PARAM1">      0.12340000</i>
   <i name="PARAM2">      1.00000000</i>
   <i name="PARAM3">      0.00000000</i>
  </separator>
  <separator name="model GW" >
   <i type="int" name="MODEL_GW">     0</i>
   <i name="MODEL_EPS0">     58.26239943</i>
   <i name="MODEL_ALPHA">      1.00000000</i>
  </separator>
  <separator name="linear response parameters" >
   <i type="logical" name="LEPSILON"> F  </i>
   <i type="logical" name="LRPA"> F  </i>
   <i type="logical" name="LNABLA"> F  </i>
   <i type="logical" name="LVEL"> F  </i>
   <i type="int" name="KINTER">     0</i>
   <i name="CSHIFT">      0.10000000</i>
   <i name="OMEGAMAX">     -1.00000000</i>
   <i name="DEG_THRESHOLD">      0.00200000</i>
  </separator>
  <separator name="orbital magnetization" >
   <i type="logical" name="NUCIND"> F  </i>
   <v name="MAGPOS">      0.00000000      0.00000000      0.00000000</v>
   <i type="logical" name="LNICSALL"> T  </i>
   <i type="logical" name="ORBITALMAG"> F  </i>
   <i type="logical" name="LMAGBLOCH"> F  </i>
   <i type="logical" name="LCHIMAG"> F  </i>
   <i type="logical" name="LGAUGE"> T  </i>
   <i type="int" name="MAGATOM">     0</i>
   <v name="MAGDIPOL">      0.00000000      0.00000000      0.00000000</v>
   <v name="AVECCONST">      0.00000000      0.00000000      0.00000000</v>
  </separator>
  <separator name="response functions" >
   <i type="logical" name="LADDER"> F  </i>
   <i type="logical" name="LFXC"> F  </i>
   <i type="logical" name="LHARTREE"> T  </i>
   <i type="int" name="IBSE">     0</i>
   <v type="int" name="KPOINT">    -1     0     0     0</v>
   <i type="logical" name="LTCTE"> F  </i>
   <i type="logical" name="LTETE"> F  </i>
   <i type="logical" name="LTRIPLET"> F  </i>
   <i type="logical" name="LFXCEPS"> F  </i>
   <i type="logical" name="LFXHEG"> F  </i>
   <i type="int" name="NATURALO">     0</i>
   <i type="logical" name="L2ORDER"> F  </i>
   <i type="logical" name="LUSEW"> F  </i>
   <i name="ENCUTGW">     -2.00000000</i>
   <i name="ENCUTGWSOFT">     -2.00000000</i>
   <i name="ENCUTLF">     -1.00000000</i>
   <i type="int" name="LMAXMP2">    -1</i>
   <i name="SCISSOR">      0.00000000</i>
   <i type="int" name="NOMEGA">     0</i>
   <i type="int" name="NOMEGAR">     0</i>
   <i type="int" name="NBANDSGW">    -1</i>
   <i type="int" name="NBANDSO">    -1</i>
   <i type="int" name="NBANDSV">    -1</i>
   <i type="int" name="NELM">     1</i>
   <i type="int" name="NELMHF">     1</i>
   <i type="int" name="DIM">     3</i>
   <i type="int" name="ANTIRES">     0</i>
   <i name="OMEGAMAX">    -30.00000000</i>
   <i name="OMEGAMIN">    -30.00000000</i>
   <i name="OMEGATL">   -200.00000000</i>
   <i type="int" name="OMEGAGRID">     0</i>
   <i name="CSHIFT">     -0.10000000</i>
   <i type="logical" name="SELFENERGY"> F  </i>
   <i type="logical" name="LSPECTRAL"> F  </i>
   <i type="logical" name="LSPECTRALGW"> F  </i>
   <i type="logical" name="LSINGLES"> F  </i>
   <i type="logical" name="LFERMIGW"> F  </i>
   <i type="logical" name="ODDONLYGW"> F  </i>
   <i type="logical" name="EVENONLYGW"> F  </i>
   <i type="int" name="NKREDLFX">     1</i>
   <i type="int" name="NKREDLFY">     1</i>
   <i type="int" name="NKREDLFZ">     1</i>
   <i type="int" name="MAXMEM">  1800</i>
   <i type="int" name="TELESCOPE">     0</i>
   <i type="int" name="TAUPAR">     1</i>
   <i type="int" name="OMEGAPAR">    -1</i>
   <i name="LAMBDA">      1.00000000</i>
  </separator>
  <separator name="External order field" >
   <i name="OFIELD_KAPPA">      0.00000000</i>
   <v name="OFIELD_K">      0.00000000      0.00000000      0.00000000</v>
   <i name="OFIELD_Q6_NEAR">      0.00000000</i>
   <i name="OFIELD_Q6_FAR">      0.00000000</i>
   <i name="OFIELD_A">      0.00000000</i>
  </separator>
 </parameters>
 <atominfo>
  <atoms>      27 </atoms>
  <types>       4 </types>
  <array name="atoms" >
   <dimension dim="1">ion</dimension>
   <field type="string">element</field>
   <field type="int">atomtype</field>
   <set>
    <rc><c>V </c><c>   1</c></rc>
    <rc><c>V </c><c>   1</c></rc>
    <rc><c>V </c><c>   1</c></rc>
    <rc><c>Mo</c><c>   2</c></rc>
    <rc><c>Mo</c><c>   2</c></rc>
    <rc><c>Mo</c><c>   2</c></rc>
    <rc><c>W </c><c>   3</c></rc>
    <rc><c>W </c><c>   3</c></rc>
    <rc><c>W </c><c>   3</c></rc>
    <rc><c>S </c><c>   4</c></rc>
    <rc><c>S </c><c>   4</c></rc>
    <rc><c>S </c><c>   4</c></rc>
    <rc><c>S </c><c>   4</c></rc>
    <rc><c>S </c><c>   4</c></rc>
    <rc><c>S </c><c>   4</c></rc>
    <rc><c>S </c><c>   4</c></rc>
    <rc><c>S </c><c>   4</c></rc>
    <rc><c>S </c><c>   4</c></rc>
    <rc><c>S </c><c>   4</c></rc>
    <rc><c>S </c><c>   4</c></rc>
    <rc><c>S </c><c>   4</c></rc>
    <rc><c>S </c><c>   4</c></rc>
    <rc><c>S </c><c>   4</c></rc>
    <rc><c>S </c><c>   4</c></rc>
    <rc><c>S </c><c>   4</c></rc>
    <rc><c>S </c><c>   4</c></rc>
    <rc><c>S </c><c>   4</c></rc>
   </set>
  </array>
  <array name="atomtypes" >
   <dimension dim="1">type</dimension>
   <field type="int">atomspertype</field>
   <field type="string">element</field>
   <field>mass</field>
   <field>valence</field>
   <field type="string">pseudopotential</field>
   <set>
    <rc><c>   3</c><c>V </c><c>     50.94100000</c><c>      5.00000000</c><c> PAW_PBE V 08Apr2002                    </c></rc>
    <rc><c>   3</c><c>Mo</c><c>     95.94000000</c><c>      6.00000000</c><c> PAW_PBE Mo 08Apr2002                   </c></rc>
    <rc><c>   3</c><c>W </c><c>    183.85000000</c><c>      6.00000000</c><c> PAW_PBE W 08Apr2002                    </c></rc>
    <rc><c>  18</c><c>S </c><c>     32.06600000</c><c>      6.00000000</c><c>  PAW_PBE S 17Jan2003                   </c></rc>
   </set>
  </array>
 </atominfo>
 <structure name="initialpos" >
  <crystal>
   <varray name="basis" >
    <v>       8.66999996       5.03999989       0.00000000 </v>
    <v>      -8.66999982       5.04000013       0.00000000 </v>
    <v>       0.00000000       0.00000000      30.00000000 </v>
   </varray>
   <i name="volume">   2621.80797419 </i>
   <varray name="rec_basis" >
    <v>       0.05767013       0.09920635       0.00000000 </v>
    <v>      -0.05767013       0.09920635       0.00000000 </v>
    <v>       0.00000000       0.00000000       0.03333333 </v>
   </varray>
  </crystal>
  <varray name="positions" >
   <v>       0.66666669       0.66666669       0.00000000 </v>
   <v>       0.33333334       0.00000000       0.00000000 </v>
   <v>       1.00000000       0.33333334       0.00000000 </v>
   <v>       0.00000000       0.00000000       0.00000000 </v>
   <v>       0.66666669       0.00000000       0.00000000 </v>
   <v>       0.33333334       0.66666669       0.00000000 </v>
   <v>       0.00000000       0.66666669       0.00000000 </v>
   <v>       0.33333334       0.33333334       0.00000000 </v>
   <v>       0.66666669       0.33333334       0.00000000 </v>
   <v>       0.11068511       0.22244981       0.95539999 </v>
   <v>       0.22244981       0.11068511       0.04460000 </v>
   <v>       0.11068511       0.55578315       0.95539999 </v>
   <v>       0.22244981       0.44401845       0.04460000 </v>
   <v>       0.11068511       0.88911647       0.95539999 </v>
   <v>       0.22244981       0.77735180       0.04460000 </v>
   <v>       0.44401845       0.22244981       0.95539999 </v>
   <v>       0.55578315       0.11068511       0.04460000 </v>
   <v>       0.44401845       0.55578315       0.95539999 </v>
   <v>       0.55578315       0.44401845       0.04460000 </v>
   <v>       0.44401845       0.88911647       0.95539999 </v>
   <v>       0.55578315       0.77735180       0.04460000 </v>
   <v>       0.77735180       0.22244981       0.95539999 </v>
   <v>       0.88911647       0.11068511       0.04460000 </v>
   <v>       0.77735180       0.55578315       0.95539999 </v>
   <v>       0.88911647       0.44401845       0.04460000 </v>
   <v>       0.77735180       0.88911647       0.95539999 </v>
   <v>       0.88911647       0.77735180       0.04460000 </v>
  </varray>
 </structure>
 <calculation>
  <scstep>
   <time name="dav">   23.12   23.17</time>
   <time name="total">   23.16   23.23</time>
   <energy>
    <i name="alphaZ">     81.65567618 </i>
    <i name="ewald">  41888.36874791 </i>
    <i name="hartreedc"> -47720.98535217 </i>
    <i name="XCdc">   -242.93567431 </i>
    <i name="pawpsdc">   3467.42045192 </i>
    <i name="pawaedc">  -2871.19716117 </i>
    <i name="eentropy">     -0.53348668 </i>
    <i name="bandstr">   -238.70941934 </i>
    <i name="atom">   6761.44252427 </i>
    <i name="e_fr_energy">   1124.52630659 </i>
    <i name="e_wo_entrp">   1125.05979327 </i>
    <i name="e_0_energy">   1124.79304993 </i>
   </energy>
  </scstep>
  <scstep>
   <time name="dav">   30.24   30.31</time>
   <time name="total">   30.24   30.32</time>
   <energy>
    <i name="e_fr_energy">     -3.74508217 </i>
    <i name="e_wo_entrp">     -3.53577379 </i>
    <i name="e_0_energy">     -3.64042798 </i>
   </energy>
  </scstep>
  <scstep>
   <time name="dav">   29.13   29.20</time>
   <time name="total">   29.13   29.21</time>
   <energy>
    <i name="e_fr_energy">   -199.95133069 </i>
    <i name="e_wo_entrp">   -199.71399735 </i>
    <i name="e_0_energy">   -199.83266402 </i>
   </energy>
  </scstep>
  <scstep>
   <time name="dav">   32.05   32.12</time>
   <time name="total">   32.05   32.13</time>
   <energy>
    <i name="e_fr_energy">   -209.03910967 </i>
    <i name="e_wo_entrp">   -208.77649306 </i>
    <i name="e_0_energy">   -208.90780136 </i>
   </energy>
  </scstep>
  <scstep>
   <time name="dav">   29.65   29.72</time>
   <time name="total">   30.12   30.19</time>
   <energy>
    <i name="e_fr_energy">   -209.35060213 </i>
    <i name="e_wo_entrp">   -209.09081422 </i>
    <i name="e_0_energy">   -209.22070818 </i>
   </energy>
  </scstep>
  <scstep>
   <time name="dav">   33.20   33.28</time>
   <time name="total">   33.70   33.79</time>
   <energy>
    <i name="e_fr_energy">   -236.55741626 </i>
    <i name="e_wo_entrp">   -236.28649800 </i>
    <i name="e_0_energy">   -236.42195713 </i>
   </energy>
  </scstep>
  <scstep>
   <time name="dav">   32.55   32.63</time>
   <time name="total">   33.05   33.14</time>
   <energy>
    <i name="e_fr_energy">   -196.08738573 </i>
    <i name="e_wo_entrp">   -195.83104519 </i>
    <i name="e_0_energy">   -195.95921546 </i>
   </energy>
  </scstep>
  <scstep>
   <time name="dav">   31.98   32.06</time>
   <time name="total">   32.49   32.58</time>
   <energy>
    <i name="e_fr_energy">   -189.21813654 </i>
    <i name="e_wo_entrp">   -188.93193022 </i>
    <i name="e_0_energy">   -189.07503338 </i>
   </energy>
  </scstep>
  <scstep>
   <time name="dav">   34.67   34.75</time>
   <time name="total">   35.19   35.28</time>
   <energy>
    <i name="e_fr_energy">   -188.01365990 </i>
    <i name="e_wo_entrp">   -187.70367343 </i>
    <i name="e_0_energy">   -187.85866666 </i>
   </energy>
  </scstep>
  <scstep>
   <time name="dav">   33.66   33.74</time>
   <time name="total">   34.20   34.29</time>
   <energy>
    <i name="e_fr_energy">   -187.02183145 </i>
    <i name="e_wo_entrp">   -186.67007534 </i>
    <i name="e_0_energy">   -186.84595339 </i>
   </energy>
  </scstep>
  <scstep>
   <time name="dav">   34.15   34.23</time>
   <time name="total">   34.69   34.78</time>
   <energy>
    <i name="e_fr_energy">   -187.21924238 </i>
    <i name="e_wo_entrp">   -186.89017526 </i>
    <i name="e_0_energy">   -187.05470882 </i>
   </energy>
  </scstep>
  <scstep>
   <time name="dav">   32.07   32.14</time>
   <time name="total">   32.60   32.69</time>
   <energy>
    <i name="e_fr_energy">   -187.06012949 </i>
    <i name="e_wo_entrp">   -186.72924918 </i>
    <i name="e_0_energy">   -186.89468933 </i>
   </energy>
  </scstep>
  <scstep>
   <time name="dav">   32.30   32.37</time>
   <time name="total">   32.83   32.92</time>
   <energy>
    <i name="e_fr_energy">   -186.94121276 </i>
    <i name="e_wo_entrp">   -186.59605367 </i>
    <i name="e_0_energy">   -186.76863321 </i>
   </energy>
  </scstep>
  <scstep>
   <time name="dav">   33.87   33.95</time>
   <time name="total">   34.41   34.50</time>
   <energy>
    <i name="e_fr_energy">   -186.93457853 </i>
    <i name="e_wo_entrp">   -186.58817649 </i>
    <i name="e_0_energy">   -186.76137751 </i>
   </energy>
  </scstep>
  <scstep>
   <time name="dav">   34.38   34.47</time>
   <time name="total">   34.92   35.01</time>
   <energy>
    <i name="e_fr_energy">   -186.92814619 </i>
    <i name="e_wo_entrp">   -186.58212445 </i>
    <i name="e_0_energy">   -186.75513532 </i>
   </energy>
  </scstep>
  <scstep>
   <time name="dav">   33.76   33.84</time>
   <time name="total">   34.30   34.39</time>
   <energy>
    <i name="e_fr_energy">   -186.92393403 </i>
    <i name="e_wo_entrp">   -186.57929317 </i>
    <i name="e_0_energy">   -186.75161360 </i>
   </energy>
  </scstep>
  <scstep>
   <time name="dav">   31.66   31.74</time>
   <time name="total">   32.20   32.28</time>
   <energy>
    <i name="e_fr_energy">   -186.92368809 </i>
    <i name="e_wo_entrp">   -186.57945777 </i>
    <i name="e_0_energy">   -186.75157293 </i>
   </energy>
  </scstep>
  <scstep>
   <time name="dav">   32.54   32.62</time>
   <time name="total">   33.08   33.17</time>
   <energy>
    <i name="e_fr_energy">   -186.92314962 </i>
    <i name="e_wo_entrp">   -186.57825181 </i>
    <i name="e_0_energy">   -186.75070072 </i>
   </energy>
  </scstep>
  <scstep>
   <time name="dav">   28.83   28.90</time>
   <time name="total">   29.37   29.45</time>
   <energy>
    <i name="e_fr_energy">   -186.92355323 </i>
    <i name="e_wo_entrp">   -186.57892504 </i>
    <i name="e_0_energy">   -186.75123914 </i>
   </energy>
  </scstep>
  <scstep>
   <time name="dav">   26.43   26.50</time>
   <time name="total">   26.97   27.04</time>
   <energy>
    <i name="e_fr_energy">   -186.92410214 </i>
    <i name="e_wo_entrp">   -186.57980936 </i>
    <i name="e_0_energy">   -186.75195575 </i>
   </energy>
  </scstep>
  <scstep>
   <time name="dav">   25.30   25.36</time>
   <time name="total">   25.84   25.91</time>
   <energy>
    <i name="e_fr_energy">   -186.92525191 </i>
    <i name="e_wo_entrp">   -186.58079422 </i>
    <i name="e_0_energy">   -186.75302306 </i>
   </energy>
  </scstep>
  <scstep>
   <time name="dav">   20.94   20.99</time>
   <time name="total">   21.48   21.54</time>
   <energy>
    <i name="e_fr_energy">   -186.92613980 </i>
    <i name="e_wo_entrp">   -186.58165407 </i>
    <i name="e_0_energy">   -186.75389694 </i>
   </energy>
  </scstep>
  <scstep>
   <time name="dav">   22.40   22.45</time>
   <time name="total">   22.93   22.99</time>
   <energy>
    <i name="e_fr_energy">   -186.92685506 </i>
    <i name="e_wo_entrp">   -186.58239085 </i>
    <i name="e_0_energy">   -186.75462296 </i>
   </energy>
  </scstep>
  <scstep>
   <time name="dav">   20.75   20.80</time>
   <time name="total">   21.29   21.35</time>
   <energy>
    <i name="e_fr_energy">   -186.92753127 </i>
    <i name="e_wo_entrp">   -186.58310572 </i>
    <i name="e_0_energy">   -186.75531849 </i>
   </energy>
  </scstep>
  <scstep>
   <time name="dav">   19.02   19.07</time>
   <time name="total">   19.56   19.61</time>
   <energy>
    <i name="e_fr_energy">   -186.92790689 </i>
    <i name="e_wo_entrp">   -186.58345547 </i>
    <i name="e_0_energy">   -186.75568118 </i>
   </energy>
  </scstep>
  <scstep>
   <time name="dav">   20.29   20.34</time>
   <time name="total">   20.83   20.89</time>
   <energy>
    <i name="e_fr_energy">   -186.92811889 </i>
    <i name="e_wo_entrp">   -186.58366803 </i>
    <i name="e_0_energy">   -186.75589346 </i>
   </energy>
  </scstep>
  <scstep>
   <time name="dav">   21.11   21.16</time>
   <time name="total">   21.15   21.21</time>
   <energy>
    <i name="alphaZ">     81.65567618 </i>
    <i name="ewald">  41888.36874791 </i>
    <i name="hartreedc"> -47831.63095395 </i>
    <i name="XCdc">   -231.60174089 </i>
    <i name="pawpsdc">   4192.25061858 </i>
    <i name="pawaedc">  -3610.28943649 </i>
    <i name="eentropy">     -0.34444800 </i>
    <i name="bandstr">  -1436.77919148 </i>
    <i name="atom">   6761.44252427 </i>
    <i name="e_fr_energy">   -186.92820388 </i>
    <i name="e_wo_entrp">   -186.58375588 </i>
    <i name="e_0_energy">   -186.75597988 </i>
   </energy>
  </scstep>
  <structure>
   <crystal>
    <varray name="basis" >
     <v>       8.66999996       5.03999989       0.00000000 </v>
     <v>      -8.66999982       5.04000013       0.00000000 </v>
     <v>       0.00000000       0.00000000      30.00000000 </v>
    </varray>
    <i name="volume">   2621.80797419 </i>
    <varray name="rec_basis" >
     <v>       0.05767013       0.09920635       0.00000000 </v>
     <v>      -0.05767013       0.09920635       0.00000000 </v>
     <v>       0.00000000       0.00000000       0.03333333 </v>
    </varray>
   </crystal>
   <varray name="positions" >
    <v>       0.66666669       0.66666669       0.00000000 </v>
    <v>       0.33333334       0.00000000       0.00000000 </v>
    <v>       1.00000000       0.33333334       0.00000000 </v>
    <v>       0.00000000       0.00000000       0.00000000 </v>
    <v>       0.66666669       0.00000000       0.00000000 </v>
    <v>       0.33333334       0.66666669       0.00000000 </v>
    <v>       0.00000000       0.66666669       0.00000000 </v>
    <v>       0.33333334       0.33333334       0.00000000 </v>
    <v>       0.66666669       0.33333334       0.00000000 </v>
    <v>       0.11068511       0.22244981       0.95539999 </v>
    <v>       0.22244981       0.11068511       0.04460000 </v>
    <v>       0.11068511       0.55578315       0.95539999 </v>
    <v>       0.22244981       0.44401845       0.04460000 </v>
    <v>       0.11068511       0.88911647       0.95539999 </v>
    <v>       0.22244981       0.77735180       0.04460000 </v>
    <v>       0.44401845       0.22244981       0.95539999 </v>
    <v>       0.55578315       0.11068511       0.04460000 </v>
    <v>       0.44401845       0.55578315       0.95539999 </v>
    <v>       0.55578315       0.44401845       0.04460000 </v>
    <v>       0.44401845       0.88911647       0.95539999 </v>
    <v>       0.55578315       0.77735180       0.04460000 </v>
    <v>       0.77735180       0.22244981       0.95539999 </v>
    <v>       0.88911647       0.11068511       0.04460000 </v>
    <v>       0.77735180       0.55578315       0.95539999 </v>
    <v>       0.88911647       0.44401845       0.04460000 </v>
    <v>       0.77735180       0.88911647       0.95539999 </v>
    <v>       0.88911647       0.77735180       0.04460000 </v>
   </varray>
  </structure>
  <varray name="forces" >
   <v>      -0.44002076       0.23615819       0.00186627 </v>
   <v>       0.22227753      -0.11837296       0.00307606 </v>
   <v>       0.21626826      -0.13042967      -0.00505217 </v>
   <v>      -0.26653385      -0.14076989       0.04154167 </v>
   <v>       0.26293298      -0.14122510      -0.00100397 </v>
   <v>       0.00107531       0.28537549      -0.03932578 </v>
   <v>       0.00352360       0.31811089      -0.02881980 </v>
   <v>      -0.29272940      -0.16276501       0.02993353 </v>
   <v>       0.28897490      -0.15853075      -0.00228809 </v>
   <v>      -0.68704776       0.15168647      -2.14897954 </v>
   <v>       0.68822658       0.15662127       2.08807064 </v>
   <v>       0.37322565      -0.72498360      -2.13428176 </v>
   <v>      -0.37400985      -0.71917772       2.17159501 </v>
   <v>       0.62467364       0.56844795      -2.16513532 </v>
   <v>      -0.62581123       0.57368512       2.18884390 </v>
   <v>       0.48471258      -0.59647612      -2.17153668 </v>
   <v>      -0.63752773      -0.57018353       2.15814558 </v>
   <v>       0.63165117       0.57568492      -2.16135420 </v>
   <v>      -0.47432909       0.60280787       2.14780146 </v>
   <v>      -0.76513725      -0.00123231      -2.12228523 </v>
   <v>       0.76670331      -0.00065526       2.15477093 </v>
   <v>       0.36719038       0.72962083      -2.16737091 </v>
   <v>      -0.52859725       0.71516413       2.16630228 </v>
   <v>      -0.62916790      -0.00339413      -2.09986471 </v>
   <v>       0.62787031      -0.00212293       2.12865940 </v>
   <v>       0.53792240      -0.71455235      -2.19355635 </v>
   <v>      -0.37631653      -0.72849180       2.16024778 </v>
  </varray>
  <varray name="stress" >
   <v>       7.32388126       0.00822906      -1.52750675 </v>
   <v>       0.00822925       4.43884930       0.03502379 </v>
   <v>      -1.52750646       0.03502358      30.25489088 </v>
  </varray>
  <energy>
   <i name="e_fr_energy">   -186.92820388 </i>
   <i name="e_wo_entrp">   -186.75597988 </i>
   <i name="e_0_energy">     -0.34444800 </i>
  </energy>
  <time name="totalsc">  836.38  838.60</time>
 </calculation>
 <calculation>
  <scstep>
   <time name="dav">   23.05   23.11</time>
   <time name="total">   23.60   23.66</time>
   <energy>
    <i name="alphaZ">     78.91949064 </i>
    <i name="ewald">  39381.18003730 </i>
    <i name="hartreedc"> -45339.02969594 </i>
    <i name="XCdc">   -239.04112301 </i>
    <i name="pawpsdc">   4192.23483906 </i>
    <i name="pawaedc">  -3610.27400730 </i>
    <i name="eentropy">     -0.28539793 </i>
    <i name="bandstr">  -1412.63427016 </i>
    <i name="atom">   6761.44252427 </i>
    <i name="e_fr_energy">   -187.48760307 </i>
    <i name="e_wo_entrp">   -187.20220513 </i>
    <i name="e_0_energy">   -187.34490410 </i>
   </energy>
  </scstep>
  <scstep>
   <time name="dav">   33.56   33.64</time>
   <time name="total">   34.10   34.19</time>
   <energy>
    <i name="e_fr_energy">   -189.40407048 </i>
    <i name="e_wo_entrp">   -189.08155692 </i>
    <i name="e_0_energy">   -189.24281370 </i>
   </energy>
  </scstep>
  <scstep>
   <time name="dav">   32.16   32.23</time>
   <time name="total">   32.71   32.79</time>
   <energy>
    <i name="e_fr_energy">   -189.39522610 </i>
    <i name="e_wo_entrp">   -189.10546780 </i>
    <i name="e_0_energy">   -189.25034695 </i>
   </energy>
  </scstep>
  <scstep>
   <time name="dav">   31.76   31.84</time>
   <time name="total">   32.31   32.39</time>
   <energy>
    <i name="e_fr_energy">   -188.76367155 </i>
    <i name="e_wo_entrp">   -188.48071946 </i>
    <i name="e_0_energy">   -188.62219551 </i>
   </energy>
  </scstep>
  <scstep>
   <time name="dav">   27.54   27.61</time>
   <time name="total">   28.08   28.17</time>
   <energy>
    <i name="e_fr_energy">   -188.77352547 </i>
    <i name="e_wo_entrp">   -188.48422355 </i>
    <i name="e_0_energy">   -188.62887451 </i>
   </energy>
  </scstep>
  <scstep>
   <time name="dav">   31.80   31.87</time>
   <time name="total">   32.35   32.43</time>
   <energy>
    <i name="e_fr_energy">   -188.71695803 </i>
    <i name="e_wo_entrp">   -188.43108186 </i>
    <i name="e_0_energy">   -188.57401994 </i>
   </energy>
  </scstep>
  <scstep>
   <time name="dav">   31.74   31.82</time>
   <time name="total">   32.29   32.37</time>
   <energy>
    <i name="e_fr_energy">   -188.72166012 </i>
    <i name="e_wo_entrp">   -188.43628766 </i>
    <i name="e_0_energy">   -188.57897389 </i>
   </energy>
  </scstep>
  <scstep>
   <time name="dav">   33.40   33.48</time>
   <time name="total">   33.94   34.03</time>
   <energy>
    <i name="e_fr_energy">   -188.67776135 </i>
    <i name="e_wo_entrp">   -188.39340289 </i>
    <i name="e_0_energy">   -188.53558212 </i>
   </energy>
  </scstep>
  <scstep>
   <time name="dav">   28.19   28.25</time>
   <time name="total">   28.73   28.81</time>
   <energy>
    <i name="e_fr_energy">   -188.67575421 </i>
    <i name="e_wo_entrp">   -188.39134570 </i>
    <i name="e_0_energy">   -188.53354995 </i>
   </energy>
  </scstep>
  <scstep>
   <time name="dav">   34.85   34.93</time>
   <time name="total">   35.40   35.49</time>
   <energy>
    <i name="e_fr_energy">   -188.67712371 </i>
    <i name="e_wo_entrp">   -188.39292989 </i>
    <i name="e_0_energy">   -188.53502680 </i>
   </energy>
  </scstep>
  <scstep>
   <time name="dav">   32.40   32.48</time>
   <time name="total">   32.95   33.04</time>
   <energy>
    <i name="e_fr_energy">   -188.67533236 </i>
    <i name="e_wo_entrp">   -188.39137159 </i>
    <i name="e_0_energy">   -188.53335197 </i>
   </energy>
  </scstep>
  <scstep>
   <time name="dav">   30.07   30.14</time>
   <time name="total">   30.61   30.70</time>
   <energy>
    <i name="e_fr_energy">   -188.67544697 </i>
    <i name="e_wo_entrp">   -188.39176311 </i>
    <i name="e_0_energy">   -188.53360504 </i>
   </energy>
  </scstep>
  <scstep>
   <time name="dav">   23.05   23.10</time>
   <time name="total">   23.09   23.15</time>
   <energy>
    <i name="alphaZ">     78.91949064 </i>
    <i name="ewald">  39381.18003730 </i>
    <i name="hartreedc"> -45349.63484794 </i>
    <i name="XCdc">   -237.96477795 </i>
    <i name="pawpsdc">   3950.57016075 </i>
    <i name="pawaedc">  -3365.09654778 </i>
    <i name="eentropy">     -0.28391150 </i>
    <i name="bandstr">  -1407.80750647 </i>
    <i name="atom">   6761.44252427 </i>
    <i name="e_fr_energy">   -188.67537866 </i>
    <i name="e_wo_entrp">   -188.39146716 </i>
    <i name="e_0_energy">   -188.53342291 </i>
   </energy>
  </scstep>
  <structure>
   <crystal>
    <varray name="basis" >
     <v>       8.85578113       5.10562069       0.00000000 </v>
     <v>      -8.85553845       5.10520372       0.00000000 </v>
     <v>       0.00000000       0.00000000      30.00000000 </v>
    </varray>
    <i name="volume">   2712.70761137 </i>
    <varray name="rec_basis" >
     <v>       0.05645876       0.09793394       0.00000000 </v>
     <v>      -0.05646337       0.09793663       0.00000000 </v>
     <v>       0.00000000       0.00000000       0.03333333 </v>
    </varray>
   </crystal>
   <varray name="positions" >
    <v>       0.66657273       0.66902114       0.00000300 </v>
    <v>       0.33338522      -0.00118494       0.00000495 </v>
    <v>       0.99997746       0.33210742      -0.00000812 </v>
    <v>      -0.00141526       0.00006782       0.00006680 </v>
    <v>       0.66672231      -0.00140742      -0.00000161 </v>
    <v>       0.33470214       0.66802950      -0.00006324 </v>
    <v>       0.00153227       0.66817935      -0.00004634 </v>
    <v>       0.33173993       0.33336877       0.00004814 </v>
    <v>       0.66671194       0.33177064      -0.00000368 </v>
    <v>       0.10949960       0.22508725       0.95194424 </v>
    <v>       0.22511415       0.10951994       0.04795780 </v>
    <v>       0.10825373       0.55127502       0.95196788 </v>
    <v>       0.21796729       0.44161704       0.04809212 </v>
    <v>       0.11514363       0.89009910       0.95191826 </v>
    <v>       0.22345435       0.78183855       0.04811985 </v>
    <v>       0.44251228       0.21824654       0.95190797 </v>
    <v>       0.55128056       0.10972993       0.04807049 </v>
    <v>       0.44853102       0.55678101       0.95192434 </v>
    <v>       0.55734852       0.44822314       0.04805385 </v>
    <v>       0.44188382       0.89123930       0.95198717 </v>
    <v>       0.55791311       0.77521557       0.04806506 </v>
    <v>       0.78186533       0.22492018       0.95191467 </v>
    <v>       0.89106858       0.11557851       0.04808360 </v>
    <v>       0.77558511       0.55751735       0.95202322 </v>
    <v>       0.89085314       0.44226146       0.04802307 </v>
    <v>       0.77542855       0.88420005       0.95187256 </v>
    <v>       0.88458295       0.77491222       0.04807387 </v>
   </varray>
  </structure>
  <varray name="forces" >
   <v>      -0.39031282       0.22525594       0.00133752 </v>
   <v>       0.19836658      -0.11180624      -0.00884618 </v>
   <v>       0.19496230      -0.11521081       0.00747353 </v>
   <v>      -0.21715328      -0.12386839       0.08218520 </v>
   <v>       0.21473225      -0.11825650      -0.00195102 </v>
   <v>      -0.00518444       0.23586354      -0.08029356 </v>
   <v>       0.00700648       0.26250695      -0.09911979 </v>
   <v>      -0.22098624      -0.12564461       0.10182989 </v>
   <v>       0.21522235      -0.13071498      -0.00236839 </v>
   <v>       0.00394412       0.10153748      -0.08771094 </v>
   <v>      -0.03075450       0.11382257      -0.09034983 </v>
   <v>      -0.11862294      -0.05060211       0.10628903 </v>
   <v>       0.10210673      -0.05253282      -0.02286612 </v>
   <v>       0.07681505      -0.04852799       0.02240909 </v>
   <v>      -0.08493922      -0.03614911       0.06934393 </v>
   <v>      -0.04804813       0.04364216       0.13296808 </v>
   <v>      -0.07500549       0.04948717      -0.00718011 </v>
   <v>       0.09312195      -0.04999899       0.01585414 </v>
   <v>       0.05168961      -0.05488532      -0.22611666 </v>
   <v>      -0.04457426       0.00934533      -0.10682980 </v>
   <v>       0.05721620       0.00308993       0.18591706 </v>
   <v>      -0.09961982       0.05350604       0.01129542 </v>
   <v>      -0.03284842       0.05619293       0.09484186 </v>
   <v>       0.08566025      -0.00435307       0.20721555 </v>
   <v>      -0.07113776       0.00401197      -0.11018977 </v>
   <v>       0.02592380      -0.07034312      -0.16964506 </v>
   <v>       0.11241966      -0.06536796      -0.02549305 </v>
  </varray>
  <varray name="stress" >
   <v>     -19.82703998      -0.00202888       0.04351614 </v>
   <v>      -0.00202882     -19.42477090       0.02817612 </v>
   <v>       0.04351613       0.02817613      -1.69145601 </v>
  </varray>
  <energy>
   <i name="e_fr_energy">   -188.67537866 </i>
   <i name="e_wo_entrp">   -188.53342291 </i>
   <i name="e_0_energy">     -0.28391150 </i>
  </energy>
  <time name="totalsc">  444.79  445.96</time>
 </calculation>
 <calculation>
  <scstep>
   <time name="dav">   24.61   24.67</time>
   <time name="total">   25.15   25.21</time>
   <energy>
    <i name="alphaZ">     82.33274912 </i>
    <i name="ewald">  41297.73224684 </i>
    <i name="hartreedc"> -47296.57113038 </i>
    <i name="XCdc">   -233.85690910 </i>
    <i name="pawpsdc">   3949.80174035 </i>
    <i name="pawaedc">  -3364.32171371 </i>
    <i name="eentropy">     -0.23495244 </i>
    <i name="bandstr">  -1386.89841775 </i>
    <i name="atom">   6761.44252427 </i>
    <i name="e_fr_energy">   -190.57386280 </i>
    <i name="e_wo_entrp">   -190.33891036 </i>
    <i name="e_0_energy">   -190.45638658 </i>
   </energy>
  </scstep>
  <scstep>
   <time name="dav">   30.02   30.10</time>
   <time name="total">   30.55   30.63</time>
   <energy>
    <i name="e_fr_energy">   -190.67535077 </i>
    <i name="e_wo_entrp">   -190.42876349 </i>
    <i name="e_0_energy">   -190.55205713 </i>
   </energy>
  </scstep>
  <scstep>
   <time name="dav">   32.09   32.17</time>
   <time name="total">   32.62   32.70</time>
   <energy>
    <i name="e_fr_energy">   -190.02906352 </i>
    <i name="e_wo_entrp">   -189.78452411 </i>
    <i name="e_0_energy">   -189.90679382 </i>
   </energy>
  </scstep>
  <scstep>
   <time name="dav">   31.96   32.04</time>
   <time name="total">   32.50   32.59</time>
   <energy>
    <i name="e_fr_energy">   -189.84648029 </i>
    <i name="e_wo_entrp">   -189.60434173 </i>
    <i name="e_0_energy">   -189.72541101 </i>
   </energy>
  </scstep>
  <scstep>
   <time name="dav">   31.41   31.48</time>
   <time name="total">   31.94   32.03</time>
   <energy>
    <i name="e_fr_energy">   -189.76803139 </i>
    <i name="e_wo_entrp">   -189.52675536 </i>
    <i name="e_0_energy">   -189.64739337 </i>
   </energy>
  </scstep>
  <scstep>
   <time name="dav">   31.08   31.16</time>
   <time name="total">   31.62   31.70</time>
   <energy>
    <i name="e_fr_energy">   -189.74969156 </i>
    <i name="e_wo_entrp">   -189.50989392 </i>
    <i name="e_0_energy">   -189.62979274 </i>
   </energy>
  </scstep>
  <scstep>
   <time name="dav">   30.17   30.24</time>
   <time name="total">   30.71   30.79</time>
   <energy>
    <i name="e_fr_energy">   -189.74393557 </i>
    <i name="e_wo_entrp">   -189.50459762 </i>
    <i name="e_0_energy">   -189.62426659 </i>
   </energy>
  </scstep>
  <scstep>
   <time name="dav">   32.23   32.30</time>
   <time name="total">   32.76   32.85</time>
   <energy>
    <i name="e_fr_energy">   -189.74397081 </i>
    <i name="e_wo_entrp">   -189.50467897 </i>
    <i name="e_0_energy">   -189.62432489 </i>
   </energy>
  </scstep>
  <scstep>
   <time name="dav">   28.39   28.46</time>
   <time name="total">   28.92   29.00</time>
   <energy>
    <i name="e_fr_energy">   -189.74411185 </i>
    <i name="e_wo_entrp">   -189.50463847 </i>
    <i name="e_0_energy">   -189.62437516 </i>
   </energy>
  </scstep>
  <scstep>
   <time name="dav">   28.09   28.16</time>
   <time name="total">   28.63   28.71</time>
   <energy>
    <i name="e_fr_energy">   -189.74460969 </i>
    <i name="e_wo_entrp">   -189.50515875 </i>
    <i name="e_0_energy">   -189.62488422 </i>
   </energy>
  </scstep>
  <scstep>
   <time name="dav">   25.35   25.41</time>
   <time name="total">   25.88   25.95</time>
   <energy>
    <i name="e_fr_energy">   -189.74397270 </i>
    <i name="e_wo_entrp">   -189.50464192 </i>
    <i name="e_0_energy">   -189.62430731 </i>
   </energy>
  </scstep>
  <scstep>
   <time name="dav">   18.08   18.12</time>
   <time name="total">   18.12   18.17</time>
   <energy>
    <i name="alphaZ">     82.33274912 </i>
    <i name="ewald">  41297.73224684 </i>
    <i name="hartreedc"> -47270.30512877 </i>
    <i name="XCdc">   -235.24309604 </i>
    <i name="pawpsdc">   4038.74043988 </i>
    <i name="pawaedc">  -3454.45521632 </i>
    <i name="eentropy">     -0.23936686 </i>
    <i name="bandstr">  -1409.74914851 </i>
    <i name="atom">   6761.44252427 </i>
    <i name="e_fr_energy">   -189.74399639 </i>
    <i name="e_wo_entrp">   -189.50462953 </i>
    <i name="e_0_energy">   -189.62431296 </i>
   </energy>
  </scstep>
  <structure>
   <crystal>
    <varray name="basis" >
     <v>       8.66835958       4.99974597       0.00000000 </v>
     <v>      -8.66814415       4.99937600       0.00000000 </v>
     <v>       0.00000000       0.00000000      30.00000000 </v>
    </varray>
    <i name="volume">   2600.24723128 </i>
    <varray name="rec_basis" >
     <v>       0.05767962       0.10000754       0.00000000 </v>
     <v>      -0.05768389       0.10001002       0.00000000 </v>
     <v>       0.00000000       0.00000000       0.03333333 </v>
    </varray>
   </crystal>
   <varray name="positions" >
    <v>       0.66657313       0.66977175       0.00000376 </v>
    <v>       0.33338948      -0.00156196      -0.00000007 </v>
    <v>       0.99997277       0.33172800      -0.00000388 </v>
    <v>      -0.00183042       0.00007003       0.00011343 </v>
    <v>       0.66673154      -0.00181092      -0.00000272 </v>
    <v>       0.33509032       0.66842765      -0.00010879 </v>
    <v>       0.00197658       0.66861021      -0.00010258 </v>
    <v>       0.33131813       0.33337171       0.00010591 </v>
    <v>       0.66670087       0.33134591      -0.00000502 </v>
    <v>       0.10967265       0.22525272       0.95189448 </v>
    <v>       0.22527433       0.10973923       0.04790654 </v>
    <v>       0.10805539       0.55130468       0.95202818 </v>
    <v>       0.21797784       0.44143134       0.04807914 </v>
    <v>       0.11513656       0.88994439       0.95193097 </v>
    <v>       0.22331246       0.78185992       0.04815920 </v>
    <v>       0.44253885       0.21836547       0.95198341 </v>
    <v>       0.55129098       0.10988451       0.04806641 </v>
    <v>       0.44853717       0.55660817       0.95193334 </v>
    <v>       0.55730670       0.44808197       0.04792556 </v>
    <v>       0.44185656       0.89129772       0.95192656 </v>
    <v>       0.55797324       0.77516573       0.04817054 </v>
    <v>       0.78185879       0.22510511       0.95192107 </v>
    <v>       0.89113069       0.11570375       0.04813741 </v>
    <v>       0.77566017       0.55742777       0.95214079 </v>
    <v>       0.89079147       0.44233651       0.04796055 </v>
    <v>       0.77533621       0.88405787       0.95177631 </v>
    <v>       0.88458202       0.77469522       0.04805940 </v>
   </varray>
  </structure>
  <varray name="forces" >
   <v>      -0.37978169       0.21897988      -0.00038087 </v>
   <v>       0.19502260      -0.11119209      -0.00630846 </v>
   <v>       0.19231749      -0.11598507       0.00679970 </v>
   <v>      -0.20435375      -0.11135431       0.06458076 </v>
   <v>       0.19544406      -0.10994212      -0.00070635 </v>
   <v>      -0.01076765       0.21932810      -0.06413009 </v>
   <v>       0.01151853       0.23664492      -0.08559353 </v>
   <v>      -0.19566481      -0.12027031       0.08693421 </v>
   <v>       0.19554039      -0.12197075      -0.00104582 </v>
   <v>      -0.10184676       0.02346938      -0.59325907 </v>
   <v>       0.08375421       0.03695105       0.39647309 </v>
   <v>       0.00707665      -0.10786187      -0.38278181 </v>
   <v>      -0.03722881      -0.09942530       0.47702942 </v>
   <v>       0.05149692       0.09550447      -0.47583328 </v>
   <v>      -0.07151412       0.09612008       0.57558076 </v>
   <v>       0.01314496      -0.08541082      -0.36507961 </v>
   <v>      -0.05345037      -0.08977069       0.49431218 </v>
   <v>       0.09443971       0.07527196      -0.47966237 </v>
   <v>      -0.02024023       0.07310617       0.26065474 </v>
   <v>      -0.11458891       0.02344581      -0.60145671 </v>
   <v>       0.12311727       0.00326343       0.68669793 </v>
   <v>       0.03465100       0.10258564      -0.49291969 </v>
   <v>      -0.08047406       0.10941189       0.59122899 </v>
   <v>      -0.06140880      -0.00623834      -0.27792470 </v>
   <v>       0.07033964       0.01839700       0.38695564 </v>
   <v>       0.06190304      -0.12644072      -0.67136235 </v>
   <v>       0.00155349      -0.12661739       0.47119731 </v>
  </varray>
  <varray name="stress" >
   <v>     -10.11846240      -0.00537454       0.02591083 </v>
   <v>      -0.00537456      -9.81044381       0.02296118 </v>
   <v>       0.02591079       0.02296128       6.48305512 </v>
  </varray>
  <energy>
   <i name="e_fr_energy">   -189.74399639 </i>
   <i name="e_wo_entrp">   -189.62431296 </i>
   <i name="e_0_energy">     -0.23936686 </i>
  </energy>
  <time name="totalsc">  393.86  394.90</time>
 </calculation>
 <calculation>
  <scstep>
   <time name="dav">   23.05   23.10</time>
   <time name="total">   23.57   23.63</time>
   <energy>
    <i name="alphaZ">     85.80085633 </i>
    <i name="ewald">  42823.73063277 </i>
    <i name="hartreedc"> -48840.72151083 </i>
    <i name="XCdc">   -232.95992409 </i>
    <i name="pawpsdc">   4038.71558038 </i>
    <i name="pawaedc">  -3454.42749667 </i>
    <i name="eentropy">     -0.19349724 </i>
    <i name="bandstr">  -1372.62347362 </i>
    <i name="atom">   6761.44252427 </i>
    <i name="e_fr_energy">   -191.23630869 </i>
    <i name="e_wo_entrp">   -191.04281145 </i>
    <i name="e_0_energy">   -191.13956007 </i>
   </energy>
  </scstep>
  <scstep>
   <time name="dav">   34.99   35.07</time>
   <time name="total">   35.50   35.60</time>
   <energy>
    <i name="e_fr_energy">   -191.35100424 </i>
    <i name="e_wo_entrp">   -191.13853280 </i>
    <i name="e_0_energy">   -191.24476852 </i>
   </energy>
  </scstep>
  <scstep>
   <time name="dav">   31.47   31.54</time>
   <time name="total">   31.99   32.07</time>
   <energy>
    <i name="e_fr_energy">   -191.00116236 </i>
    <i name="e_wo_entrp">   -190.79390285 </i>
    <i name="e_0_energy">   -190.89753261 </i>
   </energy>
  </scstep>
  <scstep>
   <time name="dav">   31.94   32.02</time>
   <time name="total">   32.47   32.55</time>
   <energy>
    <i name="e_fr_energy">   -190.75935241 </i>
    <i name="e_wo_entrp">   -190.55770185 </i>
    <i name="e_0_energy">   -190.65852713 </i>
   </energy>
  </scstep>
  <scstep>
   <time name="dav">   31.79   31.86</time>
   <time name="total">   32.31   32.40</time>
   <energy>
    <i name="e_fr_energy">   -190.66688075 </i>
    <i name="e_wo_entrp">   -190.46491883 </i>
    <i name="e_0_energy">   -190.56589979 </i>
   </energy>
  </scstep>
  <scstep>
   <time name="dav">   30.80   30.87</time>
   <time name="total">   31.32   31.40</time>
   <energy>
    <i name="e_fr_energy">   -190.65731679 </i>
    <i name="e_wo_entrp">   -190.45587396 </i>
    <i name="e_0_energy">   -190.55659538 </i>
   </energy>
  </scstep>
  <scstep>
   <time name="dav">   30.08   30.15</time>
   <time name="total">   30.60   30.69</time>
   <energy>
    <i name="e_fr_energy">   -190.64357258 </i>
    <i name="e_wo_entrp">   -190.44332574 </i>
    <i name="e_0_energy">   -190.54344916 </i>
   </energy>
  </scstep>
  <scstep>
   <time name="dav">   31.88   31.95</time>
   <time name="total">   32.40   32.49</time>
   <energy>
    <i name="e_fr_energy">   -190.63873556 </i>
    <i name="e_wo_entrp">   -190.43808629 </i>
    <i name="e_0_energy">   -190.53841092 </i>
   </energy>
  </scstep>
  <scstep>
   <time name="dav">   28.85   28.92</time>
   <time name="total">   29.38   29.46</time>
   <energy>
    <i name="e_fr_energy">   -190.63929894 </i>
    <i name="e_wo_entrp">   -190.43881716 </i>
    <i name="e_0_energy">   -190.53905805 </i>
   </energy>
  </scstep>
  <scstep>
   <time name="dav">   28.42   28.49</time>
   <time name="total">   28.95   29.03</time>
   <energy>
    <i name="e_fr_energy">   -190.63912576 </i>
    <i name="e_wo_entrp">   -190.43869582 </i>
    <i name="e_0_energy">   -190.53891079 </i>
   </energy>
  </scstep>
  <scstep>
   <time name="dav">   22.65   22.71</time>
   <time name="total">   22.69   22.75</time>
   <energy>
    <i name="alphaZ">     85.80085633 </i>
    <i name="ewald">  42823.73063277 </i>
    <i name="hartreedc"> -48812.32313862 </i>
    <i name="XCdc">   -234.28609687 </i>
    <i name="pawpsdc">   4062.44119270 </i>
    <i name="pawaedc">  -3478.31805871 </i>
    <i name="eentropy">     -0.20042874 </i>
    <i name="bandstr">  -1398.92652970 </i>
    <i name="atom">   6761.44252427 </i>
    <i name="e_fr_energy">   -190.63904656 </i>
    <i name="e_wo_entrp">   -190.43861782 </i>
    <i name="e_0_energy">   -190.53883219 </i>
   </energy>
  </scstep>
  <structure>
   <crystal>
    <varray name="basis" >
     <v>       8.48711425       4.89982138       0.00000000 </v>
     <v>      -8.48715283       4.89989139       0.00000000 </v>
     <v>       0.00000000       0.00000000      30.00000000 </v>
    </varray>
    <i name="volume">   2495.14412902 </i>
    <varray name="rec_basis" >
     <v>       0.05891313       0.10204404       0.00000000 </v>
     <v>      -0.05891228       0.10204358       0.00000000 </v>
     <v>       0.00000000       0.00000000       0.03333333 </v>
    </varray>
   </crystal>
   <varray name="positions" >
    <v>       0.66657200       0.67248821       0.00000151 </v>
    <v>       0.33339439      -0.00295853      -0.00001099 </v>
    <v>       0.99993537       0.33030667       0.00000964 </v>
    <v>      -0.00321825       0.00012386       0.00023228 </v>
    <v>       0.66674208      -0.00315888      -0.00000312 </v>
    <v>       0.33637741       0.66980880      -0.00022794 </v>
    <v>       0.00344412       0.66998141      -0.00026846 </v>
    <v>       0.32990601       0.33330224       0.00027340 </v>
    <v>       0.66663683       0.32992381      -0.00000606 </v>
    <v>       0.10910323       0.22572563       0.95023405 </v>
    <v>       0.22578188       0.10931020       0.04914314 </v>
    <v>       0.10744261       0.55027780       0.95081804 </v>
    <v>       0.21690111       0.44102620       0.04949385 </v>
    <v>       0.11624587       0.89075420       0.95052016 </v>
    <v>       0.22400709       0.78303327       0.04978357 </v>
    <v>       0.44181598       0.21737081       0.95080231 </v>
    <v>       0.55021708       0.10913511       0.04951830 </v>
    <v>       0.44966642       0.55705031       0.95051691 </v>
    <v>       0.55790858       0.44903797       0.04888062 </v>
    <v>       0.44152330       0.89199571       0.95025845 </v>
    <v>       0.55853466       0.77464607       0.05002057 </v>
    <v>       0.78294418       0.22555218       0.95046975 </v>
    <v>       0.89159022       0.11688308       0.04978582 </v>
    <v>       0.77518189       0.55781839       0.95115133 </v>
    <v>       0.89140153       0.44202920       0.04918622 </v>
    <v>       0.77467867       0.88284854       0.94995727 </v>
    <v>       0.88348020       0.77390219       0.04945929 </v>
   </varray>
  </structure>
  <varray name="forces" >
   <v>      -0.35995431       0.20528756      -0.00208193 </v>
   <v>       0.20464630      -0.09841196      -0.00163955 </v>
   <v>       0.18340838      -0.12983646       0.00387136 </v>
   <v>      -0.20275732      -0.09333977       0.01155444 </v>
   <v>       0.15947929      -0.09507476       0.00230386 </v>
   <v>      -0.02897960       0.21747262      -0.01327197 </v>
   <v>       0.02138353       0.24077267      -0.03561773 </v>
   <v>      -0.19178357      -0.13270560       0.03326752 </v>
   <v>       0.22402354      -0.13914089       0.00156009 </v>
   <v>      -0.03344482      -0.02640984      -0.40177902 </v>
   <v>       0.01339605      -0.02995365       0.25445922 </v>
   <v>       0.04021985      -0.00557935      -0.25224912 </v>
   <v>      -0.07118432      -0.00407877       0.32286371 </v>
   <v>      -0.03031578       0.06598169      -0.32020182 </v>
   <v>       0.00038265       0.05552898       0.39724586 </v>
   <v>       0.00117748      -0.06322107      -0.21878487 </v>
   <v>       0.04067983      -0.06090507       0.34924847 </v>
   <v>       0.01759759       0.03314696      -0.31958309 </v>
   <v>      -0.02798125       0.04348631       0.12832927 </v>
   <v>      -0.00212828       0.03397179      -0.45280206 </v>
   <v>       0.01461917       0.01238774       0.50697674 </v>
   <v>       0.07505492      -0.00288328      -0.35017334 </v>
   <v>      -0.03732977      -0.00256843       0.44824260 </v>
   <v>      -0.03846614       0.00446492      -0.13090219 </v>
   <v>       0.04340772       0.03057758       0.22183146 </v>
   <v>       0.00509678      -0.02809900      -0.50283324 </v>
   <v>      -0.02024792      -0.03087089       0.32016531 </v>
  </varray>
  <varray name="stress" >
   <v>      -5.74293648      -0.00694208      -0.07565183 </v>
   <v>      -0.00694211      -5.77522398      -0.00064205 </v>
   <v>      -0.07565168      -0.00064222       4.40835647 </v>
  </varray>
  <energy>
   <i name="e_fr_energy">   -190.63904656 </i>
   <i name="e_wo_entrp">   -190.53883219 </i>
   <i name="e_0_energy">     -0.20042874 </i>
  </energy>
  <time name="totalsc">  375.66  376.65</time>
 </calculation>
 <calculation>
  <scstep>
   <time name="dav">   23.06   23.12</time>
   <time name="total">   23.58   23.63</time>
   <energy>
    <i name="alphaZ">     90.20494140 </i>
    <i name="ewald">  44679.33080391 </i>
    <i name="hartreedc"> -50724.11121758 </i>
    <i name="XCdc">   -231.77919615 </i>
    <i name="pawpsdc">   4062.64434055 </i>
    <i name="pawaedc">  -3478.51789535 </i>
    <i name="eentropy">     -0.17396541 </i>
    <i name="bandstr">  -1350.98000279 </i>
    <i name="atom">   6761.44252427 </i>
    <i name="e_fr_energy">   -191.93966715 </i>
    <i name="e_wo_entrp">   -191.76570174 </i>
    <i name="e_0_energy">   -191.85268444 </i>
   </energy>
  </scstep>
  <scstep>
   <time name="dav">   34.93   35.01</time>
   <time name="total">   35.43   35.53</time>
   <energy>
    <i name="e_fr_energy">   -192.05465025 </i>
    <i name="e_wo_entrp">   -191.86399120 </i>
    <i name="e_0_energy">   -191.95932073 </i>
   </energy>
  </scstep>
  <scstep>
   <time name="dav">   30.81   30.88</time>
   <time name="total">   31.32   31.40</time>
   <energy>
    <i name="e_fr_energy">   -191.73313481 </i>
    <i name="e_wo_entrp">   -191.54152042 </i>
    <i name="e_0_energy">   -191.63732762 </i>
   </energy>
  </scstep>
  <scstep>
   <time name="dav">   31.88   31.96</time>
   <time name="total">   32.39   32.48</time>
   <energy>
    <i name="e_fr_energy">   -191.36328658 </i>
    <i name="e_wo_entrp">   -191.18017203 </i>
    <i name="e_0_energy">   -191.27172930 </i>
   </energy>
  </scstep>
  <scstep>
   <time name="dav">   32.68   32.76</time>
   <time name="total">   33.19   33.27</time>
   <energy>
    <i name="e_fr_energy">   -191.20572982 </i>
    <i name="e_wo_entrp">   -191.02557337 </i>
    <i name="e_0_energy">   -191.11565160 </i>
   </energy>
  </scstep>
  <scstep>
   <time name="dav">   32.64   32.72</time>
   <time name="total">   33.16   33.24</time>
   <energy>
    <i name="e_fr_energy">   -191.20288618 </i>
    <i name="e_wo_entrp">   -191.01862813 </i>
    <i name="e_0_energy">   -191.11075715 </i>
   </energy>
  </scstep>
  <scstep>
   <time name="dav">   32.21   32.29</time>
   <time name="total">   32.72   32.81</time>
   <energy>
    <i name="e_fr_energy">   -191.16959237 </i>
    <i name="e_wo_entrp">   -190.98735221 </i>
    <i name="e_0_energy">   -191.07847229 </i>
   </energy>
  </scstep>
  <scstep>
   <time name="dav">   29.63   29.71</time>
   <time name="total">   30.14   30.22</time>
   <energy>
    <i name="e_fr_energy">   -191.16436532 </i>
    <i name="e_wo_entrp">   -190.98238884 </i>
    <i name="e_0_energy">   -191.07337708 </i>
   </energy>
  </scstep>
  <scstep>
   <time name="dav">   29.98   30.05</time>
   <time name="total">   30.49   30.57</time>
   <energy>
    <i name="e_fr_energy">   -191.16521565 </i>
    <i name="e_wo_entrp">   -190.98343817 </i>
    <i name="e_0_energy">   -191.07432691 </i>
   </energy>
  </scstep>
  <scstep>
   <time name="dav">   27.90   27.97</time>
   <time name="total">   28.41   28.49</time>
   <energy>
    <i name="e_fr_energy">   -191.16484390 </i>
    <i name="e_wo_entrp">   -190.98308670 </i>
    <i name="e_0_energy">   -191.07396530 </i>
   </energy>
  </scstep>
  <scstep>
   <time name="dav">   20.56   20.61</time>
   <time name="total">   20.60   20.65</time>
   <energy>
    <i name="alphaZ">     90.20494140 </i>
    <i name="ewald">  44679.33080391 </i>
    <i name="hartreedc"> -50689.57435296 </i>
    <i name="XCdc">   -233.35820093 </i>
    <i name="pawpsdc">   4080.74748408 </i>
    <i name="pawaedc">  -3496.64866800 </i>
    <i name="eentropy">     -0.18176648 </i>
    <i name="bandstr">  -1383.12753881 </i>
    <i name="atom">   6761.44252427 </i>
    <i name="e_fr_energy">   -191.16477351 </i>
    <i name="e_wo_entrp">   -190.98300703 </i>
    <i name="e_0_energy">   -191.07389027 </i>
   </energy>
  </scstep>
  <structure>
   <crystal>
    <varray name="basis" >
     <v>       8.27765160       4.77793048       0.00000000 </v>
     <v>      -8.27820963       4.77890030       0.00000000 </v>
     <v>       0.00000000       0.00000000      30.00000000 </v>
    </varray>
    <i name="volume">   2373.32345230 </i>
    <varray name="rec_basis" >
     <v>       0.06040770       0.10464073       0.00000000 </v>
     <v>      -0.06039544       0.10463367       0.00000000 </v>
     <v>       0.00000000       0.00000000       0.03333333 </v>
    </varray>
   </crystal>
   <varray name="positions" >
    <v>       0.66654392       0.67763055      -0.00000772 </v>
    <v>       0.33360457      -0.00565575      -0.00001764 </v>
    <v>       0.99966318       0.32739308       0.00002625 </v>
    <v>      -0.00580763       0.00040469       0.00029046 </v>
    <v>       0.66670648      -0.00548901       0.00000581 </v>
    <v>       0.33883599       0.67266653      -0.00029333 </v>
    <v>       0.00650567       0.67274006      -0.00042656 </v>
    <v>       0.32695590       0.33302668       0.00042262 </v>
    <v>       0.66650843       0.32670259       0.00000016 </v>
    <v>       0.10814209       0.22573937       0.94799333 </v>
    <v>       0.22565697       0.10846469       0.05074105 </v>
    <v>       0.10749970       0.54939496       0.94923312 </v>
    <v>       0.21583472       0.44138905       0.05138871 </v>
    <v>       0.11736160       0.89223020       0.94863694 </v>
    <v>       0.22511196       0.78422854       0.05199942 </v>
    <v>       0.44073554       0.21604160       0.94933532 </v>
    <v>       0.54923553       0.10768158       0.05151669 </v>
    <v>       0.45072438       0.55769986       0.94863650 </v>
    <v>       0.55856196       0.45032261       0.04996212 </v>
    <v>       0.44172419       0.89268690       0.94784542 </v>
    <v>       0.55899753       0.77446112       0.05267630 </v>
    <v>       0.78396054       0.22511368       0.94846616 </v>
    <v>       0.89151494       0.11759074       0.05217904 </v>
    <v>       0.77466463       0.55839906       0.95005299 </v>
    <v>       0.89238222       0.44185220       0.05067496 </v>
    <v>       0.77414972       0.88201209       0.94732351 </v>
    <v>       0.88243973       0.77348679       0.05133828 </v>
   </varray>
  </structure>
  <varray name="forces" >
   <v>      -0.28149432       0.16098051       0.00442350 </v>
   <v>       0.22125636      -0.02669845      -0.02967556 </v>
   <v>       0.13370336      -0.17903232       0.02504370 </v>
   <v>      -0.15734780      -0.05194097      -0.00379318 </v>
   <v>       0.00502298       0.00388294      -0.00302014 </v>
   <v>      -0.03450320       0.15121739       0.00742636 </v>
   <v>       0.01630186       0.19540702      -0.02620015 </v>
   <v>      -0.16803788      -0.10841610       0.02878200 </v>
   <v>       0.28346970      -0.16427326      -0.00346610 </v>
   <v>       0.00908113      -0.05062982      -0.10874598 </v>
   <v>      -0.06214612      -0.08056807      -0.05241843 </v>
   <v>       0.04161136       0.09322458       0.05023798 </v>
   <v>      -0.07365621       0.05818660       0.01308266 </v>
   <v>      -0.08454678       0.03429022      -0.01891877 </v>
   <v>       0.04956488       0.01381213       0.12217671 </v>
   <v>      -0.01969912      -0.03558099       0.04954943 </v>
   <v>       0.11192357      -0.03022036       0.10084024 </v>
   <v>      -0.05068661      -0.01153820      -0.01984667 </v>
   <v>      -0.01233549      -0.00285040      -0.17555132 </v>
   <v>       0.09171938       0.03742947      -0.12755469 </v>
   <v>      -0.06356803       0.02693220       0.15689340 </v>
   <v>       0.08450400      -0.08182074      -0.08852690 </v>
   <v>       0.01366698      -0.09756698       0.12604166 </v>
   <v>      -0.00054767       0.01087191       0.18049377 </v>
   <v>       0.02160336       0.03890745      -0.06073882 </v>
   <v>      -0.05735310       0.04460158      -0.16315742 </v>
   <v>      -0.01750662       0.05139267       0.01662272 </v>
  </varray>
  <varray name="stress" >
   <v>      -0.35761649       0.00695621      -0.04908534 </v>
   <v>       0.00695603      -0.28830747      -0.06817450 </v>
   <v>      -0.04908522      -0.06817451      -0.66469464 </v>
  </varray>
  <energy>
   <i name="e_fr_energy">   -191.16477351 </i>
   <i name="e_wo_entrp">   -191.07389027 </i>
   <i name="e_0_energy">     -0.18176648 </i>
  </energy>
  <time name="totalsc">  375.97  376.96</time>
 </calculation>
 <calculation>
  <scstep>
   <time name="dav">   23.07   23.12</time>
   <time name="total">   23.58   23.63</time>
   <energy>
    <i name="alphaZ">     90.46099590 </i>
    <i name="ewald">  44780.58082462 </i>
    <i name="hartreedc"> -50794.25964841 </i>
    <i name="XCdc">   -233.24340202 </i>
    <i name="pawpsdc">   4080.81866144 </i>
    <i name="pawaedc">  -3496.71605719 </i>
    <i name="eentropy">     -0.18676378 </i>
    <i name="bandstr">  -1380.10216775 </i>
    <i name="atom">   6761.44252427 </i>
    <i name="e_fr_energy">   -191.20503292 </i>
    <i name="e_wo_entrp">   -191.01826914 </i>
    <i name="e_0_energy">   -191.11165103 </i>
   </energy>
  </scstep>
  <scstep>
   <time name="dav">   34.08   34.16</time>
   <time name="total">   34.59   34.68</time>
   <energy>
    <i name="e_fr_energy">   -191.21706547 </i>
    <i name="e_wo_entrp">   -191.02968273 </i>
    <i name="e_0_energy">   -191.12337410 </i>
   </energy>
  </scstep>
  <scstep>
   <time name="dav">   32.34   32.42</time>
   <time name="total">   32.84   32.93</time>
   <energy>
    <i name="e_fr_energy">   -191.21361754 </i>
    <i name="e_wo_entrp">   -191.02729191 </i>
    <i name="e_0_energy">   -191.12045472 </i>
   </energy>
  </scstep>
  <scstep>
   <time name="dav">   29.78   29.85</time>
   <time name="total">   30.29   30.37</time>
   <energy>
    <i name="e_fr_energy">   -191.20961757 </i>
    <i name="e_wo_entrp">   -191.02249731 </i>
    <i name="e_0_energy">   -191.11605744 </i>
   </energy>
  </scstep>
  <scstep>
   <time name="dav">   27.37   27.43</time>
   <time name="total">   27.87   27.95</time>
   <energy>
    <i name="e_fr_energy">   -191.20819198 </i>
    <i name="e_wo_entrp">   -191.02135523 </i>
    <i name="e_0_energy">   -191.11477360 </i>
   </energy>
  </scstep>
  <scstep>
   <time name="dav">   31.86   31.94</time>
   <time name="total">   32.37   32.46</time>
   <energy>
    <i name="e_fr_energy">   -191.20843129 </i>
    <i name="e_wo_entrp">   -191.02131441 </i>
    <i name="e_0_energy">   -191.11487285 </i>
   </energy>
  </scstep>
  <scstep>
   <time name="dav">   27.88   27.94</time>
   <time name="total">   28.38   28.46</time>
   <energy>
    <i name="e_fr_energy">   -191.20780164 </i>
    <i name="e_wo_entrp">   -191.02078647 </i>
    <i name="e_0_energy">   -191.11429405 </i>
   </energy>
  </scstep>
  <scstep>
   <time name="dav">   18.96   19.00</time>
   <time name="total">   18.99   19.05</time>
   <energy>
    <i name="alphaZ">     90.46099590 </i>
    <i name="ewald">  44780.58082462 </i>
    <i name="hartreedc"> -50793.12551676 </i>
    <i name="XCdc">   -233.31506695 </i>
    <i name="pawpsdc">   4080.35931968 </i>
    <i name="pawaedc">  -3496.24113940 </i>
    <i name="eentropy">     -0.18700348 </i>
    <i name="bandstr">  -1381.18277419 </i>
    <i name="atom">   6761.44252427 </i>
    <i name="e_fr_energy">   -191.20783632 </i>
    <i name="e_wo_entrp">   -191.02083284 </i>
    <i name="e_0_energy">   -191.11433458 </i>
   </energy>
  </scstep>
  <structure>
   <crystal>
    <varray name="basis" >
     <v>       8.26522001       4.77176494       0.00000000 </v>
     <v>      -8.26561044       4.77244458       0.00000000 </v>
     <v>       0.00000000       0.00000000      30.00000000 </v>
    </varray>
    <i name="volume">   2366.60563834 </i>
    <varray name="rec_basis" >
     <v>       0.06049734       0.10477805       0.00000000 </v>
     <v>      -0.06048872       0.10477310       0.00000000 </v>
     <v>       0.00000000       0.00000000       0.03333333 </v>
    </varray>
   </crystal>
   <varray name="positions" >
    <v>       0.66653489       0.67953590      -0.00000054 </v>
    <v>       0.33415040      -0.00657376      -0.00006833 </v>
    <v>       0.99911061       0.32592466       0.00006943 </v>
    <v>      -0.00665913       0.00062168       0.00028628 </v>
    <v>       0.66674149      -0.00556475       0.00000098 </v>
    <v>       0.33962144       0.67367804      -0.00028324 </v>
    <v>       0.00770343       0.67382686      -0.00047691 </v>
    <v>       0.32575858       0.33295608       0.00047707 </v>
    <v>       0.66650046       0.32484309      -0.00000552 </v>
    <v>       0.10785748       0.22544392       0.94771673 </v>
    <v>       0.22503446       0.10818816       0.05072025 </v>
    <v>       0.10812390       0.54972178       0.94925075 </v>
    <v>       0.21586983       0.44193698       0.05149004 </v>
    <v>       0.11733452       0.89273497       0.94852611 </v>
    <v>       0.22538618       0.78420261       0.05229784 </v>
    <v>       0.44044047       0.21585404       0.94935547 </v>
    <v>       0.54937329       0.10711574       0.05177076 </v>
    <v>       0.45055514       0.55782527       0.94852419 </v>
    <v>       0.55853855       0.45040237       0.04971390 </v>
    <v>       0.44220894       0.89263388       0.94753165 </v>
    <v>       0.55896611       0.77478900       0.05304891 </v>
    <v>       0.78383116       0.22440443       0.94823280 </v>
    <v>       0.89103871       0.11706313       0.05248953 </v>
    <v>       0.77469626       0.55848461       0.95030889 </v>
    <v>       0.89269713       0.44198158       0.05063675 </v>
    <v>       0.77418778       0.88238759       0.94694113 </v>
    <v>       0.88261236       0.77379661       0.05144497 </v>
   </varray>
  </structure>
  <varray name="forces" >
   <v>      -0.30299096       0.17262262      -0.00116421 </v>
   <v>       0.25536548      -0.02254950      -0.01952752 </v>
   <v>       0.14086505      -0.20494854       0.02170187 </v>
   <v>      -0.15217690      -0.05750184      -0.01406089 </v>
   <v>      -0.02495237       0.00871756       0.00140074 </v>
   <v>      -0.03914716       0.16286903       0.01210808 </v>
   <v>       0.00736023       0.25454494      -0.03894687 </v>
   <v>      -0.20465906      -0.11994017       0.03846489 </v>
   <v>       0.33573262      -0.20787805       0.00112555 </v>
   <v>      -0.00783097      -0.03485820      -0.08196860 </v>
   <v>      -0.02869697      -0.05799440      -0.09707517 </v>
   <v>       0.03755372       0.05604633       0.08939349 </v>
   <v>      -0.07346413       0.02624908      -0.01160583 </v>
   <v>      -0.05562737       0.05106870       0.01401850 </v>
   <v>       0.02346632       0.02638794       0.08430929 </v>
   <v>      -0.00543587      -0.03070454       0.07533279 </v>
   <v>       0.06736327      -0.03874981       0.10186735 </v>
   <v>      -0.02515554      -0.00031391       0.00954614 </v>
   <v>       0.00357980       0.00422454      -0.21811789 </v>
   <v>       0.05437834       0.02799245      -0.09881125 </v>
   <v>      -0.04182588       0.02671113       0.11386695 </v>
   <v>       0.06987685      -0.04174202      -0.10399468 </v>
   <v>       0.00258856      -0.06341674       0.10296149 </v>
   <v>       0.00042117      -0.00606543       0.22381687 </v>
   <v>       0.02051653       0.02191502      -0.07958857 </v>
   <v>      -0.04250304       0.02366689      -0.11620183 </v>
   <v>      -0.01460174       0.02364691      -0.00885069 </v>
  </varray>
  <varray name="stress" >
   <v>       0.19258960      -0.00324503      -0.06952778 </v>
   <v>      -0.00324509       0.17176229      -0.08264115 </v>
   <v>      -0.06952771      -0.08264116      -1.17959784 </v>
  </varray>
  <energy>
   <i name="e_fr_energy">   -191.20783632 </i>
   <i name="e_wo_entrp">   -191.11433458 </i>
   <i name="e_0_energy">     -0.18700348 </i>
  </energy>
  <time name="totalsc">  273.49  274.20</time>
 </calculation>
 <calculation>
  <scstep>
   <time name="dav">   23.00   23.06</time>
   <time name="total">   23.51   23.57</time>
   <energy>
    <i name="alphaZ">     90.36482033 </i>
    <i name="ewald">  44744.09767117 </i>
    <i name="hartreedc"> -50755.36194379 </i>
    <i name="XCdc">   -233.35403692 </i>
    <i name="pawpsdc">   4080.44282140 </i>
    <i name="pawaedc">  -3496.32513548 </i>
    <i name="eentropy">     -0.18921648 </i>
    <i name="bandstr">  -1382.33751328 </i>
    <i name="atom">   6761.44252427 </i>
    <i name="e_fr_energy">   -191.22000877 </i>
    <i name="e_wo_entrp">   -191.03079229 </i>
    <i name="e_0_energy">   -191.12540053 </i>
   </energy>
  </scstep>
  <scstep>
   <time name="dav">   30.58   30.66</time>
   <time name="total">   31.09   31.18</time>
   <energy>
    <i name="e_fr_energy">   -191.22079703 </i>
    <i name="e_wo_entrp">   -191.03153851 </i>
    <i name="e_0_energy">   -191.12616777 </i>
   </energy>
  </scstep>
  <scstep>
   <time name="dav">   32.41   32.48</time>
   <time name="total">   32.91   33.00</time>
   <energy>
    <i name="e_fr_energy">   -191.22074479 </i>
    <i name="e_wo_entrp">   -191.03187903 </i>
    <i name="e_0_energy">   -191.12631191 </i>
   </energy>
  </scstep>
  <scstep>
   <time name="dav">   26.74   26.81</time>
   <time name="total">   27.25   27.33</time>
   <energy>
    <i name="e_fr_energy">   -191.22017083 </i>
    <i name="e_wo_entrp">   -191.03097869 </i>
    <i name="e_0_energy">   -191.12557476 </i>
   </energy>
  </scstep>
  <scstep>
   <time name="dav">   24.99   25.05</time>
   <time name="total">   25.03   25.10</time>
   <energy>
    <i name="alphaZ">     90.36482033 </i>
    <i name="ewald">  44744.09767117 </i>
    <i name="hartreedc"> -50756.58191987 </i>
    <i name="XCdc">   -233.31806006 </i>
    <i name="pawpsdc">   4081.71356521 </i>
    <i name="pawaedc">  -3497.60900614 </i>
    <i name="eentropy">     -0.18914710 </i>
    <i name="bandstr">  -1381.14054578 </i>
    <i name="atom">   6761.44252427 </i>
    <i name="e_fr_energy">   -191.22009796 </i>
    <i name="e_wo_entrp">   -191.03095086 </i>
    <i name="e_0_energy">   -191.12552441 </i>
   </energy>
  </scstep>
  <structure>
   <crystal>
    <varray name="basis" >
     <v>       8.26970983       4.77422163       0.00000000 </v>
     <v>      -8.27012512       4.77494431       0.00000000 </v>
     <v>       0.00000000       0.00000000      30.00000000 </v>
    </varray>
    <i name="volume">   2369.12442433 </i>
    <varray name="rec_basis" >
     <v>       0.06046467       0.10472382       0.00000000 </v>
     <v>      -0.06045552       0.10471856       0.00000000 </v>
     <v>       0.00000000       0.00000000       0.03333333 </v>
    </varray>
   </crystal>
   <varray name="positions" >
    <v>       0.66653138       0.68001712      -0.00000128 </v>
    <v>       0.33436240      -0.00680581      -0.00007813 </v>
    <v>       0.99890266       0.32549724       0.00008057 </v>
    <v>      -0.00684990       0.00066565       0.00027667 </v>
    <v>       0.66673032      -0.00547060       0.00000180 </v>
    <v>       0.33980773       0.67393346      -0.00027484 </v>
    <v>       0.00808640       0.67420383      -0.00049501 </v>
[...]
      <set comment="kpoint 31">
       <r>  -17.4892    1.0000 </r>
       <r>  -17.2873    1.0000 </r>
       <r>  -16.9348    1.0000 </r>
       <r>  -16.6205    1.0000 </r>
       <r>  -16.4999    1.0000 </r>
       <r>  -16.4327    1.0000 </r>
       <r>  -16.2661    1.0000 </r>
       <r>  -16.1013    1.0000 </r>
       <r>  -16.0838    1.0000 </r>
       <r>  -16.0117    1.0000 </r>
       <r>  -15.9362    1.0000 </r>
       <r>  -15.9078    1.0000 </r>
       <r>  -15.8177    1.0000 </r>
       <r>  -15.7863    1.0000 </r>
       <r>  -15.6846    1.0000 </r>
       <r>  -15.4983    1.0000 </r>
       <r>  -15.4689    1.0000 </r>
       <r>  -15.3097    1.0000 </r>
       <r>   -9.7144    1.0000 </r>
       <r>   -9.4467    1.0000 </r>
       <r>   -9.2513    1.0000 </r>
       <r>   -8.9648    1.0000 </r>
       <r>   -8.7662    1.0000 </r>
       <r>   -8.7457    1.0000 </r>
       <r>   -8.5381    1.0000 </r>
       <r>   -8.4707    1.0000 </r>
       <r>   -8.4352    1.0000 </r>
       <r>   -8.3600    1.0000 </r>
       <r>   -8.3101    1.0000 </r>
       <r>   -8.2654    1.0000 </r>
       <r>   -8.1882    1.0000 </r>
       <r>   -8.1297    1.0000 </r>
       <r>   -7.9667    1.0000 </r>
       <r>   -7.8703    1.0000 </r>
       <r>   -7.8197    1.0000 </r>
       <r>   -7.6805    1.0000 </r>
       <r>   -7.5729    1.0000 </r>
       <r>   -7.4115    1.0000 </r>
       <r>   -7.3374    1.0000 </r>
       <r>   -7.3001    1.0000 </r>
       <r>   -7.1607    1.0000 </r>
       <r>   -7.1016    1.0000 </r>
       <r>   -7.0089    1.0000 </r>
       <r>   -6.9666    1.0000 </r>
       <r>   -6.8887    1.0000 </r>
       <r>   -6.8237    1.0000 </r>
       <r>   -6.7270    1.0000 </r>
       <r>   -6.6221    1.0000 </r>
       <r>   -6.5064    1.0000 </r>
       <r>   -6.4400    1.0000 </r>
       <r>   -6.3908    1.0000 </r>
       <r>   -6.3270    1.0000 </r>
       <r>   -6.2720    1.0000 </r>
       <r>   -6.2184    1.0000 </r>
       <r>   -6.1588    1.0000 </r>
       <r>   -6.0377    1.0000 </r>
       <r>   -5.9960    1.0000 </r>
       <r>   -5.9301    1.0000 </r>
       <r>   -5.8494    1.0000 </r>
       <r>   -5.7567    1.0000 </r>
       <r>   -5.6784    1.0000 </r>
       <r>   -5.6175    1.0000 </r>
       <r>   -5.5832    1.0000 </r>
       <r>   -5.3839    1.0000 </r>
       <r>   -5.2805    1.0000 </r>
       <r>   -5.1677    1.0000 </r>
       <r>   -5.0291    1.0000 </r>
       <r>   -4.9222    1.0000 </r>
       <r>   -4.8389    1.0000 </r>
       <r>   -4.6676    1.0000 </r>
       <r>   -4.4956    1.0000 </r>
       <r>   -4.4155    1.0000 </r>
       <r>   -4.2952    1.0000 </r>
       <r>   -4.2105    1.0000 </r>
       <r>   -4.1071    1.0000 </r>
       <r>   -3.8706    0.9998 </r>
       <r>   -3.7848    0.9985 </r>
       <r>   -3.6850    0.9882 </r>
       <r>   -3.5637    0.9200 </r>
       <r>   -3.4664    0.7632 </r>
       <r>   -2.9252    0.0009 </r>
       <r>   -2.7502    0.0000 </r>
       <r>   -2.6376    0.0000 </r>
       <r>   -2.5209    0.0000 </r>
       <r>   -2.3673    0.0000 </r>
       <r>   -2.2649    0.0000 </r>
       <r>   -2.0755    0.0000 </r>
       <r>   -1.9439    0.0000 </r>
       <r>   -1.8675    0.0000 </r>
       <r>   -1.7754    0.0000 </r>
       <r>   -1.6105    0.0000 </r>
       <r>   -1.5594    0.0000 </r>
       <r>   -1.4933    0.0000 </r>
       <r>   -1.4121    0.0000 </r>
       <r>   -1.3232    0.0000 </r>
       <r>   -1.2191    0.0000 </r>
       <r>   -1.1241    0.0000 </r>
       <r>   -1.0536    0.0000 </r>
       <r>   -1.0376    0.0000 </r>
       <r>   -0.9796    0.0000 </r>
       <r>   -0.9511    0.0000 </r>
       <r>   -0.8554    0.0000 </r>
       <r>   -0.8206    0.0000 </r>
       <r>   -0.6857    0.0000 </r>
       <r>   -0.4880    0.0000 </r>
       <r>   -0.3400    0.0000 </r>
       <r>   -0.1835    0.0000 </r>
       <r>   -0.0360    0.0000 </r>
       <r>    0.0774    0.0000 </r>
       <r>    0.2712    0.0000 </r>
       <r>    0.5077    0.0000 </r>
       <r>    0.6642    0.0000 </r>
       <r>    0.7952    0.0000 </r>
       <r>    0.9875    0.0000 </r>
       <r>    1.1402    0.0000 </r>
       <r>    1.2582    0.0000 </r>
       <r>    1.4105    0.0000 </r>
       <r>    2.1393    0.0000 </r>
       <r>    2.2976    0.0000 </r>
       <r>    2.4025    0.0000 </r>
      </set>
      <set comment="kpoint 32">
       <r>  -17.5112    1.0000 </r>
       <r>  -17.1677    1.0000 </r>
       <r>  -17.0889    1.0000 </r>
       <r>  -16.6174    1.0000 </r>
       <r>  -16.4496    1.0000 </r>
       <r>  -16.3450    1.0000 </r>
       <r>  -16.2761    1.0000 </r>
       <r>  -16.1697    1.0000 </r>
       <r>  -16.0651    1.0000 </r>
       <r>  -16.0361    1.0000 </r>
       <r>  -15.9397    1.0000 </r>
       <r>  -15.9122    1.0000 </r>
       <r>  -15.8289    1.0000 </r>
       <r>  -15.7720    1.0000 </r>
       <r>  -15.6994    1.0000 </r>
       <r>  -15.4833    1.0000 </r>
       <r>  -15.4787    1.0000 </r>
       <r>  -15.2957    1.0000 </r>
       <r>   -9.6276    1.0000 </r>
       <r>   -9.5760    1.0000 </r>
       <r>   -9.3403    1.0000 </r>
       <r>   -8.8664    1.0000 </r>
       <r>   -8.7319    1.0000 </r>
       <r>   -8.5777    1.0000 </r>
       <r>   -8.5107    1.0000 </r>
       <r>   -8.5004    1.0000 </r>
       <r>   -8.3928    1.0000 </r>
       <r>   -8.3813    1.0000 </r>
       <r>   -8.3225    1.0000 </r>
       <r>   -8.2548    1.0000 </r>
       <r>   -8.2510    1.0000 </r>
       <r>   -8.1708    1.0000 </r>
       <r>   -8.1125    1.0000 </r>
       <r>   -7.8698    1.0000 </r>
       <r>   -7.8299    1.0000 </r>
       <r>   -7.6337    1.0000 </r>
       <r>   -7.4985    1.0000 </r>
       <r>   -7.4101    1.0000 </r>
       <r>   -7.3961    1.0000 </r>
       <r>   -7.2893    1.0000 </r>
       <r>   -7.2037    1.0000 </r>
       <r>   -7.1345    1.0000 </r>
       <r>   -7.0314    1.0000 </r>
       <r>   -6.9568    1.0000 </r>
       <r>   -6.8636    1.0000 </r>
       <r>   -6.8399    1.0000 </r>
       <r>   -6.7456    1.0000 </r>
       <r>   -6.6185    1.0000 </r>
       <r>   -6.4777    1.0000 </r>
       <r>   -6.4583    1.0000 </r>
       <r>   -6.3520    1.0000 </r>
       <r>   -6.3502    1.0000 </r>
       <r>   -6.2515    1.0000 </r>
       <r>   -6.2181    1.0000 </r>
       <r>   -6.1584    1.0000 </r>
       <r>   -6.0489    1.0000 </r>
       <r>   -5.9341    1.0000 </r>
       <r>   -5.8445    1.0000 </r>
       <r>   -5.8358    1.0000 </r>
       <r>   -5.7494    1.0000 </r>
       <r>   -5.6155    1.0000 </r>
       <r>   -5.5911    1.0000 </r>
       <r>   -5.5778    1.0000 </r>
       <r>   -5.4333    1.0000 </r>
       <r>   -5.3903    1.0000 </r>
       <r>   -5.1267    1.0000 </r>
       <r>   -5.1197    1.0000 </r>
       <r>   -4.9548    1.0000 </r>
       <r>   -4.9088    1.0000 </r>
       <r>   -4.5397    1.0000 </r>
       <r>   -4.4642    1.0000 </r>
       <r>   -4.4328    1.0000 </r>
       <r>   -4.3111    1.0000 </r>
       <r>   -4.2955    1.0000 </r>
       <r>   -4.0903    1.0000 </r>
       <r>   -3.8620    0.9998 </r>
       <r>   -3.7857    0.9985 </r>
       <r>   -3.6385    0.9734 </r>
       <r>   -3.5481    0.9022 </r>
       <r>   -3.4921    0.8156 </r>
       <r>   -2.9326    0.0011 </r>
       <r>   -2.7181    0.0000 </r>
       <r>   -2.6726    0.0000 </r>
       <r>   -2.4800    0.0000 </r>
       <r>   -2.3865    0.0000 </r>
       <r>   -2.2668    0.0000 </r>
       <r>   -2.0345    0.0000 </r>
       <r>   -1.9770    0.0000 </r>
       <r>   -1.8824    0.0000 </r>
       <r>   -1.8098    0.0000 </r>
       <r>   -1.5852    0.0000 </r>
       <r>   -1.5726    0.0000 </r>
       <r>   -1.4580    0.0000 </r>
       <r>   -1.4515    0.0000 </r>
       <r>   -1.3150    0.0000 </r>
       <r>   -1.2208    0.0000 </r>
       <r>   -1.0957    0.0000 </r>
       <r>   -1.0559    0.0000 </r>
       <r>   -1.0302    0.0000 </r>
       <r>   -0.9717    0.0000 </r>
       <r>   -0.9408    0.0000 </r>
       <r>   -0.8942    0.0000 </r>
       <r>   -0.8312    0.0000 </r>
       <r>   -0.6641    0.0000 </r>
       <r>   -0.5339    0.0000 </r>
       <r>   -0.2881    0.0000 </r>
       <r>   -0.1897    0.0000 </r>
       <r>    0.0339    0.0000 </r>
       <r>    0.0680    0.0000 </r>
       <r>    0.2393    0.0000 </r>
       <r>    0.4849    0.0000 </r>
       <r>    0.6933    0.0000 </r>
       <r>    0.7450    0.0000 </r>
       <r>    1.0249    0.0000 </r>
       <r>    1.2077    0.0000 </r>
       <r>    1.2584    0.0000 </r>
       <r>    1.2773    0.0000 </r>
       <r>    2.1083    0.0000 </r>
       <r>    2.2653    0.0000 </r>
       <r>    2.5754    0.0000 </r>
      </set>
      <set comment="kpoint 33">
       <r>  -17.4893    1.0000 </r>
       <r>  -17.2874    1.0000 </r>
       <r>  -16.9345    1.0000 </r>
       <r>  -16.6210    1.0000 </r>
       <r>  -16.5013    1.0000 </r>
       <r>  -16.4299    1.0000 </r>
       <r>  -16.2670    1.0000 </r>
       <r>  -16.1028    1.0000 </r>
       <r>  -16.0830    1.0000 </r>
       <r>  -16.0118    1.0000 </r>
       <r>  -15.9325    1.0000 </r>
       <r>  -15.9083    1.0000 </r>
       <r>  -15.8203    1.0000 </r>
       <r>  -15.7874    1.0000 </r>
       <r>  -15.6832    1.0000 </r>
       <r>  -15.4995    1.0000 </r>
       <r>  -15.4702    1.0000 </r>
       <r>  -15.3073    1.0000 </r>
       <r>   -9.7153    1.0000 </r>
       <r>   -9.4470    1.0000 </r>
       <r>   -9.2498    1.0000 </r>
       <r>   -8.9674    1.0000 </r>
       <r>   -8.7699    1.0000 </r>
       <r>   -8.7430    1.0000 </r>
       <r>   -8.5365    1.0000 </r>
       <r>   -8.4659    1.0000 </r>
       <r>   -8.4329    1.0000 </r>
       <r>   -8.3612    1.0000 </r>
       <r>   -8.3110    1.0000 </r>
       <r>   -8.2681    1.0000 </r>
       <r>   -8.1912    1.0000 </r>
       <r>   -8.1333    1.0000 </r>
       <r>   -7.9614    1.0000 </r>
       <r>   -7.8724    1.0000 </r>
       <r>   -7.8172    1.0000 </r>
       <r>   -7.6835    1.0000 </r>
       <r>   -7.5688    1.0000 </r>
       <r>   -7.4061    1.0000 </r>
       <r>   -7.3403    1.0000 </r>
       <r>   -7.2964    1.0000 </r>
       <r>   -7.1628    1.0000 </r>
       <r>   -7.1001    1.0000 </r>
       <r>   -7.0063    1.0000 </r>
       <r>   -6.9681    1.0000 </r>
       <r>   -6.8881    1.0000 </r>
       <r>   -6.8254    1.0000 </r>
       <r>   -6.7300    1.0000 </r>
       <r>   -6.6232    1.0000 </r>
       <r>   -6.5055    1.0000 </r>
       <r>   -6.4386    1.0000 </r>
       <r>   -6.3916    1.0000 </r>
       <r>   -6.3248    1.0000 </r>
       <r>   -6.2719    1.0000 </r>
       <r>   -6.2209    1.0000 </r>
       <r>   -6.1623    1.0000 </r>
       <r>   -6.0372    1.0000 </r>
       <r>   -5.9965    1.0000 </r>
       <r>   -5.9314    1.0000 </r>
       <r>   -5.8510    1.0000 </r>
       <r>   -5.7570    1.0000 </r>
       <r>   -5.6809    1.0000 </r>
       <r>   -5.6159    1.0000 </r>
       <r>   -5.5840    1.0000 </r>
       <r>   -5.3894    1.0000 </r>
       <r>   -5.2765    1.0000 </r>
       <r>   -5.1671    1.0000 </r>
       <r>   -5.0232    1.0000 </r>
       <r>   -4.9266    1.0000 </r>
       <r>   -4.8388    1.0000 </r>
       <r>   -4.6669    1.0000 </r>
       <r>   -4.4923    1.0000 </r>
       <r>   -4.4137    1.0000 </r>
       <r>   -4.2909    1.0000 </r>
       <r>   -4.2171    1.0000 </r>
       <r>   -4.1062    1.0000 </r>
       <r>   -3.8748    0.9998 </r>
       <r>   -3.7819    0.9984 </r>
       <r>   -3.6865    0.9885 </r>
       <r>   -3.5696    0.9260 </r>
       <r>   -3.4613    0.7521 </r>
       <r>   -2.9360    0.0012 </r>
       <r>   -2.7422    0.0000 </r>
       <r>   -2.6343    0.0000 </r>
       <r>   -2.5129    0.0000 </r>
       <r>   -2.3726    0.0000 </r>
       <r>   -2.2604    0.0000 </r>
       <r>   -2.0701    0.0000 </r>
       <r>   -1.9524    0.0000 </r>
       <r>   -1.8647    0.0000 </r>
       <r>   -1.7687    0.0000 </r>
       <r>   -1.6152    0.0000 </r>
       <r>   -1.5604    0.0000 </r>
       <r>   -1.4874    0.0000 </r>
       <r>   -1.4171    0.0000 </r>
       <r>   -1.3276    0.0000 </r>
       <r>   -1.2242    0.0000 </r>
       <r>   -1.1258    0.0000 </r>
       <r>   -1.0535    0.0000 </r>
       <r>   -1.0306    0.0000 </r>
       <r>   -0.9824    0.0000 </r>
       <r>   -0.9546    0.0000 </r>
       <r>   -0.8587    0.0000 </r>
       <r>   -0.8186    0.0000 </r>
       <r>   -0.6871    0.0000 </r>
       <r>   -0.4866    0.0000 </r>
       <r>   -0.3358    0.0000 </r>
       <r>   -0.1844    0.0000 </r>
       <r>   -0.0301    0.0000 </r>
       <r>    0.0769    0.0000 </r>
       <r>    0.2757    0.0000 </r>
       <r>    0.5086    0.0000 </r>
       <r>    0.6651    0.0000 </r>
       <r>    0.7923    0.0000 </r>
       <r>    0.9872    0.0000 </r>
       <r>    1.1367    0.0000 </r>
       <r>    1.2535    0.0000 </r>
       <r>    1.4099    0.0000 </r>
       <r>    2.1390    0.0000 </r>
       <r>    2.2978    0.0000 </r>
       <r>    2.4026    0.0000 </r>
      </set>
      <set comment="kpoint 34">
       <r>  -17.4472    1.0000 </r>
       <r>  -17.3729    1.0000 </r>
       <r>  -16.7490    1.0000 </r>
       <r>  -16.7071    1.0000 </r>
       <r>  -16.5953    1.0000 </r>
       <r>  -16.4430    1.0000 </r>
       <r>  -16.2521    1.0000 </r>
       <r>  -16.1269    1.0000 </r>
       <r>  -16.0374    1.0000 </r>
       <r>  -15.9998    1.0000 </r>
       <r>  -15.9356    1.0000 </r>
       <r>  -15.8936    1.0000 </r>
       <r>  -15.8180    1.0000 </r>
       <r>  -15.7903    1.0000 </r>
       <r>  -15.6709    1.0000 </r>
       <r>  -15.5074    1.0000 </r>
       <r>  -15.4707    1.0000 </r>
       <r>  -15.3200    1.0000 </r>
       <r>   -9.7550    1.0000 </r>
       <r>   -9.2975    1.0000 </r>
       <r>   -9.1769    1.0000 </r>
       <r>   -9.0585    1.0000 </r>
       <r>   -8.9448    1.0000 </r>
       <r>   -8.7625    1.0000 </r>
       <r>   -8.5554    1.0000 </r>
       <r>   -8.4807    1.0000 </r>
       <r>   -8.4477    1.0000 </r>
       <r>   -8.3605    1.0000 </r>
       <r>   -8.2830    1.0000 </r>
       <r>   -8.2560    1.0000 </r>
       <r>   -8.2161    1.0000 </r>
       <r>   -8.0239    1.0000 </r>
       <r>   -7.9256    1.0000 </r>
       <r>   -7.8828    1.0000 </r>
       <r>   -7.7365    1.0000 </r>
       <r>   -7.6401    1.0000 </r>
       <r>   -7.5979    1.0000 </r>
       <r>   -7.5474    1.0000 </r>
       <r>   -7.3616    1.0000 </r>
       <r>   -7.2272    1.0000 </r>
       <r>   -7.1287    1.0000 </r>
       <r>   -7.0654    1.0000 </r>
       <r>   -7.0332    1.0000 </r>
       <r>   -6.9189    1.0000 </r>
       <r>   -6.9152    1.0000 </r>
       <r>   -6.7787    1.0000 </r>
       <r>   -6.6760    1.0000 </r>
       <r>   -6.6222    1.0000 </r>
       <r>   -6.5498    1.0000 </r>
       <r>   -6.4673    1.0000 </r>
       <r>   -6.4270    1.0000 </r>
       <r>   -6.3149    1.0000 </r>
       <r>   -6.2897    1.0000 </r>
       <r>   -6.2443    1.0000 </r>
       <r>   -6.1692    1.0000 </r>
       <r>   -6.0837    1.0000 </r>
       <r>   -6.0495    1.0000 </r>
       <r>   -5.9265    1.0000 </r>
       <r>   -5.8772    1.0000 </r>
       <r>   -5.7843    1.0000 </r>
       <r>   -5.6847    1.0000 </r>
       <r>   -5.5885    1.0000 </r>
       <r>   -5.5657    1.0000 </r>
       <r>   -5.4166    1.0000 </r>
       <r>   -5.2757    1.0000 </r>
       <r>   -5.1429    1.0000 </r>
       <r>   -4.8968    1.0000 </r>
       <r>   -4.8720    1.0000 </r>
       <r>   -4.8238    1.0000 </r>
       <r>   -4.7049    1.0000 </r>
       <r>   -4.5792    1.0000 </r>
       <r>   -4.4443    1.0000 </r>
       <r>   -4.2132    1.0000 </r>
       <r>   -4.1776    1.0000 </r>
       <r>   -4.1131    1.0000 </r>
       <r>   -3.8982    0.9999 </r>
       <r>   -3.8082    0.9991 </r>
       <r>   -3.6843    0.9880 </r>
       <r>   -3.6022    0.9533 </r>
       <r>   -3.4436    0.7108 </r>
       <r>   -2.9363    0.0012 </r>
       <r>   -2.7546    0.0000 </r>
       <r>   -2.6001    0.0000 </r>
       <r>   -2.5516    0.0000 </r>
       <r>   -2.3669    0.0000 </r>
       <r>   -2.2510    0.0000 </r>
       <r>   -2.0943    0.0000 </r>
       <r>   -1.9354    0.0000 </r>
       <r>   -1.8459    0.0000 </r>
       <r>   -1.7341    0.0000 </r>
       <r>   -1.6290    0.0000 </r>
       <r>   -1.5653    0.0000 </r>
       <r>   -1.4744    0.0000 </r>
       <r>   -1.4517    0.0000 </r>
       <r>   -1.2986    0.0000 </r>
       <r>   -1.2319    0.0000 </r>
       <r>   -1.1606    0.0000 </r>
       <r>   -1.0495    0.0000 </r>
       <r>   -1.0343    0.0000 </r>
       <r>   -0.9968    0.0000 </r>
       <r>   -0.9470    0.0000 </r>
       <r>   -0.8527    0.0000 </r>
       <r>   -0.7803    0.0000 </r>
       <r>   -0.7179    0.0000 </r>
       <r>   -0.4401    0.0000 </r>
       <r>   -0.3775    0.0000 </r>
       <r>   -0.1969    0.0000 </r>
       <r>   -0.0669    0.0000 </r>
       <r>    0.0735    0.0000 </r>
       <r>    0.2997    0.0000 </r>
       <r>    0.5279    0.0000 </r>
       <r>    0.6549    0.0000 </r>
       <r>    0.8412    0.0000 </r>
       <r>    0.9329    0.0000 </r>
       <r>    1.0991    0.0000 </r>
       <r>    1.2886    0.0000 </r>
       <r>    1.4742    0.0000 </r>
       <r>    2.2097    0.0000 </r>
       <r>    2.2680    0.0000 </r>
       <r>    2.3837    0.0000 </r>
      </set>
     </set>
    </set>
   </array>
  </eigenvalues>
  <separator name="orbital magnetization" >
   <v name="MAGDIPOLOUT">      0.00000000      0.00000000      0.00000000</v>
  </separator>
 </calculation>
 <structure name="finalpos" >
  <crystal>
   <varray name="basis" >
    <v>       8.33647048       4.81148067       0.00000000 </v>
    <v>      -8.33837446       4.81477980       0.00000000 </v>
    <v>       0.00000000       0.00000000      30.00000000 </v>
   </varray>
   <i name="volume">   2407.74591618 </i>
   <varray name="rec_basis" >
    <v>       0.05999113       0.10389437       0.00000000 </v>
    <v>      -0.05995002       0.10387064       0.00000000 </v>
    <v>       0.00000000       0.00000000       0.03333333 </v>
   </varray>
  </crystal>
  <varray name="positions" >
   <v>       0.66568941       0.69710412      -0.00005301 </v>
   <v>       0.35066331      -0.01815934       0.00022654 </v>
   <v>       0.98266854       0.29789688      -0.00013312 </v>
   <v>      -0.01523421       0.00633517      -0.00049712 </v>
   <v>       0.66669629      -0.00610586       0.00002629 </v>
   <v>       0.34807784       0.68770540       0.00052854 </v>
   <v>       0.03117413       0.70202571       0.00003771 </v>
   <v>       0.30289393       0.33907120      -0.00015558 </v>
   <v>       0.66674299       0.29662677       0.00000273 </v>
   <v>       0.10332703       0.22409511       0.94451706 </v>
   <v>       0.22770069       0.11005188       0.04504806 </v>
   <v>       0.10566267       0.54873752       0.95473131 </v>
   <v>       0.20471449       0.44400996       0.05130911 </v>
   <v>       0.12848206       0.90575252       0.94880492 </v>
   <v>       0.22997701       0.78757074       0.05555575 </v>
   <v>       0.44045534       0.21689356       0.95306772 </v>
   <v>       0.54918144       0.09894907       0.05499988 </v>
   <v>       0.44948233       0.56011123       0.94910773 </v>
   <v>       0.55557485       0.44615845       0.04214566 </v>
   <v>       0.44843928       0.89134416       0.94512714 </v>
   <v>       0.55720596       0.77502737       0.05524050 </v>
   <v>       0.78416690       0.21624467       0.94503875 </v>
   <v>       0.88474541       0.10955363       0.05494844 </v>
   <v>       0.77764873       0.55731496       0.95794320 </v>
   <v>       0.89260127       0.44279935       0.04704764 </v>
   <v>       0.77589982       0.88422188       0.94480611 </v>
   <v>       0.88357693       0.77687834       0.05057796 </v>
  </varray>
 </structure>
</modeling>
