unknown system                          
           1
     8.855781    5.105621    0.000000
    -8.855538    5.105204    0.000000
     0.000000    0.000000   30.000000
   V    Mo   W    S 
   3   3   3  18
Direct configuration=     1
   0.66666669  0.66666669  0.00000000
   0.33333334  0.00000000  0.00000000
   1.00000000  0.33333334  0.00000000
   0.00000000  0.00000000  0.00000000
   0.66666669  0.00000000  0.00000000
   0.33333334  0.66666669  0.00000000
   0.00000000  0.66666669  0.00000000
   0.33333334  0.33333334  0.00000000
   0.66666669  0.33333334  0.00000000
   0.11068511  0.22244981  0.95539999
   0.22244981  0.11068511  0.04460000
   0.11068511  0.55578315  0.95539999
   0.22244981  0.44401845  0.04460000
   0.11068511  0.88911647  0.95539999
   0.22244981  0.77735180  0.04460000
   0.44401845  0.22244981  0.95539999
   0.55578315  0.11068511  0.04460000
   0.44401845  0.55578315  0.95539999
   0.55578315  0.44401845  0.04460000
   0.44401845  0.88911647  0.95539999
   0.55578315  0.77735180  0.04460000
   0.77735180  0.22244981  0.95539999
   0.88911647  0.11068511  0.04460000
   0.77735180  0.55578315  0.95539999
   0.88911647  0.44401845  0.04460000
   0.77735180  0.88911647  0.95539999
   0.88911647  0.77735180  0.04460000
unknown system                          
           1
     8.668360    4.999746    0.000000
    -8.668144    4.999376    0.000000
     0.000000    0.000000   30.000000
   V    Mo   W    S 
   3   3   3  18
Direct configuration=     2
   0.66657273  0.66902114  0.00000300
   0.33338522 -0.00118494  0.00000495
   0.99997746  0.33210742 -0.00000812
  -0.00141526  0.00006782  0.00006680
   0.66672231 -0.00140742 -0.00000161
   0.33470214  0.66802950 -0.00006324
   0.00153227  0.66817935 -0.00004634
   0.33173993  0.33336877  0.00004814
   0.66671194  0.33177064 -0.00000368
   0.10949960  0.22508725  0.95194424
   0.22511415  0.10951994  0.04795780
   0.10825373  0.55127502  0.95196788
   0.21796729  0.44161704  0.04809212
   0.11514363  0.89009910  0.95191826
   0.22345435  0.78183855  0.04811985
   0.44251228  0.21824654  0.95190797
   0.55128056  0.10972993  0.04807049
   0.44853102  0.55678101  0.95192434
   0.55734852  0.44822314  0.04805385
   0.44188382  0.89123930  0.95198717
   0.55791311  0.77521557  0.04806506
   0.78186533  0.22492018  0.95191467
   0.89106858  0.11557851  0.04808360
   0.77558511  0.55751735  0.95202322
   0.89085314  0.44226146  0.04802307
   0.77542855  0.88420005  0.95187256
   0.88458295  0.77491222  0.04807387
unknown system                          
           1
     8.487114    4.899821    0.000000
    -8.487153    4.899891    0.000000
     0.000000    0.000000   30.000000
   V    Mo   W    S 
   3   3   3  18
Direct configuration=     3
   0.66657313  0.66977175  0.00000376
   0.33338948 -0.00156196 -0.00000007
   0.99997277  0.33172800 -0.00000388
  -0.00183042  0.00007003  0.00011343
   0.66673154 -0.00181092 -0.00000272
   0.33509032  0.66842765 -0.00010879
   0.00197658  0.66861021 -0.00010258
   0.33131813  0.33337171  0.00010591
   0.66670087  0.33134591 -0.00000502
   0.10967265  0.22525272  0.95189448
   0.22527433  0.10973923  0.04790654
   0.10805539  0.55130468  0.95202818
   0.21797784  0.44143134  0.04807914
   0.11513656  0.88994439  0.95193097
   0.22331246  0.78185992  0.04815920
   0.44253885  0.21836547  0.95198341
   0.55129098  0.10988451  0.04806641
   0.44853717  0.55660817  0.95193334
   0.55730670  0.44808197  0.04792556
   0.44185656  0.89129772  0.95192656
   0.55797324  0.77516573  0.04817054
   0.78185879  0.22510511  0.95192107
   0.89113069  0.11570375  0.04813741
   0.77566017  0.55742777  0.95214079
   0.89079147  0.44233651  0.04796055
   0.77533621  0.88405787  0.95177631
   0.88458202  0.77469522  0.04805940
unknown system                          
           1
     8.277652    4.777930    0.000000
    -8.278210    4.778900    0.000000
     0.000000    0.000000   30.000000
   V    Mo   W    S 
   3   3   3  18
Direct configuration=     4
   0.66657200  0.67248821  0.00000151
   0.33339439 -0.00295853 -0.00001099
   0.99993537  0.33030667  0.00000964
  -0.00321825  0.00012386  0.00023228
   0.66674208 -0.00315888 -0.00000312
   0.33637741  0.66980880 -0.00022794
   0.00344412  0.66998141 -0.00026846
   0.32990601  0.33330224  0.00027340
   0.66663683  0.32992381 -0.00000606
   0.10910323  0.22572563  0.95023405
   0.22578188  0.10931020  0.04914314
   0.10744261  0.55027780  0.95081804
   0.21690111  0.44102620  0.04949385
   0.11624587  0.89075420  0.95052016
   0.22400709  0.78303327  0.04978357
   0.44181598  0.21737081  0.95080231
   0.55021708  0.10913511  0.04951830
   0.44966642  0.55705031  0.95051691
   0.55790858  0.44903797  0.04888062
   0.44152330  0.89199571  0.95025845
   0.55853466  0.77464607  0.05002057
   0.78294418  0.22555218  0.95046975
   0.89159022  0.11688308  0.04978582
   0.77518189  0.55781839  0.95115133
   0.89140153  0.44202920  0.04918622
   0.77467867  0.88284854  0.94995727
   0.88348020  0.77390219  0.04945929
unknown system                          
           1
     8.265220    4.771765    0.000000
    -8.265610    4.772445    0.000000
     0.000000    0.000000   30.000000
   V    Mo   W    S 
   3   3   3  18
Direct configuration=     5
   0.66654392  0.67763055 -0.00000772
   0.33360457 -0.00565575 -0.00001764
   0.99966318  0.32739308  0.00002625
  -0.00580763  0.00040469  0.00029046
   0.66670648 -0.00548901  0.00000581
   0.33883599  0.67266653 -0.00029333
   0.00650567  0.67274006 -0.00042656
   0.32695590  0.33302668  0.00042262
   0.66650843  0.32670259  0.00000016
   0.10814209  0.22573937  0.94799333
   0.22565697  0.10846469  0.05074105
   0.10749970  0.54939496  0.94923312
   0.21583472  0.44138905  0.05138871
   0.11736160  0.89223020  0.94863694
   0.22511196  0.78422854  0.05199942
   0.44073554  0.21604160  0.94933532
   0.54923553  0.10768158  0.05151669
   0.45072438  0.55769986  0.94863650
   0.55856196  0.45032261  0.04996212
   0.44172419  0.89268690  0.94784542
   0.55899753  0.77446112  0.05267630
   0.78396054  0.22511368  0.94846616
   0.89151494  0.11759074  0.05217904
   0.77466463  0.55839906  0.95005299
   0.89238222  0.44185220  0.05067496
   0.77414972  0.88201209  0.94732351
   0.88243973  0.77348679  0.05133828
unknown system                          
           1
     8.269710    4.774222    0.000000
    -8.270125    4.774944    0.000000
     0.000000    0.000000   30.000000
   V    Mo   W    S 
   3   3   3  18
Direct configuration=     6
   0.66653489  0.67953590 -0.00000054
   0.33415040 -0.00657376 -0.00006833
   0.99911061  0.32592466  0.00006943
  -0.00665913  0.00062168  0.00028628
   0.66674149 -0.00556475  0.00000098
   0.33962144  0.67367804 -0.00028324
   0.00770343  0.67382686 -0.00047691
   0.32575858  0.33295608  0.00047707
   0.66650046  0.32484309 -0.00000552
   0.10785748  0.22544392  0.94771673
   0.22503446  0.10818816  0.05072025
   0.10812390  0.54972178  0.94925075
   0.21586983  0.44193698  0.05149004
   0.11733452  0.89273497  0.94852611
   0.22538618  0.78420261  0.05229784
   0.44044047  0.21585404  0.94935547
   0.54937329  0.10711574  0.05177076
   0.45055514  0.55782527  0.94852419
   0.55853855  0.45040237  0.04971390
   0.44220894  0.89263388  0.94753165
   0.55896611  0.77478900  0.05304891
   0.78383116  0.22440443  0.94823280
   0.89103871  0.11706313  0.05248953
   0.77469626  0.55848461  0.95030889
   0.89269713  0.44198158  0.05063675
   0.77418778  0.88238759  0.94694113
   0.88261236  0.77379661  0.05144497
unknown system                          
           1
     8.248474    4.761957    0.000000
    -8.248236    4.761548    0.000000
     0.000000    0.000000   30.000000
   V    Mo   W    S 
   3   3   3  18
Direct configuration=     7
   0.66653138  0.68001712 -0.00000128
   0.33436240 -0.00680581 -0.00007813
   0.99890266  0.32549724  0.00008057
  -0.00684990  0.00066565  0.00027667
   0.66673032 -0.00547060  0.00000180
   0.33980773  0.67393346 -0.00027484
   0.00808640  0.67420383 -0.00049501
   0.32541226  0.33296086  0.00049492
   0.66647713  0.32421729 -0.00000478
   0.10781842  0.22539540  0.94773170
   0.22491625  0.10814238  0.05062235
   0.10824953  0.54980046  0.94934384
   0.21586711  0.44204100  0.05143264
   0.11734106  0.89283751  0.94858502
   0.22542342  0.78419607  0.05228412
   0.44041341  0.21584336  0.94943789
   0.54939610  0.10702476  0.05177384
   0.45050420  0.55782934  0.94858042
   0.55853344  0.45036984  0.04956218
   0.44230253  0.89261160  0.94754091
   0.55895968  0.77488027  0.05304131
   0.78380503  0.22428175  0.94822787
   0.89093723  0.11693829  0.05248328
   0.77469894  0.55845449  0.95046418
   0.89272561  0.44200305  0.05055184
   0.77419868  0.88248863  0.94694715
   0.88266343  0.77385722  0.05138943
unknown system                          
           1
     8.278637    4.779074    0.000000
    -8.279391    4.780382    0.000000
     0.000000    0.000000   30.000000
   V    Mo   W    S 
   3   3   3  18
Direct configuration=     8
   0.66655460  0.67986732 -0.00000559
   0.33407088 -0.00678600 -0.00006830
   0.99917069  0.32586411  0.00007789
  -0.00674395  0.00053456  0.00026551
   0.66656354 -0.00592314  0.00000309
   0.33981815  0.67403148 -0.00026992
   0.00792580  0.67402679 -0.00047423
   0.32575034  0.33281974  0.00047212
   0.66632037  0.32473287  0.00000216
   0.10782096  0.22532362  0.94758995
   0.22486756  0.10810375  0.05079812
   0.10833743  0.54987232  0.94914996
   0.21599996  0.44210935  0.05158468
   0.11729123  0.89281119  0.94845219
   0.22546401  0.78422331  0.05239326
   0.44032374  0.21574908  0.94928443
   0.54941932  0.10698286  0.05181731
   0.45051340  0.55787169  0.94843769
   0.55849751  0.45047285  0.04977987
   0.44232595  0.89264998  0.94741693
   0.55894602  0.77484645  0.05319110
   0.78371559  0.22416899  0.94815181
   0.89087512  0.11687348  0.05263406
   0.77473613  0.55858007  0.95024924
   0.89278085  0.44204132  0.05072004
   0.77422271  0.88245908  0.94680214
   0.88264653  0.77390731  0.05154440
unknown system                          
           1
     8.270309    4.774041    0.000000
    -8.271328    4.775808    0.000000
     0.000000    0.000000   30.000000
   V    Mo   W    S 
   3   3   3  18
Direct configuration=     9
   0.66650532  0.68189346  0.00000069
   0.33511367 -0.00769536 -0.00011288
   0.99816779  0.32387107  0.00011393
  -0.00767774  0.00087989  0.00026282
   0.66679270 -0.00519678  0.00000357
   0.34054499  0.67483438 -0.00026203
   0.00946580  0.67554874 -0.00057027
   0.32403271  0.33303200  0.00057017
   0.66649835  0.32196220 -0.00000499
   0.10759585  0.22528644  0.94760441
   0.22458633  0.10794428  0.05044220
   0.10856888  0.54989355  0.94952077
   0.21568349  0.44234064  0.05140558
   0.11748670  0.89328730  0.94861233
   0.22562710  0.78427758  0.05242644
   0.44026645  0.21572207  0.94958045
   0.54936023  0.10663546  0.05197060
   0.45046658  0.55789629  0.94860111
   0.55860044  0.45036776  0.04916213
   0.44257975  0.89259545  0.94737805
   0.55899813  0.77513378  0.05322110
   0.78387882  0.22393441  0.94804076
   0.89067412  0.11669084  0.05264412
   0.77463356  0.55838038  0.95086727
   0.89289238  0.44202351  0.05040062
   0.77416361  0.88270261  0.94676032
   0.88270845  0.77397250  0.05136062
unknown system                          
           1
     8.271177    4.773860    0.000000
    -8.272716    4.776529    0.000000
     0.000000    0.000000   30.000000
   V    Mo   W    S 
   3   3   3  18
Direct configuration=    10
   0.66651996  0.68266304 -0.00000667
   0.33533275 -0.00814530 -0.00012566
   0.99794226  0.32324901  0.00013419
  -0.00793249  0.00092681  0.00026247
   0.66668805 -0.00524721  0.00000295
   0.34084458  0.67535855 -0.00025911
   0.01013803  0.67620807 -0.00059372
   0.32352427  0.33295232  0.00059350
   0.66635873  0.32109989 -0.00000934
   0.10750987  0.22521279  0.94746574
   0.22444456  0.10781795  0.05044130
   0.10874607  0.54996994  0.94950846
   0.21565872  0.44250702  0.05147007
   0.11759599  0.89352841  0.94854138
   0.22575219  0.78436282  0.05256392
   0.44015496  0.21560180  0.94956694
   0.54929072  0.10641175  0.05210329
   0.45045432  0.55793781  0.94854060
   0.55863032  0.45041198  0.04908636
   0.44268844  0.89262873  0.94723349
   0.55898740  0.77521607  0.05339789
   0.78387901  0.22375080  0.94790526
   0.89053737  0.11654316  0.05278610
   0.77462145  0.55838603  0.95096010
   0.89296442  0.44205251  0.05040780
   0.77416867  0.88279033  0.94659076
   0.88271384  0.77401938  0.05143182
unknown system                          
           1
     8.260662    4.769160    0.000000
    -8.261182    4.770063    0.000000
     0.000000    0.000000   30.000000
   V    Mo   W    S 
   3   3   3  18
Direct configuration=    11
   0.66649571  0.68420825 -0.00000344
   0.33608722 -0.00888915 -0.00015305
   0.99720998  0.32178580  0.00015986
  -0.00858410  0.00106974  0.00025905
   0.66672549 -0.00484261  0.00000429
   0.34142789  0.67605707 -0.00025751
   0.01138319  0.67752084 -0.00066644
   0.32230924  0.33311573  0.00066704
   0.66636179  0.31902178 -0.00000917
   0.10738385  0.22517488  0.94741848
   0.22430766  0.10773452  0.05021111
   0.10887505  0.54999677  0.94972917
   0.21544205  0.44267221  0.05140135
   0.11778266  0.89388769  0.94862022
   0.22586685  0.78443109  0.05261503
   0.44012067  0.21557855  0.94975875
   0.54921380  0.10617224  0.05224364
   0.45044569  0.55793009  0.94861817
   0.55869988  0.45032656  0.04867123
   0.44285536  0.89261444  0.94717115
   0.55902667  0.77540641  0.05346072
   0.78398332  0.22359334  0.94776609
   0.89037945  0.11639510  0.05285568
   0.77455080  0.55822962  0.95137622
   0.89300553  0.44205492  0.05021711
   0.77413213  0.88294045  0.94652241
   0.88272661  0.77402812  0.05134275
unknown system                          
           1
     8.279504    4.778092    0.000000
    -8.281790    4.782054    0.000000
     0.000000    0.000000   30.000000
   V    Mo   W    S 
   3   3   3  18
Direct configuration=    12
   0.66652077  0.68296360 -0.00000641
   0.33528078 -0.00824236 -0.00013402
   0.99800098  0.32318754  0.00014258
  -0.00810146  0.00090692  0.00025753
   0.66667257 -0.00543224  0.00000324
   0.34102366  0.67555574 -0.00025633
   0.01026623  0.67627457 -0.00060646
   0.32344726  0.33285563  0.00060892
   0.66630209  0.32090680 -0.00000699
   0.10750911  0.22519560  0.94746724
   0.22433883  0.10780310  0.05043636
   0.10885747  0.55007187  0.94952239
   0.21575467  0.44253946  0.05143435
   0.11752012  0.89347481  0.94855800
   0.22575419  0.78435710  0.05257766
   0.44011892  0.21557715  0.94956849
   0.54936070  0.10643272  0.05208435
   0.45040879  0.55796091  0.94856238
   0.55859523  0.45041862  0.04905374
   0.44273050  0.89261992  0.94721286
   0.55900859  0.77524195  0.05341387
   0.78379803  0.22369345  0.94793417
   0.89048919  0.11647859  0.05279199
   0.77466757  0.55842389  0.95100060
   0.89298322  0.44207336  0.05038452
   0.77415148  0.88280003  0.94657511
   0.88275499  0.77407573  0.05141975
unknown system                          
           1
     8.276006    4.775706    0.000000
    -8.278663    4.780312    0.000000
     0.000000    0.000000   30.000000
   V    Mo   W    S 
   3   3   3  18
Direct configuration=    13
   0.66649493  0.68518290 -0.00000567
   0.33640345 -0.00931685 -0.00017101
   0.99689682  0.32101154  0.00017854
  -0.00898610  0.00111932  0.00025034
   0.66671621 -0.00484032  0.00000304
   0.34181828  0.67657337 -0.00024903
   0.01214062  0.67825264 -0.00068634
   0.32165872  0.33305753  0.00069093
   0.66626108  0.31793122 -0.00001259
   0.10727706  0.22512984  0.94728701
   0.22414916  0.10758214  0.05019134
   0.10903913  0.55001779  0.94975600
   0.21533788  0.44284603  0.05144939
   0.11792015  0.89418503  0.94854559
   0.22598612  0.78451392  0.05277029
   0.44001086  0.21546948  0.94975488
   0.54911721  0.10592600  0.05241299
   0.45048843  0.55798877  0.94858271
   0.55878514  0.45040446  0.04852291
   0.44298955  0.89265112  0.94700919
   0.55905784  0.77549316  0.05362832
   0.78405735  0.22344145  0.94761650
   0.89024224  0.11628259  0.05299660
   0.77448992  0.55821758  0.95154313
   0.89308703  0.44207305  0.05018905
   0.77409512  0.88299666  0.94635777
   0.88268026  0.77402405  0.05138801
unknown system                          
           1
     8.271652    4.772139    0.000000
    -8.275281    4.778429    0.000000
     0.000000    0.000000   30.000000
   V    Mo   W    S 
   3   3   3  18
Direct configuration=    14
   0.66648599  0.68585890 -0.00000569
   0.33673744 -0.00965697 -0.00018263
   0.99656657  0.32033322  0.00019059
  -0.00924602  0.00119189  0.00025129
   0.66672705 -0.00470325  0.00000351
   0.34205744  0.67689341 -0.00025041
   0.01273986  0.67888565 -0.00071665
   0.32109781  0.33311015  0.00072316
   0.66623469  0.31706109 -0.00001383
   0.10722798  0.22511067  0.94725591
   0.22410374  0.10755976  0.05009788
   0.10908256  0.55003795  0.94984840
   0.21524212  0.44291742  0.05142948
   0.11801586  0.89435186  0.94856198
   0.22603814  0.78454616  0.05280704
   0.44000459  0.21546048  0.94982954
   0.54906905  0.10580865  0.05248187
   0.45049691  0.55798691  0.94861180
   0.55881861  0.45037245  0.04834748
   0.44306443  0.89264667  0.94697248
   0.55906148  0.77556234  0.05366752
   0.78410630  0.22337520  0.94755138
   0.89017028  0.11620906  0.05303157
   0.77446229  0.55815059  0.95172405
   0.89308675  0.44207252  0.05010667
   0.77408933  0.88306046  0.94631776
   0.88267319  0.77401124  0.05135775
unknown system                          
           1
     8.274027    4.773012    0.000000
    -8.278039    4.779963    0.000000
     0.000000    0.000000   30.000000
   V    Mo   W    S 
   3   3   3  18
Direct configuration=    15
   0.66646373  0.68758237 -0.00000609
   0.33767576 -0.01056296 -0.00021025
   0.99564103  0.31852092  0.00022066
  -0.00988784  0.00137128  0.00025334
   0.66673890 -0.00424079  0.00000535
   0.34264495  0.67768405 -0.00025287
   0.01430045  0.68058870 -0.00079478
   0.31962408  0.33332695  0.00080388
   0.66618858  0.31473453 -0.00001743
   0.10709332  0.22505967  0.94716608
   0.22402325  0.10750193  0.04984431
   0.10916281  0.55005648  0.95009059
   0.21494442  0.44310586  0.05139270
   0.11831330  0.89483986  0.94860169
   0.22618255  0.78463702  0.05290312
   0.43998955  0.21544304  0.95003493
   0.54891909  0.10548358  0.05268135
   0.45052131  0.55796615  0.94867739
   0.55891443  0.45027118  0.04788401
   0.44325597  0.89263777  0.94687505
   0.55906499  0.77575087  0.05376662
   0.78425851  0.22320447  0.94735427
   0.88998365  0.11602027  0.05313258
   0.77437597  0.55795073  0.95219767
   0.89308841  0.44207406  0.04989499
   0.77408131  0.88323970  0.94621654
   0.88265198  0.77396679  0.05128420
unknown system                          
           1
     8.288846    4.780706    0.000000
    -8.293543    4.788844    0.000000
     0.000000    0.000000   30.000000
   V    Mo   W    S 
   3   3   3  18
Direct configuration=    16
   0.66646424  0.68813223 -0.00000704
   0.33801450 -0.01089175 -0.00021784
   0.99530554  0.31788731  0.00023075
  -0.01005102  0.00144071  0.00025016
   0.66670125 -0.00408373  0.00000568
   0.34281170  0.67798854 -0.00025067
   0.01487762  0.68121634 -0.00081194
   0.31912767  0.33337403  0.00082191
   0.66612736  0.31394946 -0.00001896
   0.10703346  0.22502785  0.94710249
   0.22400038  0.10745809  0.04977753
   0.10919439  0.55005139  0.95015093
   0.21481816  0.44319772  0.05141173
   0.11845946  0.89507186  0.94858325
   0.22625692  0.78468729  0.05296593
   0.43996435  0.21541992  0.95008564
   0.54883761  0.10532257  0.05277671
   0.45052972  0.55795519  0.94867696
   0.55895503  0.45024210  0.04774209
   0.44333843  0.89265038  0.94681493
   0.55905123  0.77582455  0.05383191
   0.78432568  0.22311851  0.94725696
   0.88989628  0.11593656  0.05319695
   0.77434150  0.55787709  0.95234734
   0.89309707  0.44208756  0.04983942
   0.77409470  0.88332400  0.94615213
   0.88264122  0.77394870  0.05128494
unknown system                          
           1
     8.283923    4.776044    0.000000
    -8.290527    4.787484    0.000000
     0.000000    0.000000   30.000000
   V    Mo   W    S 
   3   3   3  18
Direct configuration=    17
   0.66643415  0.68868525 -0.00000398
   0.33837295 -0.01108780 -0.00022412
   0.99495137  0.31734446  0.00023333
  -0.01035677  0.00142844  0.00024531
   0.66675194 -0.00390143  0.00000620
   0.34306901  0.67814779 -0.00024818
   0.01524228  0.68165047 -0.00082453
   0.31871294  0.33354595  0.00083159
   0.66620528  0.31323351 -0.00001472
   0.10699397  0.22502701  0.94703488
   0.22399378  0.10740066  0.04973404
   0.10918206  0.54995025  0.95019101
   0.21466595  0.44328609  0.05145218
   0.11855492  0.89527046  0.94855722
   0.22627663  0.78468977  0.05303287
   0.43994149  0.21541249  0.95011745
   0.54875432  0.10522181  0.05288977
   0.45062371  0.55797253  0.94865654
   0.55904959  0.45030100  0.04762284
   0.44338368  0.89264100  0.94673746
   0.55908368  0.77583750  0.05389943
   0.78445922  0.22311769  0.94714091
   0.88986700  0.11593075  0.05328318
   0.77423812  0.55784578  0.95245847
   0.89314784  0.44207548  0.04982009
   0.77406473  0.88330798  0.94607885
   0.88255062  0.77387958  0.05129184
unknown system                          
           1
     8.289447    4.777805    0.000000
    -8.297187    4.791212    0.000000
     0.000000    0.000000   30.000000
   V    Mo   W    S 
   3   3   3  18
Direct configuration=    18
   0.66640905  0.69058681 -0.00000955
   0.33961740 -0.01223298 -0.00024843
   0.99370247  0.31494362  0.00026351
  -0.01101983  0.00179246  0.00025100
   0.66677487 -0.00344241  0.00000800
   0.34369454  0.67913819 -0.00024881
   0.01722144  0.68383251 -0.00090171
   0.31681113  0.33380848  0.00091486
   0.66614889  0.31075315 -0.00003029
   0.10678110  0.22493754  0.94690294
   0.22400461  0.10740278  0.04938374
   0.10918450  0.54996705  0.95052740
   0.21415140  0.44351323  0.05143128
   0.11910373  0.89604275  0.94856949
   0.22652084  0.78483701  0.05318290
   0.43992370  0.21538064  0.95040549
   0.54848524  0.10464070  0.05315610
   0.45065684  0.55795376  0.94875257
   0.55912899  0.45011599  0.04700762
   0.44369544  0.89263740  0.94659970
   0.55901461  0.77609293  0.05402139
   0.78469358  0.22280823  0.94688928
   0.88955881  0.11560899  0.05340995
   0.77418581  0.55757655  0.95309603
   0.89312533  0.44208404  0.04951569
   0.77411456  0.88361786  0.94596132
   0.88252541  0.77381718  0.05118843
unknown system                          
           1
     8.297029    4.777692    0.000000
    -8.309318    4.798980    0.000000
     0.000000    0.000000   30.000000
   V    Mo   W    S 
   3   3   3  18
Direct configuration=    19
   0.66638331  0.69185470 -0.00000941
   0.34062381 -0.01302583 -0.00025180
   0.99269510  0.31320276  0.00027121
  -0.01150516  0.00206274  0.00023814
   0.66673964 -0.00318974  0.00001028
   0.34417167  0.67991621 -0.00023901
   0.01863080  0.68540541 -0.00093330
   0.31548387  0.33404470  0.00094704
   0.66610557  0.30904039 -0.00003121
   0.10660234  0.22484991  0.94675669
   0.22407901  0.10739705  0.04913540
   0.10912531  0.54989732  0.95076002
   0.21367247  0.44371909  0.05146423
   0.11959124  0.89673151  0.94854643
   0.22672236  0.78494715  0.05333090
   0.43987356  0.21533717  0.95060674
   0.54826915  0.10416783  0.05337258
   0.45070307  0.55795099  0.94880038
   0.55918775  0.45000593  0.04656664
   0.44397399  0.89262968  0.94645634
   0.55894437  0.77626731  0.05414164
   0.78491010  0.22254443  0.94666651
   0.88927946  0.11532258  0.05356313
   0.77413675  0.55740099  0.95354624
   0.89315039  0.44209851  0.04931318
   0.77418530  0.88386096  0.94584066
   0.88247923  0.77377471  0.05113027
unknown system                          
           1
     8.316303    4.788546    0.000000
    -8.327846    4.808537    0.000000
     0.000000    0.000000   30.000000
   V    Mo   W    S 
   3   3   3  18
Direct configuration=    20
   0.66626120  0.69679771 -0.00002380
   0.34505852 -0.01618487 -0.00023288
   0.98813811  0.30547404  0.00026866
  -0.01352839  0.00371539  0.00015789
   0.66688677 -0.00237846  0.00001396
   0.34611334  0.68328472 -0.00014938
   0.02460938  0.69214093 -0.00103797
   0.30952663  0.33512108  0.00106169
   0.66614591  0.30224904 -0.00006769
   0.10566688  0.22443488  0.94611848
   0.22460444  0.10754685  0.04793251
   0.10863361  0.54949710  0.95192113
   0.21121004  0.44452795  0.05152660
   0.12203433  0.89999064  0.94848570
   0.22771573  0.78542511  0.05403470
   0.43966058  0.21515915  0.95156607
   0.54744739  0.10193393  0.05428572
   0.45077298  0.55804073  0.94907261
   0.55921486  0.44932594  0.04457126
   0.44550068  0.89249914  0.94577128
   0.55845561  0.77700960  0.05464415
   0.78576108  0.22115043  0.94579732
   0.88781646  0.11379770  0.05420979
   0.77416603  0.55667977  0.95558665
   0.89328263  0.44212649  0.04832655
   0.77461881  0.88506280  0.94535165
   0.88244086  0.77378668  0.05080722
unknown system                          
           1
     8.308878    4.785301    0.000000
    -8.319852    4.804308    0.000000
     0.000000    0.000000   30.000000
   V    Mo   W    S 
   3   3   3  18
Direct configuration=    21
   0.66621852  0.69662078 -0.00001230
   0.34547583 -0.01622389 -0.00016115
   0.98774401  0.30515570  0.00019835
  -0.01359514  0.00407487  0.00008823
   0.66674913 -0.00287318  0.00001840
   0.34628867  0.68388398 -0.00010328
   0.02505985  0.69265690 -0.00094076
   0.30920133  0.33522223  0.00095361
   0.66608407  0.30207637 -0.00002748
   0.10547568  0.22433051  0.94593085
   0.22489400  0.10759815  0.04775456
   0.10835263  0.54924452  0.95209174
   0.21045517  0.44463635  0.05160625
   0.12272716  0.90076229  0.94844392
   0.22789969  0.78552436  0.05418754
   0.43960134  0.21512055  0.95167425
   0.54744971  0.10154604  0.05437904
   0.45066495  0.55813070  0.94908907
   0.55896402  0.44912965  0.04436988
   0.44594602  0.89240410  0.94560817
   0.55831693  0.77706552  0.05474571
   0.78583514  0.22071507  0.94564660
   0.88733590  0.11325045  0.05443719
   0.77439901  0.55673648  0.95577604
   0.89333302  0.44212954  0.04822550
   0.77480539  0.88528205  0.94523930
   0.88253239  0.77401439  0.05078066
unknown system                          
           1
     8.313722    4.788651    0.000000
    -8.324251    4.806888    0.000000
     0.000000    0.000000   30.000000
   V    Mo   W    S 
   3   3   3  18
Direct configuration=    22
   0.66618953  0.69696426 -0.00001843
   0.34602466 -0.01654828 -0.00015187
   0.98715583  0.30422663  0.00018990
  -0.01381903  0.00443551  0.00006914
   0.66677061 -0.00298577  0.00001665
   0.34651964  0.68441798 -0.00006998
   0.02583117  0.69359590 -0.00094206
   0.30838035  0.33544265  0.00095821
   0.66614603  0.30135007 -0.00004660
   0.10534679  0.22430482  0.94585030
   0.22507353  0.10772608  0.04751677
   0.10818693  0.54919130  0.95232354
   0.21001443  0.44460685  0.05153237
   0.12318026  0.90118075  0.94851363
   0.22804460  0.78562092  0.05427182
   0.43962554  0.21514001  0.95184001
   0.54749667  0.10127599  0.05442998
   0.45056667  0.55819845  0.94915689
   0.55875949  0.44891439  0.04410598
   0.44623880  0.89234038  0.94555458
   0.55819415  0.77707248  0.05477288
   0.78576357  0.22039950  0.94561393
   0.88705450  0.11290488  0.05448078
   0.77460443  0.55673548  0.95604605
   0.89330658  0.44212393  0.04806729
   0.77491633  0.88540060  0.94521775
   0.88264240  0.77417868  0.05070041
unknown system                          
           1
     8.322756    4.795272    0.000000
    -8.331994    4.811272    0.000000
     0.000000    0.000000   30.000000
   V    Mo   W    S 
   3   3   3  18
Direct configuration=    23
   0.66616186  0.69719491 -0.00002289
   0.34658034 -0.01679850 -0.00012816
   0.98658384  0.30339746  0.00016968
  -0.01402708  0.00479462  0.00003191
   0.66676844 -0.00323958  0.00001806
   0.34675596  0.68497102 -0.00002779
   0.02652273  0.69445705 -0.00089334
   0.30765670  0.33565777  0.00090605
   0.66618812  0.30075105 -0.00005019
   0.10519819  0.22428523  0.94571927
   0.22530044  0.10782861  0.04729136
   0.10797475  0.54906626  0.95254233
   0.20943939  0.44461078  0.05150862
   0.12375363  0.90174863  0.94854235
   0.22820566  0.78575252  0.05440227
   0.43962952  0.21517757  0.95197502
   0.54755940  0.10097543  0.05450642
   0.45045816  0.55829814  0.94919560
   0.55851078  0.44869658  0.04387521
   0.44656865  0.89227102  0.94546363
   0.55806083  0.77701323  0.05483162
   0.78569317  0.22001951  0.94553631
   0.88672189  0.11250359  0.05457080
   0.77484825  0.55677820  0.95627834
   0.89329563  0.44214781  0.04794209
   0.77505305  0.88546988  0.94516610
   0.88275214  0.77438564  0.05064923
unknown system                          
           1
     8.333940    4.803072    0.000000
    -8.341688    4.816491    0.000000
     0.000000    0.000000   30.000000
   V    Mo   W    S 
   3   3   3  18
Direct configuration=    24
   0.66604358  0.69782114 -0.00003223
   0.34829793 -0.01775821 -0.00002754
   0.98473488  0.30038154  0.00006603
  -0.01450633  0.00624172 -0.00011898
   0.66702726 -0.00402364  0.00001976
   0.34730060  0.68655862  0.00011942
   0.02891676  0.69749499 -0.00071618
   0.30502957  0.33642878  0.00071111
   0.66649906  0.29884739 -0.00003101
   0.10456939  0.22424324  0.94533090
   0.22602989  0.10835167  0.04646472
   0.10720096  0.54868902  0.95338750
   0.20743373  0.44456731  0.05137852
   0.12558098  0.90348912  0.94869395
   0.22872890  0.78621304  0.05480706
   0.43978460  0.21553666  0.95246034
   0.54792779  0.10008773  0.05471510
   0.45002452  0.55867580  0.94934045
   0.55747618  0.44781334  0.04307138
   0.44763636  0.89195315  0.94521279