   27   27  100    1
  0.9710400E+02  0.1002848E-08  0.1002848E-08  0.3000000E-08  0.5000000E-15
  1.000000000000000E-004
  CAR 
 unknown system                          
    159     34    120
 
  0.0000000E+00  0.0000000E+00  0.0000000E+00  0.1562500E-01
    1      -17.799417   1.000000
    2      -16.706506   1.000000
    3      -16.648587   1.000000
    4      -16.609875   1.000000
    5      -16.504739   1.000000
    6      -16.435761   1.000000
    7      -16.400501   1.000000
    8      -16.280164   1.000000
    9      -16.157501   1.000000
   10      -16.130165   1.000000
   11      -16.049074   1.000000
   12      -15.894936   1.000000
   13      -15.868730   1.000000
   14      -15.679986   1.000000
   15      -15.582850   1.000000
   16      -15.522710   1.000000
   17      -15.423942   1.000000
   18      -15.330196   1.000000
   19       -9.410047   1.000000
   20       -9.054869   1.000000
   21       -8.929789   1.000000
   22       -8.872046   1.000000
   23       -8.725692   1.000000
   24       -8.670600   1.000000
   25       -8.612400   1.000000
   26       -8.528170   1.000000
   27       -8.470171   1.000000
   28       -8.429261   1.000000
   29       -8.413279   1.000000
   30       -8.325158   1.000000
   31       -8.259977   1.000000
   32       -8.134845   1.000000
   33       -8.068285   1.000000
   34       -8.008023   1.000000
   35       -7.883957   1.000000
   36       -7.741733   1.000000
   37       -7.714612   1.000000
   38       -7.543506   1.000000
   39       -7.478073   1.000000
   40       -7.454481   1.000000
   41       -7.394201   1.000000
   42       -7.163165   1.000000
   43       -7.120079   1.000000
   44       -6.973470   1.000000
   45       -6.845245   1.000000
   46       -6.804385   1.000000
   47       -6.724236   1.000000
   48       -6.695058   1.000000
   49       -6.636150   1.000000
   50       -6.468873   1.000000
   51       -6.423628   1.000000
   52       -6.410984   1.000000
   53       -6.259648   1.000000
   54       -6.203110   1.000000
   55       -6.188699   1.000000
   56       -6.062722   1.000000
   57       -5.964197   1.000000
   58       -5.916157   1.000000
   59       -5.762759   1.000000
   60       -5.557789   1.000000
   61       -5.460086   1.000000
   62       -5.438248   1.000000
   63       -5.252510   1.000000
   64       -5.146761   1.000000
   65       -5.087306   1.000000
   66       -5.042347   1.000000
   67       -4.915558   1.000000
   68       -4.859050   1.000000
   69       -4.799692   1.000000
   70       -4.792470   1.000000
   71       -4.650158   1.000000
   72       -4.559835   1.000000
   73       -4.531260   1.000000
   74       -4.495047   1.000000
   75       -4.185811   1.000000
   76       -4.052429   1.000000
   77       -3.832005   0.999583
   78       -3.734575   0.996002
   79       -3.635075   0.974331
   80       -3.393560   0.595176
   81       -3.227480   0.175287
   82       -2.730466   0.000004
   83       -2.654683   0.000000
   84       -2.585760   0.000000
   85       -2.568305   0.000000
   86       -2.511809   0.000000
   87       -2.372896   0.000000
   88       -2.331925   0.000000
   89       -2.283453   0.000000
   90       -2.180251   0.000000
   91       -1.742329   0.000000
   92       -1.615660   0.000000
   93       -1.594835   0.000000
   94       -1.351084   0.000000
   95       -1.184685   0.000000
   96       -1.026795   0.000000
   97       -0.942863   0.000000
   98       -0.840735   0.000000
   99       -0.731797   0.000000
  100       -0.657449   0.000000
  101       -0.597637   0.000000
  102       -0.560792   0.000000
  103       -0.498544   0.000000
  104       -0.479066   0.000000
  105       -0.245241   0.000000
  106       -0.073203   0.000000
  107       -0.026150   0.000000
  108        0.001397   0.000000
  109        0.131400   0.000000
  110        0.371930   0.000000
  111        0.398609   0.000000
  112        0.429192   0.000000
  113        0.548924   0.000000
  114        0.722283   0.000000
  115        0.765950   0.000000
  116        0.976473   0.000000
  117        1.199618   0.000000
  118        1.635613   0.000000
  119        1.832585   0.000000
  120        2.143301   0.000000
 
  0.1250000E+00  0.2775558E-16  0.0000000E+00  0.3125000E-01
    1      -17.775117   1.000000
    2      -16.755105   1.000000
    3      -16.701615   1.000000
    4      -16.652540   1.000000
    5      -16.522234   1.000000
    6      -16.410301   1.000000
    7      -16.370623   1.000000
    8      -16.261767   1.000000
    9      -16.167694   1.000000
   10      -16.103713   1.000000
   11      -16.002072   1.000000
   12      -15.894558   1.000000
   13      -15.821873   1.000000
   14      -15.690230   1.000000
   15      -15.591984   1.000000
   16      -15.514109   1.000000
   17      -15.427855   1.000000
   18      -15.350843   1.000000
   19       -9.408570   1.000000
   20       -9.130911   1.000000
   21       -9.060962   1.000000
   22       -8.958376   1.000000
   23       -8.771209   1.000000
   24       -8.655935   1.000000
   25       -8.645965   1.000000
   26       -8.569438   1.000000
   27       -8.481278   1.000000
   28       -8.428399   1.000000
   29       -8.324454   1.000000
   30       -8.273752   1.000000
   31       -8.186538   1.000000
   32       -8.067668   1.000000
   33       -8.019125   1.000000
   34       -7.903189   1.000000
   35       -7.786629   1.000000
   36       -7.759537   1.000000
   37       -7.665674   1.000000
   38       -7.578992   1.000000
   39       -7.484426   1.000000
   40       -7.416640   1.000000
   41       -7.356038   1.000000
   42       -7.169446   1.000000
   43       -7.131554   1.000000
   44       -6.985249   1.000000
   45       -6.953216   1.000000
   46       -6.867380   1.000000
   47       -6.730309   1.000000
   48       -6.658426   1.000000
   49       -6.587417   1.000000
   50       -6.483437   1.000000
   51       -6.432531   1.000000
   52       -6.341167   1.000000
   53       -6.277761   1.000000
   54       -6.204827   1.000000
   55       -6.171451   1.000000
   56       -6.088852   1.000000
   57       -5.948811   1.000000
   58       -5.877009   1.000000
   59       -5.744202   1.000000
   60       -5.569700   1.000000
   61       -5.503777   1.000000
   62       -5.426805   1.000000
   63       -5.328087   1.000000
   64       -5.208392   1.000000
   65       -5.111490   1.000000
   66       -5.060969   1.000000
   67       -4.998856   1.000000
   68       -4.922290   1.000000
   69       -4.786378   1.000000
   70       -4.719973   1.000000
   71       -4.647203   1.000000
   72       -4.548879   1.000000
   73       -4.509642   1.000000
   74       -4.384753   1.000000
   75       -4.092523   1.000000
   76       -4.044432   0.999999
   77       -3.895810   0.999925
   78       -3.790413   0.998845
   79       -3.645524   0.978439
   80       -3.480805   0.804499
   81       -3.108069   0.037715
   82       -2.768760   0.000015
   83       -2.680936   0.000001
   84       -2.589418   0.000000
   85       -2.565253   0.000000
   86       -2.479017   0.000000
   87       -2.383532   0.000000
   88       -2.297614   0.000000
   89       -2.247195   0.000000
   90       -2.164385   0.000000
   91       -1.760403   0.000000
   92       -1.602677   0.000000
   93       -1.559387   0.000000
   94       -1.352281   0.000000
   95       -1.177712   0.000000
   96       -1.038681   0.000000
   97       -0.939516   0.000000
   98       -0.872026   0.000000
   99       -0.797688   0.000000
  100       -0.687869   0.000000
  101       -0.639228   0.000000
  102       -0.599457   0.000000
  103       -0.542606   0.000000
  104       -0.413961   0.000000
  105       -0.274735   0.000000
  106       -0.143380   0.000000
  107       -0.097296   0.000000
  108       -0.010873   0.000000
  109        0.075345   0.000000
  110        0.348467   0.000000
  111        0.365011   0.000000
  112        0.477912   0.000000
  113        0.605920   0.000000
  114        0.688961   0.000000
  115        0.863584   0.000000
  116        1.006676   0.000000
  117        1.215365   0.000000
  118        1.680551   0.000000
  119        1.869587   0.000000
  120        2.178402   0.000000
 
  0.2500000E+00  0.5551115E-16  0.0000000E+00  0.3125000E-01
    1      -17.704348   1.000000
    2      -16.953289   1.000000
    3      -16.726541   1.000000
    4      -16.681051   1.000000
    5      -16.576170   1.000000
    6      -16.399793   1.000000
    7      -16.313957   1.000000
    8      -16.216820   1.000000
    9      -16.167937   1.000000
   10      -16.034301   1.000000
   11      -15.975142   1.000000
   12      -15.834865   1.000000
   13      -15.736656   1.000000
   14      -15.718015   1.000000
   15      -15.605112   1.000000
   16      -15.507868   1.000000
   17      -15.436391   1.000000
   18      -15.398114   1.000000
   19       -9.513147   1.000000
   20       -9.260562   1.000000
   21       -9.197464   1.000000
   22       -9.063677   1.000000
   23       -8.834599   1.000000
   24       -8.750798   1.000000
   25       -8.628660   1.000000
   26       -8.545861   1.000000
   27       -8.495881   1.000000
   28       -8.403854   1.000000
   29       -8.219693   1.000000
   30       -8.172413   1.000000
   31       -8.084363   1.000000
   32       -8.018393   1.000000
   33       -7.960952   1.000000
   34       -7.827883   1.000000
   35       -7.796050   1.000000
   36       -7.679665   1.000000
   37       -7.590295   1.000000
   38       -7.509273   1.000000
   39       -7.451272   1.000000
   40       -7.326149   1.000000
   41       -7.263062   1.000000
   42       -7.216870   1.000000
   43       -7.073286   1.000000
   44       -7.058386   1.000000
   45       -6.994229   1.000000
   46       -6.834624   1.000000
   47       -6.711085   1.000000
   48       -6.666894   1.000000
   49       -6.605393   1.000000
   50       -6.503714   1.000000
   51       -6.409484   1.000000
   52       -6.335802   1.000000
   53       -6.230400   1.000000
   54       -6.192360   1.000000
   55       -6.119657   1.000000
   56       -6.055517   1.000000
   57       -5.970277   1.000000
   58       -5.832821   1.000000
   59       -5.740385   1.000000
   60       -5.682502   1.000000
   61       -5.616630   1.000000
   62       -5.528980   1.000000
   63       -5.472869   1.000000
   64       -5.301078   1.000000
   65       -5.190743   1.000000
   66       -5.130554   1.000000
   67       -4.964405   1.000000
   68       -4.888396   1.000000
   69       -4.792534   1.000000
   70       -4.733732   1.000000
   71       -4.570371   1.000000
   72       -4.501360   1.000000
   73       -4.381597   1.000000
   74       -4.296807   1.000000
   75       -4.179340   1.000000
   76       -4.091470   1.000000
   77       -3.910577   0.999951
   78       -3.846407   0.999712
   79       -3.633991   0.973870
   80       -3.413099   0.647673
   81       -3.054980   0.015650
   82       -2.813483   0.000056
   83       -2.713409   0.000002
   84       -2.619438   0.000000
   85       -2.555224   0.000000
   86       -2.454652   0.000000
   87       -2.362251   0.000000
   88       -2.248350   0.000000
   89       -2.166977   0.000000
   90       -2.111579   0.000000
   91       -1.792795   0.000000
   92       -1.583954   0.000000
   93       -1.470752   0.000000
   94       -1.362730   0.000000
   95       -1.176100   0.000000
   96       -1.078721   0.000000
   97       -0.986327   0.000000
   98       -0.933766   0.000000
   99       -0.879343   0.000000
  100       -0.788041   0.000000
  101       -0.672707   0.000000
  102       -0.644899   0.000000
  103       -0.568043   0.000000
  104       -0.472183   0.000000
  105       -0.347787   0.000000
  106       -0.269443   0.000000
  107       -0.199110   0.000000
  108       -0.067244   0.000000
  109        0.004402   0.000000
  110        0.256228   0.000000
  111        0.303280   0.000000
  112        0.528322   0.000000
  113        0.626837   0.000000
  114        0.772385   0.000000
  115        1.038313   0.000000
  116        1.078390   0.000000
  117        1.255330   0.000000
  118        1.804611   0.000000
  119        1.976955   0.000000
  120        2.282244   0.000000
 
  0.3750000E+00  0.0000000E+00  0.0000000E+00  0.3125000E-01
    1      -17.597583   1.000000
    2      -17.153994   1.000000
    3      -16.765910   1.000000
    4      -16.673972   1.000000
    5      -16.618477   1.000000
    6      -16.410512   1.000000
    7      -16.270148   1.000000
    8      -16.206463   1.000000
    9      -16.135185   1.000000
   10      -15.993538   1.000000
   11      -15.912315   1.000000
   12      -15.770456   1.000000
   13      -15.754375   1.000000
   14      -15.674822   1.000000
   15      -15.613301   1.000000
   16      -15.542045   1.000000
   17      -15.471291   1.000000
   18      -15.393298   1.000000
   19       -9.698742   1.000000
   20       -9.344057   1.000000
   21       -9.223846   1.000000
   22       -9.100960   1.000000
   23       -8.898114   1.000000
   24       -8.792075   1.000000
   25       -8.643800   1.000000
   26       -8.505471   1.000000
   27       -8.465289   1.000000
   28       -8.279453   1.000000
   29       -8.216815   1.000000
   30       -8.185682   1.000000
   31       -8.072532   1.000000
   32       -7.989908   1.000000
   33       -7.926867   1.000000
   34       -7.858117   1.000000
   35       -7.749908   1.000000
   36       -7.666145   1.000000
   37       -7.580357   1.000000
   38       -7.526485   1.000000
   39       -7.409348   1.000000
   40       -7.285851   1.000000
   41       -7.212299   1.000000
   42       -7.130373   1.000000
   43       -7.026312   1.000000
   44       -6.974400   1.000000
   45       -6.879924   1.000000
   46       -6.740395   1.000000
   47       -6.673156   1.000000
   48       -6.652369   1.000000
   49       -6.560861   1.000000
   50       -6.456152   1.000000
   51       -6.421287   1.000000
   52       -6.304798   1.000000
   53       -6.254481   1.000000
   54       -6.182662   1.000000
   55       -6.087829   1.000000
   56       -6.051985   1.000000
   57       -5.953930   1.000000
   58       -5.894192   1.000000
   59       -5.842499   1.000000
   60       -5.804500   1.000000
   61       -5.736652   1.000000
   62       -5.640480   1.000000
   63       -5.560869   1.000000
   64       -5.358944   1.000000
   65       -5.250884   1.000000
   66       -5.125927   1.000000
   67       -4.969202   1.000000
   68       -4.889627   1.000000
   69       -4.817885   1.000000
   70       -4.688624   1.000000
   71       -4.568752   1.000000
   72       -4.484505   1.000000
   73       -4.444379   1.000000
   74       -4.286808   1.000000
   75       -4.196511   1.000000
   76       -4.075619   1.000000
   77       -3.901128   0.999936
   78       -3.729422   0.995549
   79       -3.641234   0.976826
   80       -3.313324   0.372033
   81       -3.052521   0.014980
   82       -2.832477   0.000097
   83       -2.740686   0.000006
   84       -2.672171   0.000001
   85       -2.541534   0.000000
   86       -2.449416   0.000000
   87       -2.321688   0.000000
   88       -2.211651   0.000000
   89       -2.127477   0.000000
   90       -2.023872   0.000000
   91       -1.801447   0.000000
   92       -1.567502   0.000000
   93       -1.429745   0.000000
   94       -1.336106   0.000000
   95       -1.241251   0.000000
   96       -1.147648   0.000000
   97       -1.025935   0.000000
   98       -0.977643   0.000000
   99       -0.922021   0.000000
  100       -0.822246   0.000000
  101       -0.721616   0.000000
  102       -0.685608   0.000000
  103       -0.605116   0.000000
  104       -0.544941   0.000000
  105       -0.453066   0.000000
  106       -0.363769   0.000000
  107       -0.273632   0.000000
  108       -0.147967   0.000000
  109       -0.044351   0.000000
  110        0.185060   0.000000
  111        0.265166   0.000000
  112        0.548175   0.000000
  113        0.646014   0.000000
  114        0.856660   0.000000
  115        1.122804   0.000000
  116        1.183278   0.000000
  117        1.315891   0.000000
  118        1.988611   0.000000
  119        2.147581   0.000000
  120        2.447316   0.000000
 
  0.5000000E+00  0.1110223E-15  0.0000000E+00  0.1562500E-01
    1      -17.517933   1.000000
    2      -17.267092   1.000000
    3      -16.780562   1.000000
    4      -16.669144   1.000000
    5      -16.633946   1.000000
    6      -16.416696   1.000000
    7      -16.257128   1.000000
    8      -16.205897   1.000000
    9      -16.114003   1.000000
   10      -15.993197   1.000000
   11      -15.861456   1.000000
   12      -15.757869   1.000000
   13      -15.727680   1.000000
   14      -15.668020   1.000000
   15      -15.655800   1.000000
   16      -15.545949   1.000000
   17      -15.497230   1.000000
   18      -15.375983   1.000000
   19       -9.772674   1.000000
   20       -9.376256   1.000000
   21       -9.253193   1.000000
   22       -9.072157   1.000000
   23       -8.922362   1.000000
   24       -8.801436   1.000000
   25       -8.644121   1.000000
   26       -8.543755   1.000000
   27       -8.393896   1.000000
   28       -8.288187   1.000000
   29       -8.174237   1.000000
   30       -8.130876   1.000000
   31       -8.101701   1.000000
   32       -8.041844   1.000000
   33       -7.896074   1.000000
   34       -7.858794   1.000000
   35       -7.755433   1.000000
   36       -7.666560   1.000000
   37       -7.640761   1.000000
   38       -7.518118   1.000000
   39       -7.445200   1.000000
   40       -7.279965   1.000000
   41       -7.156013   1.000000
   42       -7.079555   1.000000
   43       -6.935075   1.000000
   44       -6.874317   1.000000
   45       -6.767217   1.000000
   46       -6.734285   1.000000
   47       -6.667922   1.000000
   48       -6.584397   1.000000
   49       -6.573829   1.000000
   50       -6.535165   1.000000
   51       -6.450372   1.000000
   52       -6.295815   1.000000
   53       -6.277236   1.000000
   54       -6.187524   1.000000
   55       -6.106913   1.000000
   56       -6.079297   1.000000
   57       -5.926416   1.000000
   58       -5.899092   1.000000
   59       -5.801587   1.000000
   60       -5.761029   1.000000
   61       -5.728506   1.000000
   62       -5.674008   1.000000
   63       -5.577784   1.000000
   64       -5.514802   1.000000
   65       -5.362757   1.000000
   66       -5.124729   1.000000
   67       -5.041277   1.000000
   68       -4.939655   1.000000
   69       -4.799397   1.000000
   70       -4.589158   1.000000
   71       -4.548582   1.000000
   72       -4.492791   1.000000
   73       -4.445251   1.000000
   74       -4.390089   1.000000
   75       -4.113381   1.000000
   76       -4.050671   0.999999
   77       -3.893573   0.999920
   78       -3.722709   0.994890
   79       -3.599744   0.955324
   80       -3.316445   0.380411
   81       -2.959199   0.002324
   82       -2.913649   0.000809
   83       -2.745208   0.000007
   84       -2.693626   0.000001
   85       -2.535931   0.000000
   86       -2.443857   0.000000
   87       -2.308398   0.000000
   88       -2.196289   0.000000
   89       -2.117496   0.000000
   90       -1.987640   0.000000
   91       -1.789513   0.000000
   92       -1.570882   0.000000
   93       -1.430363   0.000000
   94       -1.299040   0.000000
   95       -1.264239   0.000000
   96       -1.222435   0.000000
   97       -1.012446   0.000000
   98       -0.997926   0.000000
   99       -0.924789   0.000000
  100       -0.831331   0.000000
  101       -0.768853   0.000000
  102       -0.697864   0.000000
  103       -0.613981   0.000000
  104       -0.560429   0.000000
  105       -0.512239   0.000000
  106       -0.405081   0.000000
  107       -0.301623   0.000000
  108       -0.179927   0.000000
  109       -0.061065   0.000000
  110        0.164336   0.000000
  111        0.251230   0.000000
  112        0.550233   0.000000
  113        0.659846   0.000000
  114        0.887200   0.000000
  115        1.142039   0.000000
  116        1.223500   0.000000
  117        1.348243   0.000000
  118        2.206678   0.000000
  119        2.234582   0.000000
  120        2.360719   0.000000
 
  0.0000000E+00  0.1250000E+00  0.0000000E+00  0.3125000E-01
    1      -17.775571   1.000000
    2      -16.776164   1.000000
    3      -16.691632   1.000000
    4      -16.620705   1.000000
    5      -16.547784   1.000000
    6      -16.408820   1.000000
    7      -16.359793   1.000000
    8      -16.272217   1.000000
    9      -16.153291   1.000000
   10      -16.108173   1.000000
   11      -15.983263   1.000000
   12      -15.897155   1.000000
   13      -15.855389   1.000000
   14      -15.678178   1.000000
   15      -15.595349   1.000000
   16      -15.514278   1.000000
   17      -15.437300   1.000000
   18      -15.340070   1.000000
   19       -9.422622   1.000000
   20       -9.119137   1.000000
   21       -9.038640   1.000000
   22       -8.947266   1.000000
   23       -8.774176   1.000000
   24       -8.680665   1.000000
   25       -8.622939   1.000000
   26       -8.536807   1.000000
   27       -8.488009   1.000000
   28       -8.451619   1.000000
   29       -8.394844   1.000000
   30       -8.228913   1.000000
   31       -8.173421   1.000000
   32       -8.088256   1.000000
   33       -7.967575   1.000000
   34       -7.921471   1.000000
   35       -7.827593   1.000000
   36       -7.727693   1.000000
   37       -7.689608   1.000000
   38       -7.574881   1.000000
   39       -7.495401   1.000000
   40       -7.399843   1.000000
   41       -7.354624   1.000000
   42       -7.198289   1.000000
   43       -7.117168   1.000000
   44       -7.036808   1.000000
   45       -6.901239   1.000000
   46       -6.843118   1.000000
   47       -6.732824   1.000000
   48       -6.643148   1.000000
   49       -6.591415   1.000000
   50       -6.495093   1.000000
   51       -6.459238   1.000000
   52       -6.384915   1.000000
   53       -6.244983   1.000000
   54       -6.196869   1.000000
   55       -6.170330   1.000000
   56       -6.080951   1.000000
   57       -5.953604   1.000000
   58       -5.904189   1.000000
   59       -5.733297   1.000000
   60       -5.554340   1.000000
   61       -5.512776   1.000000
   62       -5.421457   1.000000
   63       -5.335102   1.000000
   64       -5.199143   1.000000
   65       -5.112355   1.000000
   66       -5.018888   1.000000
   67       -4.991875   1.000000
   68       -4.931171   1.000000
   69       -4.801330   1.000000
   70       -4.764831   1.000000
   71       -4.660958   1.000000
   72       -4.570157   1.000000
   73       -4.427250   1.000000
   74       -4.355421   1.000000
   75       -4.138856   1.000000
   76       -4.047032   0.999999
   77       -3.888712   0.999909
   78       -3.755958   0.997472
   79       -3.642621   0.977358
   80       -3.540080   0.899188
   81       -3.062972   0.018009
   82       -2.757499   0.000010
   83       -2.701217   0.000002
   84       -2.585066   0.000000
   85       -2.548171   0.000000
   86       -2.486802   0.000000
   87       -2.393766   0.000000
   88       -2.304480   0.000000
   89       -2.247036   0.000000
   90       -2.173211   0.000000
   91       -1.761568   0.000000
   92       -1.608665   0.000000
   93       -1.556079   0.000000
   94       -1.338759   0.000000
   95       -1.172004   0.000000
   96       -1.029319   0.000000
   97       -0.950242   0.000000
   98       -0.858751   0.000000
   99       -0.761845   0.000000
  100       -0.688386   0.000000
  101       -0.658432   0.000000
  102       -0.612700   0.000000
  103       -0.567206   0.000000
  104       -0.470377   0.000000
  105       -0.288261   0.000000
  106       -0.144969   0.000000
  107       -0.055824   0.000000
  108       -0.022286   0.000000
  109        0.125057   0.000000
  110        0.271960   0.000000
  111        0.350617   0.000000
  112        0.459660   0.000000
  113        0.590538   0.000000
  114        0.766969   0.000000
  115        0.860415   0.000000
  116        1.010041   0.000000
  117        1.244125   0.000000
  118        1.679765   0.000000
  119        1.871194   0.000000
  120        2.178443   0.000000
 
  0.1250000E+00  0.1250000E+00  0.0000000E+00  0.3125000E-01
    1      -17.728350   1.000000
    2      -16.859578   1.000000
    3      -16.796947   1.000000
    4      -16.665141   1.000000
    5      -16.506158   1.000000
    6      -16.404869   1.000000
    7      -16.346344   1.000000
    8      -16.227414   1.000000
    9      -16.149662   1.000000
   10      -16.101991   1.000000
   11      -15.960354   1.000000
   12      -15.835735   1.000000
   13      -15.789206   1.000000
   14      -15.689422   1.000000
   15      -15.607740   1.000000
   16      -15.495991   1.000000
   17      -15.446606   1.000000
   18      -15.383762   1.000000
   19       -9.467122   1.000000
   20       -9.252954   1.000000
   21       -9.134609   1.000000
   22       -9.061002   1.000000
   23       -8.825241   1.000000
   24       -8.689341   1.000000
   25       -8.623602   1.000000
   26       -8.527608   1.000000
   27       -8.445036   1.000000
   28       -8.388967   1.000000
   29       -8.362510   1.000000
   30       -8.253159   1.000000
   31       -8.127507   1.000000
   32       -8.059882   1.000000
   33       -7.985032   1.000000
   34       -7.824858   1.000000
   35       -7.721495   1.000000
   36       -7.666090   1.000000
   37       -7.600062   1.000000
   38       -7.487020   1.000000
   39       -7.405392   1.000000
   40       -7.377271   1.000000
   41       -7.314320   1.000000
   42       -7.196415   1.000000
   43       -7.155872   1.000000
   44       -7.074085   1.000000
   45       -6.976938   1.000000
   46       -6.881426   1.000000
   47       -6.727236   1.000000
   48       -6.675431   1.000000
   49       -6.585782   1.000000
   50       -6.517148   1.000000
   51       -6.454979   1.000000
   52       -6.339193   1.000000
   53       -6.234830   1.000000
   54       -6.176860   1.000000
   55       -6.122768   1.000000
   56       -6.064918   1.000000
   57       -5.927658   1.000000
   58       -5.849374   1.000000
   59       -5.708432   1.000000
   60       -5.661366   1.000000
   61       -5.537970   1.000000
   62       -5.494451   1.000000
   63       -5.437094   1.000000
   64       -5.301807   1.000000
   65       -5.163678   1.000000
   66       -5.121073   1.000000
   67       -4.992107   1.000000
   68       -4.896952   1.000000
   69       -4.801538   1.000000
   70       -4.748222   1.000000
   71       -4.627469   1.000000
   72       -4.510596   1.000000
   73       -4.375054   1.000000
   74       -4.240391   1.000000
   75       -4.107766   1.000000
   76       -4.080074   1.000000
   77       -3.931226   0.999974
   78       -3.862907   0.999814
   79       -3.677311   0.987690
   80       -3.433614   0.699898
   81       -3.000971   0.005620
   82       -2.825671   0.000080
   83       -2.736800   0.000005
   84       -2.607852   0.000000
   85       -2.542976   0.000000
   86       -2.454025   0.000000
   87       -2.404053   0.000000
   88       -2.258156   0.000000
   89       -2.207070   0.000000
   90       -2.148475   0.000000
   91       -1.801003   0.000000
   92       -1.578735   0.000000
   93       -1.480928   0.000000
   94       -1.326596   0.000000
   95       -1.159940   0.000000
   96       -1.061114   0.000000
   97       -0.959112   0.000000
   98       -0.910548   0.000000
   99       -0.838993   0.000000
  100       -0.730386   0.000000
  101       -0.693068   0.000000
  102       -0.655069   0.000000
  103       -0.592199   0.000000
  104       -0.475042   0.000000
  105       -0.353700   0.000000
  106       -0.253156   0.000000
  107       -0.157173   0.000000
  108       -0.049151   0.000000
  109        0.041526   0.000000
  110        0.223126   0.000000
  111        0.273724   0.000000
  112        0.490124   0.000000
  113        0.611230   0.000000
  114        0.819757   0.000000
  115        0.996988   0.000000
  116        1.074660   0.000000
  117        1.315600   0.000000
  118        1.766645   0.000000
  119        1.941794   0.000000
  120        2.248481   0.000000
 
  0.2500000E+00  0.1250000E+00  0.0000000E+00  0.3125000E-01
    1      -17.638721   1.000000
    2      -17.038963   1.000000
    3      -16.892643   1.000000
    4      -16.651513   1.000000
    5      -16.504972   1.000000
    6      -16.394734   1.000000
    7      -16.317991   1.000000
    8      -16.191810   1.000000
    9      -16.135418   1.000000
   10      -16.060388   1.000000
   11      -15.950331   1.000000
   12      -15.782963   1.000000
   13      -15.726464   1.000000
   14      -15.684897   1.000000
   15      -15.605771   1.000000
   16      -15.508660   1.000000
   17      -15.477883   1.000000
   18      -15.402617   1.000000
   19       -9.607496   1.000000
   20       -9.410490   1.000000
   21       -9.219772   1.000000
   22       -9.104497   1.000000
   23       -8.817863   1.000000
   24       -8.721790   1.000000
   25       -8.617422   1.000000
   26       -8.484264   1.000000
   27       -8.421492   1.000000
   28       -8.354053   1.000000
   29       -8.239425   1.000000
   30       -8.208055   1.000000
   31       -8.122910   1.000000
   32       -8.041731   1.000000
   33       -7.985753   1.000000
   34       -7.924756   1.000000
   35       -7.783618   1.000000
   36       -7.592834   1.000000
   37       -7.522807   1.000000
   38       -7.419136   1.000000
   39       -7.347183   1.000000
   40       -7.332403   1.000000
   41       -7.271314   1.000000
   42       -7.180390   1.000000
   43       -7.074959   1.000000
   44       -6.983635   1.000000
   45       -6.900193   1.000000
   46       -6.764984   1.000000
   47       -6.733821   1.000000