       N       E                     dE             d eps       ncg     rms          rms(c)
DAV:   1     0.112350690634E+04    0.11235E+04   -0.35866E+04  8160   0.577E+02
DAV:   2    -0.368543053305E+01   -0.11272E+04   -0.10853E+04 11160   0.173E+02
DAV:   3    -0.199975755625E+03   -0.19629E+03   -0.18872E+03 10960   0.820E+01
DAV:   4    -0.208967349809E+03   -0.89916E+01   -0.86943E+01 11920   0.258E+01
DAV:   5    -0.209312616114E+03   -0.34527E+00   -0.34436E+00 11720   0.378E+00    0.275E+01
DAV:   6    -0.237221630162E+03   -0.27909E+02   -0.10591E+02 12560   0.605E+01    0.595E+01
DAV:   7    -0.196471060347E+03    0.40751E+02   -0.17631E+02 13280   0.152E+02    0.200E+01
DAV:   8    -0.189424998232E+03    0.70461E+01   -0.17569E+01 11920   0.127E+01    0.125E+01
DAV:   9    -0.188228591835E+03    0.11964E+01   -0.35816E+00 12440   0.614E+00    0.929E+00
DAV:  10    -0.187079247205E+03    0.11493E+01   -0.20070E+00 13240   0.732E+00    0.319E+00
DAV:  11    -0.187029666190E+03    0.49581E-01   -0.72199E-01 13560   0.321E+00    0.342E+00
DAV:  12    -0.187173364570E+03   -0.14370E+00   -0.11474E+00 12680   0.556E+00    0.487E+00
DAV:  13    -0.186927056937E+03    0.24631E+00   -0.49529E-01 13200   0.359E+00    0.215E+00
DAV:  14    -0.186879709751E+03    0.47347E-01   -0.11154E-01 13440   0.163E+00    0.774E-01
DAV:  15    -0.186881640524E+03   -0.19308E-02   -0.41893E-02 12240   0.118E+00    0.118E+00
DAV:  16    -0.186872616801E+03    0.90237E-02   -0.20737E-02 13160   0.811E-01    0.565E-01
DAV:  17    -0.186869278307E+03    0.33385E-02   -0.98837E-03 12800   0.520E-01    0.221E-01
DAV:  18    -0.186869088610E+03    0.18970E-03   -0.20559E-03 11960   0.149E-01    0.154E-01
DAV:  19    -0.186868737559E+03    0.35105E-03   -0.90113E-04 11280   0.104E-01    0.509E-02
DAV:  20    -0.186869504251E+03   -0.76669E-03   -0.74212E-04  9120   0.624E-02    0.539E-02
DAV:  21    -0.186870108432E+03   -0.60418E-03   -0.20897E-04  8240   0.455E-02    0.323E-02
DAV:  22    -0.186871220005E+03   -0.11116E-02   -0.17965E-04  7520   0.419E-02    0.332E-02
DAV:  23    -0.186872446437E+03   -0.12264E-02   -0.13131E-04  7520   0.409E-02    0.119E-02
DAV:  24    -0.186873032058E+03   -0.58562E-03   -0.25101E-05  6800   0.133E-02    0.760E-03
DAV:  25    -0.186873411274E+03   -0.37922E-03   -0.15770E-05  5520   0.118E-02    0.490E-03
DAV:  26    -0.186873629609E+03   -0.21833E-03   -0.82910E-06  6840   0.714E-03    0.209E-03
DAV:  27    -0.186873733483E+03   -0.10387E-03   -0.38369E-06  6920   0.409E-03    0.127E-03
DAV:  28    -0.186873783600E+03   -0.50117E-04   -0.20924E-06  7280   0.300E-03
   1 F= -.18687378E+03 E0= -.18670211E+03  d E =-.186874E+03
       N       E                     dE             d eps       ncg     rms          rms(c)
DAV:   1    -0.187499227953E+03   -0.62549E+00   -0.27028E+02  8160   0.349E+01    0.465E+00
DAV:   2    -0.189500383258E+03   -0.20012E+01   -0.20288E+01 12240   0.156E+01    0.984E+00
DAV:   3    -0.189340577453E+03    0.15981E+00   -0.49349E+00 12440   0.126E+01    0.629E+00
DAV:   4    -0.188767381888E+03    0.57320E+00   -0.56109E-01 11920   0.439E+00    0.201E+00
DAV:   5    -0.188899811084E+03   -0.13243E+00   -0.48351E-01 12160   0.390E+00    0.550E+00
DAV:   6    -0.188742603467E+03    0.15721E+00   -0.78773E-01 12720   0.436E+00    0.229E+00
DAV:   7    -0.188712093380E+03    0.30510E-01   -0.21120E-01 11760   0.214E+00    0.202E+00
DAV:   8    -0.188695593671E+03    0.16500E-01   -0.11983E-01 12920   0.209E+00    0.174E+00
DAV:   9    -0.188670402003E+03    0.25192E-01   -0.48144E-02 12000   0.113E+00    0.506E-01
DAV:  10    -0.188668726072E+03    0.16759E-02   -0.58582E-03 11160   0.273E-01    0.259E-01
DAV:  11    -0.188668174060E+03    0.55201E-03   -0.28821E-03 13160   0.222E-01    0.139E-01
DAV:  12    -0.188668111723E+03    0.62336E-04   -0.10823E-03 11800   0.103E-01    0.104E-01
DAV:  13    -0.188668092388E+03    0.19335E-04   -0.27231E-04  7560   0.677E-02
   2 F= -.18866809E+03 E0= -.18852823E+03  d E =-.179431E+01
       N       E                     dE             d eps       ncg     rms          rms(c)
DAV:   1    -0.190590504255E+03   -0.19224E+01   -0.31015E+01  9200   0.142E+01    0.446E+00
DAV:   2    -0.190573114654E+03    0.17390E-01   -0.28211E+00 11160   0.969E+00    0.741E+00
DAV:   3    -0.190062426725E+03    0.51069E+00   -0.13093E+00 12280   0.867E+00    0.416E+00
DAV:   4    -0.189856198159E+03    0.20623E+00   -0.68903E-01 12760   0.413E+00    0.248E+00
DAV:   5    -0.189792307872E+03    0.63890E-01   -0.31333E-01 11080   0.237E+00    0.202E+00
DAV:   6    -0.189759770725E+03    0.32537E-01   -0.10680E-01 12720   0.195E+00    0.840E-01
DAV:   7    -0.189752325500E+03    0.74452E-02   -0.14939E-02 12520   0.585E-01    0.195E-01
DAV:   8    -0.189752341438E+03   -0.15938E-04   -0.26841E-03 10240   0.157E-01    0.138E-01
DAV:   9    -0.189752559843E+03   -0.21841E-03   -0.10295E-03 10440   0.104E-01    0.128E-01
DAV:  10    -0.189752430636E+03    0.12921E-03   -0.51663E-04  9040   0.826E-02    0.302E-02
DAV:  11    -0.189752447608E+03   -0.16972E-04   -0.10005E-04  7000   0.440E-02
   3 F= -.18975245E+03 E0= -.18963512E+03  d E =-.108436E+01
       N       E                     dE             d eps       ncg     rms          rms(c)
DAV:   1    -0.191296741716E+03   -0.15443E+01   -0.71118E+01  8160   0.193E+01    0.461E+00
DAV:   2    -0.191186373227E+03    0.11037E+00   -0.54085E+00 13400   0.838E+00    0.519E+00
DAV:   3    -0.191236443376E+03   -0.50070E-01   -0.15766E+00 11800   0.922E+00    0.686E+00
DAV:   4    -0.190907445345E+03    0.32900E+00   -0.15623E+00 12600   0.786E+00    0.408E+00
DAV:   5    -0.190896432477E+03    0.11013E-01   -0.86408E-01 11200   0.587E+00    0.360E+00
DAV:   6    -0.190713048109E+03    0.18338E+00   -0.20635E-01 11160   0.298E+00    0.603E-01
DAV:   7    -0.190711987321E+03    0.10608E-02   -0.37473E-02 11360   0.734E-01    0.502E-01
DAV:   8    -0.190710456125E+03    0.15312E-02   -0.11553E-02 11480   0.674E-01    0.505E-01
DAV:   9    -0.190708201056E+03    0.22551E-02   -0.39479E-03 11200   0.464E-01    0.147E-01
DAV:  10    -0.190708433222E+03   -0.23217E-03   -0.10942E-03 10480   0.129E-01    0.921E-02
DAV:  11    -0.190708350971E+03    0.82251E-04   -0.53061E-04  9480   0.813E-02
   4 F= -.19070835E+03 E0= -.19060996E+03  d E =-.955903E+00
       N       E                     dE             d eps       ncg     rms          rms(c)
DAV:   1    -0.192132233751E+03   -0.14238E+01   -0.14774E+02  8160   0.273E+01    0.583E+00
DAV:   2    -0.191961163191E+03    0.17107E+00   -0.96979E+00 12200   0.951E+00    0.554E+00
DAV:   3    -0.192410665887E+03   -0.44950E+00   -0.33133E+00 12240   0.126E+01    0.944E+00
DAV:   4    -0.191539526741E+03    0.87114E+00   -0.21976E+00 12280   0.106E+01    0.302E+00
DAV:   5    -0.191509849554E+03    0.29677E-01   -0.54580E-01 11840   0.486E+00    0.414E+00
DAV:   6    -0.191372986727E+03    0.13686E+00   -0.58758E-01 12200   0.513E+00    0.159E+00
DAV:   7    -0.191348318710E+03    0.24668E-01   -0.69670E-02 11920   0.145E+00    0.677E-01
DAV:   8    -0.191346936626E+03    0.13821E-02   -0.24092E-02 12080   0.109E+00    0.747E-01
DAV:   9    -0.191341478434E+03    0.54582E-02   -0.97560E-03 11440   0.744E-01    0.231E-01
DAV:  10    -0.191341601681E+03   -0.12325E-03   -0.27459E-03 11520   0.225E-01    0.119E-01
DAV:  11    -0.191341460354E+03    0.14133E-03   -0.87166E-04 10720   0.108E-01    0.656E-02
DAV:  12    -0.191341426859E+03    0.33495E-04   -0.13962E-04  7160   0.475E-02
   5 F= -.19134143E+03 E0= -.19124829E+03  d E =-.633076E+00
       N       E                     dE             d eps       ncg     rms          rms(c)
DAV:   1    -0.191388271491E+03   -0.46811E-01   -0.35394E+00  8160   0.400E+00    0.595E-01
DAV:   2    -0.191446764670E+03   -0.58493E-01   -0.22624E-01 12400   0.279E+00    0.229E+00
DAV:   3    -0.191397122265E+03    0.49642E-01   -0.10646E-01 12080   0.224E+00    0.479E-01
DAV:   4    -0.191397438665E+03   -0.31640E-03   -0.13232E-02 11480   0.786E-01    0.537E-01
DAV:   5    -0.191394502874E+03    0.29358E-02   -0.58879E-03 11480   0.548E-01    0.178E-01
DAV:   6    -0.191394620357E+03   -0.11748E-03   -0.20772E-03 11440   0.285E-01    0.227E-01
DAV:   7    -0.191394476591E+03    0.14377E-03   -0.21909E-03 10880   0.351E-01    0.182E-01
DAV:   8    -0.191394080774E+03    0.39582E-03   -0.67181E-04  9160   0.170E-01    0.273E-02
DAV:   9    -0.191394096212E+03   -0.15437E-04   -0.89408E-05  6400   0.360E-02
   6 F= -.19139410E+03 E0= -.19129859E+03  d E =-.526694E-01
       N       E                     dE             d eps       ncg     rms          rms(c)
DAV:   1    -0.191463896483E+03   -0.69816E-01   -0.10292E+01  8160   0.678E+00    0.901E-01
DAV:   2    -0.191564822284E+03   -0.10093E+00   -0.41616E-01 12560   0.314E+00    0.322E+00
DAV:   3    -0.191479209167E+03    0.85613E-01   -0.26968E-01 11960   0.324E+00    0.893E-01
DAV:   4    -0.191478640861E+03    0.56831E-03   -0.35988E-02 11400   0.126E+00    0.904E-01
DAV:   5    -0.191470224284E+03    0.84166E-02   -0.17862E-02 11680   0.981E-01    0.330E-01
DAV:   6    -0.191470057314E+03    0.16697E-03   -0.62275E-03 11440   0.501E-01    0.369E-01
DAV:   7    -0.191469439319E+03    0.61800E-03   -0.54843E-03 11200   0.560E-01    0.268E-01
DAV:   8    -0.191468615351E+03    0.82397E-03   -0.15872E-03 10320   0.269E-01    0.507E-02
DAV:   9    -0.191468592437E+03    0.22913E-04   -0.17371E-04  6720   0.566E-02
   7 F= -.19146859E+03 E0= -.19137120E+03  d E =-.744962E-01
       N       E                     dE             d eps       ncg     rms          rms(c)
DAV:   1    -0.191478940423E+03   -0.10325E-01   -0.22274E-01  8160   0.109E+00    0.252E-01
DAV:   2    -0.191479554944E+03   -0.61452E-03   -0.14964E-02 11480   0.554E-01    0.427E-01
DAV:   3    -0.191478180248E+03    0.13747E-02   -0.67759E-03 11480   0.603E-01    0.255E-01
DAV:   4    -0.191477915837E+03    0.26441E-03   -0.31816E-03 11200   0.364E-01    0.259E-01
DAV:   5    -0.191477441104E+03    0.47473E-03   -0.22690E-03  9720   0.338E-01    0.164E-01
DAV:   6    -0.191477184233E+03    0.25687E-03   -0.85605E-04  9480   0.180E-01    0.816E-02
DAV:   7    -0.191477146250E+03    0.37983E-04   -0.26687E-04  6720   0.117E-01
   8 F= -.19147715E+03 E0= -.19137946E+03  d E =-.855381E-02
       N       E                     dE             d eps       ncg     rms          rms(c)
DAV:   1    -0.191519145440E+03   -0.41961E-01   -0.34720E+00  8160   0.396E+00    0.511E-01
DAV:   2    -0.191555647444E+03   -0.36502E-01   -0.14513E-01 13160   0.205E+00    0.188E+00
DAV:   3    -0.191524336017E+03    0.31311E-01   -0.78731E-02 12040   0.184E+00    0.453E-01
DAV:   4    -0.191524812072E+03   -0.47606E-03   -0.10958E-02 11440   0.700E-01    0.516E-01
DAV:   5    -0.191522189644E+03    0.26224E-02   -0.58302E-03 11560   0.544E-01    0.187E-01
DAV:   6    -0.191522200164E+03   -0.10520E-04   -0.20029E-03 10520   0.297E-01    0.213E-01
DAV:   7    -0.191522015609E+03    0.18456E-03   -0.17968E-03 10200   0.323E-01    0.151E-01
DAV:   8    -0.191521720388E+03    0.29522E-03   -0.51002E-04  8400   0.154E-01    0.270E-02
DAV:   9    -0.191521717809E+03    0.25792E-05   -0.70439E-05  6800   0.355E-02
   9 F= -.19152172E+03 E0= -.19142410E+03  d E =-.445716E-01
       N       E                     dE             d eps       ncg     rms          rms(c)
DAV:   1    -0.191531554003E+03   -0.98336E-02   -0.16746E-01  8160   0.879E-01    0.123E-01
DAV:   2    -0.191533449648E+03   -0.18956E-02   -0.82403E-03 12640   0.501E-01    0.411E-01
DAV:   3    -0.191531778690E+03    0.16710E-02   -0.35372E-03 11560   0.417E-01    0.994E-02
DAV:   4    -0.191531851646E+03   -0.72956E-04   -0.60767E-04  8320   0.170E-01
  10 F= -.19153185E+03 E0= -.19143434E+03  d E =-.101338E-01
       N       E                     dE             d eps       ncg     rms          rms(c)
DAV:   1    -0.191552146562E+03   -0.20368E-01   -0.72810E-01  8160   0.185E+00    0.274E-01
DAV:   2    -0.191561828148E+03   -0.96816E-02   -0.38117E-02 12200   0.106E+00    0.101E+00
DAV:   3    -0.191552970397E+03    0.88578E-02   -0.21375E-02 10840   0.931E-01    0.223E-01
DAV:   4    -0.191553067983E+03   -0.97587E-04   -0.27577E-03 11240   0.349E-01    0.253E-01
DAV:   5    -0.191552436628E+03    0.63136E-03   -0.16357E-03 10480   0.299E-01    0.115E-01
DAV:   6    -0.191552376712E+03    0.59916E-04   -0.68344E-04  9520   0.165E-01
  11 F= -.19155238E+03 E0= -.19145532E+03  d E =-.205251E-01
       N       E                     dE             d eps       ncg     rms          rms(c)
DAV:   1    -0.191586198978E+03   -0.33762E-01   -0.33002E+00  8160   0.387E+00    0.584E-01
DAV:   2    -0.191658626657E+03   -0.72428E-01   -0.21549E-01 11960   0.267E+00    0.299E+00
DAV:   3    -0.191591123541E+03    0.67503E-01   -0.16669E-01 11640   0.240E+00    0.373E-01
DAV:   4    -0.191591645246E+03   -0.52170E-03   -0.86081E-03 11520   0.647E-01    0.482E-01
DAV:   5    -0.191589314379E+03    0.23309E-02   -0.56645E-03 11720   0.602E-01    0.203E-01
DAV:   6    -0.191589134955E+03    0.17942E-03   -0.19240E-03 10400   0.274E-01    0.159E-01
DAV:   7    -0.191589196403E+03   -0.61449E-04   -0.14730E-03 10640   0.302E-01    0.173E-01
DAV:   8    -0.191588793222E+03    0.40318E-03   -0.52764E-04  8480   0.170E-01    0.228E-02
DAV:   9    -0.191588800856E+03   -0.76339E-05   -0.67018E-05  5640   0.308E-02
  12 F= -.19158880E+03 E0= -.19149383E+03  d E =-.364241E-01
       N       E                     dE             d eps       ncg     rms          rms(c)
DAV:   1    -0.191594110839E+03   -0.53176E-02   -0.97541E-01  8160   0.209E+00    0.394E-01
DAV:   2    -0.191629142724E+03   -0.35032E-01   -0.99896E-02 12240   0.211E+00    0.184E+00
DAV:   3    -0.191594927639E+03    0.34215E-01   -0.51529E-02 11600   0.167E+00    0.185E-01
DAV:   4    -0.191595030184E+03   -0.10255E-03   -0.27979E-03 11400   0.335E-01    0.235E-01
DAV:   5    -0.191594540360E+03    0.48982E-03   -0.13736E-03 10560   0.277E-01    0.125E-01
DAV:   6    -0.191594392016E+03    0.14834E-03   -0.47900E-04  8680   0.125E-01    0.781E-02
DAV:   7    -0.191594502488E+03   -0.11047E-03   -0.58761E-04  9720   0.185E-01    0.129E-01
DAV:   8    -0.191594309686E+03    0.19280E-03   -0.30636E-04  7080   0.135E-01    0.204E-02
DAV:   9    -0.191594317200E+03   -0.75137E-05   -0.36692E-05  5680   0.243E-02
  13 F= -.19159432E+03 E0= -.19149920E+03  d E =-.551634E-02
       N       E                     dE             d eps       ncg     rms          rms(c)
DAV:   1    -0.191636074004E+03   -0.41764E-01   -0.31535E+00  8160   0.379E+00    0.409E-01
DAV:   2    -0.191649015251E+03   -0.12941E-01   -0.10047E-01 13120   0.126E+00    0.931E-01
DAV:   3    -0.191642329519E+03    0.66857E-02   -0.29398E-02 12040   0.114E+00    0.465E-01
DAV:   4    -0.191641540602E+03    0.78892E-03   -0.71890E-03 11200   0.575E-01    0.396E-01
DAV:   5    -0.191639954614E+03    0.15860E-02   -0.37553E-03 11240   0.472E-01    0.180E-01
DAV:   6    -0.191639963282E+03   -0.86678E-05   -0.18547E-03 10600   0.263E-01    0.171E-01
DAV:   7    -0.191639934873E+03    0.28409E-04   -0.14923E-03 10240   0.299E-01    0.169E-01
DAV:   8    -0.191639571682E+03    0.36319E-03   -0.51903E-04  8200   0.177E-01    0.219E-02
DAV:   9    -0.191639577025E+03   -0.53430E-05   -0.51949E-05  6360   0.289E-02
  14 F= -.19163958E+03 E0= -.19154746E+03  d E =-.452598E-01
       N       E                     dE             d eps       ncg     rms          rms(c)
DAV:   1    -0.191579839782E+03    0.59732E-01   -0.47285E+00  8160   0.464E+00    0.479E-01
DAV:   2    -0.191592338680E+03   -0.12499E-01   -0.13802E-01 12480   0.121E+00    0.723E-01
DAV:   3    -0.191590430204E+03    0.19085E-02   -0.26854E-02 12080   0.115E+00    0.698E-01
DAV:   4    -0.191587314303E+03    0.31159E-02   -0.13873E-02 12200   0.731E-01    0.427E-01
DAV:   5    -0.191585771497E+03    0.15428E-02   -0.54340E-03 11040   0.528E-01    0.248E-01
DAV:   6    -0.191585571183E+03    0.20031E-03   -0.29909E-03 10960   0.342E-01    0.192E-01
DAV:   7    -0.191585607090E+03   -0.35907E-04   -0.20121E-03 11200   0.333E-01    0.216E-01
DAV:   8    -0.191585055444E+03    0.55165E-03   -0.80361E-04  9160   0.224E-01    0.277E-02
DAV:   9    -0.191585064975E+03   -0.95310E-05   -0.63310E-05  6520   0.328E-02
  15 F= -.19158506E+03 E0= -.19148957E+03  d E =0.545121E-01
       N       E                     dE             d eps       ncg     rms          rms(c)
DAV:   1    -0.191587394252E+03   -0.23388E-02   -0.13522E+00  8160   0.253E+00    0.372E-01
DAV:   2    -0.191606723221E+03   -0.19329E-01   -0.67564E-02 12560   0.147E+00    0.146E+00
DAV:   3    -0.191588460247E+03    0.18263E-01   -0.39653E-02 12080   0.131E+00    0.280E-01
DAV:   4    -0.191589331037E+03   -0.87079E-03   -0.57915E-03 11240   0.506E-01    0.412E-01
DAV:   5    -0.191587675916E+03    0.16551E-02   -0.39813E-03 10560   0.464E-01    0.156E-01
DAV:   6    -0.191587463710E+03    0.21221E-03   -0.10502E-03 10040   0.183E-01    0.855E-02
DAV:   7    -0.191587473218E+03   -0.95071E-05   -0.51605E-04 10240   0.168E-01
  16 F= -.19158747E+03 E0= -.19149282E+03  d E =-.240824E-02
       N       E                     dE             d eps       ncg     rms          rms(c)
DAV:   1    -0.191582907358E+03    0.45564E-02   -0.16097E+00  8160   0.275E+00    0.366E-01
DAV:   2    -0.191591690139E+03   -0.87828E-02   -0.55622E-02 12040   0.117E+00    0.888E-01
DAV:   3    -0.191584840918E+03    0.68492E-02   -0.20469E-02 12440   0.104E+00    0.402E-01
DAV:   4    -0.191584485793E+03    0.35512E-03   -0.55668E-03 10720   0.513E-01    0.364E-01
DAV:   5    -0.191583365436E+03    0.11204E-02   -0.37045E-03 10520   0.468E-01    0.206E-01
DAV:   6    -0.191583138515E+03    0.22692E-03   -0.17412E-03 10600   0.281E-01    0.155E-01
DAV:   7    -0.191583072838E+03    0.65677E-04   -0.11454E-03 10320   0.256E-01    0.139E-01
DAV:   8    -0.191582840082E+03    0.23276E-03   -0.38317E-04  8480   0.139E-01    0.223E-02
DAV:   9    -0.191582840675E+03   -0.59247E-06   -0.38541E-05  6000   0.255E-02
  17 F= -.19158284E+03 E0= -.19148964E+03  d E =0.463254E-02
       N       E                     dE             d eps       ncg     rms          rms(c)
DAV:   1    -0.191614715266E+03   -0.31875E-01   -0.35617E+00  8160   0.406E+00    0.471E-01
DAV:   2    -0.191629689774E+03   -0.14975E-01   -0.11861E-01 13240   0.141E+00    0.102E+00
DAV:   3    -0.191621507432E+03    0.81823E-02   -0.34147E-02 12080   0.127E+00    0.541E-01
DAV:   4    -0.191620610975E+03    0.89646E-03   -0.10948E-02 12320   0.700E-01    0.496E-01
DAV:   5    -0.191618238245E+03    0.23727E-02   -0.61132E-03 11480   0.578E-01    0.223E-01
DAV:   6    -0.191618013760E+03    0.22448E-03   -0.25791E-03 10320   0.302E-01    0.178E-01
DAV:   7    -0.191618109893E+03   -0.96133E-04   -0.19010E-03 10640   0.340E-01    0.208E-01
DAV:   8    -0.191617580091E+03    0.52980E-03   -0.75738E-04  9120   0.219E-01    0.285E-02
DAV:   9    -0.191617579532E+03    0.55923E-06   -0.61331E-05  6280   0.329E-02
  18 F= -.19161758E+03 E0= -.19152491E+03  d E =-.347389E-01
       N       E                     dE             d eps       ncg     rms          rms(c)
DAV:   1    -0.191652892392E+03   -0.35312E-01   -0.31918E+00  8160   0.382E+00    0.433E-01
DAV:   2    -0.191669211411E+03   -0.16319E-01   -0.10986E-01 13000   0.139E+00    0.116E+00
DAV:   3    -0.191658996215E+03    0.10215E-01   -0.36313E-02 12000   0.125E+00    0.457E-01
DAV:   4    -0.191658436782E+03    0.55943E-03   -0.75980E-03 11280   0.596E-01    0.417E-01
DAV:   5    -0.191656610577E+03    0.18262E-02   -0.41647E-03 10880   0.500E-01    0.183E-01
DAV:   6    -0.191656651995E+03   -0.41418E-04   -0.20231E-03 11400   0.281E-01    0.183E-01
DAV:   7    -0.191656527080E+03    0.12491E-03   -0.14688E-03 10360   0.305E-01    0.157E-01
DAV:   8    -0.191656201237E+03    0.32584E-03   -0.47000E-04  8840   0.170E-01    0.237E-02
DAV:   9    -0.191656199678E+03    0.15587E-05   -0.51625E-05  6360   0.297E-02
  19 F= -.19165620E+03 E0= -.19156598E+03  d E =-.386201E-01
       N       E                     dE             d eps       ncg     rms          rms(c)
DAV:   1    -0.191659730207E+03   -0.35290E-02   -0.32979E-02  8160   0.394E-01    0.566E-02
DAV:   2    -0.191660069180E+03   -0.33897E-03   -0.16974E-03 12320   0.205E-01    0.181E-01
DAV:   3    -0.191659770766E+03    0.29841E-03   -0.64487E-04  8360   0.177E-01    0.466E-02
DAV:   4    -0.191659779777E+03   -0.90103E-05   -0.98422E-05  5520   0.728E-02
  20 F= -.19165978E+03 E0= -.19156991E+03  d E =-.358010E-02
       N       E                     dE             d eps       ncg     rms          rms(c)
DAV:   1    -0.191669026142E+03   -0.92554E-02   -0.53533E-01  8160   0.161E+00    0.274E-01
DAV:   2    -0.191675424053E+03   -0.63979E-02   -0.28291E-02 12200   0.104E+00    0.784E-01
DAV:   3    -0.191668435581E+03    0.69885E-02   -0.11593E-02 12000   0.850E-01    0.164E-01
DAV:   4    -0.191668692593E+03   -0.25701E-03   -0.21376E-03 10160   0.323E-01    0.238E-01
DAV:   5    -0.191668346653E+03    0.34594E-03   -0.19502E-03  9920   0.347E-01    0.196E-01
DAV:   6    -0.191668047581E+03    0.29907E-03   -0.11308E-03  9480   0.222E-01    0.112E-01
DAV:   7    -0.191667994028E+03    0.53553E-04   -0.47989E-04  8360   0.163E-01
  21 F= -.19166799E+03 E0= -.19157814E+03  d E =-.821425E-02
       N       E                     dE             d eps       ncg     rms          rms(c)
DAV:   1    -0.191670950697E+03   -0.29031E-02   -0.33694E-01  8160   0.126E+00    0.186E-01
DAV:   2    -0.191675421117E+03   -0.44704E-02   -0.15991E-02 12280   0.752E-01    0.665E-01
DAV:   3    -0.191671130314E+03    0.42908E-02   -0.79052E-03 11520   0.650E-01    0.130E-01
DAV:   4    -0.191671474411E+03   -0.34410E-03   -0.14226E-03  9960   0.264E-01    0.222E-01
DAV:   5    -0.191670972500E+03    0.50191E-03   -0.10001E-03  9320   0.235E-01    0.641E-02
DAV:   6    -0.191670982460E+03   -0.99607E-05   -0.23241E-04  6760   0.986E-02
  22 F= -.19167098E+03 E0= -.19158208E+03  d E =-.298843E-02
       N       E                     dE             d eps       ncg     rms          rms(c)
DAV:   1    -0.191707445832E+03   -0.36473E-01   -0.24668E+00  8160   0.342E+00    0.474E-01
DAV:   2    -0.191716472066E+03   -0.90262E-02   -0.98340E-02 13280   0.135E+00    0.820E-01
DAV:   3    -0.191710466458E+03    0.60056E-02   -0.22095E-02 12240   0.117E+00    0.428E-01
DAV:   4    -0.191709646447E+03    0.82001E-03   -0.85729E-03 10800   0.609E-01    0.472E-01
DAV:   5    -0.191708130527E+03    0.15159E-02   -0.63328E-03 12200   0.579E-01    0.283E-01
DAV:   6    -0.191707404353E+03    0.72617E-03   -0.26205E-03 11000   0.308E-01    0.111E-01
DAV:   7    -0.191707208103E+03    0.19625E-03   -0.80327E-04 10760   0.135E-01    0.699E-02
DAV:   8    -0.191707189209E+03    0.18895E-04   -0.26130E-04  7960   0.126E-01
  23 F= -.19170719E+03 E0= -.19162074E+03  d E =-.362067E-01
       N       E                     dE             d eps       ncg     rms          rms(c)
DAV:   1    -0.191728139050E+03   -0.20931E-01   -0.86880E-01  8160   0.198E+00    0.214E-01
DAV:   2    -0.191730265065E+03   -0.21260E-02   -0.27770E-02 11760   0.593E-01    0.287E-01
DAV:   3    -0.191730073757E+03    0.19131E-03   -0.41606E-03 12320   0.505E-01    0.278E-01
DAV:   4    -0.191729505956E+03    0.56780E-03   -0.19327E-03  9920   0.332E-01    0.182E-01
DAV:   5    -0.191729377690E+03    0.12827E-03   -0.12761E-03  9760   0.265E-01    0.148E-01
DAV:   6    -0.191729203613E+03    0.17408E-03   -0.60554E-04  9680   0.159E-01    0.599E-02
DAV:   7    -0.191729174579E+03    0.29034E-04   -0.18724E-04  6120   0.942E-02
  24 F= -.19172917E+03 E0= -.19164462E+03  d E =-.219854E-01
       N       E                     dE             d eps       ncg     rms          rms(c)
DAV:   1    -0.191761338104E+03   -0.32134E-01   -0.17825E+00  8160   0.285E+00    0.289E-01
DAV:   2    -0.191764724314E+03   -0.33862E-02   -0.51439E-02 12040   0.644E-01    0.259E-01
DAV:   3    -0.191765715764E+03   -0.99145E-03   -0.70431E-03 12480   0.600E-01    0.425E-01
DAV:   4    -0.191764001114E+03    0.17147E-02   -0.39358E-03 12120   0.494E-01    0.178E-01
DAV:   5    -0.191763856818E+03    0.14430E-03   -0.12703E-03 10080   0.240E-01    0.168E-01
DAV:   6    -0.191763862971E+03   -0.61527E-05   -0.12648E-03 10760   0.274E-01    0.154E-01
DAV:   7    -0.191763582775E+03    0.28020E-03   -0.48572E-04  8240   0.154E-01    0.343E-02
DAV:   8    -0.191763584378E+03   -0.16025E-05   -0.70113E-05  6400   0.649E-02
  25 F= -.19176358E+03 E0= -.19168218E+03  d E =-.344098E-01
       N       E                     dE             d eps       ncg     rms          rms(c)
DAV:   1    -0.191678161326E+03    0.85421E-01   -0.91891E+00  8160   0.649E+00    0.673E-01
DAV:   2    -0.191703743202E+03   -0.25582E-01   -0.28515E-01 12120   0.178E+00    0.110E+00
DAV:   3    -0.191701099385E+03    0.26438E-02   -0.63816E-02 12240   0.168E+00    0.946E-01
DAV:   4    -0.191692893193E+03    0.82062E-02   -0.17507E-02 12320   0.911E-01    0.427E-01
DAV:   5    -0.191692018291E+03    0.87490E-03   -0.94778E-03 10480   0.697E-01    0.437E-01
DAV:   6    -0.191691002916E+03    0.10154E-02   -0.64912E-03 12640   0.580E-01    0.255E-01
DAV:   7    -0.191690310054E+03    0.69286E-03   -0.25561E-03 11600   0.346E-01    0.168E-01
DAV:   8    -0.191689985587E+03    0.32447E-03   -0.60966E-04 10160   0.205E-01    0.498E-02
DAV:   9    -0.191689961631E+03    0.23955E-04   -0.10987E-04  6320   0.638E-02
  26 F= -.19168996E+03 E0= -.19160274E+03  d E =0.736227E-01
       N       E                     dE             d eps       ncg     rms          rms(c)
DAV:   1    -0.191672132589E+03    0.17853E-01   -0.28408E+00  8160   0.366E+00    0.450E-01
DAV:   2    -0.191687566527E+03   -0.15434E-01   -0.88010E-02 13480   0.143E+00    0.118E+00
DAV:   3    -0.191675526776E+03    0.12040E-01   -0.32030E-02 12520   0.131E+00    0.435E-01
DAV:   4    -0.191675858019E+03   -0.33124E-03   -0.79497E-03 11440   0.600E-01    0.482E-01
DAV:   5    -0.191673826242E+03    0.20318E-02   -0.63316E-03 11360   0.615E-01    0.255E-01
DAV:   6    -0.191673289656E+03    0.53659E-03   -0.21082E-03 11240   0.290E-01    0.126E-01
DAV:   7    -0.191673311775E+03   -0.22118E-04   -0.91384E-04 10560   0.236E-01
  27 F= -.19167331E+03 E0= -.19158639E+03  d E =0.166499E-01
       N       E                     dE             d eps       ncg     rms          rms(c)
DAV:   1    -0.191687185035E+03   -0.13895E-01   -0.64570E-01  8160   0.175E+00    0.267E-01
DAV:   2    -0.191691930049E+03   -0.47450E-02   -0.29244E-02 12440   0.845E-01    0.711E-01
DAV:   3    -0.191687703529E+03    0.42265E-02   -0.10804E-02 11960   0.749E-01    0.245E-01
DAV:   4    -0.191687782889E+03   -0.79360E-04   -0.28453E-03 11200   0.390E-01    0.282E-01
DAV:   5    -0.191686989466E+03    0.79342E-03   -0.19670E-03 10160   0.351E-01    0.125E-01
DAV:   6    -0.191686951462E+03    0.38005E-04   -0.76890E-04  9680   0.191E-01
  28 F= -.19168695E+03 E0= -.19160199E+03  d E =-.136397E-01
       N       E                     dE             d eps       ncg     rms          rms(c)
DAV:   1    -0.191711056892E+03   -0.24067E-01   -0.21907E+00  8160   0.319E+00    0.370E-01
DAV:   2    -0.191721555661E+03   -0.10499E-01   -0.69918E-02 13280   0.114E+00    0.947E-01
DAV:   3    -0.191714452511E+03    0.71031E-02   -0.20178E-02 11760   0.103E+00    0.355E-01
DAV:   4    -0.191714391387E+03    0.61124E-04   -0.41756E-03 11240   0.495E-01    0.356E-01
DAV:   5    -0.191713001658E+03    0.13897E-02   -0.27453E-03 10640   0.442E-01    0.139E-01
DAV:   6    -0.191713259733E+03   -0.25808E-03   -0.13157E-03 10840   0.262E-01    0.192E-01
DAV:   7    -0.191712842236E+03    0.41750E-03   -0.75942E-04 10200   0.241E-01    0.594E-02
DAV:   8    -0.191712792043E+03    0.50193E-04   -0.89977E-05  6160   0.645E-02
  29 F= -.19171279E+03 E0= -.19163110E+03  d E =-.258406E-01
       N       E                     dE             d eps       ncg     rms          rms(c)
DAV:   1    -0.191729415188E+03   -0.16573E-01   -0.93854E-01  8160   0.206E+00    0.203E-01
DAV:   2    -0.191731803568E+03   -0.23884E-02   -0.25759E-02 12360   0.532E-01    0.330E-01
DAV:   3    -0.191731461985E+03    0.34158E-03   -0.47306E-03 12200   0.501E-01    0.282E-01
DAV:   4    -0.191730768792E+03    0.69319E-03   -0.13322E-03  9840   0.271E-01    0.123E-01
DAV:   5    -0.191730705856E+03    0.62936E-04   -0.54508E-04  9680   0.206E-01
  30 F= -.19173071E+03 E0= -.19165035E+03  d E =-.179138E-01
       N       E                     dE             d eps       ncg     rms          rms(c)
DAV:   1    -0.191707481066E+03    0.23288E-01   -0.13746E+00  8160   0.252E+00    0.276E-01
DAV:   2    -0.191712098497E+03   -0.46174E-02   -0.42101E-02 12080   0.772E-01    0.541E-01
DAV:   3    -0.191709906507E+03    0.21920E-02   -0.87532E-03 12000   0.713E-01    0.334E-01
DAV:   4    -0.191709062222E+03    0.84429E-03   -0.29688E-03 11080   0.366E-01    0.194E-01
DAV:   5    -0.191708872904E+03    0.18932E-03   -0.15467E-03  9960   0.304E-01    0.169E-01
DAV:   6    -0.191708623125E+03    0.24978E-03   -0.94755E-04 10120   0.224E-01    0.860E-02
DAV:   7    -0.191708612546E+03    0.10579E-04   -0.35825E-04  8760   0.143E-01
  31 F= -.19170861E+03 E0= -.19162668E+03  d E =0.220933E-01
       N       E                     dE             d eps       ncg     rms          rms(c)
DAV:   1    -0.191750754283E+03   -0.42131E-01   -0.57370E+00  8160   0.514E+00    0.585E-01
DAV:   2    -0.191769700240E+03   -0.18946E-01   -0.17601E-01 12680   0.168E+00    0.120E+00
DAV:   3    -0.191759879510E+03    0.98207E-02   -0.42097E-02 11720   0.150E+00    0.627E-01
DAV:   4    -0.191757790521E+03    0.20890E-02   -0.11274E-02 12240   0.845E-01    0.530E-01
DAV:   5    -0.191754889463E+03    0.29011E-02   -0.66159E-03 11520   0.723E-01    0.257E-01
DAV:   6    -0.191754239887E+03    0.64958E-03   -0.33475E-03 11480   0.324E-01    0.109E-01
DAV:   7    -0.191754104073E+03    0.13581E-03   -0.81888E-04 10800   0.176E-01    0.104E-01
DAV:   8    -0.191753992088E+03    0.11198E-03   -0.29446E-04  8960   0.144E-01    0.486E-02
DAV:   9    -0.191753963898E+03    0.28190E-04   -0.71144E-05  6240   0.573E-02
  32 F= -.19175396E+03 E0= -.19167505E+03  d E =-.453514E-01
       N       E                     dE             d eps       ncg     rms          rms(c)
DAV:   1    -0.191760498654E+03   -0.65066E-02   -0.12649E-01  8160   0.774E-01    0.106E-01
DAV:   2    -0.191760658102E+03   -0.15945E-03   -0.44040E-03 11640   0.236E-01    0.115E-01
DAV:   3    -0.191760645730E+03    0.12372E-04   -0.71279E-04 10240   0.220E-01
  33 F= -.19176065E+03 E0= -.19168208E+03  d E =-.668183E-02
       N       E                     dE             d eps       ncg     rms          rms(c)
DAV:   1    -0.191784023012E+03   -0.23365E-01   -0.16672E+00  8160   0.275E+00    0.279E-01
DAV:   2    -0.191787020837E+03   -0.29978E-02   -0.42653E-02 12040   0.623E-01    0.309E-01
DAV:   3    -0.191787922442E+03   -0.90161E-03   -0.68663E-03 11120   0.631E-01    0.442E-01
DAV:   4    -0.191785985462E+03    0.19370E-02   -0.27832E-03 11160   0.427E-01    0.148E-01
DAV:   5    -0.191786046603E+03   -0.61141E-04   -0.12131E-03  9960   0.280E-01    0.173E-01
DAV:   6    -0.191785807891E+03    0.23871E-03   -0.87313E-04  9960   0.245E-01    0.813E-02
DAV:   7    -0.191785711030E+03    0.96860E-04   -0.22275E-04  7640   0.980E-02
  34 F= -.19178571E+03 E0= -.19170902E+03  d E =-.250653E-01
       N       E                     dE             d eps       ncg     rms          rms(c)
DAV:   1    -0.191786778881E+03   -0.97099E-03   -0.49519E-03  8240   0.166E-01    0.341E-02
DAV:   2    -0.191786856849E+03   -0.77968E-04   -0.35585E-04 11240   0.118E-01
  35 F= -.19178686E+03 E0= -.19171004E+03  d E =-.114582E-02
       N       E                     dE             d eps       ncg     rms          rms(c)
DAV:   1    -0.191790758606E+03   -0.39797E-02   -0.46378E-02  8160   0.472E-01    0.563E-02
DAV:   2    -0.191790872967E+03   -0.11436E-03   -0.12486E-03 12800   0.131E-01    0.929E-02
DAV:   3    -0.191790817530E+03    0.55438E-04   -0.26533E-04  8480   0.131E-01
  36 F= -.19179082E+03 E0= -.19171462E+03  d E =-.396068E-02
       N       E                     dE             d eps       ncg     rms          rms(c)
DAV:   1    -0.191815752615E+03   -0.24880E-01   -0.18165E+00  8160   0.289E+00    0.330E-01
DAV:   2    -0.191821866478E+03   -0.61139E-02   -0.53665E-02 12640   0.104E+00    0.615E-01
DAV:   3    -0.191818096778E+03    0.37697E-02   -0.10164E-02 12000   0.862E-01    0.263E-01
DAV:   4    -0.191817686434E+03    0.41034E-03   -0.27083E-03 11480   0.391E-01    0.244E-01
DAV:   5    -0.191817294620E+03    0.39181E-03   -0.19930E-03 10880   0.382E-01    0.182E-01
DAV:   6    -0.191817176001E+03    0.11862E-03   -0.11212E-03 10360   0.247E-01    0.146E-01
DAV:   7    -0.191817037281E+03    0.13872E-03   -0.61044E-04  8800   0.212E-01    0.983E-02
DAV:   8    -0.191816911995E+03    0.12529E-03   -0.13389E-04  6160   0.960E-02    0.149E-02
DAV:   9    -0.191816914412E+03   -0.24173E-05   -0.43956E-05  6480   0.220E-02
  37 F= -.19181691E+03 E0= -.19174135E+03  d E =-.260969E-01
       N       E                     dE             d eps       ncg     rms          rms(c)
DAV:   1    -0.191835969219E+03   -0.19057E-01   -0.12145E+00  8160   0.234E+00    0.243E-01
DAV:   2    -0.191840074755E+03   -0.41055E-02   -0.38693E-02 11560   0.737E-01    0.428E-01
DAV:   3    -0.191838778080E+03    0.12967E-02   -0.54091E-03 12360   0.633E-01    0.262E-01
DAV:   4    -0.191838116009E+03    0.66207E-03   -0.13379E-03  9800   0.291E-01    0.138E-01
DAV:   5    -0.191838175415E+03   -0.59406E-04   -0.90408E-04 10280   0.257E-01
  38 F= -.19183818E+03 E0= -.19176329E+03  d E =-.212610E-01
       N       E                     dE             d eps       ncg     rms          rms(c)
DAV:   1    -0.191844157304E+03   -0.60413E-02   -0.16229E-01  8160   0.879E-01    0.132E-01
DAV:   2    -0.191846769484E+03   -0.26122E-02   -0.79949E-03 11920   0.564E-01    0.495E-01
DAV:   3    -0.191844324681E+03    0.24448E-02   -0.30908E-03 10440   0.472E-01    0.726E-02
DAV:   4    -0.191844373416E+03   -0.48734E-04   -0.29899E-04  8320   0.128E-01
  39 F= -.19184437E+03 E0= -.19176984E+03  d E =-.619800E-02
       N       E                     dE             d eps       ncg     rms          rms(c)
DAV:   1    -0.191858414956E+03   -0.14090E-01   -0.60068E-01  8160   0.167E+00    0.207E-01
DAV:   2    -0.191861492322E+03   -0.30774E-02   -0.20763E-02 13000   0.669E-01    0.471E-01
DAV:   3    -0.191859300568E+03    0.21918E-02   -0.50940E-03 12320   0.589E-01    0.166E-01
DAV:   4    -0.191859194514E+03    0.10605E-03   -0.91510E-04  9840   0.217E-01    0.159E-01
DAV:   5    -0.191859007454E+03    0.18706E-03   -0.59991E-04  9680   0.231E-01    0.101E-01
DAV:   6    -0.191858956189E+03    0.51265E-04   -0.38108E-04  8280   0.132E-01
  40 F= -.19185896E+03 E0= -.19178457E+03  d E =-.145828E-01
       N       E                     dE             d eps       ncg     rms          rms(c)
DAV:   1    -0.191893410742E+03   -0.34403E-01   -0.50296E+00  8160   0.479E+00    0.508E-01
DAV:   2    -0.191908539891E+03   -0.15129E-01   -0.15640E-01 11640   0.146E+00    0.804E-01
DAV:   3    -0.191904497031E+03    0.40429E-02   -0.25681E-02 12480   0.132E+00    0.550E-01
DAV:   4    -0.191901272398E+03    0.32246E-02   -0.67205E-03 11600   0.626E-01    0.278E-01
DAV:   5    -0.191901292267E+03   -0.19869E-04   -0.32223E-03 11880   0.526E-01    0.308E-01
DAV:   6    -0.191900780645E+03    0.51162E-03   -0.26519E-03 11640   0.411E-01    0.187E-01
DAV:   7    -0.191900405347E+03    0.37530E-03   -0.12360E-03 10480   0.281E-01    0.117E-01
DAV:   8    -0.191900232528E+03    0.17282E-03   -0.25276E-04  8560   0.130E-01    0.242E-02
DAV:   9    -0.191900229085E+03    0.34423E-05   -0.57937E-05  6800   0.300E-02
  41 F= -.19190023E+03 E0= -.19182619E+03  d E =-.412729E-01
       N       E                     dE             d eps       ncg     rms          rms(c)
DAV:   1    -0.191934800343E+03   -0.34568E-01   -0.85060E+00  8160   0.621E+00    0.631E-01
DAV:   2    -0.191955751554E+03   -0.20951E-01   -0.25239E-01 11560   0.164E+00    0.774E-01
DAV:   3    -0.191955905937E+03   -0.15438E-03   -0.35343E-02 12360   0.156E+00    0.821E-01
DAV:   4    -0.191948203059E+03    0.77029E-02   -0.13346E-02 12400   0.917E-01    0.272E-01
DAV:   5    -0.191948427353E+03   -0.22429E-03   -0.50733E-03 12000   0.525E-01    0.361E-01
DAV:   6    -0.191947970072E+03    0.45728E-03   -0.40287E-03 12720   0.584E-01    0.278E-01
DAV:   7    -0.191947052883E+03    0.91719E-03   -0.18252E-03 10760   0.327E-01    0.111E-01
DAV:   8    -0.191946934537E+03    0.11835E-03   -0.35522E-04  9520   0.156E-01    0.489E-02
DAV:   9    -0.191946905928E+03    0.28609E-04   -0.77594E-05  7560   0.627E-02
  42 F= -.19194691E+03 E0= -.19187279E+03  d E =-.466768E-01
       N       E                     dE             d eps       ncg     rms          rms(c)
DAV:   1    -0.191955742713E+03   -0.88082E-02   -0.44053E-01  8160   0.143E+00    0.192E-01
DAV:   2    -0.191957505078E+03   -0.17624E-02   -0.19444E-02 12360   0.565E-01    0.308E-01
DAV:   3    -0.191956664381E+03    0.84070E-03   -0.30297E-03 12160   0.483E-01    0.184E-01
DAV:   4    -0.191956365253E+03    0.29913E-03   -0.90882E-04 10400   0.258E-01    0.128E-01
DAV:   5    -0.191956289622E+03    0.75631E-04   -0.64530E-04 10320   0.214E-01
  43 F= -.19195629E+03 E0= -.19188127E+03  d E =-.938369E-02
       N       E                     dE             d eps       ncg     rms          rms(c)
DAV:   1    -0.191968250150E+03   -0.11885E-01   -0.88037E-01  8160   0.200E+00    0.238E-01
DAV:   2    -0.191971295746E+03   -0.30456E-02   -0.30124E-02 12240   0.705E-01    0.401E-01
DAV:   3    -0.191969926211E+03    0.13695E-02   -0.51836E-03 11880   0.620E-01    0.223E-01
DAV:   4    -0.191969384349E+03    0.54186E-03   -0.12736E-03 10160   0.270E-01    0.122E-01
DAV:   5    -0.191969391396E+03   -0.70479E-05   -0.83708E-04 10640   0.248E-01
  44 F= -.19196939E+03 E0= -.19189390E+03  d E =-.131018E-01
       N       E                     dE             d eps       ncg     rms          rms(c)
DAV:   1    -0.191982358589E+03   -0.12974E-01   -0.13605E+00  8160   0.248E+00    0.279E-01
DAV:   2    -0.191987634785E+03   -0.52762E-02   -0.46202E-02 11760   0.870E-01    0.506E-01
DAV:   3    -0.191985427036E+03    0.22077E-02   -0.82340E-03 12320   0.777E-01    0.268E-01
DAV:   4    -0.191984543715E+03    0.88332E-03   -0.14375E-03 10400   0.278E-01    0.891E-02
DAV:   5    -0.191984679595E+03   -0.13588E-03   -0.75202E-04 11240   0.164E-01    0.131E-01
DAV:   6    -0.191984633342E+03    0.46253E-04   -0.66061E-04 11040   0.221E-01
  45 F= -.19198463E+03 E0= -.19190890E+03  d E =-.152419E-01
       N       E                     dE             d eps       ncg     rms          rms(c)
DAV:   1    -0.192004115624E+03   -0.19436E-01   -0.88759E+00  8160   0.633E+00    0.682E-01
DAV:   2    -0.192032638787E+03   -0.28523E-01   -0.29615E-01 11560   0.193E+00    0.997E-01
DAV:   3    -0.192027166692E+03    0.54721E-02   -0.44204E-02 12360   0.180E+00    0.790E-01
DAV:   4    -0.192020232716E+03    0.69340E-02   -0.13254E-02 12280   0.914E-01    0.291E-01
DAV:   5    -0.192018983438E+03    0.12493E-02   -0.53822E-03 11240   0.380E-01    0.208E-01
DAV:   6    -0.192019926297E+03   -0.94286E-03   -0.38781E-03 12560   0.519E-01    0.333E-01
DAV:   7    -0.192018554969E+03    0.13713E-02   -0.17461E-03 11680   0.390E-01    0.911E-02
DAV:   8    -0.192018506408E+03    0.48562E-04   -0.32495E-04  8840   0.138E-01
  46 F= -.19201851E+03 E0= -.19194217E+03  d E =-.338731E-01
       N       E                     dE             d eps       ncg     rms          rms(c)
DAV:   1    -0.192027695891E+03   -0.91409E-02   -0.10779E+00  8160   0.222E+00    0.277E-01
DAV:   2    -0.192031719556E+03   -0.40237E-02   -0.42291E-02 13280   0.851E-01    0.435E-01
DAV:   3    -0.192029895705E+03    0.18239E-02   -0.70950E-03 12240   0.703E-01    0.248E-01
DAV:   4    -0.192029337200E+03    0.55851E-03   -0.22013E-03 12680   0.342E-01    0.160E-01
DAV:   5    -0.192029191696E+03    0.14550E-03   -0.13849E-03 10160   0.278E-01    0.158E-01
DAV:   6    -0.192028990081E+03    0.20161E-03   -0.67124E-04 10800   0.218E-01    0.755E-02
DAV:   7    -0.192028935502E+03    0.54579E-04   -0.15671E-04  6320   0.102E-01
  47 F= -.19202894E+03 E0= -.19195242E+03  d E =-.104291E-01
       N       E                     dE             d eps       ncg     rms          rms(c)
DAV:   1    -0.192039635443E+03   -0.10645E-01   -0.29161E+00  8160   0.363E+00    0.398E-01
DAV:   2    -0.192048632283E+03   -0.89968E-02   -0.95055E-02 11080   0.107E+00    0.570E-01
DAV:   3    -0.192046927004E+03    0.17053E-02   -0.14985E-02 12360   0.105E+00    0.476E-01
DAV:   4    -0.192044481765E+03    0.24452E-02   -0.45623E-03 12320   0.545E-01    0.165E-01
DAV:   5    -0.192044090513E+03    0.39125E-03   -0.16795E-03 10480   0.189E-01    0.108E-01
DAV:   6    -0.192044471660E+03   -0.38115E-03   -0.12272E-03 11680   0.279E-01    0.208E-01
DAV:   7    -0.192043995670E+03    0.47599E-03   -0.66202E-04  9840   0.243E-01    0.483E-02
DAV:   8    -0.192043980511E+03    0.15158E-04   -0.84267E-05  5840   0.667E-02
  48 F= -.19204398E+03 E0= -.19196765E+03  d E =-.150450E-01
       N       E                     dE             d eps       ncg     rms          rms(c)
DAV:   1    -0.192047256953E+03   -0.32613E-02   -0.14346E-01  8160   0.820E-01    0.110E-01
DAV:   2    -0.192047957735E+03   -0.70078E-03   -0.55538E-03 11560   0.371E-01    0.218E-01
DAV:   3    -0.192047431746E+03    0.52599E-03   -0.11903E-03 10640   0.300E-01    0.785E-02
DAV:   4    -0.192047419277E+03    0.12469E-04   -0.28572E-04  8320   0.129E-01
  49 F= -.19204742E+03 E0= -.19197108E+03  d E =-.343877E-02
       N       E                     dE             d eps       ncg     rms          rms(c)
DAV:   1    -0.192051085523E+03   -0.36538E-02   -0.17247E-01  8160   0.904E-01    0.128E-01
DAV:   2    -0.192052058764E+03   -0.97324E-03   -0.64305E-03 12880   0.385E-01    0.265E-01
DAV:   3    -0.192051323070E+03    0.73569E-03   -0.18540E-03 11520   0.374E-01    0.118E-01
DAV:   4    -0.192051210164E+03    0.11291E-03   -0.45353E-04  8640   0.132E-01    0.631E-02
DAV:   5    -0.192051184046E+03    0.26118E-04   -0.20994E-04  8120   0.107E-01
  50 F= -.19205118E+03 E0= -.19197500E+03  d E =-.376477E-02
       N       E                     dE             d eps       ncg     rms          rms(c)
DAV:   1    -0.192055166848E+03   -0.39567E-02   -0.16795E-01  8160   0.893E-01    0.118E-01
DAV:   2    -0.192055883035E+03   -0.71619E-03   -0.52296E-03 12200   0.327E-01    0.230E-01
DAV:   3    -0.192055364287E+03    0.51875E-03   -0.12106E-03 11200   0.331E-01    0.102E-01
DAV:   4    -0.192055246937E+03    0.11735E-03   -0.14940E-04  6520   0.988E-02    0.351E-02
DAV:   5    -0.192055299646E+03   -0.52709E-04   -0.14329E-04  7040   0.957E-02
  51 F= -.19205530E+03 E0= -.19197919E+03  d E =-.411560E-02
       N       E                     dE             d eps       ncg     rms          rms(c)
DAV:   1    -0.192059920698E+03   -0.46738E-02   -0.22190E-01  8160   0.102E+00    0.128E-01
DAV:   2    -0.192060943219E+03   -0.10225E-02   -0.74384E-03 12000   0.359E-01    0.260E-01
DAV:   3    -0.192060264018E+03    0.67920E-03   -0.18702E-03 12040   0.370E-01    0.112E-01
DAV:   4    -0.192060148108E+03    0.11591E-03   -0.25805E-04  8080   0.113E-01    0.546E-02
DAV:   5    -0.192060177918E+03   -0.29810E-04   -0.16142E-04  7440   0.124E-01
  52 F= -.19206018E+03 E0= -.19198435E+03  d E =-.487827E-02
       N       E                     dE             d eps       ncg     rms          rms(c)
DAV:   1    -0.192057932015E+03    0.22161E-02   -0.59389E-02  8160   0.536E-01    0.878E-02
DAV:   2    -0.192059162003E+03   -0.12300E-02   -0.32823E-03 12320   0.407E-01    0.323E-01
DAV:   3    -0.192057947293E+03    0.12147E-02   -0.14593E-03 10160   0.348E-01    0.416E-02
DAV:   4    -0.192057944932E+03    0.23606E-05   -0.10441E-04  5800   0.606E-02
  53 F= -.19205794E+03 E0= -.19198187E+03  d E =0.223299E-02
       N       E                     dE             d eps       ncg     rms          rms(c)
DAV:   1    -0.192056857243E+03    0.10900E-02   -0.80724E-02  8160   0.619E-01    0.954E-02
DAV:   2    -0.192057724977E+03   -0.86773E-03   -0.40044E-03 11640   0.353E-01    0.260E-01
DAV:   3    -0.192056962177E+03    0.76280E-03   -0.12153E-03 11280   0.317E-01    0.633E-02
DAV:   4    -0.192056962328E+03   -0.15014E-06   -0.16794E-04  6880   0.100E-01
  54 F= -.19205696E+03 E0= -.19198086E+03  d E =0.982604E-03
       N       E                     dE             d eps       ncg     rms          rms(c)
DAV:   1    -0.192063435383E+03   -0.64732E-02   -0.44725E-01  8160   0.145E+00    0.167E-01
DAV:   2    -0.192064969975E+03   -0.15346E-02   -0.14167E-02 12400   0.470E-01    0.295E-01
DAV:   3    -0.192064270639E+03    0.69934E-03   -0.28860E-03 12400   0.451E-01    0.169E-01
DAV:   4    -0.192063947090E+03    0.32355E-03   -0.53762E-04  8400   0.170E-01    0.596E-02
DAV:   5    -0.192063983129E+03   -0.36039E-04   -0.27376E-04  7960   0.116E-01
  55 F= -.19206398E+03 E0= -.19198830E+03  d E =-.702080E-02
       N       E                     dE             d eps       ncg     rms          rms(c)
DAV:   1    -0.192061756440E+03    0.21906E-02   -0.52999E-02  8160   0.536E-01    0.103E-01
DAV:   2    -0.192062937151E+03   -0.11807E-02   -0.33309E-03 12280   0.428E-01    0.326E-01
DAV:   3    -0.192061676575E+03    0.12606E-02   -0.13599E-03 10240   0.370E-01    0.536E-02
DAV:   4    -0.192061673604E+03    0.29718E-05   -0.20663E-04  7320   0.758E-02
  56 F= -.19206167E+03 E0= -.19198590E+03  d E =0.230953E-02
       N       E                     dE             d eps       ncg     rms          rms(c)
DAV:   1    -0.192057299593E+03    0.43770E-02   -0.63823E-01  8160   0.177E+00    0.309E-01
DAV:   2    -0.192060101589E+03   -0.28020E-02   -0.27806E-02 11440   0.830E-01    0.579E-01
DAV:   3    -0.192056777052E+03    0.33245E-02   -0.78841E-03 12040   0.796E-01    0.256E-01
DAV:   4    -0.192056202442E+03    0.57461E-03   -0.23085E-03 11080   0.368E-01    0.194E-01
DAV:   5    -0.192055994069E+03    0.20837E-03   -0.15344E-03 10720   0.348E-01    0.158E-01
DAV:   6    -0.192055708762E+03    0.28531E-03   -0.69930E-04 10200   0.201E-01    0.583E-02
DAV:   7    -0.192055715202E+03   -0.64396E-05   -0.17103E-04  7160   0.114E-01
  57 F= -.19205572E+03 E0= -.19198001E+03  d E =0.595840E-02
       N       E                     dE             d eps       ncg     rms          rms(c)
DAV:   1    -0.192054476266E+03    0.12325E-02   -0.20367E-02  8160   0.321E-01    0.468E-02
DAV:   2    -0.192054583347E+03   -0.10708E-03   -0.72813E-04 10600   0.126E-01    0.920E-02
DAV:   3    -0.192054495276E+03    0.88071E-04   -0.18902E-04  8720   0.128E-01
  58 F= -.19205450E+03 E0= -.19197870E+03  d E =0.121993E-02
       N       E                     dE             d eps       ncg     rms          rms(c)
DAV:   1    -0.192053274180E+03    0.13092E-02   -0.83995E-01  8160   0.195E+00    0.229E-01
DAV:   2    -0.192056531927E+03   -0.32577E-02   -0.18225E-02 12280   0.712E-01    0.517E-01
DAV:   3    -0.192053640809E+03    0.28911E-02   -0.56845E-03 12520   0.678E-01    0.187E-01
DAV:   4    -0.192053427809E+03    0.21300E-03   -0.11776E-03 10320   0.224E-01    0.117E-01
DAV:   5    -0.192053316157E+03    0.11165E-03   -0.74303E-04 10520   0.191E-01    0.109E-01
DAV:   6    -0.192053268687E+03    0.47470E-04   -0.46401E-04  9080   0.185E-01
  59 F= -.19205327E+03 E0= -.19197719E+03  d E =0.122659E-02
       N       E                     dE             d eps       ncg     rms          rms(c)
DAV:   1    -0.192068993928E+03   -0.15678E-01   -0.26253E+00  8160   0.360E+00    0.573E-01
DAV:   2    -0.192081085115E+03   -0.12091E-01   -0.86471E-02 12000   0.163E+00    0.125E+00
DAV:   3    -0.192066320779E+03    0.14764E-01   -0.31931E-02 11600   0.159E+00    0.431E-01
DAV:   4    -0.192065034924E+03    0.12859E-02   -0.72066E-03 12200   0.680E-01    0.400E-01
DAV:   5    -0.192063879378E+03    0.11555E-02   -0.56298E-03 11000   0.676E-01    0.301E-01
DAV:   6    -0.192062880295E+03    0.99908E-03   -0.27580E-03 11680   0.385E-01    0.135E-01
DAV:   7    -0.192062790848E+03    0.89448E-04   -0.85006E-04 10360   0.235E-01
  60 F= -.19206279E+03 E0= -.19198676E+03  d E =-.952216E-02
       N       E                     dE             d eps       ncg     rms          rms(c)
DAV:   1    -0.192066293415E+03   -0.34131E-02   -0.36650E-01  8160   0.130E+00    0.188E-01
DAV:   2    -0.192066992077E+03   -0.69866E-03   -0.10617E-02 11680   0.488E-01    0.298E-01
DAV:   3    -0.192066291037E+03    0.70104E-03   -0.27959E-03 11960   0.482E-01    0.183E-01
DAV:   4    -0.192065877404E+03    0.41363E-03   -0.82976E-04  9720   0.245E-01    0.892E-02
DAV:   5    -0.192065958451E+03   -0.81047E-04   -0.58731E-04 10400   0.204E-01
  61 F= -.19206596E+03 E0= -.19199047E+03  d E =-.316760E-02
       N       E                     dE             d eps       ncg     rms          rms(c)
DAV:   1    -0.192072471459E+03   -0.65941E-02   -0.44224E-01  8160   0.145E+00    0.171E-01
DAV:   2    -0.192073584849E+03   -0.11134E-02   -0.12253E-02 11480   0.437E-01    0.253E-01
DAV:   3    -0.192073188172E+03    0.39668E-03   -0.25059E-03 12280   0.433E-01    0.181E-01
DAV:   4    -0.192072833757E+03    0.35442E-03   -0.55275E-04  8400   0.196E-01    0.744E-02
DAV:   5    -0.192072885574E+03   -0.51817E-04   -0.38021E-04  9040   0.173E-01
  62 F= -.19207289E+03 E0= -.19199765E+03  d E =-.692712E-02
       N       E                     dE             d eps       ncg     rms          rms(c)
DAV:   1    -0.192072378481E+03    0.45528E-03   -0.20588E-03  9360   0.177E-01    0.534E-02
DAV:   2    -0.192072814971E+03   -0.43649E-03   -0.82967E-04 10880   0.239E-01    0.194E-01
DAV:   3    -0.192072348853E+03    0.46612E-03   -0.51271E-04  8960   0.219E-01    0.394E-02
DAV:   4    -0.192072332777E+03    0.16076E-04   -0.42983E-05  5880   0.404E-02
  63 F= -.19207233E+03 E0= -.19199717E+03  d E =0.552797E-03
       N       E                     dE             d eps       ncg     rms          rms(c)
DAV:   1    -0.192076843495E+03   -0.44946E-02   -0.23800E-01  8160   0.107E+00    0.146E-01
DAV:   2    -0.192077783224E+03   -0.93973E-03   -0.83186E-03 11600   0.400E-01    0.275E-01
DAV:   3    -0.192077097461E+03    0.68576E-03   -0.21919E-03 11760   0.390E-01    0.131E-01
DAV:   4    -0.192076923809E+03    0.17365E-03   -0.44987E-04  8560   0.158E-01    0.646E-02
DAV:   5    -0.192076879723E+03    0.44086E-04   -0.19031E-04  6400   0.782E-02
  64 F= -.19207688E+03 E0= -.19200225E+03  d E =-.454695E-02
       N       E                     dE             d eps       ncg     rms          rms(c)
DAV:   1    -0.192071097438E+03    0.58264E-02   -0.73911E-01  8160   0.194E+00    0.330E-01
DAV:   2    -0.192075275267E+03   -0.41778E-02   -0.31958E-02 12120   0.902E-01    0.677E-01
DAV:   3    -0.192070947623E+03    0.43276E-02   -0.10247E-02 12320   0.933E-01    0.287E-01
DAV:   4    -0.192070005926E+03    0.94170E-03   -0.25206E-03 11480   0.335E-01    0.156E-01
DAV:   5    -0.192069978771E+03    0.27155E-04   -0.17189E-03 11760   0.324E-01    0.185E-01
DAV:   6    -0.192069644365E+03    0.33441E-03   -0.98783E-04 10320   0.260E-01    0.870E-02
DAV:   7    -0.192069554752E+03    0.89613E-04   -0.29821E-04  8120   0.120E-01
  65 F= -.19206955E+03 E0= -.19199377E+03  d E =0.732497E-02
       N       E                     dE             d eps       ncg     rms          rms(c)
DAV:   1    -0.192072010882E+03   -0.23665E-02   -0.62561E-02  8160   0.545E-01    0.636E-02
DAV:   2    -0.192072267824E+03   -0.25694E-03   -0.20737E-03 11800   0.177E-01    0.115E-01
DAV:   3    -0.192072113478E+03    0.15435E-03   -0.39977E-04  9280   0.172E-01    0.540E-02
DAV:   4    -0.192072092874E+03    0.20605E-04   -0.69811E-05  6080   0.682E-02
  66 F= -.19207209E+03 E0= -.19199653E+03  d E =-.253812E-02
       N       E                     dE             d eps       ncg     rms          rms(c)
DAV:   1    -0.192076336422E+03   -0.42229E-02   -0.15188E-01  8160   0.848E-01    0.119E-01
DAV:   2    -0.192077188606E+03   -0.85218E-03   -0.49523E-03 11520   0.345E-01    0.258E-01
DAV:   3    -0.192076467862E+03    0.72074E-03   -0.15035E-03 11480   0.349E-01    0.906E-02
DAV:   4    -0.192076377934E+03    0.89928E-04   -0.13747E-04  6120   0.819E-02
  67 F= -.19207638E+03 E0= -.19200100E+03  d E =-.428506E-02
       N       E                     dE             d eps       ncg     rms          rms(c)
DAV:   1    -0.192073531096E+03    0.29368E-02   -0.73321E-02  8160   0.600E-01    0.117E-01
DAV:   2    -0.192075825152E+03   -0.22941E-02   -0.47549E-03 12240   0.581E-01    0.450E-01
DAV:   3    -0.192073482149E+03    0.23430E-02   -0.23454E-03 11240   0.482E-01    0.486E-02
DAV:   4    -0.192073525576E+03   -0.43427E-04   -0.18246E-04  7440   0.105E-01
  68 F= -.19207353E+03 E0= -.19199802E+03  d E =0.285236E-02
       N       E                     dE             d eps       ncg     rms          rms(c)
DAV:   1    -0.192077675452E+03   -0.41933E-02   -0.18208E-01  8160   0.937E-01    0.141E-01
DAV:   2    -0.192078553655E+03   -0.87820E-03   -0.77767E-03 11160   0.453E-01    0.270E-01
DAV:   3    -0.192077758682E+03    0.79497E-03   -0.17758E-03 11360   0.372E-01    0.101E-01
DAV:   4    -0.192077679306E+03    0.79376E-04   -0.42063E-04  8760   0.161E-01
  69 F= -.19207768E+03 E0= -.19200240E+03  d E =-.415373E-02
       N       E                     dE             d eps       ncg     rms          rms(c)
DAV:   1    -0.192070978162E+03    0.67805E-02   -0.56478E-01  8160   0.163E+00    0.211E-01
DAV:   2    -0.192073924614E+03   -0.29465E-02   -0.19004E-02 11440   0.672E-01    0.440E-01
DAV:   3    -0.192071593505E+03    0.23311E-02   -0.47112E-03 12040   0.611E-01    0.156E-01
DAV:   4    -0.192071458255E+03    0.13525E-03   -0.85753E-04 10200   0.224E-01    0.129E-01
DAV:   5    -0.192071313168E+03    0.14509E-03   -0.56455E-04  9880   0.216E-01    0.944E-02
DAV:   6    -0.192071241439E+03    0.71729E-04   -0.29297E-04  8560   0.129E-01
  70 F= -.19207124E+03 E0= -.19199542E+03  d E =0.643787E-02
       N       E                     dE             d eps       ncg     rms          rms(c)
DAV:   1    -0.192082201586E+03   -0.10888E-01   -0.10630E+00  8160   0.224E+00    0.289E-01
DAV:   2    -0.192087331729E+03   -0.51301E-02   -0.31600E-02 11600   0.892E-01    0.640E-01
DAV:   3    -0.192082916815E+03    0.44149E-02   -0.98438E-03 11960   0.862E-01    0.224E-01
DAV:   4    -0.192082433859E+03    0.48296E-03   -0.13499E-03 11000   0.249E-01    0.132E-01
DAV:   5    -0.192082492934E+03   -0.59075E-04   -0.10134E-03 10680   0.284E-01    0.169E-01
DAV:   6    -0.192082254248E+03    0.23869E-03   -0.68038E-04 10080   0.230E-01    0.816E-02
DAV:   7    -0.192082198147E+03    0.56102E-04   -0.26076E-04  8680   0.126E-01
  71 F= -.19208220E+03 E0= -.19200736E+03  d E =-.109567E-01
       N       E                     dE             d eps       ncg     rms          rms(c)
DAV:   1    -0.192084430698E+03   -0.21764E-02   -0.53812E-02  8160   0.509E-01    0.662E-02
DAV:   2    -0.192084719711E+03   -0.28901E-03   -0.20096E-03 12080   0.208E-01    0.138E-01
DAV:   3    -0.192084514733E+03    0.20498E-03   -0.46445E-04  9560   0.195E-01    0.536E-02
DAV:   4    -0.192084494669E+03    0.20065E-04   -0.65429E-05  6160   0.615E-02
  72 F= -.19208449E+03 E0= -.19200970E+03  d E =-.229652E-02
       N       E                     dE             d eps       ncg     rms          rms(c)
DAV:   1    -0.192086464658E+03   -0.19499E-02   -0.85497E-02  8160   0.639E-01    0.974E-02
DAV:   2    -0.192087157810E+03   -0.69315E-03   -0.41927E-03 11480   0.318E-01    0.222E-01
DAV:   3    -0.192086596798E+03    0.56101E-03   -0.12071E-03 11120   0.295E-01    0.724E-02
DAV:   4    -0.192086609912E+03   -0.13113E-04   -0.21335E-04  7400   0.123E-01
  73 F= -.19208661E+03 E0= -.19201206E+03  d E =-.211524E-02
       N       E                     dE             d eps       ncg     rms          rms(c)
DAV:   1    -0.192094315556E+03   -0.77188E-02   -0.40816E-01  8160   0.140E+00    0.186E-01
DAV:   2    -0.192095562452E+03   -0.12469E-02   -0.12107E-02 11920   0.487E-01    0.309E-01
DAV:   3    -0.192094745985E+03    0.81647E-03   -0.27636E-03 12520   0.476E-01    0.170E-01
DAV:   4    -0.192094379164E+03    0.36682E-03   -0.51452E-04  9360   0.178E-01    0.602E-02
DAV:   5    -0.192094469018E+03   -0.89855E-04   -0.40593E-04  9280   0.159E-01
  74 F= -.19209447E+03 E0= -.19202022E+03  d E =-.785911E-02
       N       E                     dE             d eps       ncg     rms          rms(c)
DAV:   1    -0.192093333927E+03    0.10452E-02   -0.35834E-02  8280   0.496E-01    0.104E-01
DAV:   2    -0.192093676365E+03   -0.34244E-03   -0.25302E-03 11840   0.286E-01    0.217E-01
DAV:   3    -0.192093186218E+03    0.49015E-03   -0.11665E-03 10240   0.302E-01    0.941E-02
DAV:   4    -0.192093106319E+03    0.79900E-04   -0.28802E-04  7560   0.116E-01
  75 F= -.19209311E+03 E0= -.19201912E+03  d E =0.136270E-02
       N       E                     dE             d eps       ncg     rms          rms(c)
DAV:   1    -0.192100735334E+03   -0.75491E-02   -0.44457E-01  8160   0.145E+00    0.202E-01
DAV:   2    -0.192102391248E+03   -0.16559E-02   -0.14635E-02 11440   0.583E-01    0.365E-01
DAV:   3    -0.192101038521E+03    0.13527E-02   -0.36291E-03 12400   0.547E-01    0.170E-01
DAV:   4    -0.192100790896E+03    0.24762E-03   -0.75769E-04  9720   0.233E-01    0.115E-01
DAV:   5    -0.192100759797E+03    0.31099E-04   -0.59527E-04 10200   0.225E-01
  76 F= -.19210076E+03 E0= -.19202759E+03  d E =-.765348E-02
       N       E                     dE             d eps       ncg     rms          rms(c)
DAV:   1    -0.192098404044E+03    0.23869E-02   -0.10054E-01  8160   0.743E-01    0.120E-01
DAV:   2    -0.192098576548E+03   -0.17250E-03   -0.43137E-03 10680   0.249E-01    0.158E-01
DAV:   3    -0.192098429412E+03    0.14714E-03   -0.11368E-03 10160   0.294E-01    0.141E-01
DAV:   4    -0.192098200409E+03    0.22900E-03   -0.41315E-04  8920   0.176E-01    0.542E-02
DAV:   5    -0.192098195447E+03    0.49613E-05   -0.21350E-04  8040   0.117E-01
  77 F= -.19209820E+03 E0= -.19202456E+03  d E =0.256435E-02
       N       E                     dE             d eps       ncg     rms          rms(c)
DAV:   1    -0.192103164800E+03   -0.49644E-02   -0.83613E-01  8160   0.223E+00    0.549E-01
DAV:   2    -0.192099201553E+03    0.39632E-02   -0.51386E-02 12080   0.943E-01    0.625E-01
DAV:   3    -0.192098623207E+03    0.57835E-03   -0.20101E-02 11520   0.128E+00    0.611E-01
DAV:   4    -0.192093843639E+03    0.47796E-02   -0.95257E-03 12160   0.842E-01    0.290E-01
DAV:   5    -0.192093740547E+03    0.10309E-03   -0.48534E-03 11080   0.585E-01    0.317E-01
DAV:   6    -0.192092398197E+03    0.13424E-02   -0.21185E-03 11720   0.387E-01    0.514E-02
DAV:   7    -0.192092383601E+03    0.14596E-04   -0.18085E-04  6560   0.615E-02
  78 F= -.19209238E+03 E0= -.19201708E+03  d E =0.581185E-02
       N       E                     dE             d eps       ncg     rms          rms(c)
DAV:   1    -0.192081038344E+03    0.11360E-01   -0.91232E-01  8160   0.208E+00    0.300E-01
DAV:   2    -0.192085448072E+03   -0.44097E-02   -0.37108E-02 11360   0.849E-01    0.563E-01
DAV:   3    -0.192082224188E+03    0.32239E-02   -0.83518E-03 12560   0.824E-01    0.258E-01
DAV:   4    -0.192081432583E+03    0.79161E-03   -0.16583E-03 12360   0.302E-01    0.121E-01
DAV:   5    -0.192081508268E+03   -0.75685E-04   -0.11169E-03 10680   0.276E-01    0.159E-01
DAV:   6    -0.192081246667E+03    0.26160E-03   -0.63785E-04 10160   0.212E-01    0.618E-02
DAV:   7    -0.192081217612E+03    0.29055E-04   -0.20088E-04  7600   0.101E-01
  79 F= -.19208122E+03 E0= -.19200481E+03  d E =0.111660E-01
       N       E                     dE             d eps       ncg     rms          rms(c)
DAV:   1    -0.192143773734E+03   -0.62527E-01   -0.11353E+01  8160   0.747E+00    0.123E+00
DAV:   2    -0.192162013131E+03   -0.18239E-01   -0.43164E-01 12240   0.265E+00    0.170E+00
DAV:   3    -0.192147197678E+03    0.14815E-01   -0.12808E-01 12480   0.313E+00    0.135E+00
DAV:   4    -0.192122262849E+03    0.24935E-01   -0.36281E-02 11880   0.156E+00    0.384E-01
DAV:   5    -0.192121137206E+03    0.11256E-02   -0.15228E-02 12400   0.718E-01    0.435E-01
DAV:   6    -0.192119743569E+03    0.13936E-02   -0.76456E-03 12760   0.749E-01    0.295E-01
DAV:   7    -0.192118948740E+03    0.79483E-03   -0.24057E-03 11640   0.382E-01    0.146E-01
DAV:   8    -0.192118757128E+03    0.19161E-03   -0.59271E-04 10280   0.219E-01    0.898E-02
DAV:   9    -0.192118676630E+03    0.80498E-04   -0.18234E-04  7440   0.108E-01
  80 F= -.19211868E+03 E0= -.19204713E+03  d E =-.374590E-01
       N       E                     dE             d eps       ncg     rms          rms(c)
DAV:   1    -0.192119544077E+03   -0.78695E-03   -0.15859E+00  8160   0.287E+00    0.563E-01
DAV:   2    -0.192119876374E+03   -0.33230E-03   -0.75874E-02 11360   0.117E+00    0.733E-01
DAV:   3    -0.192117399383E+03    0.24770E-02   -0.23177E-02 12240   0.137E+00    0.601E-01
DAV:   4    -0.192112830236E+03    0.45691E-02   -0.86125E-03 11440   0.804E-01    0.281E-01
DAV:   5    -0.192112896663E+03   -0.66427E-04   -0.49060E-03 11240   0.611E-01    0.339E-01
DAV:   6    -0.192111418384E+03    0.14783E-02   -0.25185E-03 11760   0.426E-01    0.750E-02
DAV:   7    -0.192111402234E+03    0.16150E-04   -0.30497E-04  8280   0.120E-01
  81 F= -.19211140E+03 E0= -.19203790E+03  d E =0.727440E-02
       N       E                     dE             d eps       ncg     rms          rms(c)
DAV:   1    -0.192122319242E+03   -0.10901E-01   -0.76164E-01  8160   0.189E+00    0.227E-01
DAV:   2    -0.192124460230E+03   -0.21410E-02   -0.21061E-02 11720   0.593E-01    0.376E-01
DAV:   3    -0.192123294960E+03    0.11653E-02   -0.41233E-03 12320   0.597E-01    0.217E-01
DAV:   4    -0.192122663326E+03    0.63163E-03   -0.77676E-04  9680   0.219E-01    0.585E-02
DAV:   5    -0.192122733849E+03   -0.70524E-04   -0.42679E-04  9280   0.129E-01
  82 F= -.19212273E+03 E0= -.19204995E+03  d E =-.113316E-01
       N       E                     dE             d eps       ncg     rms          rms(c)
DAV:   1    -0.192127541105E+03   -0.48778E-02   -0.14175E-01  8160   0.821E-01    0.116E-01
DAV:   2    -0.192128247813E+03   -0.70671E-03   -0.48873E-03 11120   0.317E-01    0.232E-01
DAV:   3    -0.192127690804E+03    0.55701E-03   -0.13985E-03 11080   0.328E-01    0.939E-02
DAV:   4    -0.192127599062E+03    0.91742E-04   -0.15330E-04  6560   0.946E-02
  83 F= -.19212760E+03 E0= -.19205518E+03  d E =-.486521E-02
       N       E                     dE             d eps       ncg     rms          rms(c)
DAV:   1    -0.192127491772E+03    0.19903E-03   -0.29461E-04  9600   0.113E-01    0.752E-02
DAV:   2    -0.192128692733E+03   -0.12010E-02   -0.15997E-03 11040   0.418E-01    0.326E-01
DAV:   3    -0.192127416691E+03    0.12760E-02   -0.10531E-03 10080   0.340E-01    0.241E-02
DAV:   4    -0.192127431908E+03   -0.15217E-04   -0.21215E-05  5960   0.360E-02
  84 F= -.19212743E+03 E0= -.19205500E+03  d E =0.167154E-03
       N       E                     dE             d eps       ncg     rms          rms(c)
DAV:   1    -0.192116057928E+03    0.11359E-01   -0.77912E-01  8160   0.192E+00    0.305E-01
DAV:   2    -0.192122238082E+03   -0.61802E-02   -0.34971E-02 11760   0.111E+00    0.716E-01
DAV:   3    -0.192116520502E+03    0.57176E-02   -0.86643E-03 12600   0.895E-01    0.201E-01
DAV:   4    -0.192116594447E+03   -0.73945E-04   -0.18613E-03 10720   0.379E-01    0.241E-01
DAV:   5    -0.192115995134E+03    0.59931E-03   -0.16232E-03 11040   0.366E-01    0.127E-01
DAV:   6    -0.192115887968E+03    0.10717E-03   -0.80889E-04 10600   0.178E-01    0.805E-02
DAV:   7    -0.192115853397E+03    0.34571E-04   -0.33364E-04  9440   0.151E-01
  85 F= -.19211585E+03 E0= -.19204330E+03  d E =0.115785E-01
       N       E                     dE             d eps       ncg     rms          rms(c)
DAV:   1    -0.192137733481E+03   -0.21846E-01   -0.28478E+00  8160   0.368E+00    0.499E-01
DAV:   2    -0.192151001671E+03   -0.13268E-01   -0.10056E-01 11840   0.159E+00    0.998E-01
DAV:   3    -0.192140806183E+03    0.10195E-01   -0.20723E-02 12400   0.136E+00    0.362E-01
DAV:   4    -0.192139744274E+03    0.10619E-02   -0.41106E-03 12040   0.541E-01    0.306E-01
DAV:   5    -0.192139138895E+03    0.60538E-03   -0.34623E-03 11240   0.550E-01    0.237E-01
DAV:   6    -0.192138577809E+03    0.56109E-03   -0.18250E-03 11600   0.301E-01    0.975E-02
DAV:   7    -0.192138505921E+03    0.71888E-04   -0.50117E-04  9600   0.178E-01
  86 F= -.19213851E+03 E0= -.19206662E+03  d E =-.226525E-01
       N       E                     dE             d eps       ncg     rms          rms(c)
DAV:   1    -0.192145644448E+03   -0.70666E-02   -0.38719E-01  8160   0.134E+00    0.173E-01
DAV:   2    -0.192146855134E+03   -0.12107E-02   -0.12629E-02 11040   0.419E-01    0.267E-01
DAV:   3    -0.192146347882E+03    0.50725E-03   -0.24277E-03 12640   0.451E-01    0.177E-01
DAV:   4    -0.192145968268E+03    0.37961E-03   -0.44024E-04  9200   0.179E-01    0.515E-02
DAV:   5    -0.192146052996E+03   -0.84728E-04   -0.25872E-04  8240   0.124E-01
  87 F= -.19214605E+03 E0= -.19207472E+03  d E =-.754708E-02
       N       E                     dE             d eps       ncg     rms          rms(c)
DAV:   1    -0.192152425909E+03   -0.64576E-02   -0.33990E-01  8160   0.127E+00    0.169E-01
DAV:   2    -0.192154318364E+03   -0.18925E-02   -0.13155E-02 11280   0.550E-01    0.359E-01
DAV:   3    -0.192152938678E+03    0.13797E-02   -0.31703E-03 12480   0.494E-01    0.127E-01
DAV:   4    -0.192152746737E+03    0.19194E-03   -0.34123E-04  8800   0.126E-01    0.532E-02
DAV:   5    -0.192152801618E+03   -0.54881E-04   -0.28625E-04  8440   0.116E-01
  88 F= -.19215280E+03 E0= -.19208176E+03  d E =-.674862E-02
       N       E                     dE             d eps       ncg     rms          rms(c)
DAV:   1    -0.192164437918E+03   -0.11691E-01   -0.19625E+00  8160   0.303E+00    0.378E-01
DAV:   2    -0.192172708182E+03   -0.82703E-02   -0.72711E-02 10960   0.117E+00    0.693E-01
DAV:   3    -0.192168180526E+03    0.45277E-02   -0.14094E-02 12480   0.104E+00    0.323E-01
DAV:   4    -0.192166851907E+03    0.13286E-02   -0.21516E-03 11680   0.351E-01    0.137E-01
DAV:   5    -0.192166992969E+03   -0.14106E-03   -0.15913E-03 11680   0.306E-01    0.186E-01
DAV:   6    -0.192166736852E+03    0.25612E-03   -0.11505E-03 10760   0.297E-01    0.111E-01
DAV:   7    -0.192166529412E+03    0.20744E-03   -0.29215E-04  8560   0.118E-01    0.345E-02
DAV:   8    -0.192166530106E+03   -0.69395E-06   -0.62740E-05  6960   0.653E-02
  89 F= -.19216653E+03 E0= -.19209580E+03  d E =-.137285E-01
       N       E                     dE             d eps       ncg     rms          rms(c)
DAV:   1    -0.192175197915E+03   -0.86685E-02   -0.48544E+00  8160   0.474E+00    0.553E-01
DAV:   2    -0.192192192792E+03   -0.16995E-01   -0.16627E-01 11000   0.158E+00    0.906E-01
DAV:   3    -0.192185669528E+03    0.65233E-02   -0.28188E-02 12440   0.148E+00    0.525E-01
DAV:   4    -0.192181797853E+03    0.38717E-02   -0.41842E-03 11920   0.517E-01    0.140E-01
DAV:   5    -0.192181898624E+03   -0.10077E-03   -0.23653E-03 11640   0.193E-01    0.141E-01
DAV:   6    -0.192181677707E+03    0.22092E-03   -0.95649E-04 11600   0.248E-01    0.126E-01
DAV:   7    -0.192181500034E+03    0.17767E-03   -0.29155E-04  9000   0.148E-01    0.305E-02
DAV:   8    -0.192181493343E+03    0.66900E-05   -0.56784E-05  6600   0.432E-02
  90 F= -.19218149E+03 E0= -.19211128E+03  d E =-.149632E-01
       N       E                     dE             d eps       ncg     rms          rms(c)
DAV:   1    -0.192183474171E+03   -0.19741E-02   -0.40301E-01  8160   0.135E+00    0.172E-01
DAV:   2    -0.192186061096E+03   -0.25869E-02   -0.20504E-02 11200   0.645E-01    0.353E-01
DAV:   3    -0.192184780540E+03    0.12806E-02   -0.28494E-03 12400   0.499E-01    0.137E-01
DAV:   4    -0.192184581790E+03    0.19875E-03   -0.42186E-04  9120   0.177E-01    0.839E-02
DAV:   5    -0.192184565887E+03    0.15903E-04   -0.30408E-04  9280   0.160E-01
  91 F= -.19218457E+03 E0= -.19211423E+03  d E =-.307254E-02
       N       E                     dE             d eps       ncg     rms          rms(c)
DAV:   1    -0.192185817890E+03   -0.12361E-02   -0.49033E-01  8160   0.149E+00    0.196E-01
DAV:   2    -0.192188200697E+03   -0.23828E-02   -0.22384E-02 11040   0.620E-01    0.342E-01
DAV:   3    -0.192187120163E+03    0.10805E-02   -0.34210E-03 12240   0.525E-01    0.172E-01
DAV:   4    -0.192186756464E+03    0.36370E-03   -0.60051E-04  9840   0.204E-01    0.816E-02
DAV:   5    -0.192186802178E+03   -0.45714E-04   -0.43983E-04  9400   0.184E-01
  92 F= -.19218680E+03 E0= -.19211642E+03  d E =-.223629E-02
       N       E                     dE             d eps       ncg     rms          rms(c)
DAV:   1    -0.192187412687E+03   -0.65622E-03   -0.13615E-01  8160   0.798E-01    0.959E-02
DAV:   2    -0.192187963673E+03   -0.55099E-03   -0.59057E-03 11040   0.239E-01    0.129E-01
DAV:   3    -0.192187854678E+03    0.10900E-03   -0.86093E-04 11200   0.240E-01    0.109E-01
DAV:   4    -0.192187735697E+03    0.11898E-03   -0.25485E-04  8440   0.136E-01    0.449E-02
DAV:   5    -0.192187724127E+03    0.11571E-04   -0.89137E-05  6360   0.750E-02
  93 F= -.19218772E+03 E0= -.19211755E+03  d E =-.921949E-03
