<?xml version="1.0" encoding="ISO-8859-1"?>
<modeling>
 <generator>
  <i name="program" type="string">vasp </i>
  <i name="version" type="string">5.4.1  </i>
  <i name="subversion" type="string">05Feb16 (build Jul 05 2020 17:13:04) complex                          parallel </i>
  <i name="platform" type="string">IFC91_ompi </i>
  <i name="date" type="string">2024 04 22 </i>
  <i name="time" type="string">02:51:29 </i>
 </generator>
 <incar>
  <i type="int" name="ISTART">     0</i>
  <i type="string" name="PREC">normal</i>
  <i type="string" name="ALGO"> Normal</i>
  <i type="int" name="ISPIN">     1</i>
  <i type="int" name="ICHARG">     2</i>
  <i type="int" name="IBRION">     1</i>
  <i type="int" name="NSW">   100</i>
  <i type="int" name="ISIF">     3</i>
  <i type="int" name="ISYM">     0</i>
  <i name="SYMPREC">      0.00000001</i>
  <i name="POTIM">      0.50000000</i>
  <i type="logical" name="LREAL"> F  </i>
  <i type="logical" name="LPLANE"> F  </i>
  <i type="int" name="ISMEAR">     0</i>
  <i type="logical" name="LWAVE"> F  </i>
  <i type="logical" name="LCHARG"> F  </i>
  <v type="int" name="KPOINT_BSE">    -1     0     0     0</v>
 </incar>
 <kpoints>
  <generation param="Gamma">
   <v type="int" name="divisions">       8        8        1 </v>
   <v name="usershift">      0.00000000       0.00000000       0.00000000 </v>
   <v name="genvec1">      0.12500000       0.00000000       0.00000000 </v>
   <v name="genvec2">     -0.00000000       0.12500000       0.00000000 </v>
   <v name="genvec3">      0.00000000       0.00000000       1.00000000 </v>
   <v name="shift">      0.00000000       0.00000000       0.00000000 </v>
  </generation>
  <varray name="kpointlist" >
   <v>       0.00000000       0.00000000       0.00000000 </v>
   <v>       0.12500000       0.00000000       0.00000000 </v>
   <v>       0.25000000       0.00000000       0.00000000 </v>
   <v>       0.37500000       0.00000000       0.00000000 </v>
   <v>       0.50000000       0.00000000       0.00000000 </v>
   <v>       0.00000000       0.12500000       0.00000000 </v>
   <v>       0.12500000       0.12500000       0.00000000 </v>
   <v>       0.25000000       0.12500000       0.00000000 </v>
   <v>       0.37500000       0.12500000       0.00000000 </v>
   <v>       0.50000000       0.12500000       0.00000000 </v>
   <v>      -0.37500000       0.12500000       0.00000000 </v>
   <v>      -0.25000000       0.12500000       0.00000000 </v>
   <v>      -0.12500000       0.12500000       0.00000000 </v>
   <v>       0.00000000       0.25000000       0.00000000 </v>
   <v>       0.12500000       0.25000000       0.00000000 </v>
   <v>       0.25000000       0.25000000       0.00000000 </v>
   <v>       0.37500000       0.25000000       0.00000000 </v>
   <v>       0.50000000       0.25000000       0.00000000 </v>
   <v>      -0.37500000       0.25000000       0.00000000 </v>
   <v>      -0.25000000       0.25000000       0.00000000 </v>
   <v>      -0.12500000       0.25000000       0.00000000 </v>
   <v>      -0.00000000       0.37500000       0.00000000 </v>
   <v>       0.12500000       0.37500000       0.00000000 </v>
   <v>       0.25000000       0.37500000       0.00000000 </v>
   <v>       0.37500000       0.37500000       0.00000000 </v>
   <v>       0.50000000       0.37500000       0.00000000 </v>
   <v>      -0.37500000       0.37500000       0.00000000 </v>
   <v>      -0.25000000       0.37500000       0.00000000 </v>
   <v>      -0.12500000       0.37500000       0.00000000 </v>
   <v>       0.00000000       0.50000000       0.00000000 </v>
   <v>       0.12500000       0.50000000       0.00000000 </v>
   <v>       0.25000000       0.50000000       0.00000000 </v>
   <v>       0.37500000       0.50000000       0.00000000 </v>
   <v>       0.50000000       0.50000000       0.00000000 </v>
  </varray>
  <varray name="weights" >
   <v>       0.01562500 </v>
   <v>       0.03125000 </v>
   <v>       0.03125000 </v>
   <v>       0.03125000 </v>
   <v>       0.01562500 </v>
   <v>       0.03125000 </v>
   <v>       0.03125000 </v>
   <v>       0.03125000 </v>
   <v>       0.03125000 </v>
   <v>       0.03125000 </v>
   <v>       0.03125000 </v>
   <v>       0.03125000 </v>
   <v>       0.03125000 </v>
   <v>       0.03125000 </v>
   <v>       0.03125000 </v>
   <v>       0.03125000 </v>
   <v>       0.03125000 </v>
   <v>       0.03125000 </v>
   <v>       0.03125000 </v>
   <v>       0.03125000 </v>
   <v>       0.03125000 </v>
   <v>       0.03125000 </v>
   <v>       0.03125000 </v>
   <v>       0.03125000 </v>
   <v>       0.03125000 </v>
   <v>       0.03125000 </v>
   <v>       0.03125000 </v>
   <v>       0.03125000 </v>
   <v>       0.03125000 </v>
   <v>       0.01562500 </v>
   <v>       0.03125000 </v>
   <v>       0.03125000 </v>
   <v>       0.03125000 </v>
   <v>       0.01562500 </v>
  </varray>
 </kpoints>
 <parameters>
  <separator name="general" >
   <i type="string" name="SYSTEM">unknown system</i>
   <i type="logical" name="LCOMPAT"> F  </i>
  </separator>
  <separator name="electronic" >
   <i type="string" name="PREC">normal</i>
   <i name="ENMAX">    280.00000000</i>
   <i name="ENAUG">    373.43800000</i>
   <i name="EDIFF">      0.00010000</i>
   <i type="int" name="IALGO">    38</i>
   <i type="int" name="IWAVPR">    11</i>
   <i type="int" name="NBANDS">   120</i>
   <i name="NELECT">    159.00000000</i>
   <i type="int" name="TURBO">     0</i>
   <i type="int" name="IRESTART">     0</i>
   <i type="int" name="NREBOOT">     0</i>
   <i type="int" name="NMIN">     0</i>
   <i name="EREF">      0.00000000</i>
   <separator name="electronic smearing" >
    <i type="int" name="ISMEAR">     0</i>
    <i name="SIGMA">      0.20000000</i>
    <i name="KSPACING">      0.50000000</i>
    <i type="logical" name="KGAMMA"> T  </i>
   </separator>
   <separator name="electronic projectors" >
    <i type="logical" name="LREAL"> F  </i>
    <v name="ROPT">      0.00000000      0.00000000      0.00000000      0.00000000</v>
    <i type="int" name="LMAXPAW">  -100</i>
    <i type="int" name="LMAXMIX">     2</i>
    <i type="logical" name="NLSPLINE"> F  </i>
   </separator>
   <separator name="electronic startup" >
    <i type="int" name="ISTART">     0</i>
    <i type="int" name="ICHARG">     2</i>
    <i type="int" name="INIWAV">     1</i>
   </separator>
   <separator name="electronic spin" >
    <i type="int" name="ISPIN">     1</i>
    <i type="logical" name="LNONCOLLINEAR"> F  </i>
    <v name="MAGMOM">      1.00000000      1.00000000      1.00000000      1.00000000      1.00000000      1.00000000      1.00000000      1.00000000      1.00000000      1.00000000      1.00000000      1.00000000      1.00000000      1.00000000      1.00000000      1.00000000      1.00000000      1.00000000      1.00000000      1.00000000
      1.00000000      1.00000000      1.00000000      1.00000000      1.00000000      1.00000000      1.00000000</v>
    <i name="NUPDOWN">     -1.00000000</i>
    <i type="logical" name="LSORBIT"> F  </i>
    <v name="SAXIS">      0.00000000      0.00000000      1.00000000</v>
    <i type="logical" name="LSPIRAL"> F  </i>
    <v name="QSPIRAL">      0.00000000      0.00000000      0.00000000</v>
    <i type="logical" name="LZEROZ"> F  </i>
   </separator>
   <separator name="electronic exchange-correlation" >
    <i type="logical" name="LASPH"> F  </i>
    <i type="logical" name="LMETAGGA"> F  </i>
   </separator>
   <separator name="electronic convergence" >
    <i type="int" name="NELM">    60</i>
    <i type="int" name="NELMDL">    -5</i>
    <i type="int" name="NELMIN">     2</i>
    <i name="ENINI">    280.00000000</i>
    <separator name="electronic convergence detail" >
     <i type="logical" name="LDIAG"> T  </i>
     <i type="logical" name="LSUBROT"> F  </i>
     <i name="WEIMIN">      0.00100000</i>
     <i name="EBREAK">      0.00000021</i>
     <i name="DEPER">      0.30000000</i>
     <i type="int" name="NRMM">     4</i>
     <i name="TIME">      0.40000000</i>
    </separator>
   </separator>
   <separator name="electronic mixer" >
    <i name="AMIX">      0.40000000</i>
    <i name="BMIX">      1.00000000</i>
    <i name="AMIN">      0.10000000</i>
    <i name="AMIX_MAG">      1.60000000</i>
    <i name="BMIX_MAG">      1.00000000</i>
    <separator name="electronic mixer details" >
     <i type="int" name="IMIX">     4</i>
     <i type="logical" name="MIXFIRST"> F  </i>
     <i type="int" name="MAXMIX">   -45</i>
     <i name="WC">    100.00000000</i>
     <i type="int" name="INIMIX">     1</i>
     <i type="int" name="MIXPRE">     1</i>
     <i type="int" name="MREMOVE">     5</i>
    </separator>
   </separator>
   <separator name="electronic dipolcorrection" >
    <i type="logical" name="LDIPOL"> F  </i>
    <i type="logical" name="LMONO"> F  </i>
    <i type="int" name="IDIPOL">     0</i>
    <i name="EPSILON">      1.00000000</i>
    <v name="DIPOL">   -100.00000000   -100.00000000   -100.00000000</v>
    <i name="EFIELD">      0.00000000</i>
   </separator>
  </separator>
  <separator name="grids" >
   <i type="int" name="NGX">    42</i>
   <i type="int" name="NGY">    42</i>
   <i type="int" name="NGZ">   126</i>
   <i type="int" name="NGXF">    84</i>
   <i type="int" name="NGYF">    84</i>
   <i type="int" name="NGZF">   252</i>
   <i type="logical" name="ADDGRID"> F  </i>
  </separator>
  <separator name="ionic" >
   <i type="int" name="NSW">   100</i>
   <i type="int" name="IBRION">     1</i>
   <i type="int" name="ISIF">     3</i>
   <i name="PSTRESS">      0.00000000</i>
   <i name="EDIFFG">      0.00100000</i>
   <i type="int" name="NFREE">     0</i>
   <i name="POTIM">      0.50000000</i>
   <i name="SMASS">     -3.00000000</i>
   <i name="SCALEE">      1.00000000</i>
  </separator>
  <separator name="ionic md" >
   <i name="TEBEG">      0.00010000</i>
   <i name="TEEND">      0.00010000</i>
   <i type="int" name="NBLOCK">     1</i>
   <i type="int" name="KBLOCK">   100</i>
   <i type="int" name="NPACO">   256</i>
   <i name="APACO">     16.00000000</i>
  </separator>
  <separator name="symmetry" >
   <i type="int" name="ISYM">     0</i>
   <i name="SYMPREC">      0.00000001</i>
  </separator>
  <separator name="dos" >
   <i type="logical" name="LORBIT"> F  </i>
   <v name="RWIGS">     -1.00000000     -1.00000000     -1.00000000     -1.00000000</v>
   <i type="int" name="NEDOS">   301</i>
   <i name="EMIN">     10.00000000</i>
   <i name="EMAX">    -10.00000000</i>
   <i name="EFERMI">      0.00000000</i>
  </separator>
  <separator name="writing" >
   <i type="int" name="NWRITE">     2</i>
   <i type="logical" name="LWAVE"> F  </i>
   <i type="logical" name="LCHARG"> F  </i>
   <i type="logical" name="LPARD"> F  </i>
   <i type="logical" name="LVTOT"> F  </i>
   <i type="logical" name="LVHAR"> F  </i>
   <i type="logical" name="LELF"> F  </i>
   <i type="logical" name="LOPTICS"> F  </i>
   <v name="STM">      0.00000000      0.00000000      0.00000000      0.00000000      0.00000000      0.00000000      0.00000000</v>
  </separator>
  <separator name="performance" >
   <i type="int" name="NPAR">    40</i>
   <i type="int" name="NSIM">     4</i>
   <i type="int" name="NBLK">    -1</i>
   <i type="logical" name="LPLANE"> F  </i>
   <i type="logical" name="LSCALAPACK"> T  </i>
   <i type="logical" name="LSCAAWARE"> F  </i>
   <i type="logical" name="LSCALU"> F  </i>
   <i type="logical" name="LASYNC"> F  </i>
   <i type="logical" name="LORBITALREAL"> F  </i>
  </separator>
  <separator name="miscellaneous" >
   <i type="int" name="IDIOT">     3</i>
   <i type="logical" name="LMUSIC"> F  </i>
   <v name="POMASS">     50.94100000     95.94000000    183.85000000     32.06600000</v>
   <v name="DARWINR">      0.00000000      0.00000000      0.00000000      0.00000000</v>
   <v name="DARWINV">      1.00000000      1.00000000      1.00000000      1.00000000</v>
   <i type="logical" name="LCORR"> T  </i>
  </separator>
  <i type="logical" name="GGA_COMPAT"> T  </i>
  <i type="logical" name="LBERRY"> F  </i>
  <i type="int" name="ICORELEVEL">     0</i>
  <i type="logical" name="LDAU"> F  </i>
  <i type="int" name="I_CONSTRAINED_M">     0</i>
  <separator name="electronic exchange-correlation" >
   <i type="string" name="GGA">--</i>
   <i type="int" name="VOSKOWN">     0</i>
   <i type="logical" name="LHFCALC"> F  </i>
   <i type="string" name="PRECFOCK"></i>
   <i type="logical" name="LSYMGRAD"> F  </i>
   <i type="logical" name="LHFONE"> F  </i>
   <i type="logical" name="LRHFCALC"> F  </i>
   <i type="logical" name="LTHOMAS"> F  </i>
   <i type="logical" name="LMODELHF"> F  </i>
   <i name="ENCUT4O">     -1.00000000</i>
   <i type="int" name="EXXOEP">     0</i>
   <i type="int" name="FOURORBIT">     0</i>
   <i name="AEXX">      0.00000000</i>
   <i name="HFALPHA">      0.00000000</i>
   <i name="MCALPHA">      0.00000000</i>
   <i name="ALDAX">      1.00000000</i>
   <i name="AGGAX">      1.00000000</i>
   <i name="ALDAC">      1.00000000</i>
   <i name="AGGAC">      1.00000000</i>
   <i type="int" name="NKREDX">     1</i>
   <i type="int" name="NKREDY">     1</i>
   <i type="int" name="NKREDZ">     1</i>
   <i type="logical" name="SHIFTRED"> F  </i>
   <i type="logical" name="ODDONLY"> F  </i>
   <i type="logical" name="EVENONLY"> F  </i>
   <i type="int" name="LMAXFOCK">     0</i>
   <i type="int" name="NMAXFOCKAE">     0</i>
   <i type="logical" name="LFOCKAEDFT"> F  </i>
   <i name="HFSCREEN">      0.00000000</i>
   <i name="HFSCREENC">      0.00000000</i>
   <i type="int" name="NBANDSGWLOW">     0</i>
  </separator>
  <separator name="vdW DFT" >
   <i type="logical" name="LUSE_VDW"> F  </i>
   <i name="Zab_VDW">     -0.84910000</i>
   <i name="PARAM1">      0.12340000</i>
   <i name="PARAM2">      1.00000000</i>
   <i name="PARAM3">      0.00000000</i>
  </separator>
  <separator name="model GW" >
   <i type="int" name="MODEL_GW">     0</i>
   <i name="MODEL_EPS0">     58.26239943</i>
   <i name="MODEL_ALPHA">      1.00000000</i>
  </separator>
  <separator name="linear response parameters" >
   <i type="logical" name="LEPSILON"> F  </i>
   <i type="logical" name="LRPA"> F  </i>
   <i type="logical" name="LNABLA"> F  </i>
   <i type="logical" name="LVEL"> F  </i>
   <i type="int" name="KINTER">     0</i>
   <i name="CSHIFT">      0.10000000</i>
   <i name="OMEGAMAX">     -1.00000000</i>
   <i name="DEG_THRESHOLD">      0.00200000</i>
  </separator>
  <separator name="orbital magnetization" >
   <i type="logical" name="NUCIND"> F  </i>
   <v name="MAGPOS">      0.00000000      0.00000000      0.00000000</v>
   <i type="logical" name="LNICSALL"> T  </i>
   <i type="logical" name="ORBITALMAG"> F  </i>
   <i type="logical" name="LMAGBLOCH"> F  </i>
   <i type="logical" name="LCHIMAG"> F  </i>
   <i type="logical" name="LGAUGE"> T  </i>
   <i type="int" name="MAGATOM">     0</i>
   <v name="MAGDIPOL">      0.00000000      0.00000000      0.00000000</v>
   <v name="AVECCONST">      0.00000000      0.00000000      0.00000000</v>
  </separator>
  <separator name="response functions" >
   <i type="logical" name="LADDER"> F  </i>
   <i type="logical" name="LFXC"> F  </i>
   <i type="logical" name="LHARTREE"> T  </i>
   <i type="int" name="IBSE">     0</i>
   <v type="int" name="KPOINT">    -1     0     0     0</v>
   <i type="logical" name="LTCTE"> F  </i>
   <i type="logical" name="LTETE"> F  </i>
   <i type="logical" name="LTRIPLET"> F  </i>
   <i type="logical" name="LFXCEPS"> F  </i>
   <i type="logical" name="LFXHEG"> F  </i>
   <i type="int" name="NATURALO">     0</i>
   <i type="logical" name="L2ORDER"> F  </i>
   <i type="logical" name="LUSEW"> F  </i>
   <i name="ENCUTGW">     -2.00000000</i>
   <i name="ENCUTGWSOFT">     -2.00000000</i>
   <i name="ENCUTLF">     -1.00000000</i>
   <i type="int" name="LMAXMP2">    -1</i>
   <i name="SCISSOR">      0.00000000</i>
   <i type="int" name="NOMEGA">     0</i>
   <i type="int" name="NOMEGAR">     0</i>
   <i type="int" name="NBANDSGW">    -1</i>
   <i type="int" name="NBANDSO">    -1</i>
   <i type="int" name="NBANDSV">    -1</i>
   <i type="int" name="NELM">     1</i>
   <i type="int" name="NELMHF">     1</i>
   <i type="int" name="DIM">     3</i>
   <i type="int" name="ANTIRES">     0</i>
   <i name="OMEGAMAX">    -30.00000000</i>
   <i name="OMEGAMIN">    -30.00000000</i>
   <i name="OMEGATL">   -200.00000000</i>
   <i type="int" name="OMEGAGRID">     0</i>
   <i name="CSHIFT">     -0.10000000</i>
   <i type="logical" name="SELFENERGY"> F  </i>
   <i type="logical" name="LSPECTRAL"> F  </i>
   <i type="logical" name="LSPECTRALGW"> F  </i>
   <i type="logical" name="LSINGLES"> F  </i>
   <i type="logical" name="LFERMIGW"> F  </i>
   <i type="logical" name="ODDONLYGW"> F  </i>
   <i type="logical" name="EVENONLYGW"> F  </i>
   <i type="int" name="NKREDLFX">     1</i>
   <i type="int" name="NKREDLFY">     1</i>
   <i type="int" name="NKREDLFZ">     1</i>
   <i type="int" name="MAXMEM">  1800</i>
   <i type="int" name="TELESCOPE">     0</i>
   <i type="int" name="TAUPAR">     1</i>
   <i type="int" name="OMEGAPAR">    -1</i>
   <i name="LAMBDA">      1.00000000</i>
  </separator>
  <separator name="External order field" >
   <i name="OFIELD_KAPPA">      0.00000000</i>
   <v name="OFIELD_K">      0.00000000      0.00000000      0.00000000</v>
   <i name="OFIELD_Q6_NEAR">      0.00000000</i>
   <i name="OFIELD_Q6_FAR">      0.00000000</i>
   <i name="OFIELD_A">      0.00000000</i>
  </separator>
 </parameters>
 <atominfo>
  <atoms>      27 </atoms>
  <types>       4 </types>
  <array name="atoms" >
   <dimension dim="1">ion</dimension>
   <field type="string">element</field>
   <field type="int">atomtype</field>
   <set>
    <rc><c>V </c><c>   1</c></rc>
    <rc><c>V </c><c>   1</c></rc>
    <rc><c>V </c><c>   1</c></rc>
    <rc><c>Mo</c><c>   2</c></rc>
    <rc><c>Mo</c><c>   2</c></rc>
    <rc><c>Mo</c><c>   2</c></rc>
    <rc><c>W </c><c>   3</c></rc>
    <rc><c>W </c><c>   3</c></rc>
    <rc><c>W </c><c>   3</c></rc>
    <rc><c>S </c><c>   4</c></rc>
    <rc><c>S </c><c>   4</c></rc>
    <rc><c>S </c><c>   4</c></rc>
    <rc><c>S </c><c>   4</c></rc>
    <rc><c>S </c><c>   4</c></rc>
    <rc><c>S </c><c>   4</c></rc>
    <rc><c>S </c><c>   4</c></rc>
    <rc><c>S </c><c>   4</c></rc>
    <rc><c>S </c><c>   4</c></rc>
    <rc><c>S </c><c>   4</c></rc>
    <rc><c>S </c><c>   4</c></rc>
    <rc><c>S </c><c>   4</c></rc>
    <rc><c>S </c><c>   4</c></rc>
    <rc><c>S </c><c>   4</c></rc>
    <rc><c>S </c><c>   4</c></rc>
    <rc><c>S </c><c>   4</c></rc>
    <rc><c>S </c><c>   4</c></rc>
    <rc><c>S </c><c>   4</c></rc>
   </set>
  </array>
  <array name="atomtypes" >
   <dimension dim="1">type</dimension>
   <field type="int">atomspertype</field>
   <field type="string">element</field>
   <field>mass</field>
   <field>valence</field>
   <field type="string">pseudopotential</field>
   <set>
    <rc><c>   3</c><c>V </c><c>     50.94100000</c><c>      5.00000000</c><c> PAW_PBE V 08Apr2002                    </c></rc>
    <rc><c>   3</c><c>Mo</c><c>     95.94000000</c><c>      6.00000000</c><c> PAW_PBE Mo 08Apr2002                   </c></rc>
    <rc><c>   3</c><c>W </c><c>    183.85000000</c><c>      6.00000000</c><c> PAW_PBE W 08Apr2002                    </c></rc>
    <rc><c>  18</c><c>S </c><c>     32.06600000</c><c>      6.00000000</c><c>  PAW_PBE S 17Jan2003                   </c></rc>
   </set>
  </array>
 </atominfo>
 <structure name="initialpos" >
  <crystal>
   <varray name="basis" >
    <v>       8.66999996       5.03999989       0.00000000 </v>
    <v>      -8.66999982       5.04000013       0.00000000 </v>
    <v>       0.00000000       0.00000000      30.00000000 </v>
   </varray>
   <i name="volume">   2621.80797419 </i>
   <varray name="rec_basis" >
    <v>       0.05767013       0.09920635       0.00000000 </v>
    <v>      -0.05767013       0.09920635       0.00000000 </v>
    <v>       0.00000000       0.00000000       0.03333333 </v>
   </varray>
  </crystal>
  <varray name="positions" >
   <v>       0.00000000       0.66666669       0.00000000 </v>
   <v>       0.66666669       0.66666669       0.00000000 </v>
   <v>       0.33333334       0.33333334       0.00000000 </v>
   <v>       0.33333334       0.00000000       0.00000000 </v>
   <v>       1.00000000       0.33333334       0.00000000 </v>
   <v>       0.33333334       0.66666669       0.00000000 </v>
   <v>       0.00000000       0.00000000       0.00000000 </v>
   <v>       0.66666669       0.00000000       0.00000000 </v>
   <v>       0.66666669       0.33333334       0.00000000 </v>
   <v>       0.11068511       0.22244981       0.95539999 </v>
   <v>       0.22244981       0.11068511       0.04460000 </v>
   <v>       0.11068511       0.55578315       0.95539999 </v>
   <v>       0.22244981       0.44401845       0.04460000 </v>
   <v>       0.11068511       0.88911647       0.95539999 </v>
   <v>       0.22244981       0.77735180       0.04460000 </v>
   <v>       0.44401845       0.22244981       0.95539999 </v>
   <v>       0.55578315       0.11068511       0.04460000 </v>
   <v>       0.44401845       0.55578315       0.95539999 </v>
   <v>       0.55578315       0.44401845       0.04460000 </v>
   <v>       0.44401845       0.88911647       0.95539999 </v>
   <v>       0.55578315       0.77735180       0.04460000 </v>
   <v>       0.77735180       0.22244981       0.95539999 </v>
   <v>       0.88911647       0.11068511       0.04460000 </v>
   <v>       0.77735180       0.55578315       0.95539999 </v>
   <v>       0.88911647       0.44401845       0.04460000 </v>
   <v>       0.77735180       0.88911647       0.95539999 </v>
   <v>       0.88911647       0.77735180       0.04460000 </v>
  </varray>
 </structure>
 <calculation>
  <scstep>
   <time name="dav">   22.88   22.93</time>
   <time name="total">   22.93   22.99</time>
   <energy>
    <i name="alphaZ">     81.65567618 </i>
    <i name="ewald">  41890.23010383 </i>
    <i name="hartreedc"> -47722.86556757 </i>
    <i name="XCdc">   -242.92862452 </i>
    <i name="pawpsdc">   3467.42045192 </i>
    <i name="pawaedc">  -2871.19716117 </i>
    <i name="eentropy">     -0.51809529 </i>
    <i name="bandstr">   -239.73240130 </i>
    <i name="atom">   6761.44252427 </i>
    <i name="e_fr_energy">   1123.50690634 </i>
    <i name="e_wo_entrp">   1124.02500163 </i>
    <i name="e_0_energy">   1123.76595398 </i>
   </energy>
  </scstep>
  <scstep>
   <time name="dav">   29.50   29.57</time>
   <time name="total">   29.50   29.58</time>
   <energy>
    <i name="e_fr_energy">     -3.68543053 </i>
    <i name="e_wo_entrp">     -3.49005989 </i>
    <i name="e_0_energy">     -3.58774521 </i>
   </energy>
  </scstep>
  <scstep>
   <time name="dav">   29.04   29.11</time>
   <time name="total">   29.05   29.12</time>
   <energy>
    <i name="e_fr_energy">   -199.97575562 </i>
    <i name="e_wo_entrp">   -199.72045701 </i>
    <i name="e_0_energy">   -199.84810632 </i>
   </energy>
  </scstep>
  <scstep>
   <time name="dav">   31.11   31.18</time>
   <time name="total">   31.11   31.19</time>
   <energy>
    <i name="e_fr_energy">   -208.96734981 </i>
    <i name="e_wo_entrp">   -208.68328741 </i>
    <i name="e_0_energy">   -208.82531861 </i>
   </energy>
  </scstep>
  <scstep>
   <time name="dav">   30.62   30.69</time>
   <time name="total">   31.08   31.16</time>
   <energy>
    <i name="e_fr_energy">   -209.31261611 </i>
    <i name="e_wo_entrp">   -209.03192689 </i>
    <i name="e_0_energy">   -209.17227150 </i>
   </energy>
  </scstep>
  <scstep>
   <time name="dav">   32.38   32.46</time>
   <time name="total">   32.88   32.97</time>
   <energy>
    <i name="e_fr_energy">   -237.22163016 </i>
    <i name="e_wo_entrp">   -236.94589908 </i>
    <i name="e_0_energy">   -237.08376462 </i>
   </energy>
  </scstep>
  <scstep>
   <time name="dav">   33.97   34.06</time>
   <time name="total">   34.57   34.66</time>
   <energy>
    <i name="e_fr_energy">   -196.47106035 </i>
    <i name="e_wo_entrp">   -196.14063194 </i>
    <i name="e_0_energy">   -196.30584615 </i>
   </energy>
  </scstep>
  <scstep>
   <time name="dav">   31.02   31.10</time>
   <time name="total">   31.62   31.71</time>
   <energy>
    <i name="e_fr_energy">   -189.42499823 </i>
    <i name="e_wo_entrp">   -189.13337257 </i>
    <i name="e_0_energy">   -189.27918540 </i>
   </energy>
  </scstep>
  <scstep>
   <time name="dav">   32.16   32.24</time>
   <time name="total">   32.77   32.86</time>
   <energy>
    <i name="e_fr_energy">   -188.22859184 </i>
    <i name="e_wo_entrp">   -187.90860715 </i>
    <i name="e_0_energy">   -188.06859949 </i>
   </energy>
  </scstep>
  <scstep>
   <time name="dav">   33.86   33.94</time>
   <time name="total">   34.47   34.56</time>
   <energy>
    <i name="e_fr_energy">   -187.07924720 </i>
    <i name="e_wo_entrp">   -186.73225357 </i>
    <i name="e_0_energy">   -186.90575039 </i>
   </energy>
  </scstep>
  <scstep>
   <time name="dav">   34.60   34.68</time>
   <time name="total">   35.21   35.31</time>
   <energy>
    <i name="e_fr_energy">   -187.02966619 </i>
    <i name="e_wo_entrp">   -186.68166931 </i>
    <i name="e_0_energy">   -186.85566775 </i>
   </energy>
  </scstep>
  <scstep>
   <time name="dav">   32.65   32.72</time>
   <time name="total">   33.26   33.35</time>
   <energy>
    <i name="e_fr_energy">   -187.17336457 </i>
    <i name="e_wo_entrp">   -186.83499224 </i>
    <i name="e_0_energy">   -187.00417841 </i>
   </energy>
  </scstep>
  <scstep>
   <time name="dav">   33.79   33.87</time>
   <time name="total">   34.40   34.49</time>
   <energy>
    <i name="e_fr_energy">   -186.92705694 </i>
    <i name="e_wo_entrp">   -186.59249003 </i>
    <i name="e_0_energy">   -186.75977348 </i>
   </energy>
  </scstep>
  <scstep>
   <time name="dav">   34.32   34.40</time>
   <time name="total">   34.93   35.02</time>
   <energy>
    <i name="e_fr_energy">   -186.87970975 </i>
    <i name="e_wo_entrp">   -186.53597224 </i>
    <i name="e_0_energy">   -186.70784100 </i>
   </energy>
  </scstep>
  <scstep>
   <time name="dav">   31.72   31.80</time>
   <time name="total">   32.34   32.42</time>
   <energy>
    <i name="e_fr_energy">   -186.88164052 </i>
    <i name="e_wo_entrp">   -186.53667386 </i>
    <i name="e_0_energy">   -186.70915719 </i>
   </energy>
  </scstep>
  <scstep>
   <time name="dav">   33.71   33.79</time>
   <time name="total">   34.32   34.41</time>
   <energy>
    <i name="e_fr_energy">   -186.87261680 </i>
    <i name="e_wo_entrp">   -186.52713982 </i>
    <i name="e_0_energy">   -186.69987831 </i>
   </energy>
  </scstep>
  <scstep>
   <time name="dav">   32.83   32.91</time>
   <time name="total">   33.45   33.54</time>
   <energy>
    <i name="e_fr_energy">   -186.86927831 </i>
    <i name="e_wo_entrp">   -186.52624096 </i>
    <i name="e_0_energy">   -186.69775963 </i>
   </energy>
  </scstep>
  <scstep>
   <time name="dav">   31.05   31.13</time>
   <time name="total">   31.67   31.75</time>
   <energy>
    <i name="e_fr_energy">   -186.86908861 </i>
    <i name="e_wo_entrp">   -186.52564032 </i>
    <i name="e_0_energy">   -186.69736446 </i>
   </energy>
  </scstep>
  <scstep>
   <time name="dav">   29.57   29.64</time>
   <time name="total">   30.19   30.27</time>
   <energy>
    <i name="e_fr_energy">   -186.86873756 </i>
    <i name="e_wo_entrp">   -186.52515033 </i>
    <i name="e_0_energy">   -186.69694394 </i>
   </energy>
  </scstep>
  <scstep>
   <time name="dav">   24.87   24.93</time>
   <time name="total">   25.48   25.55</time>
   <energy>
    <i name="e_fr_energy">   -186.86950425 </i>
    <i name="e_wo_entrp">   -186.52618432 </i>
    <i name="e_0_energy">   -186.69784429 </i>
   </energy>
  </scstep>
  <scstep>
   <time name="dav">   23.02   23.07</time>
   <time name="total">   23.63   23.70</time>
   <energy>
    <i name="e_fr_energy">   -186.87010843 </i>
    <i name="e_wo_entrp">   -186.52676064 </i>
    <i name="e_0_energy">   -186.69843453 </i>
   </energy>
  </scstep>
  <scstep>
   <time name="dav">   21.49   21.54</time>
   <time name="total">   22.10   22.16</time>
   <energy>
    <i name="e_fr_energy">   -186.87122001 </i>
    <i name="e_wo_entrp">   -186.52784289 </i>
    <i name="e_0_energy">   -186.69953145 </i>
   </energy>
  </scstep>
  <scstep>
   <time name="dav">   21.50   21.56</time>
   <time name="total">   22.12   22.18</time>
   <energy>
    <i name="e_fr_energy">   -186.87244644 </i>
    <i name="e_wo_entrp">   -186.52915290 </i>
    <i name="e_0_energy">   -186.70079967 </i>
   </energy>
  </scstep>
  <scstep>
   <time name="dav">   20.03   20.08</time>
   <time name="total">   20.64   20.70</time>
   <energy>
    <i name="e_fr_energy">   -186.87303206 </i>
    <i name="e_wo_entrp">   -186.52970977 </i>
    <i name="e_0_energy">   -186.70137091 </i>
   </energy>
  </scstep>
  <scstep>
   <time name="dav">   17.26   17.30</time>
   <time name="total">   17.88   17.93</time>
   <energy>
    <i name="e_fr_energy">   -186.87341127 </i>
    <i name="e_wo_entrp">   -186.53005191 </i>
    <i name="e_0_energy">   -186.70173159 </i>
   </energy>
  </scstep>
  <scstep>
   <time name="dav">   20.11   20.16</time>
   <time name="total">   20.73   20.78</time>
   <energy>
    <i name="e_fr_energy">   -186.87362961 </i>
    <i name="e_wo_entrp">   -186.53028453 </i>
    <i name="e_0_energy">   -186.70195707 </i>
   </energy>
  </scstep>
  <scstep>
   <time name="dav">   20.32   20.37</time>
   <time name="total">   20.95   21.00</time>
   <energy>
    <i name="e_fr_energy">   -186.87373348 </i>
    <i name="e_wo_entrp">   -186.53039281 </i>
    <i name="e_0_energy">   -186.70206315 </i>
   </energy>
  </scstep>
  <scstep>
   <time name="dav">   21.12   21.17</time>
   <time name="total">   21.16   21.22</time>
   <energy>
    <i name="alphaZ">     81.65567618 </i>
    <i name="ewald">  41890.23010383 </i>
    <i name="hartreedc"> -47833.03453324 </i>
    <i name="XCdc">   -231.60127579 </i>
    <i name="pawpsdc">   4192.08576127 </i>
    <i name="pawaedc">  -3610.10359310 </i>
    <i name="eentropy">     -0.34334096 </i>
    <i name="bandstr">  -1437.20510605 </i>
    <i name="atom">   6761.44252427 </i>
    <i name="e_fr_energy">   -186.87378360 </i>
    <i name="e_wo_entrp">   -186.53044264 </i>
    <i name="e_0_energy">   -186.70211312 </i>
   </energy>
  </scstep>
  <structure>
   <crystal>
    <varray name="basis" >
     <v>       8.66999996       5.03999989       0.00000000 </v>
     <v>      -8.66999982       5.04000013       0.00000000 </v>
     <v>       0.00000000       0.00000000      30.00000000 </v>
    </varray>
    <i name="volume">   2621.80797419 </i>
    <varray name="rec_basis" >
     <v>       0.05767013       0.09920635       0.00000000 </v>
     <v>      -0.05767013       0.09920635       0.00000000 </v>
     <v>       0.00000000       0.00000000       0.03333333 </v>
    </varray>
   </crystal>
   <varray name="positions" >
    <v>       0.00000000       0.66666669       0.00000000 </v>
    <v>       0.66666669       0.66666669       0.00000000 </v>
    <v>       0.33333334       0.33333334       0.00000000 </v>
    <v>       0.33333334       0.00000000       0.00000000 </v>
    <v>       1.00000000       0.33333334       0.00000000 </v>
    <v>       0.33333334       0.66666669       0.00000000 </v>
    <v>       0.00000000       0.00000000       0.00000000 </v>
    <v>       0.66666669       0.00000000       0.00000000 </v>
    <v>       0.66666669       0.33333334       0.00000000 </v>
    <v>       0.11068511       0.22244981       0.95539999 </v>
    <v>       0.22244981       0.11068511       0.04460000 </v>
    <v>       0.11068511       0.55578315       0.95539999 </v>
    <v>       0.22244981       0.44401845       0.04460000 </v>
    <v>       0.11068511       0.88911647       0.95539999 </v>
    <v>       0.22244981       0.77735180       0.04460000 </v>
    <v>       0.44401845       0.22244981       0.95539999 </v>
    <v>       0.55578315       0.11068511       0.04460000 </v>
    <v>       0.44401845       0.55578315       0.95539999 </v>
    <v>       0.55578315       0.44401845       0.04460000 </v>
    <v>       0.44401845       0.88911647       0.95539999 </v>
    <v>       0.55578315       0.77735180       0.04460000 </v>
    <v>       0.77735180       0.22244981       0.95539999 </v>
    <v>       0.88911647       0.11068511       0.04460000 </v>
    <v>       0.77735180       0.55578315       0.95539999 </v>
    <v>       0.88911647       0.44401845       0.04460000 </v>
    <v>       0.77735180       0.88911647       0.95539999 </v>
    <v>       0.88911647       0.77735180       0.04460000 </v>
   </varray>
  </structure>
  <varray name="forces" >
   <v>       0.36508531       0.19904418       0.10415128 </v>
   <v>      -0.14064353      -0.14495445      -0.01462863 </v>
   <v>      -0.23314436      -0.05447776      -0.11879680 </v>
   <v>       0.26486206      -0.12134320       0.10080622 </v>
   <v>      -0.00496233       0.27061906      -0.07665939 </v>
   <v>      -0.21570741      -0.16567703      -0.02233341 </v>
   <v>       0.10587030       0.27465207       0.04916617 </v>
   <v>      -0.27178690      -0.20672671       0.01904357 </v>
   <v>       0.12857469      -0.07225177      -0.02351168 </v>
   <v>       0.61461278       0.57469041      -2.20841385 </v>
   <v>      -0.60160896       0.53669542       2.14786881 </v>
   <v>      -0.73200955      -0.00648333      -2.13617832 </v>
   <v>       0.74361064       0.01465116       2.11223063 </v>
   <v>       0.35782347      -0.70698062      -2.14163521 </v>
   <v>      -0.54861851      -0.71244183       2.19744109 </v>
   <v>      -0.69053694       0.16149996      -2.09122438 </v>
   <v>      -0.05046835       0.11394156       2.95832801 </v>
   <v>       0.91412097      -0.02206789      -1.46265504 </v>
   <v>      -0.74232538      -0.00268583       1.45574417 </v>
   <v>       0.23052057       0.16368820      -2.89561749 </v>
   <v>       0.65777863       0.16625801       2.10154261 </v>
   <v>       0.07999224      -0.11900724      -2.92830024 </v>
   <v>      -0.05888260      -0.15347800       2.85136976 </v>
   <v>      -0.23707775       0.51614072      -1.39210456 </v>
   <v>      -0.64015336       0.57542835       2.15874638 </v>
   <v>       0.45422019      -0.56213832      -2.15397189 </v>
   <v>       0.25085409      -0.51659511       1.40959219 </v>
  </varray>
  <varray name="stress" >
   <v>       7.43251783       0.00215537      -1.61709876 </v>
   <v>       0.00215524       4.30859667       0.01840657 </v>
   <v>      -1.61709865       0.01840673      30.31161251 </v>
  </varray>
  <energy>
   <i name="e_fr_energy">   -186.87378360 </i>
   <i name="e_wo_entrp">   -186.70211312 </i>
   <i name="e_0_energy">     -0.34334096 </i>
  </energy>
  <time name="totalsc">  847.96  850.21</time>
 </calculation>
 <calculation>
  <scstep>
   <time name="dav">   22.82   22.87</time>
   <time name="total">   23.44   23.50</time>
   <energy>
    <i name="alphaZ">     78.92462859 </i>
    <i name="ewald">  39381.34648619 </i>
    <i name="hartreedc"> -45338.90982327 </i>
    <i name="XCdc">   -239.05453137 </i>
    <i name="pawpsdc">   4192.08574975 </i>
    <i name="pawaedc">  -3610.10359906 </i>
    <i name="eentropy">     -0.27942311 </i>
    <i name="bandstr">  -1412.95123996 </i>
    <i name="atom">   6761.44252427 </i>
    <i name="e_fr_energy">   -187.49922795 </i>
    <i name="e_wo_entrp">   -187.21980484 </i>
    <i name="e_0_energy">   -187.35951640 </i>
   </energy>
  </scstep>
  <scstep>
   <time name="dav">   31.75   31.82</time>
   <time name="total">   32.37   32.45</time>
   <energy>
    <i name="e_fr_energy">   -189.50038326 </i>
    <i name="e_wo_entrp">   -189.16660622 </i>
    <i name="e_0_energy">   -189.33349474 </i>
   </energy>
  </scstep>
  <scstep>
   <time name="dav">   32.06   32.14</time>
   <time name="total">   32.69   32.78</time>
   <energy>
    <i name="e_fr_energy">   -189.34057745 </i>
    <i name="e_wo_entrp">   -189.07694627 </i>
    <i name="e_0_energy">   -189.20876186 </i>
   </energy>
  </scstep>
  <scstep>
   <time name="dav">   30.88   30.95</time>
   <time name="total">   31.49   31.58</time>
   <energy>
    <i name="e_fr_energy">   -188.76738189 </i>
    <i name="e_wo_entrp">   -188.48483036 </i>
    <i name="e_0_energy">   -188.62610613 </i>
   </energy>
  </scstep>
  <scstep>
   <time name="dav">   31.46   31.54</time>
   <time name="total">   32.08   32.17</time>
   <energy>
    <i name="e_fr_energy">   -188.89981108 </i>
    <i name="e_wo_entrp">   -188.61315772 </i>
    <i name="e_0_energy">   -188.75648440 </i>
   </energy>
  </scstep>
  <scstep>
   <time name="dav">   32.65   32.73</time>
   <time name="total">   33.27   33.36</time>
   <energy>
    <i name="e_fr_energy">   -188.74260347 </i>
    <i name="e_wo_entrp">   -188.45877952 </i>
    <i name="e_0_energy">   -188.60069150 </i>
   </energy>
  </scstep>
  <scstep>
   <time name="dav">   30.60   30.68</time>
   <time name="total">   31.23   31.31</time>
   <energy>
    <i name="e_fr_energy">   -188.71209338 </i>
    <i name="e_wo_entrp">   -188.42718661 </i>
    <i name="e_0_energy">   -188.56963999 </i>
   </energy>
  </scstep>
  <scstep>
   <time name="dav">   33.12   33.20</time>
   <time name="total">   33.74   33.83</time>
   <energy>
    <i name="e_fr_energy">   -188.69559367 </i>
    <i name="e_wo_entrp">   -188.41505083 </i>
    <i name="e_0_energy">   -188.55532225 </i>
   </energy>
  </scstep>
  <scstep>
   <time name="dav">   31.17   31.25</time>
   <time name="total">   31.80   31.89</time>
   <energy>
    <i name="e_fr_energy">   -188.67040200 </i>
    <i name="e_wo_entrp">   -188.38868735 </i>
    <i name="e_0_energy">   -188.52954467 </i>
   </energy>
  </scstep>
  <scstep>
   <time name="dav">   29.31   29.38</time>
   <time name="total">   29.93   30.01</time>
   <energy>
    <i name="e_fr_energy">   -188.66872607 </i>
    <i name="e_wo_entrp">   -188.38842228 </i>
    <i name="e_0_energy">   -188.52857417 </i>
   </energy>
  </scstep>
  <scstep>
   <time name="dav">   33.67   33.75</time>
   <time name="total">   34.30   34.39</time>
   <energy>
    <i name="e_fr_energy">   -188.66817406 </i>
    <i name="e_wo_entrp">   -188.38860887 </i>
    <i name="e_0_energy">   -188.52839146 </i>
   </energy>
  </scstep>
  <scstep>
   <time name="dav">   30.74   30.82</time>
   <time name="total">   31.37   31.66</time>
   <energy>
    <i name="e_fr_energy">   -188.66811172 </i>
    <i name="e_wo_entrp">   -188.38871485 </i>
    <i name="e_0_energy">   -188.52841329 </i>
   </energy>
  </scstep>
  <scstep>
   <time name="dav">   21.77   21.82</time>
   <time name="total">   21.81   21.87</time>
   <energy>
    <i name="alphaZ">     78.92462859 </i>
    <i name="ewald">  39381.34648619 </i>
    <i name="hartreedc"> -45349.61982409 </i>
    <i name="XCdc">   -237.97298031 </i>
    <i name="pawpsdc">   3950.53741022 </i>
    <i name="pawaedc">  -3365.05041828 </i>
    <i name="eentropy">     -0.27973077 </i>
    <i name="bandstr">  -1407.99618820 </i>
    <i name="atom">   6761.44252427 </i>
    <i name="e_fr_energy">   -188.66809239 </i>
    <i name="e_wo_entrp">   -188.38836162 </i>
    <i name="e_0_energy">   -188.52822700 </i>
   </energy>
  </scstep>
  <structure>
   <crystal>
    <varray name="basis" >
     <v>       8.85844555       5.10354728       0.00000000 </v>
     <v>      -8.85838189       5.10343824       0.00000000 </v>
     <v>       0.00000000       0.00000000      30.00000000 </v>
    </varray>
    <i name="volume">   2712.53101537 </i>
    <varray name="rec_basis" >
     <v>       0.05644291       0.09797177       0.00000000 </v>
     <v>      -0.05644412       0.09797247       0.00000000 </v>
     <v>       0.00000000       0.00000000       0.03333333 </v>
    </varray>
   </crystal>
   <varray name="positions" >
    <v>       0.00196835       0.66660358       0.00016748 </v>
    <v>       0.66558165       0.66636423      -0.00002352 </v>
    <v>       0.33242397       0.33372126      -0.00019104 </v>
    <v>       0.33348949      -0.00131763       0.00016211 </v>
    <v>       1.00128137       0.33464233      -0.00012328 </v>
    <v>       0.33194028       0.66647389      -0.00003591 </v>
    <v>       0.00160903       0.00101993       0.00007906 </v>
    <v>       0.66492114      -0.00023323       0.00003062 </v>
    <v>       0.66667861       0.33262983      -0.00003781 </v>
    <v>       0.11514552       0.22349031       0.95184867 </v>
    <v>       0.22334465       0.11492749       0.04805396 </v>
    <v>       0.10861751       0.55778869       0.95196483 </v>
    <v>       0.22458877       0.44201973       0.04799665 </v>
    <v>       0.10829704       0.88473735       0.95195605 </v>
    <v>       0.21751373       0.77546841       0.04813368 </v>
    <v>       0.44287020       0.22514393       0.95203712 </v>
    <v>       0.55618806       0.11137084       0.04935725 </v>
    <v>       0.44645607       0.55313431       0.95304791 </v>
    <v>       0.55370503       0.44607087       0.04694096 </v>
    <v>       0.44544321       0.88925853       0.95074358 </v>
    <v>       0.55840891       0.77631746       0.04797947 </v>
    <v>       0.77700478       0.22165769       0.95069102 </v>
    <v>       0.88821810       0.11011439       0.04918525 </v>
    <v>       0.77916245       0.55891298       0.95316136 </v>
    <v>       0.89008944       0.44855345       0.04807145 </v>
    <v>       0.77592513       0.88516237       0.95193621 </v>
    <v>       0.88734197       0.77418147       0.04686675 </v>
   </varray>
  </structure>
  <varray name="forces" >
   <v>       0.32210327       0.21150775       0.03050837 </v>
   <v>      -0.13311575      -0.08430046      -0.01710155 </v>
   <v>      -0.24548291      -0.11252835      -0.04123879 </v>
   <v>       0.40924136      -0.00451350      -0.03633513 </v>
   <v>       0.03477957       0.12557915       0.04213074 </v>
   <v>      -0.31048461      -0.06273320       0.00494931 </v>
   <v>      -0.02660905       0.27834523       0.08585932 </v>
   <v>      -0.43129694      -0.11827649       0.00559871 </v>
   <v>       0.37318894      -0.22927400      -0.09927260 </v>
   <v>       0.08942785      -0.02640342      -0.09652055 </v>
   <v>      -0.07651201      -0.04462927      -0.03227721 </v>
   <v>      -0.07214434       0.00008555      -0.16490053 </v>
   <v>       0.06109191       0.01506746       0.05403014 </v>
   <v>      -0.10833893      -0.06530791       0.07333648 </v>
   <v>      -0.02845454      -0.09211843       0.19754102 </v>
   <v>       0.02740117       0.10942145       0.09294130 </v>
   <v>       0.07398409       0.09180991       0.14256757 </v>
   <v>       0.02919899      -0.01257995       0.06088080 </v>
   <v>       0.10204489      -0.00445444      -0.17962770 </v>
   <v>       0.05507663       0.09753455      -0.14596569 </v>
   <v>      -0.02005041       0.08970935      -0.02454107 </v>
   <v>      -0.06617744      -0.09752604      -0.02524331 </v>
   <v>       0.07471099      -0.10371467      -0.11169793 </v>
   <v>       0.06625823      -0.06999269       0.22880941 </v>
   <v>      -0.09472453      -0.03820687      -0.02214123 </v>
   <v>      -0.05410592       0.07032605       0.16852311 </v>
   <v>      -0.05101053       0.07717325      -0.19081302 </v>
  </varray>
  <varray name="stress" >
   <v>     -19.94128596       0.01048537       0.06869239 </v>
   <v>       0.01048541     -19.46686887      -0.01178889 </v>
   <v>       0.06869245      -0.01178884      -1.73858011 </v>
  </varray>
  <energy>
   <i name="e_fr_energy">   -188.66809239 </i>
   <i name="e_wo_entrp">   -188.52822700 </i>
   <i name="e_0_energy">     -0.27973077 </i>
  </energy>
  <time name="totalsc">  443.11  444.49</time>
 </calculation>
 <calculation>
  <scstep>
   <time name="dav">   25.02   25.08</time>
   <time name="total">   25.64   25.70</time>
   <energy>
    <i name="alphaZ">     82.35844742 </i>
    <i name="ewald">  41309.99527625 </i>
    <i name="hartreedc"> -47308.95015536 </i>
    <i name="XCdc">   -233.83838132 </i>
    <i name="pawpsdc">   3950.05757352 </i>
    <i name="pawaedc">  -3364.56585745 </i>
    <i name="eentropy">     -0.23298373 </i>
    <i name="bandstr">  -1386.85694787 </i>
    <i name="atom">   6761.44252427 </i>
    <i name="e_fr_energy">   -190.59050426 </i>
    <i name="e_wo_entrp">   -190.35752053 </i>
    <i name="e_0_energy">   -190.47401239 </i>
   </energy>
  </scstep>
  <scstep>
   <time name="dav">   29.33   29.40</time>
   <time name="total">   29.94   30.02</time>
   <energy>
    <i name="e_fr_energy">   -190.57311465 </i>
    <i name="e_wo_entrp">   -190.34512587 </i>
    <i name="e_0_energy">   -190.45912026 </i>
   </energy>
  </scstep>
  <scstep>
   <time name="dav">   31.64   31.72</time>
   <time name="total">   32.25   32.34</time>
   <energy>
    <i name="e_fr_energy">   -190.06242673 </i>
    <i name="e_wo_entrp">   -189.81382975 </i>
    <i name="e_0_energy">   -189.93812824 </i>
   </energy>
  </scstep>
  <scstep>
   <time name="dav">   32.74   32.82</time>
   <time name="total">   33.36   33.45</time>
   <energy>
    <i name="e_fr_energy">   -189.85619816 </i>
    <i name="e_wo_entrp">   -189.62779970 </i>
    <i name="e_0_energy">   -189.74199893 </i>
   </energy>
  </scstep>
  <scstep>
   <time name="dav">   29.06   29.14</time>
   <time name="total">   29.67   29.76</time>
   <energy>
    <i name="e_fr_energy">   -189.79230787 </i>
    <i name="e_wo_entrp">   -189.54972354 </i>
    <i name="e_0_energy">   -189.67101571 </i>
   </energy>
  </scstep>
  <scstep>
   <time name="dav">   32.67   32.75</time>
   <time name="total">   33.29   33.38</time>
   <energy>
    <i name="e_fr_energy">   -189.75977072 </i>
    <i name="e_wo_entrp">   -189.52723214 </i>
    <i name="e_0_energy">   -189.64350143 </i>
   </energy>
  </scstep>
  <scstep>
   <time name="dav">   32.20   32.28</time>
   <time name="total">   32.81   32.90</time>
   <energy>
    <i name="e_fr_energy">   -189.75232550 </i>
    <i name="e_wo_entrp">   -189.51765850 </i>
    <i name="e_0_energy">   -189.63499200 </i>
   </energy>
  </scstep>
  <scstep>
   <time name="dav">   27.33   27.39</time>
   <time name="total">   27.94   28.02</time>
   <energy>
    <i name="e_fr_energy">   -189.75234144 </i>
    <i name="e_wo_entrp">   -189.51788409 </i>
    <i name="e_0_energy">   -189.63511276 </i>
   </energy>
  </scstep>
  <scstep>
   <time name="dav">   27.73   27.80</time>
   <time name="total">   28.35   28.42</time>
   <energy>
    <i name="e_fr_energy">   -189.75255984 </i>
    <i name="e_wo_entrp">   -189.51801208 </i>
    <i name="e_0_energy">   -189.63528596 </i>
   </energy>
  </scstep>
  <scstep>
   <time name="dav">   24.69   24.74</time>
   <time name="total">   25.30   25.37</time>
   <energy>
    <i name="e_fr_energy">   -189.75243064 </i>
    <i name="e_wo_entrp">   -189.51770256 </i>
    <i name="e_0_energy">   -189.63506660 </i>
   </energy>
  </scstep>
  <scstep>
   <time name="dav">   20.52   20.57</time>
   <time name="total">   20.56   20.61</time>
   <energy>
    <i name="alphaZ">     82.35844742 </i>
    <i name="ewald">  41309.99527625 </i>
    <i name="hartreedc"> -47282.17888462 </i>
    <i name="XCdc">   -235.23571871 </i>
    <i name="pawpsdc">   4038.73749088 </i>
    <i name="pawaedc">  -3454.44539531 </i>
    <i name="eentropy">     -0.23466447 </i>
    <i name="bandstr">  -1410.19152333 </i>
    <i name="atom">   6761.44252427 </i>
    <i name="e_fr_energy">   -189.75244761 </i>
    <i name="e_wo_entrp">   -189.51778314 </i>
    <i name="e_0_energy">   -189.63511537 </i>
   </energy>
  </scstep>
  <structure>
   <crystal>
    <varray name="basis" >
     <v>       8.66961996       4.99741591       0.00000000 </v>
     <v>      -8.66944322       4.99711051       0.00000000 </v>
     <v>       0.00000000       0.00000000      30.00000000 </v>
    </varray>
    <i name="volume">   2599.43587612 </i>
    <varray name="rec_basis" >
     <v>       0.05767148       0.10005375       0.00000000 </v>
     <v>      -0.05767501       0.10005579       0.00000000 </v>
     <v>       0.00000000       0.00000000       0.03333333 </v>
    </varray>
   </crystal>
   <varray name="positions" >
    <v>       0.00263172       0.66664691       0.00018483 </v>
    <v>       0.66531269       0.66635152      -0.00003324 </v>
    <v>       0.33199970       0.33376954      -0.00021448 </v>
    <v>       0.33387583      -0.00171907       0.00014145 </v>
    <v>       1.00152464       0.33481865      -0.00009933 </v>
    <v>       0.33153665       0.66666793      -0.00003310 </v>
    <v>       0.00204843       0.00151056       0.00012787 </v>
    <v>       0.66430843      -0.00001571       0.00003381 </v>
    <v>       0.66665476       0.33188760      -0.00009424 </v>
    <v>       0.11518748       0.22336013       0.95179380 </v>
    <v>       0.22319645       0.11492658       0.04803562 </v>
    <v>       0.10854822       0.55785827       0.95187110 </v>
    <v>       0.22467275       0.44198610       0.04802736 </v>
    <v>       0.10808366       0.88473252       0.95199774 </v>
    <v>       0.21733245       0.77534190       0.04824596 </v>
    <v>       0.44307938       0.22530036       0.95208994 </v>
    <v>       0.55641265       0.11145302       0.04943829 </v>
    <v>       0.44646315       0.55308518       0.95308252 </v>
    <v>       0.55379580       0.44596521       0.04683886 </v>
    <v>       0.44565916       0.88936846       0.95066061 </v>
    <v>       0.55853948       0.77648663       0.04796552 </v>
    <v>       0.77677816       0.22155846       0.95067668 </v>
    <v>       0.88811674       0.10986921       0.04912176 </v>
    <v>       0.77910929       0.55873227       0.95329142 </v>
    <v>       0.88993444       0.44858079       0.04805887 </v>
    <v>       0.77599054       0.88533194       0.95203200 </v>
    <v>       0.88742180       0.77435949       0.04675829 </v>
   </varray>
  </structure>
  <varray name="forces" >
   <v>       0.32504466       0.21377812       0.00520210 </v>
   <v>      -0.14714277      -0.05641040      -0.01239162 </v>
   <v>      -0.25994554      -0.15957977      -0.01287867 </v>
   <v>       0.46272086       0.04566247      -0.05121484 </v>
   <v>       0.05483083       0.06838660       0.05263915 </v>
   <v>      -0.33445094      -0.02331412       0.01140780 </v>
   <v>      -0.08305527       0.27732015       0.06805384 </v>
   <v>      -0.48290608      -0.08613538       0.00276259 </v>
   <v>       0.45297495      -0.28582450      -0.08532603 </v>
   <v>       0.08177862       0.10553238      -0.61755971 </v>
   <v>      -0.05677309       0.10616376       0.46367359 </v>
   <v>      -0.14529063       0.00056806      -0.66450859 </v>
   <v>       0.13309743       0.02716193       0.54074987 </v>
   <v>       0.00535822      -0.12304489      -0.41730106 </v>
   <v>      -0.06086512      -0.15110755       0.71449348 </v>
   <v>      -0.08459067       0.03287792      -0.40001881 </v>
   <v>       0.02511742       0.02906610       0.73611460 </v>
   <v>       0.08784470      -0.01319333      -0.39092739 </v>
   <v>      -0.04285633      -0.00957770       0.26617857 </v>
   <v>       0.02618387       0.01607858      -0.71361542 </v>
   <v>       0.08261819       0.01219717       0.46826202 </v>
   <v>      -0.00985310      -0.02899380      -0.59452751 </v>
   <v>       0.02916485      -0.04847473       0.42961137 </v>
   <v>      -0.00673917       0.06597071      -0.21615160 </v>
   <v>      -0.09402581       0.08380703       0.47788976 </v>
   <v>       0.01473868      -0.04206559      -0.32171935 </v>
   <v>       0.02702122      -0.05684919       0.26110184 </v>
  </varray>
  <varray name="stress" >
   <v>     -10.17720299      -0.00018341       0.07201878 </v>
   <v>      -0.00018349      -9.78956455      -0.01314257 </v>
   <v>       0.07201862      -0.01314268       6.55426855 </v>
  </varray>
  <energy>
   <i name="e_fr_energy">   -189.75244761 </i>
   <i name="e_wo_entrp">   -189.63511537 </i>
   <i name="e_0_energy">     -0.23466447 </i>
  </energy>
  <time name="totalsc">  362.82  363.79</time>
 </calculation>
 <calculation>
  <scstep>
   <time name="dav">   22.81   22.86</time>
   <time name="total">   23.42   23.47</time>
   <energy>
    <i name="alphaZ">     85.83442229 </i>
    <i name="ewald">  42838.26807624 </i>
    <i name="hartreedc"> -48854.96292733 </i>
    <i name="XCdc">   -232.95859177 </i>
    <i name="pawpsdc">   4038.90486682 </i>
    <i name="pawaedc">  -3454.61199844 </i>
    <i name="eentropy">     -0.19133538 </i>
    <i name="bandstr">  -1373.02177842 </i>
    <i name="atom">   6761.44252427 </i>
    <i name="e_fr_energy">   -191.29674172 </i>
    <i name="e_wo_entrp">   -191.10540633 </i>
    <i name="e_0_energy">   -191.20107402 </i>
   </energy>
  </scstep>
  <scstep>
   <time name="dav">   34.22   34.30</time>
   <time name="total">   34.82   34.91</time>
   <energy>
    <i name="e_fr_energy">   -191.18637323 </i>
    <i name="e_wo_entrp">   -190.98816773 </i>
    <i name="e_0_energy">   -191.08727048 </i>
   </energy>
  </scstep>
  <scstep>
   <time name="dav">   30.64   30.71</time>
   <time name="total">   31.24   31.33</time>
   <energy>
    <i name="e_fr_energy">   -191.23644338 </i>
    <i name="e_wo_entrp">   -191.02465232 </i>
    <i name="e_0_energy">   -191.13054785 </i>
   </energy>
  </scstep>
  <scstep>
   <time name="dav">   32.39   32.47</time>
   <time name="total">   32.99   33.08</time>
   <energy>
    <i name="e_fr_energy">   -190.90744535 </i>
    <i name="e_wo_entrp">   -190.69843331 </i>
    <i name="e_0_energy">   -190.80293933 </i>
   </energy>
  </scstep>
  <scstep>
   <time name="dav">   29.32   29.39</time>
   <time name="total">   29.93   30.01</time>
   <energy>
    <i name="e_fr_energy">   -190.89643248 </i>
    <i name="e_wo_entrp">   -190.71095526 </i>
    <i name="e_0_energy">   -190.80369387 </i>
   </energy>
  </scstep>
  <scstep>
   <time name="dav">   29.23   29.30</time>
   <time name="total">   29.83   29.90</time>
   <energy>
    <i name="e_fr_energy">   -190.71304811 </i>
    <i name="e_wo_entrp">   -190.51563624 </i>
    <i name="e_0_energy">   -190.61434218 </i>
   </energy>
  </scstep>
  <scstep>
   <time name="dav">   29.71   29.79</time>
   <time name="total">   30.32   30.40</time>
   <energy>
    <i name="e_fr_energy">   -190.71198732 </i>
    <i name="e_wo_entrp">   -190.51574819 </i>
    <i name="e_0_energy">   -190.61386776 </i>
   </energy>
  </scstep>
  <scstep>
   <time name="dav">   29.94   30.02</time>
   <time name="total">   30.54   30.62</time>
   <energy>
    <i name="e_fr_energy">   -190.71045612 </i>
    <i name="e_wo_entrp">   -190.51364028 </i>
    <i name="e_0_energy">   -190.61204820 </i>
   </energy>
  </scstep>
  <scstep>
   <time name="dav">   29.36   29.43</time>
   <time name="total">   29.96   30.04</time>
   <energy>
    <i name="e_fr_energy">   -190.70820106 </i>
    <i name="e_wo_entrp">   -190.51137930 </i>
    <i name="e_0_energy">   -190.60979018 </i>
   </energy>
  </scstep>
  <scstep>
   <time name="dav">   27.83   27.90</time>
   <time name="total">   28.43   28.51</time>
   <energy>
    <i name="e_fr_energy">   -190.70843322 </i>
    <i name="e_wo_entrp">   -190.51165565 </i>
    <i name="e_0_energy">   -190.61004443 </i>
   </energy>
  </scstep>
  <scstep>
   <time name="dav">   25.68   25.74</time>
   <time name="total">   25.72   25.79</time>
   <energy>
    <i name="alphaZ">     85.83442229 </i>
    <i name="ewald">  42838.26807624 </i>
    <i name="hartreedc"> -48826.23376380 </i>
    <i name="XCdc">   -234.29327974 </i>
    <i name="pawpsdc">   4062.70677003 </i>
    <i name="pawaedc">  -3478.57663021 </i>
    <i name="eentropy">     -0.19678768 </i>
    <i name="bandstr">  -1399.65968237 </i>
    <i name="atom">   6761.44252427 </i>
    <i name="e_fr_energy">   -190.70835097 </i>
    <i name="e_wo_entrp">   -190.51156329 </i>
    <i name="e_0_energy">   -190.60995713 </i>
   </energy>
  </scstep>
  <structure>
   <crystal>
    <varray name="basis" >
     <v>       8.48675233       4.89814754       0.00000000 </v>
     <v>      -8.48676300       4.89816686       0.00000000 </v>
     <v>       0.00000000       0.00000000      30.00000000 </v>
    </varray>
    <i name="volume">   2494.16839091 </i>
    <varray name="rec_basis" >
     <v>       0.05891543       0.10207927       0.00000000 </v>
     <v>      -0.05891520       0.10207914       0.00000000 </v>
     <v>       0.00000000       0.00000000       0.03333333 </v>
    </varray>
   </crystal>
   <varray name="positions" >
    <v>       0.00515616       0.66681366       0.00017419 </v>
    <v>       0.66447663       0.66661914      -0.00005492 </v>
    <v>       0.32992236       0.33361240      -0.00021715 </v>
    <v>       0.33603556      -0.00305694       0.00002282 </v>
    <v>       1.00203794       0.33487821       0.00001856 </v>
    <v>       0.33024560       0.66786284      -0.00000402 </v>
    <v>       0.00340315       0.00362735       0.00025372 </v>
    <v>       0.66202945       0.00134344       0.00003713 </v>
    <v>       0.66647377       0.32820402      -0.00025912 </v>
    <v>       0.11646161       0.22406513       0.95007424 </v>
    <v>       0.22405998       0.11614391       0.04941531 </v>
    <v>       0.10792316       0.55849290       0.95007245 </v>
    <v>       0.22545720       0.44160227       0.04955885 </v>
    <v>       0.10735108       0.88363542       0.95071856 </v>
    <v>       0.21597223       0.77451443       0.05016278 </v>
    <v>       0.44262900       0.22578226       0.95084458 </v>
    <v>       0.55645958       0.11145842       0.05146468 </v>
    <v>       0.44678039       0.55259948       0.95189080 </v>
    <v>       0.55336058       0.44625490       0.04776719 </v>
    <v>       0.44561062       0.88921346       0.94870272 </v>
    <v>       0.55886882       0.77592467       0.04935205 </v>
    <v>       0.77681192       0.22150205       0.94896398 </v>
    <v>       0.88799040       0.10966257       0.05046931 </v>
    <v>       0.77973196       0.55961282       0.95246739 </v>
    <v>       0.89042438       0.44974833       0.04947145 </v>
    <v>       0.77559928       0.88463688       0.95095107 </v>
    <v>       0.88694163       0.77346043       0.04768128 </v>
   </varray>
  </structure>
  <varray name="forces" >
   <v>       0.27636372       0.19020395      -0.04786566 </v>
   <v>      -0.12413666      -0.02939504      -0.00359886 </v>
   <v>      -0.31689856      -0.17864086       0.04312947 </v>
   <v>       0.53458266       0.10552247      -0.02450376 </v>
   <v>       0.08652096       0.03357240       0.03116975 </v>
   <v>      -0.32703364       0.01603694       0.01258712 </v>
   <v>      -0.11258078       0.25955802       0.01977224 </v>
   <v>      -0.52955715      -0.09109823      -0.01053973 </v>
   <v>       0.46455627      -0.31332337      -0.02167122 </v>
   <v>       0.00234888       0.07187737      -0.46678498 </v>
   <v>       0.04464164       0.07370982       0.25834212 </v>
   <v>      -0.03760646       0.00048604      -0.44236099 </v>
   <v>       0.00702105       0.04376154       0.37241493 </v>
   <v>       0.02803487      -0.00467656      -0.21623954 </v>
   <v>      -0.02275979      -0.03376810       0.54558775 </v>
   <v>       0.00244576      -0.02122213      -0.24424321 </v>
   <v>      -0.02041206      -0.03151348       0.59900461 </v>
   <v>      -0.03297384      -0.02607961      -0.31942462 </v>
   <v>       0.02298264      -0.02991108       0.13467063 </v>
   <v>       0.03643771      -0.04200855      -0.54399269 </v>
   <v>      -0.03615423      -0.01825442       0.29915529 </v>
   <v>       0.06908931       0.01451927      -0.46009319 </v>
   <v>      -0.03255410      -0.02971510       0.26860094 </v>
   <v>       0.05559973       0.00455499      -0.09482954 </v>
   <v>      -0.02617569       0.02237911       0.30204045 </v>
   <v>      -0.03666371       0.01090197      -0.16781248 </v>
   <v>       0.02488148       0.00252266       0.17748519 </v>
  </varray>
  <varray name="stress" >
   <v>      -5.74096833       0.02021739      -0.12570914 </v>
   <v>       0.02021747      -5.94884913      -0.00803492 </v>
   <v>      -0.12570909      -0.00803488       4.55034862 </v>
  </varray>
  <energy>
   <i name="e_fr_energy">   -190.70835097 </i>
   <i name="e_wo_entrp">   -190.60995713 </i>
   <i name="e_0_energy">     -0.19678768 </i>
  </energy>
  <time name="totalsc">  370.87  371.85</time>
 </calculation>
 <calculation>
  <scstep>
   <time name="dav">   22.80   22.86</time>
   <time name="total">   23.40   23.46</time>
   <energy>
    <i name="alphaZ">     90.31988462 </i>
    <i name="ewald">  44738.65644682 </i>
    <i name="hartreedc"> -50783.20534030 </i>
    <i name="XCdc">   -231.70984016 </i>
    <i name="pawpsdc">   4063.11232107 </i>
    <i name="pawaedc">  -3478.98130190 </i>
    <i name="eentropy">     -0.17736670 </i>
    <i name="bandstr">  -1351.58956148 </i>
    <i name="atom">   6761.44252427 </i>
    <i name="e_fr_energy">   -192.13223375 </i>
    <i name="e_wo_entrp">   -191.95486705 </i>
    <i name="e_0_energy">   -192.04355040 </i>
   </energy>
  </scstep>
  <scstep>
   <time name="dav">   31.51   31.58</time>
   <time name="total">   32.10   32.19</time>
   <energy>
    <i name="e_fr_energy">   -191.96116319 </i>
    <i name="e_wo_entrp">   -191.76243884 </i>
    <i name="e_0_energy">   -191.86180101 </i>
   </energy>
  </scstep>
  <scstep>
   <time name="dav">   31.55   31.62</time>
   <time name="total">   32.14   32.22</time>
   <energy>
    <i name="e_fr_energy">   -192.41066589 </i>
    <i name="e_wo_entrp">   -192.21933261 </i>
    <i name="e_0_energy">   -192.31499925 </i>
   </energy>
  </scstep>
  <scstep>
   <time name="dav">   31.67   31.75</time>
   <time name="total">   32.27   32.35</time>
   <energy>
    <i name="e_fr_energy">   -191.53952674 </i>
    <i name="e_wo_entrp">   -191.35934054 </i>
    <i name="e_0_energy">   -191.44943364 </i>
   </energy>
  </scstep>
  <scstep>
   <time name="dav">   30.72   30.79</time>
   <time name="total">   31.31   31.40</time>
   <energy>
    <i name="e_fr_energy">   -191.50984955 </i>
    <i name="e_wo_entrp">   -191.31302336 </i>
    <i name="e_0_energy">   -191.41143645 </i>
   </energy>
  </scstep>
  <scstep>
   <time name="dav">   31.49   31.57</time>
   <time name="total">   32.09   32.17</time>
   <energy>
    <i name="e_fr_energy">   -191.37298673 </i>
    <i name="e_wo_entrp">   -191.19057740 </i>
    <i name="e_0_energy">   -191.28178206 </i>
   </energy>
  </scstep>
  <scstep>
   <time name="dav">   30.93   31.00</time>
   <time name="total">   31.52   31.61</time>
   <energy>
    <i name="e_fr_energy">   -191.34831871 </i>
    <i name="e_wo_entrp">   -191.16329351 </i>
    <i name="e_0_energy">   -191.25580611 </i>
   </energy>
  </scstep>
  <scstep>
   <time name="dav">   31.25   31.33</time>
   <time name="total">   31.85   31.94</time>
   <energy>
    <i name="e_fr_energy">   -191.34693663 </i>
    <i name="e_wo_entrp">   -191.16028382 </i>
    <i name="e_0_energy">   -191.25361023 </i>
   </energy>
  </scstep>
  <scstep>
   <time name="dav">   29.92   29.99</time>
   <time name="total">   30.51   30.59</time>
   <energy>
    <i name="e_fr_energy">   -191.34147843 </i>
    <i name="e_wo_entrp">   -191.15569806 </i>
    <i name="e_0_energy">   -191.24858825 </i>
   </energy>
  </scstep>
  <scstep>
   <time name="dav">   30.07   30.14</time>
   <time name="total">   30.67   30.75</time>
   <energy>
    <i name="e_fr_energy">   -191.34160168 </i>
    <i name="e_wo_entrp">   -191.15550045 </i>
    <i name="e_0_energy">   -191.24855107 </i>
   </energy>
  </scstep>
  <scstep>
   <time name="dav">   28.35   28.42</time>
   <time name="total">   28.94   29.02</time>
   <energy>
    <i name="e_fr_energy">   -191.34146035 </i>
    <i name="e_wo_entrp">   -191.15507189 </i>
    <i name="e_0_energy">   -191.24826612 </i>
   </energy>
  </scstep>
  <scstep>
   <time name="dav">   20.85   20.90</time>
   <time name="total">   20.89   20.94</time>
   <energy>
    <i name="alphaZ">     90.31988462 </i>
    <i name="ewald">  44738.65644682 </i>
    <i name="hartreedc"> -50748.32815268 </i>
    <i name="XCdc">   -233.29757541 </i>
    <i name="pawpsdc">   4086.59263546 </i>
    <i name="pawaedc">  -3502.55861444 </i>
    <i name="eentropy">     -0.18628324 </i>
    <i name="bandstr">  -1383.98229229 </i>
    <i name="atom">   6761.44252427 </i>
    <i name="e_fr_energy">   -191.34142686 </i>
    <i name="e_wo_entrp">   -191.15514362 </i>
    <i name="e_0_energy">   -191.24828524 </i>
   </energy>
  </scstep>
  <structure>
   <crystal>
    <varray name="basis" >
     <v>       8.27856840       4.77309546       0.00000000 </v>
     <v>      -8.27759016       4.77140171       0.00000000 </v>
     <v>       0.00000000       0.00000000      30.00000000 </v>
    </varray>
    <i name="volume">   2370.30310464 </i>
    <varray name="rec_basis" >
     <v>       0.06038977       0.10476622       0.00000000 </v>
     <v>      -0.06041120       0.10477860       0.00000000 </v>
     <v>       0.00000000       0.00000000       0.03333333 </v>
    </varray>
   </crystal>
   <varray name="positions" >
    <v>       0.00958179       0.66718768      -0.00001509 </v>
    <v>       0.66321616       0.66722338      -0.00006952 </v>
    <v>       0.32537541       0.33352905      -0.00004553 </v>
    <v>       0.34122344      -0.00554343      -0.00010515 </v>
    <v>       1.00296627       0.33456529       0.00016623 </v>
    <v>       0.32810964       0.67049236       0.00005248 </v>
    <v>       0.00577191       0.00773579       0.00034192 </v>
    <v>       0.65718148       0.00414084      -0.00000097 </v>
    <v>       0.66591857       0.32076905      -0.00036712 </v>
    <v>       0.11787286       0.22531392       0.94759519 </v>
    <v>       0.22571873       0.11729626       0.05105881 </v>
    <v>       0.10743478       0.55899641       0.94767445 </v>
    <v>       0.22629938       0.44185742       0.05163301 </v>
    <v>       0.10729432       0.88284119       0.94925234 </v>
    <v>       0.21493095       0.77398100       0.05296525 </v>
    <v>       0.44197998       0.22564315       0.94928770 </v>
    <v>       0.55580586       0.11117147       0.05454109 </v>
    <v>       0.44645804       0.55231632       0.95011721 </v>
    <v>       0.55286702       0.44604704       0.04882257 </v>
    <v>       0.44515356       0.88835282       0.94585610 </v>
    <v>       0.55849826       0.77549511       0.05113735 </v>
    <v>       0.77762858       0.22129675       0.94647300 </v>
    <v>       0.88750305       0.10967276       0.05217507 </v>
    <v>       0.78050153       0.55995437       0.95157896 </v>
    <v>       0.89090815       0.45073564       0.05127918 </v>
    <v>       0.77522142       0.88445181       0.94970598 </v>
    <v>       0.88679332       0.77269097       0.04888937 </v>
   </varray>
  </structure>
  <varray name="forces" >
   <v>       0.15943357       0.11627873       0.00219089 </v>
   <v>      -0.08213208      -0.03023616       0.00082779 </v>
   <v>      -0.41052124      -0.06722038       0.01250630 </v>
   <v>       0.32773305       0.08529375       0.05726967 </v>
   <v>       0.11908924       0.00195184      -0.03112380 </v>
   <v>      -0.09112318       0.05226477      -0.02044604 </v>
   <v>      -0.16475399       0.12996089       0.01158483 </v>
   <v>      -0.23791554      -0.07764347      -0.07958915 </v>
   <v>       0.27024953      -0.19887444       0.02188253 </v>
   <v>      -0.07117832       0.02591436      -0.17366652 </v>
   <v>       0.14726799       0.02931060      -0.07496346 </v>
   <v>       0.05504129      -0.00285935      -0.09817127 </v>
   <v>      -0.13674231       0.05101312       0.12119075 </v>
   <v>       0.03235729       0.16054047       0.06340058 </v>
   <v>       0.01388128       0.08163518       0.16872110 </v>
   <v>       0.11069243      -0.06109089       0.08441812 </v>
   <v>      -0.02076967      -0.07714795       0.35155851 </v>
   <v>      -0.13069680      -0.05366305      -0.04590447 </v>
   <v>       0.10565308      -0.06860339      -0.10368707 </v>
   <v>       0.07929010      -0.05824517      -0.25211658 </v>
   <v>      -0.17158526       0.01027773       0.02708369 </v>
   <v>       0.12982674       0.01416679      -0.19408101 </v>
   <v>      -0.08965432      -0.07645594       0.01155718 </v>
   <v>       0.14430083      -0.09524403       0.12047834 </v>
   <v>       0.04774996      -0.06179383       0.01395605 </v>
   <v>      -0.15203451       0.08398473       0.06538703 </v>
   <v>       0.01654086       0.08648507      -0.06026398 </v>
  </varray>
  <varray name="stress" >
   <v>       0.37038005      -0.03134607      -0.31831355 </v>
   <v>      -0.03134625      -0.13179727      -0.04240382 </v>
   <v>      -0.31831349      -0.04240378      -0.20342617 </v>
  </varray>
  <energy>
   <i name="e_fr_energy">   -191.34142686 </i>
   <i name="e_wo_entrp">   -191.24828524 </i>
   <i name="e_0_energy">     -0.18628324 </i>
  </energy>
  <time name="totalsc">  401.31  402.38</time>
 </calculation>
 <calculation>
  <scstep>
   <time name="dav">   22.83   22.88</time>
   <time name="total">   23.42   23.48</time>
   <energy>
    <i name="alphaZ">     90.22205423 </i>
    <i name="ewald">  44671.16415392 </i>
    <i name="hartreedc"> -50680.57678661 </i>
    <i name="XCdc">   -233.45925804 </i>
    <i name="pawpsdc">   4086.47569927 </i>
    <i name="pawaedc">  -3502.43713782 </i>
    <i name="eentropy">     -0.18943536 </i>
    <i name="bandstr">  -1384.03008536 </i>
    <i name="atom">   6761.44252427 </i>
    <i name="e_fr_energy">   -191.38827149 </i>
    <i name="e_wo_entrp">   -191.19883613 </i>
    <i name="e_0_energy">   -191.29355381 </i>
   </energy>
  </scstep>
  <scstep>
   <time name="dav">   31.94   32.02</time>
   <time name="total">   32.53   32.62</time>
   <energy>
    <i name="e_fr_energy">   -191.44676467 </i>
    <i name="e_wo_entrp">   -191.24609654 </i>
    <i name="e_0_energy">   -191.34643061 </i>
   </energy>
  </scstep>
  <scstep>
   <time name="dav">   31.24   31.31</time>
   <time name="total">   31.83   31.91</time>
   <energy>
    <i name="e_fr_energy">   -191.39712226 </i>
    <i name="e_wo_entrp">   -191.20730975 </i>
    <i name="e_0_energy">   -191.30221601 </i>
   </energy>
  </scstep>
  <scstep>
   <time name="dav">   29.95   30.02</time>
   <time name="total">   30.54   30.62</time>
   <energy>
    <i name="e_fr_energy">   -191.39743866 </i>
    <i name="e_wo_entrp">   -191.20604082 </i>
    <i name="e_0_energy">   -191.30173974 </i>
   </energy>
  </scstep>
  <scstep>
   <time name="dav">   29.96   30.04</time>
   <time name="total">   30.56   30.64</time>
   <energy>
    <i name="e_fr_energy">   -191.39450287 </i>
    <i name="e_wo_entrp">   -191.20340992 </i>
    <i name="e_0_energy">   -191.29895640 </i>
   </energy>
  </scstep>
  <scstep>
   <time name="dav">   29.89   29.96</time>
   <time name="total">   30.49   30.57</time>
   <energy>
    <i name="e_fr_energy">   -191.39462036 </i>
    <i name="e_wo_entrp">   -191.20335585 </i>
    <i name="e_0_energy">   -191.29898810 </i>
   </energy>
  </scstep>
  <scstep>
   <time name="dav">   28.69   28.75</time>
   <time name="total">   29.27   29.35</time>
   <energy>
    <i name="e_fr_energy">   -191.39447659 </i>
    <i name="e_wo_entrp">   -191.20349619 </i>
    <i name="e_0_energy">   -191.29898639 </i>
   </energy>
  </scstep>
  <scstep>
   <time name="dav">   25.03   25.09</time>
   <time name="total">   25.63   25.70</time>
   <energy>
    <i name="e_fr_energy">   -191.39408077 </i>
    <i name="e_wo_entrp">   -191.20310725 </i>
    <i name="e_0_energy">   -191.29859401 </i>
   </energy>
  </scstep>
  <scstep>
   <time name="dav">   19.21   19.26</time>
   <time name="total">   19.25   19.30</time>
   <energy>
    <i name="alphaZ">     90.22205423 </i>
    <i name="ewald">  44671.16415392 </i>
    <i name="hartreedc"> -50682.31300129 </i>
    <i name="XCdc">   -233.40489566 </i>
    <i name="pawpsdc">   4082.53055904 </i>
    <i name="pawaedc">  -3498.43467806 </i>
    <i name="eentropy">     -0.19101095 </i>
    <i name="bandstr">  -1382.40980172 </i>
    <i name="atom">   6761.44252427 </i>
    <i name="e_fr_energy">   -191.39409621 </i>
    <i name="e_wo_entrp">   -191.20308527 </i>
    <i name="e_0_energy">   -191.29859074 </i>
   </energy>
  </scstep>
  <structure>
   <crystal>
    <varray name="basis" >
     <v>       8.28795923       4.77195354       0.00000000 </v>
     <v>      -8.28776181       4.77161639       0.00000000 </v>
     <v>       0.00000000       0.00000000      30.00000000 </v>
    </varray>
    <i name="volume">   2372.87329307 </i>
    <varray name="rec_basis" >
     <v>       0.06032707       0.10478134       0.00000000 </v>
     <v>      -0.06033133       0.10478384       0.00000000 </v>
     <v>       0.00000000       0.00000000       0.03333333 </v>
    </varray>
   </crystal>
   <varray name="positions" >
    <v>       0.01053718       0.66730188      -0.00000876 </v>
    <v>       0.66285383       0.66729747      -0.00006800 </v>
    <v>       0.32395055       0.33436630      -0.00002857 </v>
    <v>       0.34249246      -0.00601561      -0.00001314 </v>
    <v>       1.00330056       0.33424276       0.00011495 </v>
    <v>       0.32814149       0.67096669       0.00001951 </v>
    <v>       0.00590786       0.00877888       0.00035862 </v>
    <v>       0.65619849       0.00438913      -0.00012511 </v>
    <v>       0.66571494       0.31914020      -0.00033095 </v>
    <v>       0.11777136       0.22562040       0.94736767 </v>
    <v>       0.22625091       0.11699885       0.05090972 </v>
    <v>       0.10758682       0.55881589       0.94756412 </v>
    <v>       0.22614682       0.44249535       0.05178485 </v>
    <v>       0.10817957       0.88355773       0.94938050 </v>
    <v>       0.21539320       0.77435473       0.05317996 </v>
    <v>       0.44200756       0.22502873       0.94944996 </v>
    <v>       0.55537839       0.11085541       0.05503739 </v>
    <v>       0.44582543       0.55242955       0.95007777 </v>
    <v>       0.55283970       0.44540910       0.04863851 </v>
    <v>       0.44510093       0.88785505       0.94551195 </v>
    <v>       0.55806644       0.77604431       0.05114616 </v>
    <v>       0.77805268       0.22099998       0.94621408 </v>
    <v>       0.88687853       0.10954915       0.05216035 </v>
    <v>       0.78042694       0.55906333       0.95178667 </v>
    <v>       0.89072786       0.45027507       0.05126697 </v>
    <v>       0.77521188       0.88530590       0.94983355 </v>
    <v>       0.88727208       0.77308824       0.04877118 </v>
   </varray>
  </structure>
  <varray name="forces" >
   <v>       0.15813296       0.12552116      -0.00572557 </v>
   <v>      -0.07671895      -0.03752445       0.02110997 </v>
   <v>      -0.42539495      -0.04599645       0.01998734 </v>
   <v>       0.37860399       0.07026553       0.01603990 </v>
   <v>       0.12687331       0.00295653      -0.01496770 </v>
   <v>      -0.09692439       0.04479396      -0.01392046 </v>
   <v>      -0.18776875       0.14061941       0.03065290 </v>
   <v>      -0.28073560      -0.07774781      -0.02905864 </v>
   <v>       0.31853266      -0.20585198       0.00598144 </v>
   <v>      -0.05032912       0.02470609      -0.14943516 </v>
   <v>       0.08345864       0.03629160      -0.11182403 </v>
   <v>       0.02546169      -0.00524107      -0.06088597 </v>
   <v>      -0.09755369       0.02925378       0.09805899 </v>
   <v>       0.01102292       0.11373914       0.10190459 </v>
   <v>       0.02482671       0.04430723       0.12829419 </v>
   <v>       0.05798339      -0.04890315       0.12546434 </v>
   <v>       0.02552684      -0.04727158       0.23234441 </v>
   <v>      -0.08273573      -0.03757603      -0.04073513 </v>
   <v>       0.06452735      -0.05479020      -0.12707789 </v>
   <v>       0.05033098      -0.04550925      -0.18144250 </v>
   <v>      -0.10595126       0.01332079       0.00481807 </v>
   <v>       0.08121762       0.00711431      -0.12072118 </v>
   <v>      -0.06079405      -0.05928393      -0.01481566 </v>
   <v>       0.10127623      -0.06706509       0.14470436 </v>
   <v>       0.04293656      -0.03598950      -0.00911218 </v>
   <v>      -0.09464290       0.05280402       0.04609828 </v>
   <v>       0.00883754       0.06305693      -0.09573671 </v>
  </varray>
  <varray name="stress" >
   <v>      -0.18593874       0.01557773      -0.12182001 </v>
   <v>       0.01557774      -0.26913276      -0.00599343 </v>
   <v>      -0.12181979      -0.00599337      -0.98651887 </v>
  </varray>
  <energy>
   <i name="e_fr_energy">   -191.39409621 </i>
   <i name="e_wo_entrp">   -191.29859074 </i>
   <i name="e_0_energy">     -0.19101095 </i>
  </energy>
  <time name="totalsc">  297.09  297.87</time>
 </calculation>
 <calculation>
  <scstep>
   <time name="dav">   22.81   22.87</time>
   <time name="total">   23.41   23.47</time>
   <energy>
    <i name="alphaZ">     90.45956254 </i>
    <i name="ewald">  44768.07550306 </i>
    <i name="hartreedc"> -50782.09058684 </i>
    <i name="XCdc">   -233.28697168 </i>
    <i name="pawpsdc">   4082.36747661 </i>
    <i name="pawaedc">  -3498.26934590 </i>
    <i name="eentropy">     -0.19068194 </i>
    <i name="bandstr">  -1379.97137660 </i>
    <i name="atom">   6761.44252427 </i>
    <i name="e_fr_energy">   -191.46389648 </i>
    <i name="e_wo_entrp">   -191.27321455 </i>
    <i name="e_0_energy">   -191.36855551 </i>
   </energy>
  </scstep>
  <scstep>
   <time name="dav">   32.29   32.37</time>
   <time name="total">   32.88   32.97</time>
   <energy>
    <i name="e_fr_energy">   -191.56482228 </i>
    <i name="e_wo_entrp">   -191.34836805 </i>
    <i name="e_0_energy">   -191.45659517 </i>
   </energy>
  </scstep>
  <scstep>
   <time name="dav">   30.95   31.03</time>
   <time name="total">   31.55   31.63</time>
   <energy>
    <i name="e_fr_energy">   -191.47920917 </i>
    <i name="e_wo_entrp">   -191.28767378 </i>
    <i name="e_0_energy">   -191.38344147 </i>
   </energy>
  </scstep>
  <scstep>
   <time name="dav">   29.77   29.84</time>
   <time name="total">   30.36   30.44</time>
   <energy>
    <i name="e_fr_energy">   -191.47864086 </i>
    <i name="e_wo_entrp">   -191.28539687 </i>
    <i name="e_0_energy">   -191.38201886 </i>
   </energy>
  </scstep>
  <scstep>
   <time name="dav">   30.43   30.50</time>
   <time name="total">   31.03   31.11</time>
   <energy>
    <i name="e_fr_energy">   -191.47022428 </i>
    <i name="e_wo_entrp">   -191.27627201 </i>
    <i name="e_0_energy">   -191.37324815 </i>
   </energy>
  </scstep>
  <scstep>
   <time name="dav">   29.86   29.93</time>
   <time name="total">   30.45   30.53</time>
   <energy>
    <i name="e_fr_energy">   -191.47005731 </i>
    <i name="e_wo_entrp">   -191.27528789 </i>
    <i name="e_0_energy">   -191.37267260 </i>
   </energy>
  </scstep>
  <scstep>
   <time name="dav">   29.39   29.46</time>
   <time name="total">   29.98   30.06</time>
   <energy>
    <i name="e_fr_energy">   -191.46943932 </i>
    <i name="e_wo_entrp">   -191.27491096 </i>
    <i name="e_0_energy">   -191.37217514 </i>
   </energy>
  </scstep>
  <scstep>
   <time name="dav">   27.46   27.53</time>
   <time name="total">   28.06   28.13</time>
   <energy>
    <i name="e_fr_energy">   -191.46861535 </i>
    <i name="e_wo_entrp">   -191.27381012 </i>
    <i name="e_0_energy">   -191.37121273 </i>
   </energy>
  </scstep>
  <scstep>
[...]
      <set comment="kpoint 31">
       <r>  -17.5336    1.0000 </r>
       <r>  -17.2305    1.0000 </r>
       <r>  -16.9072    1.0000 </r>
       <r>  -16.6446    1.0000 </r>
       <r>  -16.5056    1.0000 </r>
       <r>  -16.3946    1.0000 </r>
       <r>  -16.2858    1.0000 </r>
       <r>  -16.2078    1.0000 </r>
       <r>  -16.0655    1.0000 </r>
       <r>  -15.9734    1.0000 </r>
       <r>  -15.8956    1.0000 </r>
       <r>  -15.8459    1.0000 </r>
       <r>  -15.7426    1.0000 </r>
       <r>  -15.7041    1.0000 </r>
       <r>  -15.6587    1.0000 </r>
       <r>  -15.5460    1.0000 </r>
       <r>  -15.4376    1.0000 </r>
       <r>  -15.3730    1.0000 </r>
       <r>   -9.7355    1.0000 </r>
       <r>   -9.4530    1.0000 </r>
       <r>   -9.3200    1.0000 </r>
       <r>   -9.0101    1.0000 </r>
       <r>   -8.7998    1.0000 </r>
       <r>   -8.6934    1.0000 </r>
       <r>   -8.5619    1.0000 </r>
       <r>   -8.4376    1.0000 </r>
       <r>   -8.4009    1.0000 </r>
       <r>   -8.3281    1.0000 </r>
       <r>   -8.2726    1.0000 </r>
       <r>   -8.2053    1.0000 </r>
       <r>   -8.1695    1.0000 </r>
       <r>   -8.0864    1.0000 </r>
       <r>   -8.0134    1.0000 </r>
       <r>   -7.9111    1.0000 </r>
       <r>   -7.8117    1.0000 </r>
       <r>   -7.6157    1.0000 </r>
       <r>   -7.5956    1.0000 </r>
       <r>   -7.4514    1.0000 </r>
       <r>   -7.2915    1.0000 </r>
       <r>   -7.1460    1.0000 </r>
       <r>   -7.0994    1.0000 </r>
       <r>   -7.0556    1.0000 </r>
       <r>   -7.0202    1.0000 </r>
       <r>   -6.9656    1.0000 </r>
       <r>   -6.8878    1.0000 </r>
       <r>   -6.8678    1.0000 </r>
       <r>   -6.7232    1.0000 </r>
       <r>   -6.6769    1.0000 </r>
       <r>   -6.5774    1.0000 </r>
       <r>   -6.5077    1.0000 </r>
       <r>   -6.4562    1.0000 </r>
       <r>   -6.3531    1.0000 </r>
       <r>   -6.2527    1.0000 </r>
       <r>   -6.1783    1.0000 </r>
       <r>   -6.1154    1.0000 </r>
       <r>   -6.0312    1.0000 </r>
       <r>   -5.9424    1.0000 </r>
       <r>   -5.8940    1.0000 </r>
       <r>   -5.8221    1.0000 </r>
       <r>   -5.7800    1.0000 </r>
       <r>   -5.7338    1.0000 </r>
       <r>   -5.6107    1.0000 </r>
       <r>   -5.5027    1.0000 </r>
       <r>   -5.3621    1.0000 </r>
       <r>   -5.3080    1.0000 </r>
       <r>   -5.1656    1.0000 </r>
       <r>   -5.0472    1.0000 </r>
       <r>   -4.8861    1.0000 </r>
       <r>   -4.7898    1.0000 </r>
       <r>   -4.7511    1.0000 </r>
       <r>   -4.5107    1.0000 </r>
       <r>   -4.4741    1.0000 </r>
       <r>   -4.4475    1.0000 </r>
       <r>   -4.3473    1.0000 </r>
       <r>   -4.0963    1.0000 </r>
       <r>   -4.0409    1.0000 </r>
       <r>   -3.9116    1.0000 </r>
       <r>   -3.7638    0.9979 </r>
       <r>   -3.6403    0.9765 </r>
       <r>   -3.3245    0.4024 </r>
       <r>   -3.0055    0.0062 </r>
       <r>   -2.8194    0.0001 </r>
       <r>   -2.6741    0.0000 </r>
       <r>   -2.5828    0.0000 </r>
       <r>   -2.5044    0.0000 </r>
       <r>   -2.4233    0.0000 </r>
       <r>   -2.3471    0.0000 </r>
       <r>   -2.2195    0.0000 </r>
       <r>   -2.1364    0.0000 </r>
       <r>   -2.0491    0.0000 </r>
       <r>   -1.8228    0.0000 </r>
       <r>   -1.5538    0.0000 </r>
       <r>   -1.3556    0.0000 </r>
       <r>   -1.2936    0.0000 </r>
       <r>   -1.2258    0.0000 </r>
       <r>   -1.1899    0.0000 </r>
       <r>   -1.0971    0.0000 </r>
       <r>   -1.0505    0.0000 </r>
       <r>   -1.0042    0.0000 </r>
       <r>   -0.8755    0.0000 </r>
       <r>   -0.8340    0.0000 </r>
       <r>   -0.7693    0.0000 </r>
       <r>   -0.6789    0.0000 </r>
       <r>   -0.5447    0.0000 </r>
       <r>   -0.4346    0.0000 </r>
       <r>   -0.3807    0.0000 </r>
       <r>   -0.2370    0.0000 </r>
       <r>   -0.2222    0.0000 </r>
       <r>   -0.0402    0.0000 </r>
       <r>    0.0315    0.0000 </r>
       <r>    0.2625    0.0000 </r>
       <r>    0.5397    0.0000 </r>
       <r>    0.6607    0.0000 </r>
       <r>    0.9534    0.0000 </r>
       <r>    1.1167    0.0000 </r>
       <r>    1.2459    0.0000 </r>
       <r>    1.4268    0.0000 </r>
       <r>    2.1173    0.0000 </r>
       <r>    2.2851    0.0000 </r>
       <r>    2.3716    0.0000 </r>
      </set>
      <set comment="kpoint 32">
       <r>  -17.5379    1.0000 </r>
       <r>  -17.1818    1.0000 </r>
       <r>  -17.0054    1.0000 </r>
       <r>  -16.6465    1.0000 </r>
       <r>  -16.4179    1.0000 </r>
       <r>  -16.3649    1.0000 </r>
       <r>  -16.2746    1.0000 </r>
       <r>  -16.2045    1.0000 </r>
       <r>  -16.1048    1.0000 </r>
       <r>  -15.9927    1.0000 </r>
       <r>  -15.9041    1.0000 </r>
       <r>  -15.8484    1.0000 </r>
       <r>  -15.7947    1.0000 </r>
       <r>  -15.6971    1.0000 </r>
       <r>  -15.6405    1.0000 </r>
       <r>  -15.5521    1.0000 </r>
       <r>  -15.4251    1.0000 </r>
       <r>  -15.3601    1.0000 </r>
       <r>   -9.6646    1.0000 </r>
       <r>   -9.5264    1.0000 </r>
       <r>   -9.4112    1.0000 </r>
       <r>   -9.0280    1.0000 </r>
       <r>   -8.7260    1.0000 </r>
       <r>   -8.5415    1.0000 </r>
       <r>   -8.4914    1.0000 </r>
       <r>   -8.4541    1.0000 </r>
       <r>   -8.3836    1.0000 </r>
       <r>   -8.3247    1.0000 </r>
       <r>   -8.3024    1.0000 </r>
       <r>   -8.2352    1.0000 </r>
       <r>   -8.1886    1.0000 </r>
       <r>   -8.0823    1.0000 </r>
       <r>   -8.0468    1.0000 </r>
       <r>   -7.9622    1.0000 </r>
       <r>   -7.8757    1.0000 </r>
       <r>   -7.6373    1.0000 </r>
       <r>   -7.5294    1.0000 </r>
       <r>   -7.4497    1.0000 </r>
       <r>   -7.2994    1.0000 </r>
       <r>   -7.1929    1.0000 </r>
       <r>   -7.1149    1.0000 </r>
       <r>   -7.0565    1.0000 </r>
       <r>   -7.0150    1.0000 </r>
       <r>   -6.9711    1.0000 </r>
       <r>   -6.9346    1.0000 </r>
       <r>   -6.8567    1.0000 </r>
       <r>   -6.7382    1.0000 </r>
       <r>   -6.6592    1.0000 </r>
       <r>   -6.5010    1.0000 </r>
       <r>   -6.4558    1.0000 </r>
       <r>   -6.4348    1.0000 </r>
       <r>   -6.3551    1.0000 </r>
       <r>   -6.2526    1.0000 </r>
       <r>   -6.2189    1.0000 </r>
       <r>   -6.1434    1.0000 </r>
       <r>   -6.0465    1.0000 </r>
       <r>   -5.9556    1.0000 </r>
       <r>   -5.8951    1.0000 </r>
       <r>   -5.8078    1.0000 </r>
       <r>   -5.7407    1.0000 </r>
       <r>   -5.6696    1.0000 </r>
       <r>   -5.5823    1.0000 </r>
       <r>   -5.4889    1.0000 </r>
       <r>   -5.4080    1.0000 </r>
       <r>   -5.2970    1.0000 </r>
       <r>   -5.1729    1.0000 </r>
       <r>   -5.1044    1.0000 </r>
       <r>   -5.0095    1.0000 </r>
       <r>   -4.7752    1.0000 </r>
       <r>   -4.6799    1.0000 </r>
       <r>   -4.4979    1.0000 </r>
       <r>   -4.4570    1.0000 </r>
       <r>   -4.4085    1.0000 </r>
       <r>   -4.3670    1.0000 </r>
       <r>   -4.1533    1.0000 </r>
       <r>   -4.0830    1.0000 </r>
       <r>   -3.9137    1.0000 </r>
       <r>   -3.7840    0.9987 </r>
       <r>   -3.6131    0.9635 </r>
       <r>   -3.3615    0.5058 </r>
       <r>   -2.9902    0.0045 </r>
       <r>   -2.8221    0.0001 </r>
       <r>   -2.6440    0.0000 </r>
       <r>   -2.5473    0.0000 </r>
       <r>   -2.4929    0.0000 </r>
       <r>   -2.3764    0.0000 </r>
       <r>   -2.3010    0.0000 </r>
       <r>   -2.2091    0.0000 </r>
       <r>   -2.1245    0.0000 </r>
       <r>   -2.0449    0.0000 </r>
       <r>   -1.7725    0.0000 </r>
       <r>   -1.5930    0.0000 </r>
       <r>   -1.4288    0.0000 </r>
       <r>   -1.3352    0.0000 </r>
       <r>   -1.2848    0.0000 </r>
       <r>   -1.2147    0.0000 </r>
       <r>   -1.1009    0.0000 </r>
       <r>   -1.0705    0.0000 </r>
       <r>   -0.9870    0.0000 </r>
       <r>   -0.8818    0.0000 </r>
       <r>   -0.8190    0.0000 </r>
       <r>   -0.7116    0.0000 </r>
       <r>   -0.6843    0.0000 </r>
       <r>   -0.5438    0.0000 </r>
       <r>   -0.4874    0.0000 </r>
       <r>   -0.3294    0.0000 </r>
       <r>   -0.2022    0.0000 </r>
       <r>   -0.1440    0.0000 </r>
       <r>   -0.0211    0.0000 </r>
       <r>    0.0939    0.0000 </r>
       <r>    0.3143    0.0000 </r>
       <r>    0.5261    0.0000 </r>
       <r>    0.6400    0.0000 </r>
       <r>    0.9361    0.0000 </r>
       <r>    1.0592    0.0000 </r>
       <r>    1.2058    0.0000 </r>
       <r>    1.3009    0.0000 </r>
       <r>    2.0831    0.0000 </r>
       <r>    2.2579    0.0000 </r>
       <r>    2.5477    0.0000 </r>
      </set>
      <set comment="kpoint 33">
       <r>  -17.5169    1.0000 </r>
       <r>  -17.2761    1.0000 </r>
       <r>  -16.8804    1.0000 </r>
       <r>  -16.6483    1.0000 </r>
       <r>  -16.4900    1.0000 </r>
       <r>  -16.3910    1.0000 </r>
       <r>  -16.2659    1.0000 </r>
       <r>  -16.1877    1.0000 </r>
       <r>  -16.0617    1.0000 </r>
       <r>  -16.0058    1.0000 </r>
       <r>  -15.9034    1.0000 </r>
       <r>  -15.8553    1.0000 </r>
       <r>  -15.8207    1.0000 </r>
       <r>  -15.6753    1.0000 </r>
       <r>  -15.6130    1.0000 </r>
       <r>  -15.5497    1.0000 </r>
       <r>  -15.4401    1.0000 </r>
       <r>  -15.3734    1.0000 </r>
       <r>   -9.7133    1.0000 </r>
       <r>   -9.4418    1.0000 </r>
       <r>   -9.3537    1.0000 </r>
       <r>   -9.0269    1.0000 </r>
       <r>   -8.8619    1.0000 </r>
       <r>   -8.6831    1.0000 </r>
       <r>   -8.4986    1.0000 </r>
       <r>   -8.4359    1.0000 </r>
       <r>   -8.3741    1.0000 </r>
       <r>   -8.3231    1.0000 </r>
       <r>   -8.2708    1.0000 </r>
       <r>   -8.2418    1.0000 </r>
       <r>   -8.1246    1.0000 </r>
       <r>   -8.0399    1.0000 </r>
       <r>   -8.0149    1.0000 </r>
       <r>   -7.9203    1.0000 </r>
       <r>   -7.8226    1.0000 </r>
       <r>   -7.6683    1.0000 </r>
       <r>   -7.5877    1.0000 </r>
       <r>   -7.3927    1.0000 </r>
       <r>   -7.2889    1.0000 </r>
       <r>   -7.2159    1.0000 </r>
       <r>   -7.1563    1.0000 </r>
       <r>   -7.0997    1.0000 </r>
       <r>   -7.0332    1.0000 </r>
       <r>   -6.9551    1.0000 </r>
       <r>   -6.8720    1.0000 </r>
       <r>   -6.8276    1.0000 </r>
       <r>   -6.6946    1.0000 </r>
       <r>   -6.6092    1.0000 </r>
       <r>   -6.5454    1.0000 </r>
       <r>   -6.4685    1.0000 </r>
       <r>   -6.3916    1.0000 </r>
       <r>   -6.3299    1.0000 </r>
       <r>   -6.2820    1.0000 </r>
       <r>   -6.2266    1.0000 </r>
       <r>   -6.1552    1.0000 </r>
       <r>   -6.0692    1.0000 </r>
       <r>   -5.9774    1.0000 </r>
       <r>   -5.9262    1.0000 </r>
       <r>   -5.8454    1.0000 </r>
       <r>   -5.7967    1.0000 </r>
       <r>   -5.7188    1.0000 </r>
       <r>   -5.6681    1.0000 </r>
       <r>   -5.5834    1.0000 </r>
       <r>   -5.4347    1.0000 </r>
       <r>   -5.2183    1.0000 </r>
       <r>   -5.1017    1.0000 </r>
       <r>   -5.0186    1.0000 </r>
       <r>   -4.8785    1.0000 </r>
       <r>   -4.7722    1.0000 </r>
       <r>   -4.6190    1.0000 </r>
       <r>   -4.5115    1.0000 </r>
       <r>   -4.4767    1.0000 </r>
       <r>   -4.3721    1.0000 </r>
       <r>   -4.3317    1.0000 </r>
       <r>   -4.2280    1.0000 </r>
       <r>   -4.1772    1.0000 </r>
       <r>   -3.9239    1.0000 </r>
       <r>   -3.8300    0.9996 </r>
       <r>   -3.5941    0.9514 </r>
       <r>   -3.3817    0.5624 </r>
       <r>   -3.0916    0.0291 </r>
       <r>   -2.7318    0.0000 </r>
       <r>   -2.6140    0.0000 </r>
       <r>   -2.5467    0.0000 </r>
       <r>   -2.4448    0.0000 </r>
       <r>   -2.3628    0.0000 </r>
       <r>   -2.2471    0.0000 </r>
       <r>   -2.2069    0.0000 </r>
       <r>   -2.1049    0.0000 </r>
       <r>   -1.9957    0.0000 </r>
       <r>   -1.7071    0.0000 </r>
       <r>   -1.6105    0.0000 </r>
       <r>   -1.4795    0.0000 </r>
       <r>   -1.3811    0.0000 </r>
       <r>   -1.3582    0.0000 </r>
       <r>   -1.2422    0.0000 </r>
       <r>   -1.1520    0.0000 </r>
       <r>   -1.0622    0.0000 </r>
       <r>   -1.0129    0.0000 </r>
       <r>   -0.8712    0.0000 </r>
       <r>   -0.8003    0.0000 </r>
       <r>   -0.7101    0.0000 </r>
       <r>   -0.6532    0.0000 </r>
       <r>   -0.5845    0.0000 </r>
       <r>   -0.5079    0.0000 </r>
       <r>   -0.2743    0.0000 </r>
       <r>   -0.1577    0.0000 </r>
       <r>   -0.1158    0.0000 </r>
       <r>   -0.0173    0.0000 </r>
       <r>    0.1901    0.0000 </r>
       <r>    0.3602    0.0000 </r>
       <r>    0.5221    0.0000 </r>
       <r>    0.6225    0.0000 </r>
       <r>    0.9056    0.0000 </r>
       <r>    1.0405    0.0000 </r>
       <r>    1.1244    0.0000 </r>
       <r>    1.2731    0.0000 </r>
       <r>    2.1097    0.0000 </r>
       <r>    2.2910    0.0000 </r>
       <r>    2.3596    0.0000 </r>
      </set>
      <set comment="kpoint 34">
       <r>  -17.4931    1.0000 </r>
       <r>  -17.3361    1.0000 </r>
       <r>  -16.7300    1.0000 </r>
       <r>  -16.6585    1.0000 </r>
       <r>  -16.6256    1.0000 </r>
       <r>  -16.3981    1.0000 </r>
       <r>  -16.2451    1.0000 </r>
       <r>  -16.2079    1.0000 </r>
       <r>  -16.0195    1.0000 </r>
       <r>  -16.0005    1.0000 </r>
       <r>  -15.9157    1.0000 </r>
       <r>  -15.8667    1.0000 </r>
       <r>  -15.8068    1.0000 </r>
       <r>  -15.6683    1.0000 </r>
       <r>  -15.5947    1.0000 </r>
       <r>  -15.5473    1.0000 </r>
       <r>  -15.4484    1.0000 </r>
       <r>  -15.3931    1.0000 </r>
       <r>   -9.7466    1.0000 </r>
       <r>   -9.3650    1.0000 </r>
       <r>   -9.2839    1.0000 </r>
       <r>   -8.9851    1.0000 </r>
       <r>   -8.9749    1.0000 </r>
       <r>   -8.8313    1.0000 </r>
       <r>   -8.5250    1.0000 </r>
       <r>   -8.4376    1.0000 </r>
       <r>   -8.3896    1.0000 </r>
       <r>   -8.3034    1.0000 </r>
       <r>   -8.2630    1.0000 </r>
       <r>   -8.2083    1.0000 </r>
       <r>   -8.1042    1.0000 </r>
       <r>   -8.0518    1.0000 </r>
       <r>   -7.9591    1.0000 </r>
       <r>   -7.8689    1.0000 </r>
       <r>   -7.8021    1.0000 </r>
       <r>   -7.7192    1.0000 </r>
       <r>   -7.4999    1.0000 </r>
       <r>   -7.4278    1.0000 </r>
       <r>   -7.3049    1.0000 </r>
       <r>   -7.2134    1.0000 </r>
       <r>   -7.1393    1.0000 </r>
       <r>   -7.1085    1.0000 </r>
       <r>   -7.0325    1.0000 </r>
       <r>   -6.9338    1.0000 </r>
       <r>   -6.9177    1.0000 </r>
       <r>   -6.7868    1.0000 </r>
       <r>   -6.6616    1.0000 </r>
       <r>   -6.6185    1.0000 </r>
       <r>   -6.5271    1.0000 </r>
       <r>   -6.4800    1.0000 </r>
       <r>   -6.4324    1.0000 </r>
       <r>   -6.2863    1.0000 </r>
       <r>   -6.2625    1.0000 </r>
       <r>   -6.2337    1.0000 </r>
       <r>   -6.1401    1.0000 </r>
       <r>   -6.1323    1.0000 </r>
       <r>   -6.0349    1.0000 </r>
       <r>   -5.9089    1.0000 </r>
       <r>   -5.8587    1.0000 </r>
       <r>   -5.8446    1.0000 </r>
       <r>   -5.7691    1.0000 </r>
       <r>   -5.6768    1.0000 </r>
       <r>   -5.5929    1.0000 </r>
       <r>   -5.5100    1.0000 </r>
       <r>   -5.1867    1.0000 </r>
       <r>   -5.1337    1.0000 </r>
       <r>   -4.8212    1.0000 </r>
       <r>   -4.7770    1.0000 </r>
       <r>   -4.7276    1.0000 </r>
       <r>   -4.6548    1.0000 </r>
       <r>   -4.5779    1.0000 </r>
       <r>   -4.4581    1.0000 </r>
       <r>   -4.3768    1.0000 </r>
       <r>   -4.3050    1.0000 </r>
       <r>   -4.2664    1.0000 </r>
       <r>   -4.2178    1.0000 </r>
       <r>   -3.9261    1.0000 </r>
       <r>   -3.8368    0.9996 </r>
       <r>   -3.6276    0.9710 </r>
       <r>   -3.3784    0.5532 </r>
       <r>   -3.1417    0.0618 </r>
       <r>   -2.6890    0.0000 </r>
       <r>   -2.6037    0.0000 </r>
       <r>   -2.5496    0.0000 </r>
       <r>   -2.4084    0.0000 </r>
       <r>   -2.3710    0.0000 </r>
       <r>   -2.2315    0.0000 </r>
       <r>   -2.2091    0.0000 </r>
       <r>   -2.0788    0.0000 </r>
       <r>   -1.9794    0.0000 </r>
       <r>   -1.6712    0.0000 </r>
       <r>   -1.5952    0.0000 </r>
       <r>   -1.5065    0.0000 </r>
       <r>   -1.4146    0.0000 </r>
       <r>   -1.3803    0.0000 </r>
       <r>   -1.2394    0.0000 </r>
       <r>   -1.1998    0.0000 </r>
       <r>   -1.0568    0.0000 </r>
       <r>   -1.0390    0.0000 </r>
       <r>   -0.8472    0.0000 </r>
       <r>   -0.7913    0.0000 </r>
       <r>   -0.7314    0.0000 </r>
       <r>   -0.6587    0.0000 </r>
       <r>   -0.5983    0.0000 </r>
       <r>   -0.4869    0.0000 </r>
       <r>   -0.2501    0.0000 </r>
       <r>   -0.1718    0.0000 </r>
       <r>   -0.1042    0.0000 </r>
       <r>   -0.0037    0.0000 </r>
       <r>    0.2174    0.0000 </r>
       <r>    0.3931    0.0000 </r>
       <r>    0.5375    0.0000 </r>
       <r>    0.5955    0.0000 </r>
       <r>    0.9068    0.0000 </r>
       <r>    1.0118    0.0000 </r>
       <r>    1.1044    0.0000 </r>
       <r>    1.2859    0.0000 </r>
       <r>    2.1780    0.0000 </r>
       <r>    2.2241    0.0000 </r>
       <r>    2.3750    0.0000 </r>
      </set>
     </set>
    </set>
   </array>
  </eigenvalues>
  <separator name="orbital magnetization" >
   <v name="MAGDIPOLOUT">      0.00000000      0.00000000      0.00000000</v>
  </separator>
 </calculation>
 <structure name="finalpos" >
  <crystal>
   <varray name="basis" >
    <v>       8.38954269       4.81347008       0.00000000 </v>
    <v>      -8.40076062       4.83313467       0.00000000 </v>
    <v>       0.00000000       0.00000000      30.00000000 </v>
   </varray>
   <i name="volume">   2429.53798471 </i>
   <varray name="rec_basis" >
    <v>       0.05967968       0.10373282       0.00000000 </v>
    <v>      -0.05943686       0.10359430       0.00000000 </v>
    <v>       0.00000000       0.00000000       0.03333333 </v>
   </varray>
  </crystal>
  <varray name="positions" >
   <v>       0.02220601       0.66197628       0.00103714 </v>
   <v>       0.68246756       0.63785610       0.00361901 </v>
   <v>       0.30642388       0.34896273      -0.00239342 </v>
   <v>       0.35322011      -0.01652552       0.00257119 </v>
   <v>       0.98822037       0.32126508      -0.00032323 </v>
   <v>       0.32492978       0.68441538      -0.00149651 </v>
   <v>      -0.01413899       0.02838300      -0.00205919 </v>
   <v>       0.66304715       0.01840700      -0.00072167 </v>
   <v>       0.67389035       0.31131905       0.00077697 </v>
   <v>       0.11093333       0.23198667       0.94379523 </v>
   <v>       0.22259994       0.11620951       0.04345942 </v>
   <v>       0.10897197       0.55884518       0.94706860 </v>
   <v>       0.21931870       0.44871028       0.05066895 </v>
   <v>       0.10985910       0.89184562       0.95658935 </v>
   <v>       0.21921890       0.77491968       0.05608901 </v>
   <v>       0.43890318       0.22344880       0.95562560 </v>
   <v>       0.55686233       0.10872694       0.05777403 </v>
   <v>       0.45219071       0.55833329       0.95227405 </v>
   <v>       0.54282530       0.43057270       0.04791807 </v>
   <v>       0.45023843       0.89087075       0.94400131 </v>
   <v>       0.56311132       0.77212268       0.04389046 </v>
   <v>       0.77755505       0.22071306       0.94308767 </v>
   <v>       0.88095404       0.11295995       0.05507598 </v>
   <v>       0.78735513       0.55091013       0.95132408 </v>
   <v>       0.88973981       0.44901776       0.05247946 </v>
   <v>       0.76945308       0.87820541       0.95137541 </v>
   <v>       0.89785792       0.78375696       0.04649291 </v>
  </varray>
 </structure>
</modeling>
