unknown system                          
           1
     8.858446    5.103547    0.000000
    -8.858382    5.103438    0.000000
     0.000000    0.000000   30.000000
   V    Mo   W    S 
   3   3   3  18
Direct configuration=     1
   0.00000000  0.66666669  0.00000000
   0.66666669  0.66666669  0.00000000
   0.33333334  0.33333334  0.00000000
   0.33333334  0.00000000  0.00000000
   1.00000000  0.33333334  0.00000000
   0.33333334  0.66666669  0.00000000
   0.00000000  0.00000000  0.00000000
   0.66666669  0.00000000  0.00000000
   0.66666669  0.33333334  0.00000000
   0.11068511  0.22244981  0.95539999
   0.22244981  0.11068511  0.04460000
   0.11068511  0.55578315  0.95539999
   0.22244981  0.44401845  0.04460000
   0.11068511  0.88911647  0.95539999
   0.22244981  0.77735180  0.04460000
   0.44401845  0.22244981  0.95539999
   0.55578315  0.11068511  0.04460000
   0.44401845  0.55578315  0.95539999
   0.55578315  0.44401845  0.04460000
   0.44401845  0.88911647  0.95539999
   0.55578315  0.77735180  0.04460000
   0.77735180  0.22244981  0.95539999
   0.88911647  0.11068511  0.04460000
   0.77735180  0.55578315  0.95539999
   0.88911647  0.44401845  0.04460000
   0.77735180  0.88911647  0.95539999
   0.88911647  0.77735180  0.04460000
unknown system                          
           1
     8.669620    4.997416    0.000000
    -8.669443    4.997111    0.000000
     0.000000    0.000000   30.000000
   V    Mo   W    S 
   3   3   3  18
Direct configuration=     2
   0.00196835  0.66660358  0.00016748
   0.66558165  0.66636423 -0.00002352
   0.33242397  0.33372126 -0.00019104
   0.33348949 -0.00131763  0.00016211
   1.00128137  0.33464233 -0.00012328
   0.33194028  0.66647389 -0.00003591
   0.00160903  0.00101993  0.00007906
   0.66492114 -0.00023323  0.00003062
   0.66667861  0.33262983 -0.00003781
   0.11514552  0.22349031  0.95184867
   0.22334465  0.11492749  0.04805396
   0.10861751  0.55778869  0.95196483
   0.22458877  0.44201973  0.04799665
   0.10829704  0.88473735  0.95195605
   0.21751373  0.77546841  0.04813368
   0.44287020  0.22514393  0.95203712
   0.55618806  0.11137084  0.04935725
   0.44645607  0.55313431  0.95304791
   0.55370503  0.44607087  0.04694096
   0.44544321  0.88925853  0.95074358
   0.55840891  0.77631746  0.04797947
   0.77700478  0.22165769  0.95069102
   0.88821810  0.11011439  0.04918525
   0.77916245  0.55891298  0.95316136
   0.89008944  0.44855345  0.04807145
   0.77592513  0.88516237  0.95193621
   0.88734197  0.77418147  0.04686675
unknown system                          
           1
     8.486752    4.898148    0.000000
    -8.486763    4.898167    0.000000
     0.000000    0.000000   30.000000
   V    Mo   W    S 
   3   3   3  18
Direct configuration=     3
   0.00263172  0.66664691  0.00018483
   0.66531269  0.66635152 -0.00003324
   0.33199970  0.33376954 -0.00021448
   0.33387583 -0.00171907  0.00014145
   1.00152464  0.33481865 -0.00009933
   0.33153665  0.66666793 -0.00003310
   0.00204843  0.00151056  0.00012787
   0.66430843 -0.00001571  0.00003381
   0.66665476  0.33188760 -0.00009424
   0.11518748  0.22336013  0.95179380
   0.22319645  0.11492658  0.04803562
   0.10854822  0.55785827  0.95187110
   0.22467275  0.44198610  0.04802736
   0.10808366  0.88473252  0.95199774
   0.21733245  0.77534190  0.04824596
   0.44307938  0.22530036  0.95208994
   0.55641265  0.11145302  0.04943829
   0.44646315  0.55308518  0.95308252
   0.55379580  0.44596521  0.04683886
   0.44565916  0.88936846  0.95066061
   0.55853948  0.77648663  0.04796552
   0.77677816  0.22155846  0.95067668
   0.88811674  0.10986921  0.04912176
   0.77910929  0.55873227  0.95329142
   0.88993444  0.44858079  0.04805887
   0.77599054  0.88533194  0.95203200
   0.88742180  0.77435949  0.04675829
unknown system                          
           1
     8.278568    4.773095    0.000000
    -8.277590    4.771402    0.000000
     0.000000    0.000000   30.000000
   V    Mo   W    S 
   3   3   3  18
Direct configuration=     4
   0.00515616  0.66681366  0.00017419
   0.66447663  0.66661914 -0.00005492
   0.32992236  0.33361240 -0.00021715
   0.33603556 -0.00305694  0.00002282
   1.00203794  0.33487821  0.00001856
   0.33024560  0.66786284 -0.00000402
   0.00340315  0.00362735  0.00025372
   0.66202945  0.00134344  0.00003713
   0.66647377  0.32820402 -0.00025912
   0.11646161  0.22406513  0.95007424
   0.22405998  0.11614391  0.04941531
   0.10792316  0.55849290  0.95007245
   0.22545720  0.44160227  0.04955885
   0.10735108  0.88363542  0.95071856
   0.21597223  0.77451443  0.05016278
   0.44262900  0.22578226  0.95084458
   0.55645958  0.11145842  0.05146468
   0.44678039  0.55259948  0.95189080
   0.55336058  0.44625490  0.04776719
   0.44561062  0.88921346  0.94870272
   0.55886882  0.77592467  0.04935205
   0.77681192  0.22150205  0.94896398
   0.88799040  0.10966257  0.05046931
   0.77973196  0.55961282  0.95246739
   0.89042438  0.44974833  0.04947145
   0.77559928  0.88463688  0.95095107
   0.88694163  0.77346043  0.04768128
unknown system                          
           1
     8.287959    4.771954    0.000000
    -8.287762    4.771616    0.000000
     0.000000    0.000000   30.000000
   V    Mo   W    S 
   3   3   3  18
Direct configuration=     5
   0.00958179  0.66718768 -0.00001509
   0.66321616  0.66722338 -0.00006952
   0.32537541  0.33352905 -0.00004553
   0.34122344 -0.00554343 -0.00010515
   1.00296627  0.33456529  0.00016623
   0.32810964  0.67049236  0.00005248
   0.00577191  0.00773579  0.00034192
   0.65718148  0.00414084 -0.00000097
   0.66591857  0.32076905 -0.00036712
   0.11787286  0.22531392  0.94759519
   0.22571873  0.11729626  0.05105881
   0.10743478  0.55899641  0.94767445
   0.22629938  0.44185742  0.05163301
   0.10729432  0.88284119  0.94925234
   0.21493095  0.77398100  0.05296525
   0.44197998  0.22564315  0.94928770
   0.55580586  0.11117147  0.05454109
   0.44645804  0.55231632  0.95011721
   0.55286702  0.44604704  0.04882257
   0.44515356  0.88835282  0.94585610
   0.55849826  0.77549511  0.05113735
   0.77762858  0.22129675  0.94647300
   0.88750305  0.10967276  0.05217507
   0.78050153  0.55995437  0.95157896
   0.89090815  0.45073564  0.05127918
   0.77522142  0.88445181  0.94970598
   0.88679332  0.77269097  0.04888937
unknown system                          
           1
     8.279048    4.765172    0.000000
    -8.278310    4.763897    0.000000
     0.000000    0.000000   30.000000
   V    Mo   W    S 
   3   3   3  18
Direct configuration=     6
   0.01053718  0.66730188 -0.00000876
   0.66285383  0.66729747 -0.00006800
   0.32395055  0.33436630 -0.00002857
   0.34249246 -0.00601561 -0.00001314
   1.00330056  0.33424276  0.00011495
   0.32814149  0.67096669  0.00001951
   0.00590786  0.00877888  0.00035862
   0.65619849  0.00438913 -0.00012511
   0.66571494  0.31914020 -0.00033095
   0.11777136  0.22562040  0.94736767
   0.22625091  0.11699885  0.05090972
   0.10758682  0.55881589  0.94756412
   0.22614682  0.44249535  0.05178485
   0.10817957  0.88355773  0.94938050
   0.21539320  0.77435473  0.05317996
   0.44200756  0.22502873  0.94944996
   0.55537839  0.11085541  0.05503739
   0.44582543  0.55242955  0.95007777
   0.55283970  0.44540910  0.04863851
   0.44510093  0.88785505  0.94551195
   0.55806644  0.77604431  0.05114616
   0.77805268  0.22099998  0.94621408
   0.88687853  0.10954915  0.05216035
   0.78042694  0.55906333  0.95178667
   0.89072786  0.45027507  0.05126697
   0.77521188  0.88530590  0.94983355
   0.88727208  0.77308824  0.04877118
unknown system                          
           1
     8.289893    4.769500    0.000000
    -8.288969    4.767902    0.000000
     0.000000    0.000000   30.000000
   V    Mo   W    S 
   3   3   3  18
Direct configuration=     7
   0.01228704  0.66756729 -0.00002751
   0.66220738  0.66737035 -0.00002020
   0.32163869  0.33583304  0.00002343
   0.34479729 -0.00718050  0.00002366
   1.00389150  0.33371008  0.00008326
   0.32799538  0.67180074 -0.00001209
   0.00622394  0.01075394  0.00043251
   0.65427324  0.00509760 -0.00019922
   0.66552508  0.31601507 -0.00031928
   0.11779152  0.22607029  0.94692184
   0.22694718  0.11694758  0.05071221
   0.10764199  0.55868452  0.94732893
   0.22597802  0.44314567  0.05209580
   0.10908258  0.88432970  0.94956010
   0.21579506  0.77456699  0.05358737
   0.44186815  0.22440388  0.94968273
   0.55509819  0.11038366  0.05570746
   0.44517476  0.55249450  0.94991522
   0.55268963  0.44471543  0.04838348
   0.44496055  0.88726443  0.94497378
   0.55769167  0.77658336  0.05122745
   0.77849134  0.22069528  0.94583090
   0.88615524  0.10937173  0.05219393
   0.78039165  0.55814150  0.95208872
   0.89066133  0.44985773  0.05131629
   0.77518175  0.88610320  0.94989341
   0.88777430  0.77348740  0.04859570
unknown system                          
           1
     8.294770    4.769476    0.000000
    -8.293292    4.766916    0.000000
     0.000000    0.000000   30.000000
   V    Mo   W    S 
   3   3   3  18
Direct configuration=     8
   0.01247205  0.66758418 -0.00002454
   0.66208136  0.66734117 -0.00001397
   0.32148450  0.33621434  0.00001685
   0.34479484 -0.00736167  0.00004765
   1.00399193  0.33365981  0.00008016
   0.32805075  0.67172748 -0.00002652
   0.00612322  0.01101899  0.00043437
   0.65430183  0.00497415 -0.00024442
   0.66562382  0.31591937 -0.00030757
   0.11776082  0.22607789  0.94693315
   0.22699667  0.11698375  0.05059908
   0.10763826  0.55865953  0.94737749
   0.22589722  0.44320119  0.05208906
   0.10915944  0.88442171  0.94965464
   0.21584255  0.77457960  0.05355021
   0.44182344  0.22437638  0.94979863
   0.55507378  0.11033416  0.05570420
   0.44517155  0.55249436  0.94993668
   0.55264885  0.44465939  0.04829588
   0.44500075  0.88719252  0.94498879
   0.55771381  0.77663832  0.05119229
   0.77851692  0.22063675  0.94586083
   0.88605748  0.10935048  0.05216058
   0.78036661  0.55804889  0.95218691
   0.89062988  0.44981526  0.05126103
   0.77518300  0.88611257  0.94993859
   0.88780913  0.77355388  0.04850984
unknown system                          
           1
     8.297401    4.770222    0.000000
    -8.295789    4.767430    0.000000
     0.000000    0.000000   30.000000
   V    Mo   W    S 
   3   3   3  18
Direct configuration=     9
   0.01367462  0.66773351 -0.00003241
   0.66154634  0.66735410  0.00002956
   0.32023241  0.33753943  0.00002157
   0.34586653 -0.00830354  0.00008792
   1.00440234  0.33333794  0.00006692
   0.32801733  0.67199835 -0.00005685
   0.00602454  0.01240075  0.00048092
   0.65347367  0.00512245 -0.00032253
   0.66575008  0.31431554 -0.00029261
   0.11772286  0.22629646  0.94673216
   0.22737441  0.11707009  0.05032464
   0.10763683  0.55857863  0.94732903
   0.22569784  0.44355134  0.05224591
   0.10959580  0.88486520  0.94988872
   0.21605863  0.77463268  0.05369296
   0.44168296  0.22409747  0.95010696
   0.55494895  0.11001508  0.05596849
   0.44492014  0.55252528  0.94986347
   0.55249568  0.44426236  0.04804919
   0.44498171  0.88681830  0.94477093
   0.55760734  0.77691741  0.05118392
   0.77873468  0.22042534  0.94573209
   0.88561808  0.10925770  0.05214318
   0.78033376  0.55755482  0.95248102
   0.89056246  0.44960847  0.05121364
   0.77517882  0.88639957  0.95000474
   0.88807563  0.77383972  0.04828635
unknown system                          
           1
     8.302328    4.771757    0.000000
    -8.300678    4.768898    0.000000
     0.000000    0.000000   30.000000
   V    Mo   W    S 
   3   3   3  18
Direct configuration=    10
   0.01394613  0.66775128 -0.00003368
   0.66138705  0.66736045  0.00003942
   0.31997571  0.33784305  0.00002021
   0.34606930 -0.00850851  0.00010041
   1.00450012  0.33327303  0.00006633
   0.32803249  0.67203420 -0.00006461
   0.00597478  0.01273014  0.00048971
   0.65333486  0.00512102 -0.00034582
   0.66579741  0.31399207 -0.00028648
   0.11771970  0.22635228  0.94668014
   0.22746632  0.11710351  0.05026442
   0.10763533  0.55855722  0.94730734
   0.22565180  0.44362693  0.05228852
   0.10968428  0.88495548  0.94993541
   0.21610159  0.77463784  0.05373608
   0.44163749  0.22404407  0.95017178
   0.55491667  0.10994195  0.05603503
   0.44487193  0.55253242  0.94983727
   0.55245374  0.44417879  0.04799781
   0.44498069  0.88672527  0.94471358
   0.55758706  0.77696405  0.05119370
   0.77878962  0.22037997  0.94569448
   0.88552407  0.10925015  0.05215453
   0.78032874  0.55746049  0.95254340
   0.89054739  0.44957366  0.05121271
   0.77517419  0.88643548  0.95000869
   0.88812600  0.77389815  0.04823950
unknown system                          
           1
     8.303004    4.772534    0.000000
    -8.302516    4.771694    0.000000
     0.000000    0.000000   30.000000
   V    Mo   W    S 
   3   3   3  18
Direct configuration=    11
   0.01455375  0.66783517 -0.00003566
   0.66113558  0.66732134  0.00005913
   0.31938231  0.33848255  0.00001725
   0.34643234 -0.00900846  0.00012562
   1.00475877  0.33318141  0.00006526
   0.32796610  0.67208747 -0.00007909
   0.00593768  0.01341337  0.00050812
   0.65303033  0.00514323 -0.00039143
   0.66590047  0.31334618 -0.00027425
   0.11773150  0.22647199  0.94658171
   0.22767005  0.11720357  0.05012636
   0.10761327  0.55853232  0.94727740
   0.22556346  0.44377032  0.05236879
   0.10986168  0.88512156  0.95004593
   0.21615933  0.77463366  0.05381374
   0.44152770  0.22394485  0.95032514
   0.55485277  0.10979730  0.05617199
   0.44474634  0.55251541  0.94979319
   0.55232975  0.44397616  0.04788593
   0.44497490  0.88653254  0.94459458
   0.55754375  0.77707278  0.05120443
   0.77889870  0.22028222  0.94562110
   0.88531842  0.10921420  0.05216252
   0.78035802  0.55726698  0.95267837
   0.89052948  0.44952442  0.05119335
   0.77517501  0.88653964  0.95002508
   0.88826299  0.77401226  0.04813533
unknown system                          
           1
     8.309022    4.773084    0.000000
    -8.306457    4.768635    0.000000
     0.000000    0.000000   30.000000
   V    Mo   W    S 
   3   3   3  18
Direct configuration=    12
   0.01613529  0.66834615 -0.00000478
   0.66077316  0.66672334  0.00009205
   0.31768252  0.33940084 -0.00004716
   0.34649927 -0.01026299  0.00018873
   1.00596671  0.33336793  0.00008520
   0.32731057  0.67188393 -0.00011737
   0.00652800  0.01510946  0.00054701
   0.65239949  0.00516715 -0.00049005
   0.66606307  0.31235311 -0.00023726
   0.11803347  0.22683330  0.94646651
   0.22822959  0.11781168  0.04975035
   0.10745921  0.55862011  0.94724128
   0.22554461  0.44387042  0.05247447
   0.11010582  0.88521865  0.95032378
   0.21602672  0.77451247  0.05393509
   0.44110608  0.22390719  0.95078495
   0.55473204  0.10951192  0.05635508
   0.44423431  0.55210287  0.94977314
   0.55162996  0.44329620  0.04763231
   0.44494999  0.88618759  0.94441464
   0.55744049  0.77730177  0.05120685
   0.77898824  0.22009660  0.94553104
   0.88498171  0.10911037  0.05212365
   0.78075202  0.55695804  0.95295452
   0.89052511  0.44967907  0.05107039
   0.77529918  0.88681772  0.95007487
   0.88881784  0.77428956  0.04787059
unknown system                          
           1
     8.315555    4.774295    0.000000
    -8.312417    4.768851    0.000000
     0.000000    0.000000   30.000000
   V    Mo   W    S 
   3   3   3  18
Direct configuration=    13
   0.01569537  0.66787372 -0.00003680
   0.66029799  0.66738020  0.00011338
   0.31840063  0.33979991 -0.00000609
   0.34727917 -0.00983659  0.00017327
   1.00515569  0.33285356  0.00006506
   0.32816442  0.67219765 -0.00011481
   0.00559196  0.01488260  0.00055501
   0.65252517  0.00505335 -0.00047641
   0.66613444  0.31202246 -0.00025040
   0.11768502  0.22668926  0.94641375
   0.22799971  0.11735177  0.04980799
   0.10762997  0.55842184  0.94722093
   0.22534893  0.44406589  0.05251481
   0.11018463  0.88552423  0.95029199
   0.21638159  0.77464203  0.05394367
   0.44135311  0.22374671  0.95066760
   0.55476659  0.10944751  0.05632898
   0.44458824  0.55255783  0.94970325
   0.55215587  0.44363198  0.04762723
   0.44497909  0.88617060  0.94444519
   0.55748972  0.77724409  0.05121014
   0.77907629  0.22010607  0.94553591
   0.88497946  0.10921860  0.05218649
   0.78028987  0.55688086  0.95298324
   0.89042962  0.44935814  0.05116178
   0.77517296  0.88660395  0.95005221
   0.88845896  0.77432622  0.04788254
unknown system                          
           1
     8.308476    4.772843    0.000000
    -8.305868    4.768321    0.000000
     0.000000    0.000000   30.000000
   V    Mo   W    S 
   3   3   3  18
Direct configuration=    14
   0.01701054  0.66773670 -0.00004311
   0.65926966  0.66760488  0.00016413
   0.31764621  0.34108344 -0.00002962
   0.34797093 -0.01076605  0.00022659
   1.00544942  0.33267985  0.00007895
   0.32826357  0.67225970 -0.00014308
   0.00494460  0.01637011  0.00059042
   0.65227284  0.00482372 -0.00057826
   0.66654923  0.31085108 -0.00022496
   0.11759599  0.22690406  0.94621769
   0.22831242  0.11748426  0.04947107
   0.10765710  0.55832098  0.94716795
   0.22510052  0.44439230  0.05267393
   0.11044588  0.88589089  0.95057524
   0.21658368  0.77459001  0.05406442
   0.44116526  0.22359161  0.95100862
   0.55470177  0.10906497  0.05649162
   0.44447622  0.55266089  0.94955789
   0.55198252  0.44326442  0.04736870
   0.44499816  0.88578531  0.94428899
   0.55743950  0.77736349  0.05126705
   0.77928820  0.21992758  0.94543995
   0.88465280  0.10930550  0.05227090
   0.78023543  0.55655370  0.95332565
   0.89035877  0.44925582  0.05114311
   0.77518962  0.88657166  0.95002598
   0.88865361  0.77464358  0.04760008
unknown system                          
           1
     8.317247    4.774494    0.000000
    -8.314020    4.768895    0.000000
     0.000000    0.000000   30.000000
   V    Mo   W    S 
   3   3   3  18
Direct configuration=    15
   0.01542565  0.66811535 -0.00004387
   0.66079489  0.66709851  0.00010998
   0.31841178  0.33970499  0.00001776
   0.34716482 -0.00976477  0.00016363
   1.00516522  0.33281819  0.00005394
   0.32805123  0.67223083 -0.00010563
   0.00600431  0.01457568  0.00055783
   0.65233229  0.00525823 -0.00047279
   0.66600384  0.31214173 -0.00026176
   0.11768445  0.22662325  0.94641524
   0.22802697  0.11737815  0.04990625
   0.10758442  0.55843924  0.94725868
   0.22537583  0.44404289  0.05251303
   0.11020623  0.88548232  0.95020224
   0.21635767  0.77467261  0.05391439
   0.44136708  0.22374343  0.95060317
   0.55471370  0.10954950  0.05634887
   0.44458795  0.55253683  0.94974982
   0.55215058  0.44369195  0.04768643
   0.44495214  0.88621176  0.94445089
   0.55751193  0.77727428  0.05114478
   0.77905300  0.22013875  0.94555577
   0.88497744  0.10909404  0.05211427
   0.78031042  0.55688322  0.95288581
   0.89043624  0.44930692  0.05113140
   0.77513228  0.88670473  0.95012742
   0.88843206  0.77426183  0.04797236
unknown system                          
           1
     8.311373    4.770521    0.000000
    -8.308411    4.765384    0.000000
     0.000000    0.000000   30.000000
   V    Mo   W    S 
   3   3   3  18
Direct configuration=    16
   0.01546740  0.66899881 -0.00004405
   0.66168663  0.66598361  0.00013069
   0.31794979  0.34027520 -0.00001096
   0.34710597 -0.01004953  0.00019721
   1.00551613  0.33255935  0.00005339
   0.32781282  0.67229291 -0.00010550
   0.00712534  0.01480501  0.00055420
   0.65151925  0.00571196 -0.00047787
   0.66578091  0.31175346 -0.00023416
   0.11770545  0.22661248  0.94635857
   0.22835257  0.11763654  0.04992223
   0.10743300  0.55841945  0.94731311
   0.22520037  0.44425613  0.05262263
   0.11048011  0.88559679  0.95011945
   0.21630263  0.77465159  0.05394375
   0.44122882  0.22369932  0.95072121
   0.55448388  0.10953723  0.05647169
   0.44447370  0.55253619  0.94982453
   0.55193074  0.44354298  0.04769304
   0.44485306  0.88597541  0.94432447
   0.55759850  0.77751021  0.05094473
   0.77917747  0.22012478  0.94549669
   0.88463524  0.10871885  0.05194062
   0.78038172  0.55662842  0.95281247
   0.89038529  0.44913465  0.05099658
   0.77505232  0.88698091  0.95037571
   0.88857535  0.77432171  0.04805545
unknown system                          
           1
     8.320280    4.774053    0.000000
    -8.317053    4.768456    0.000000
     0.000000    0.000000   30.000000
   V    Mo   W    S 
   3   3   3  18
Direct configuration=    17
   0.01526023  0.66999989 -0.00003761
   0.66282349  0.66455893  0.00014114
   0.31783923  0.34057321 -0.00001168
   0.34685892 -0.01024778  0.00017580
   1.00571120  0.33229353  0.00005000
   0.32748535  0.67244430 -0.00009497
   0.00825313  0.01466446  0.00054457
   0.65078252  0.00624970 -0.00052455
   0.66557077  0.31169116 -0.00025778
   0.11768247  0.22657060  0.94634427
   0.22854227  0.11788197  0.05001076
   0.10727340  0.55839751  0.94740898
   0.22508167  0.44437295  0.05265201
   0.11065017  0.88564929  0.94996701
   0.21621019  0.77460756  0.05393484
   0.44115681  0.22373587  0.95077851
   0.55424132  0.10955351  0.05652389
   0.44442426  0.55260854  0.94991830
   0.55173994  0.44344968  0.04779566
   0.44474403  0.88592477  0.94433354
   0.55771662  0.77766409  0.05070413
   0.77916086  0.22016833  0.94554400
   0.88446057  0.10832795  0.05172734
   0.78048113  0.55648083  0.95264854
   0.89032836  0.44900163  0.05086077
   0.77502805  0.88721990  0.95067137
   0.88870749  0.77437207  0.04819110
unknown system                          
           1
     8.328162    4.776531    0.000000
    -8.324619    4.770386    0.000000
     0.000000    0.000000   30.000000
   V    Mo   W    S 
   3   3   3  18
Direct configuration=    18
   0.01661037  0.66950565 -0.00002931
   0.66129472  0.66512503  0.00018129
   0.31731976  0.34160246 -0.00005221
   0.34746231 -0.01104078  0.00023480
   1.00590194  0.33226700  0.00007483
   0.32769940  0.67242768 -0.00012384
   0.00710007  0.01613479  0.00056422
   0.65098297  0.00574275 -0.00060291
   0.66607810  0.31076749 -0.00021880
   0.11762937  0.22683846  0.94618067
   0.22873164  0.11794233  0.04964714
   0.10735598  0.55830294  0.94730241
   0.22491339  0.44460686  0.05276610
   0.11077320  0.88594529  0.95028762
   0.21639023  0.77454505  0.05407098
   0.44098349  0.22363729  0.95108494
   0.55427570  0.10913519  0.05661343
   0.44436309  0.55270426  0.94973050
   0.55161982  0.44311672  0.04754372
   0.44479599  0.88561749  0.94420906
   0.55765061  0.77767053  0.05085909
   0.77934542  0.22000492  0.94544205
   0.88426466  0.10860933  0.05192063
   0.78043627  0.55629344  0.95302108
   0.89027916  0.44903751  0.05091427
   0.77509028  0.88700158  0.95051706
   0.88886652  0.77467319  0.04786109
unknown system                          
           1
     8.329674    4.777026    0.000000
    -8.326116    4.770857    0.000000
     0.000000    0.000000   30.000000
   V    Mo   W    S 
   3   3   3  18
Direct configuration=    19
   0.01805152  0.66945000 -0.00002799
   0.66007261  0.66481842  0.00025049
   0.31672774  0.34287083 -0.00011163
   0.34794496 -0.01199860  0.00030318
   1.00621910  0.33212380  0.00009697
   0.32781521  0.67247585 -0.00015064
   0.00638262  0.01778575  0.00058643
   0.65088195  0.00546300 -0.00069352
   0.66651275  0.30975317 -0.00018282
   0.11758076  0.22716124  0.94599880
   0.22905805  0.11817487  0.04927146
   0.10735678  0.55820585  0.94723617
   0.22468483  0.44492381  0.05290389
   0.11099207  0.88628826  0.95056901
   0.21654665  0.77446009  0.05422303
   0.44073087  0.22356070  0.95147394
   0.55419253  0.10864361  0.05670732
   0.44426141  0.55284969  0.94956711
   0.55131773  0.44265853  0.04732988
   0.44478407  0.88523953  0.94407411
   0.55765922  0.77774795  0.05089191
   0.77955370  0.21986213  0.94535480
   0.88397034  0.10874658  0.05203709
   0.78048787  0.55602206  0.95334548
   0.89018351  0.44902902  0.05090972
   0.77512690  0.88683300  0.95048326
   0.88911869  0.77506528  0.04755244
unknown system                          
           1
     8.322137    4.773236    0.000000
    -8.319090    4.767957    0.000000
     0.000000    0.000000   30.000000
   V    Mo   W    S 
   3   3   3  18
Direct configuration=    20
   0.01819514  0.66950129 -0.00002453
   0.65998279  0.66463615  0.00025840
   0.31666905  0.34301276 -0.00012194
   0.34796584 -0.01210584  0.00031189
   1.00626327  0.33209962  0.00010267
   0.32781027  0.67248665 -0.00015216
   0.00635945  0.01796436  0.00058245
   0.65084940  0.00545868 -0.00070929
   0.66654599  0.30966725 -0.00017811
   0.11758109  0.22720494  0.94597623
   0.22910434  0.11821697  0.04923484
   0.10735139  0.55819656  0.94723152
   0.22465674  0.44496721  0.05291961
   0.11102215  0.88632971  0.95059061
   0.21655661  0.77444795  0.05424126
   0.44069343  0.22356080  0.95152023
   0.55416764  0.10858622  0.05672071
   0.44425267  0.55287477  0.94955313
   0.55126054  0.44259447  0.04731968
   0.44478023  0.88519910  0.94405973
   0.55767349  0.77776189  0.05088036
   0.77957855  0.21985146  0.94534595
   0.88392825  0.10875212  0.05204457
   0.78050971  0.55598933  0.95336780
   0.89016928  0.44902904  0.05090195
   0.77512990  0.88681293  0.95049834
   0.88915722  0.77511805  0.04752398
unknown system                          
           1
     8.325161    4.773857    0.000000
    -8.321932    4.768262    0.000000
     0.000000    0.000000   30.000000
   V    Mo   W    S 
   3   3   3  18
Direct configuration=    21
   0.01866134  0.66907908 -0.00004000
   0.65962286  0.66584922  0.00024227
   0.31660135  0.34303078 -0.00010381
   0.34793382 -0.01236065  0.00030500
   1.00626678  0.33239519  0.00010484
   0.32771325  0.67243286 -0.00016199
   0.00588408  0.01799115  0.00060779
   0.65106908  0.00509003 -0.00072917
   0.66675105  0.30957925 -0.00017967
   0.11757191  0.22713469  0.94596800
   0.22908196  0.11814649  0.04919980
   0.10733729  0.55823446  0.94719831
   0.22468813  0.44490631  0.05293368
   0.11093823  0.88620901  0.95067361
   0.21649363  0.77439848  0.05424352
   0.44072768  0.22353827  0.95150322
   0.55425297  0.10861919  0.05675542
   0.44424461  0.55280133  0.94950280
   0.55139082  0.44265571  0.04722349
   0.44482203  0.88518096  0.94403414
   0.55757622  0.77767204  0.05102717
   0.77958001  0.21977481  0.94531226
   0.88397702  0.10885093  0.05211916
   0.78047946  0.55605287  0.95349569
   0.89024401  0.44914693  0.05094395
   0.77517353  0.88680527  0.95035270
   0.88913133  0.77499980  0.04746770
unknown system                          
           1
     8.339569    4.781377    0.000000
    -8.335420    4.774178    0.000000
     0.000000    0.000000   30.000000
   V    Mo   W    S 
   3   3   3  18
Direct configuration=    22
   0.01871856  0.66940456 -0.00003208
   0.65959948  0.66465686  0.00027486
   0.31650285  0.34333179 -0.00012968
   0.34805729 -0.01248684  0.00032132
   1.00634407  0.33213651  0.00011321
   0.32775623  0.67252639 -0.00015724
   0.00603906  0.01842723  0.00058319
   0.65088620  0.00534552 -0.00076099
   0.66671698  0.30943109 -0.00017456
   0.11756418  0.22727484  0.94593133
   0.22915887  0.11825626  0.04912386
   0.10735480  0.55820585  0.94723720
   0.22460123  0.44502494  0.05294083
   0.11106074  0.88639446  0.95069914
   0.21658472  0.77441065  0.05425371
   0.44065564  0.22355047  0.95161877
   0.55417012  0.10848395  0.05675910
   0.44422874  0.55290222  0.94950468
   0.55118645  0.44246945  0.04725770
   0.44481196  0.88513010  0.94403920
   0.55767064  0.77776922  0.05090353
   0.77962049  0.21979830  0.94532984
   0.88387103  0.10880963  0.05208943
   0.78052901  0.55593205  0.95347283
   0.89015365  0.44904800  0.05089347
   0.77515002  0.88677390  0.95048127
   0.88922143  0.77520705  0.04742597
unknown system                          
           1
     8.336777    4.778902    0.000000
    -8.332465    4.771419    0.000000
     0.000000    0.000000   30.000000
   V    Mo   W    S 
   3   3   3  18
Direct configuration=    23
   0.01978124  0.66895738 -0.00001415
   0.65825452  0.66512185  0.00031707
   0.31614423  0.34409079 -0.00018955
   0.34851366 -0.01295606  0.00037845
   1.00648437  0.33216694  0.00013508
   0.32803629  0.67243426 -0.00019126
   0.00511898  0.01960685  0.00061148
   0.65106433  0.00486713 -0.00079852
   0.66710679  0.30869485 -0.00014800
   0.11754515  0.22754200  0.94578752
   0.22936400  0.11835095  0.04882718
   0.10741621  0.55810810  0.94709226
   0.22448762  0.44526337  0.05306439
   0.11113744  0.88661817  0.95093060
   0.21670919  0.77433880  0.05442609
   0.44045891  0.22347147  0.95189380
   0.55418202  0.10807975  0.05680301
   0.44416402  0.55299366  0.94934271
   0.55102789  0.44215990  0.04705678
   0.44481037  0.88482377  0.94392525
   0.55760612  0.77774364  0.05103759
   0.77979050  0.21968377  0.94524244
   0.88372281  0.10909390  0.05225754
   0.78055259  0.55580028  0.95378002
   0.89013267  0.44913675  0.05096040
   0.77521358  0.88654012  0.95032426
   0.88938893  0.77548205  0.04714747
unknown system                          
           1
     8.338168    4.779239    0.000000
    -8.333580    4.771277    0.000000
     0.000000    0.000000   30.000000
   V    Mo   W    S 
   3   3   3  18
Direct configuration=    24
   0.02040670  0.66880411 -0.00000499
   0.65745446  0.66479391  0.00034965
   0.31587631  0.34458586 -0.00022276
   0.34884481 -0.01334329  0.00040949
   1.00663062  0.33212872  0.00015470
   0.32812718  0.67244482 -0.00019996
   0.00462244  0.02044873  0.00059794
   0.65108382  0.00473145 -0.00086525
   0.66732893  0.30827084 -0.00013649
   0.11751759  0.22774081  0.94572154
   0.22942220  0.11840457  0.04860981
   0.10749650  0.55807461  0.94707866
   0.22439195  0.44540774  0.05308609
   0.11121961  0.88682385  0.95111140
   0.21685011  0.77431156  0.05446683
   0.44037524  0.22345134  0.95209754
   0.55419225  0.10783437  0.05681655
   0.44412586  0.55308680  0.94926854
   0.55085793  0.44190331  0.04695762
   0.44485623  0.88470335  0.94391554