   27   27  100    1
  0.9710400E+02  0.1002848E-08  0.1002848E-08  0.3000000E-08  0.5000000E-15
  1.000000000000000E-004
  CAR 
 unknown system                          
    159     34    120
 
  0.0000000E+00  0.0000000E+00  0.0000000E+00  0.1562500E-01
    1      -17.788210   1.000000
    2      -16.696171   1.000000
    3      -16.599016   1.000000
    4      -16.586384   1.000000
    5      -16.494821   1.000000
    6      -16.479295   1.000000
    7      -16.416043   1.000000
    8      -16.351933   1.000000
    9      -16.135142   1.000000
   10      -16.128014   1.000000
   11      -16.099207   1.000000
   12      -16.016877   1.000000
   13      -15.887411   1.000000
   14      -15.663371   1.000000
   15      -15.638482   1.000000
   16      -15.529962   1.000000
   17      -15.318282   1.000000
   18      -15.272049   1.000000
   19       -9.214480   1.000000
   20       -8.965442   1.000000
   21       -8.937171   1.000000
   22       -8.826105   1.000000
   23       -8.744464   1.000000
   24       -8.713363   1.000000
   25       -8.650744   1.000000
   26       -8.603294   1.000000
   27       -8.501314   1.000000
   28       -8.445373   1.000000
   29       -8.385516   1.000000
   30       -8.351546   1.000000
   31       -8.317002   1.000000
   32       -8.173236   1.000000
   33       -7.994576   1.000000
   34       -7.979636   1.000000
   35       -7.860815   1.000000
   36       -7.796303   1.000000
   37       -7.780053   1.000000
   38       -7.540864   1.000000
   39       -7.407341   1.000000
   40       -7.392689   1.000000
   41       -7.345826   1.000000
   42       -7.277464   1.000000
   43       -7.101905   1.000000
   44       -6.964027   1.000000
   45       -6.834070   1.000000
   46       -6.793665   1.000000
   47       -6.738492   1.000000
   48       -6.586008   1.000000
   49       -6.571060   1.000000
   50       -6.504605   1.000000
   51       -6.426837   1.000000
   52       -6.385592   1.000000
   53       -6.295355   1.000000
   54       -6.289310   1.000000
   55       -6.230392   1.000000
   56       -6.203574   1.000000
   57       -6.046525   1.000000
   58       -5.934182   1.000000
   59       -5.708892   1.000000
   60       -5.562468   1.000000
   61       -5.530614   1.000000
   62       -5.431019   1.000000
   63       -5.322104   1.000000
   64       -5.185907   1.000000
   65       -5.122012   1.000000
   66       -5.024066   1.000000
   67       -4.997100   1.000000
   68       -4.843296   1.000000
   69       -4.815985   1.000000
   70       -4.737750   1.000000
   71       -4.654792   1.000000
   72       -4.577631   1.000000
   73       -4.479964   1.000000
   74       -4.191081   1.000000
   75       -4.160407   1.000000
   76       -4.054688   1.000000
   77       -3.728772   0.999600
   78       -3.539701   0.978078
   79       -3.528123   0.973425
   80       -3.421362   0.880759
   81       -3.320380   0.678942
   82       -2.879543   0.003995
   83       -2.633094   0.000006
   84       -2.584137   0.000001
   85       -2.442087   0.000000
   86       -2.424160   0.000000
   87       -2.249351   0.000000
   88       -2.174194   0.000000
   89       -2.139760   0.000000
   90       -2.036867   0.000000
   91       -1.967542   0.000000
   92       -1.877842   0.000000
   93       -1.465963   0.000000
   94       -1.221059   0.000000
   95       -1.114884   0.000000
   96       -1.051383   0.000000
   97       -0.998329   0.000000
   98       -0.852547   0.000000
   99       -0.718433   0.000000
  100       -0.677708   0.000000
  101       -0.656473   0.000000
  102       -0.443175   0.000000
  103       -0.406748   0.000000
  104       -0.389581   0.000000
  105       -0.268957   0.000000
  106       -0.106375   0.000000
  107       -0.081381   0.000000
  108        0.025979   0.000000
  109        0.055679   0.000000
  110        0.189872   0.000000
  111        0.312199   0.000000
  112        0.409074   0.000000
  113        0.724257   0.000000
  114        0.867238   0.000000
  115        0.992118   0.000000
  116        1.094237   0.000000
  117        1.150410   0.000000
  118        1.629951   0.000000
  119        1.824322   0.000000
  120        2.133832   0.000000
 
  0.1250000E+00  0.2775558E-16  0.0000000E+00  0.3125000E-01
    1      -17.763204   1.000000
    2      -16.769380   1.000000
    3      -16.653801   1.000000
    4      -16.623005   1.000000
    5      -16.550627   1.000000
    6      -16.415370   1.000000
    7      -16.362198   1.000000
    8      -16.311974   1.000000
    9      -16.186894   1.000000
   10      -16.117116   1.000000
   11      -16.035194   1.000000
   12      -15.967609   1.000000
   13      -15.883720   1.000000
   14      -15.682955   1.000000
   15      -15.633057   1.000000
   16      -15.529155   1.000000
   17      -15.322120   1.000000
   18      -15.282063   1.000000
   19       -9.233175   1.000000
   20       -9.115354   1.000000
   21       -8.991350   1.000000
   22       -8.952277   1.000000
   23       -8.784278   1.000000
   24       -8.728793   1.000000
   25       -8.647979   1.000000
   26       -8.587298   1.000000
   27       -8.490511   1.000000
   28       -8.401689   1.000000
   29       -8.381827   1.000000
   30       -8.331729   1.000000
   31       -8.164699   1.000000
   32       -8.058734   1.000000
   33       -7.984653   1.000000
   34       -7.930424   1.000000
   35       -7.806048   1.000000
   36       -7.737235   1.000000
   37       -7.673862   1.000000
   38       -7.557080   1.000000
   39       -7.531442   1.000000
   40       -7.389816   1.000000
   41       -7.315169   1.000000
   42       -7.229446   1.000000
   43       -7.111758   1.000000
   44       -6.978062   1.000000
   45       -6.928283   1.000000
   46       -6.845466   1.000000
   47       -6.733120   1.000000
   48       -6.599996   1.000000
   49       -6.492850   1.000000
   50       -6.470824   1.000000
   51       -6.421167   1.000000
   52       -6.394403   1.000000
   53       -6.327671   1.000000
   54       -6.279539   1.000000
   55       -6.231323   1.000000
   56       -6.198337   1.000000
   57       -5.995185   1.000000
   58       -5.946564   1.000000
   59       -5.690823   1.000000
   60       -5.611166   1.000000
   61       -5.542270   1.000000
   62       -5.438076   1.000000
   63       -5.361102   1.000000
   64       -5.247660   1.000000
   65       -5.145215   1.000000
   66       -5.024828   1.000000
   67       -4.998489   1.000000
   68       -4.923042   1.000000
   69       -4.802639   1.000000
   70       -4.735111   1.000000
   71       -4.705602   1.000000
   72       -4.507387   1.000000
   73       -4.433637   1.000000
   74       -4.170978   1.000000
   75       -4.052559   1.000000
   76       -4.036903   1.000000
   77       -3.829621   0.999976
   78       -3.750350   0.999772
   79       -3.537259   0.977158
   80       -3.323992   0.688031
   81       -3.189628   0.322823
   82       -2.850114   0.002115
   83       -2.617263   0.000003
   84       -2.604174   0.000002
   85       -2.444699   0.000000
   86       -2.386334   0.000000
   87       -2.251944   0.000000
   88       -2.157832   0.000000
   89       -2.134069   0.000000
   90       -2.015424   0.000000
   91       -2.002617   0.000000
   92       -1.858906   0.000000
   93       -1.459069   0.000000
   94       -1.216380   0.000000
   95       -1.118399   0.000000
   96       -1.040299   0.000000
   97       -0.996263   0.000000
   98       -0.874178   0.000000
   99       -0.776220   0.000000
  100       -0.728858   0.000000
  101       -0.682502   0.000000
  102       -0.553395   0.000000
  103       -0.467323   0.000000
  104       -0.422447   0.000000
  105       -0.328441   0.000000
  106       -0.124706   0.000000
  107       -0.091625   0.000000
  108        0.009967   0.000000
  109        0.059941   0.000000
  110        0.227045   0.000000
  111        0.405077   0.000000
  112        0.495158   0.000000
  113        0.733772   0.000000
  114        0.837472   0.000000
  115        0.987573   0.000000
  116        1.100283   0.000000
  117        1.124386   0.000000
  118        1.674006   0.000000
  119        1.862462   0.000000
  120        2.168906   0.000000
 
  0.2500000E+00  0.5551115E-16  0.0000000E+00  0.3125000E-01
    1      -17.689410   1.000000
    2      -16.974062   1.000000
    3      -16.687074   1.000000
    4      -16.659457   1.000000
    5      -16.601982   1.000000
    6      -16.376284   1.000000
    7      -16.292280   1.000000
    8      -16.273433   1.000000
    9      -16.189000   1.000000
   10      -16.093277   1.000000
   11      -15.983334   1.000000
   12      -15.897963   1.000000
   13      -15.827319   1.000000
   14      -15.717866   1.000000
   15      -15.628281   1.000000
   16      -15.531467   1.000000
   17      -15.355734   1.000000
   18      -15.283829   1.000000
   19       -9.483080   1.000000
   20       -9.182176   1.000000
   21       -9.075865   1.000000
   22       -9.047712   1.000000
   23       -8.877596   1.000000
   24       -8.797456   1.000000
   25       -8.647308   1.000000
   26       -8.562368   1.000000
   27       -8.440655   1.000000
   28       -8.370194   1.000000
   29       -8.263044   1.000000
   30       -8.194247   1.000000
   31       -8.151569   1.000000
   32       -8.039542   1.000000
   33       -7.869752   1.000000
   34       -7.841622   1.000000
   35       -7.772497   1.000000
   36       -7.661553   1.000000
   37       -7.588223   1.000000
   38       -7.524259   1.000000
   39       -7.432660   1.000000
   40       -7.403282   1.000000
   41       -7.276066   1.000000
   42       -7.158202   1.000000
   43       -7.070526   1.000000
   44       -7.040886   1.000000
   45       -6.959326   1.000000
   46       -6.832553   1.000000
   47       -6.742652   1.000000
   48       -6.667730   1.000000
   49       -6.555509   1.000000
   50       -6.464058   1.000000
   51       -6.404850   1.000000
   52       -6.377393   1.000000
   53       -6.325449   1.000000
   54       -6.216372   1.000000
   55       -6.183130   1.000000
   56       -6.116711   1.000000
   57       -6.016277   1.000000
   58       -5.867743   1.000000
   59       -5.790805   1.000000
   60       -5.687348   1.000000
   61       -5.665613   1.000000
   62       -5.590010   1.000000
   63       -5.400743   1.000000
   64       -5.319567   1.000000
   65       -5.214222   1.000000
   66       -5.058522   1.000000
   67       -5.026424   1.000000
   68       -4.950539   1.000000
   69       -4.851854   1.000000
   70       -4.643913   1.000000
   71       -4.610461   1.000000
   72       -4.424682   1.000000
   73       -4.335802   1.000000
   74       -4.269211   1.000000
   75       -4.120413   1.000000
   76       -4.029494   1.000000
   77       -3.954336   1.000000
   78       -3.781818   0.999903
   79       -3.530371   0.974388
   80       -3.174718   0.285952
   81       -3.048931   0.072877
   82       -2.796419   0.000597
   83       -2.638494   0.000007
   84       -2.552818   0.000000
   85       -2.452616   0.000000
   86       -2.365549   0.000000
   87       -2.278610   0.000000
   88       -2.121306   0.000000
   89       -2.101811   0.000000
   90       -2.057541   0.000000
   91       -1.953419   0.000000
   92       -1.788750   0.000000
   93       -1.455080   0.000000
   94       -1.224532   0.000000
   95       -1.141480   0.000000
   96       -1.031620   0.000000
   97       -0.980280   0.000000
   98       -0.974707   0.000000
   99       -0.908646   0.000000
  100       -0.840014   0.000000
  101       -0.750117   0.000000
  102       -0.686153   0.000000
  103       -0.595317   0.000000
  104       -0.475364   0.000000
  105       -0.410202   0.000000
  106       -0.177635   0.000000
  107       -0.088245   0.000000
  108       -0.080557   0.000000
  109        0.051147   0.000000
  110        0.266483   0.000000
  111        0.517797   0.000000
  112        0.609461   0.000000
  113        0.763031   0.000000
  114        0.831401   0.000000
  115        0.988000   0.000000
  116        1.072178   0.000000
  117        1.162076   0.000000
  118        1.796275   0.000000
  119        1.972655   0.000000
  120        2.272904   0.000000
 
  0.3750000E+00  0.0000000E+00  0.0000000E+00  0.3125000E-01
    1      -17.572010   1.000000
    2      -17.187715   1.000000
    3      -16.730141   1.000000
    4      -16.674224   1.000000
    5      -16.616370   1.000000
    6      -16.377986   1.000000
    7      -16.270786   1.000000
    8      -16.256449   1.000000
    9      -16.124589   1.000000
   10      -16.056823   1.000000
   11      -15.953916   1.000000
   12      -15.888445   1.000000
   13      -15.774521   1.000000
   14      -15.703195   1.000000
   15      -15.630260   1.000000
   16      -15.530212   1.000000
   17      -15.419318   1.000000
   18      -15.267002   1.000000
   19       -9.694873   1.000000
   20       -9.298931   1.000000
   21       -9.133847   1.000000
   22       -9.048884   1.000000
   23       -8.890248   1.000000
   24       -8.847309   1.000000
   25       -8.607055   1.000000
   26       -8.486185   1.000000
   27       -8.425820   1.000000
   28       -8.289406   1.000000
   29       -8.251529   1.000000
   30       -8.229998   1.000000
   31       -8.090081   1.000000
   32       -8.039792   1.000000
   33       -7.899994   1.000000
   34       -7.855007   1.000000
   35       -7.773754   1.000000
   36       -7.690752   1.000000
   37       -7.508306   1.000000
   38       -7.470848   1.000000
   39       -7.347906   1.000000
   40       -7.250932   1.000000
   41       -7.185133   1.000000
   42       -7.150598   1.000000
   43       -7.065471   1.000000
   44       -6.941191   1.000000
   45       -6.868116   1.000000
   46       -6.807783   1.000000
   47       -6.753968   1.000000
   48       -6.602016   1.000000
   49       -6.536663   1.000000
   50       -6.489778   1.000000
   51       -6.410762   1.000000
   52       -6.351641   1.000000
   53       -6.288448   1.000000
   54       -6.201352   1.000000
   55       -6.161261   1.000000
   56       -6.097953   1.000000
   57       -5.941500   1.000000
   58       -5.918485   1.000000
   59       -5.890259   1.000000
   60       -5.859150   1.000000
   61       -5.783274   1.000000
   62       -5.705657   1.000000
   63       -5.635326   1.000000
   64       -5.319674   1.000000
   65       -5.169646   1.000000
   66       -5.066647   1.000000
   67       -5.034821   1.000000
   68       -4.963093   1.000000
   69       -4.831932   1.000000
   70       -4.715260   1.000000
   71       -4.545829   1.000000
   72       -4.458507   1.000000
   73       -4.339079   1.000000
   74       -4.270173   1.000000
   75       -4.228872   1.000000
   76       -4.047163   1.000000
   77       -3.915422   0.999999
   78       -3.674064   0.998490
   79       -3.538833   0.977755
   80       -3.025333   0.052449
   81       -2.939879   0.013013
   82       -2.782618   0.000422
   83       -2.622001   0.000004
   84       -2.528912   0.000000
   85       -2.463865   0.000000
   86       -2.416125   0.000000
   87       -2.253799   0.000000
   88       -2.153544   0.000000
   89       -2.065157   0.000000
   90       -2.016369   0.000000
   91       -1.926258   0.000000
   92       -1.649200   0.000000
   93       -1.464849   0.000000
   94       -1.268514   0.000000
   95       -1.200895   0.000000
   96       -1.118335   0.000000
   97       -1.076155   0.000000
   98       -1.019471   0.000000
   99       -0.945949   0.000000
  100       -0.927770   0.000000
  101       -0.811389   0.000000
  102       -0.739777   0.000000
  103       -0.665586   0.000000
  104       -0.522650   0.000000
  105       -0.440890   0.000000
  106       -0.212949   0.000000
  107       -0.190378   0.000000
  108       -0.117545   0.000000
  109       -0.002548   0.000000
  110        0.266772   0.000000
  111        0.576827   0.000000
  112        0.635939   0.000000
  113        0.789593   0.000000
  114        0.866511   0.000000
  115        1.005396   0.000000
  116        1.062441   0.000000
  117        1.261755   0.000000
  118        1.978974   0.000000
  119        2.145521   0.000000
  120        2.442158   0.000000
 
  0.5000000E+00  0.1110223E-15  0.0000000E+00  0.1562500E-01
    1      -17.459904   1.000000
    2      -17.333809   1.000000
    3      -16.745468   1.000000
    4      -16.683450   1.000000
    5      -16.615422   1.000000
    6      -16.383270   1.000000
    7      -16.270831   1.000000
    8      -16.250830   1.000000
    9      -16.072590   1.000000
   10      -16.031409   1.000000
   11      -15.994219   1.000000
   12      -15.825235   1.000000
   13      -15.816344   1.000000
   14      -15.670984   1.000000
   15      -15.632183   1.000000
   16      -15.507529   1.000000
   17      -15.471719   1.000000
   18      -15.256951   1.000000
   19       -9.771422   1.000000
   20       -9.342045   1.000000
   21       -9.164975   1.000000
   22       -9.065569   1.000000
   23       -8.871806   1.000000
   24       -8.824418   1.000000
   25       -8.589918   1.000000
   26       -8.493613   1.000000
   27       -8.380431   1.000000
   28       -8.343159   1.000000
   29       -8.239243   1.000000
   30       -8.151505   1.000000
   31       -8.130824   1.000000
   32       -8.044479   1.000000
   33       -7.894529   1.000000
   34       -7.818652   1.000000
   35       -7.807675   1.000000
   36       -7.782072   1.000000
   37       -7.516880   1.000000
   38       -7.447348   1.000000
   39       -7.273791   1.000000
   40       -7.260677   1.000000
   41       -7.122157   1.000000
   42       -7.025566   1.000000
   43       -7.007920   1.000000
   44       -6.912646   1.000000
   45       -6.894467   1.000000
   46       -6.799592   1.000000
   47       -6.745631   1.000000
   48       -6.574322   1.000000
   49       -6.542072   1.000000
   50       -6.432163   1.000000
   51       -6.376270   1.000000
   52       -6.347950   1.000000
   53       -6.269794   1.000000
   54       -6.159846   1.000000
   55       -6.148621   1.000000
   56       -6.115616   1.000000
   57       -6.104177   1.000000
   58       -5.983981   1.000000
   59       -5.918627   1.000000
   60       -5.850039   1.000000
   61       -5.831622   1.000000
   62       -5.715507   1.000000
   63       -5.566547   1.000000
   64       -5.357704   1.000000
   65       -5.303601   1.000000
   66       -5.103619   1.000000
   67       -5.084086   1.000000
   68       -4.943195   1.000000
   69       -4.784714   1.000000
   70       -4.752820   1.000000
   71       -4.512092   1.000000
   72       -4.467182   1.000000
   73       -4.383626   1.000000
   74       -4.267607   1.000000
   75       -4.210316   1.000000
   76       -4.044262   1.000000
   77       -3.877313   0.999995
   78       -3.633461   0.996303
   79       -3.556284   0.983531
   80       -2.936454   0.012224
   81       -2.898479   0.005892
   82       -2.803083   0.000704
   83       -2.579633   0.000001
   84       -2.560685   0.000000
   85       -2.467987   0.000000
   86       -2.450169   0.000000
   87       -2.225740   0.000000
   88       -2.168432   0.000000
   89       -2.043391   0.000000
   90       -1.987427   0.000000
   91       -1.933347   0.000000
   92       -1.570239   0.000000
   93       -1.458795   0.000000
   94       -1.310121   0.000000
   95       -1.250659   0.000000
   96       -1.146720   0.000000
   97       -1.126828   0.000000
   98       -1.081594   0.000000
   99       -0.944776   0.000000
  100       -0.926989   0.000000
  101       -0.823069   0.000000
  102       -0.773617   0.000000
  103       -0.670287   0.000000
  104       -0.527528   0.000000
  105       -0.467467   0.000000
  106       -0.236672   0.000000
  107       -0.217584   0.000000
  108       -0.142302   0.000000
  109       -0.032254   0.000000
  110        0.261900   0.000000
  111        0.580327   0.000000
  112        0.652360   0.000000
  113        0.800799   0.000000
  114        0.868684   0.000000
  115        1.030612   0.000000
  116        1.058108   0.000000
  117        1.311210   0.000000
  118        2.184651   0.000000
  119        2.244999   0.000000
  120        2.366943   0.000000
 
  0.0000000E+00  0.1250000E+00  0.0000000E+00  0.3125000E-01
    1      -17.763108   1.000000
    2      -16.774160   1.000000
    3      -16.676814   1.000000
    4      -16.603350   1.000000
    5      -16.519061   1.000000
    6      -16.436326   1.000000
    7      -16.372763   1.000000
    8      -16.295055   1.000000
    9      -16.197998   1.000000
   10      -16.112470   1.000000
   11      -16.034283   1.000000
   12      -15.984491   1.000000
   13      -15.863268   1.000000
   14      -15.679946   1.000000
   15      -15.639478   1.000000
   16      -15.535921   1.000000
   17      -15.324940   1.000000
   18      -15.276672   1.000000
   19       -9.213400   1.000000
   20       -9.133627   1.000000
   21       -8.996060   1.000000
   22       -8.932322   1.000000
   23       -8.776658   1.000000
   24       -8.719605   1.000000
   25       -8.685611   1.000000
   26       -8.550661   1.000000
   27       -8.488929   1.000000
   28       -8.449126   1.000000
   29       -8.396161   1.000000
   30       -8.266514   1.000000
   31       -8.204123   1.000000
   32       -8.064877   1.000000
   33       -7.978005   1.000000
   34       -7.889819   1.000000
   35       -7.823625   1.000000
   36       -7.749672   1.000000
   37       -7.711346   1.000000
   38       -7.572642   1.000000
   39       -7.480262   1.000000
   40       -7.386331   1.000000
   41       -7.296239   1.000000
   42       -7.240291   1.000000
   43       -7.141065   1.000000
   44       -7.011323   1.000000
   45       -6.876579   1.000000
   46       -6.824660   1.000000
   47       -6.755461   1.000000
   48       -6.624531   1.000000
   49       -6.548260   1.000000
   50       -6.451431   1.000000
   51       -6.433738   1.000000
   52       -6.387961   1.000000
   53       -6.334340   1.000000
   54       -6.268959   1.000000
   55       -6.212545   1.000000
   56       -6.174575   1.000000
   57       -5.970214   1.000000
   58       -5.945662   1.000000
   59       -5.713858   1.000000
   60       -5.569516   1.000000
   61       -5.552579   1.000000
   62       -5.439536   1.000000
   63       -5.306923   1.000000
   64       -5.297781   1.000000
   65       -5.206198   1.000000
   66       -5.085126   1.000000
   67       -5.016237   1.000000
   68       -4.856364   1.000000
   69       -4.816993   1.000000
   70       -4.712092   1.000000
   71       -4.602963   1.000000
   72       -4.491765   1.000000
   73       -4.452174   1.000000
   74       -4.170944   1.000000
   75       -4.075752   1.000000
   76       -4.043021   1.000000
   77       -3.895786   0.999997
   78       -3.700050   0.999182
   79       -3.471466   0.937372
   80       -3.416133   0.873234
   81       -3.185246   0.311782
   82       -2.848713   0.002049
   83       -2.626188   0.000004
   84       -2.588057   0.000001
   85       -2.429619   0.000000
   86       -2.413034   0.000000
   87       -2.233786   0.000000
   88       -2.156694   0.000000
   89       -2.133052   0.000000
   90       -2.027925   0.000000
   91       -1.967461   0.000000
   92       -1.879109   0.000000
   93       -1.465498   0.000000
   94       -1.232193   0.000000
   95       -1.107016   0.000000
   96       -1.049904   0.000000
   97       -0.990323   0.000000
   98       -0.865358   0.000000
   99       -0.766704   0.000000
  100       -0.732727   0.000000
  101       -0.665094   0.000000
  102       -0.511872   0.000000
  103       -0.482425   0.000000
  104       -0.436880   0.000000
  105       -0.308818   0.000000
  106       -0.180328   0.000000
  107       -0.135571   0.000000
  108       -0.015703   0.000000
  109        0.097784   0.000000
  110        0.202394   0.000000
  111        0.388350   0.000000
  112        0.488557   0.000000
  113        0.691502   0.000000
  114        0.859443   0.000000
  115        1.021697   0.000000
  116        1.099935   0.000000
  117        1.191135   0.000000
  118        1.674019   0.000000
  119        1.863703   0.000000
  120        2.168794   0.000000
 
  0.1250000E+00  0.1250000E+00  0.0000000E+00  0.3125000E-01
    1      -17.712919   1.000000
    2      -16.905632   1.000000
    3      -16.758929   1.000000
    4      -16.629559   1.000000
    5      -16.500737   1.000000
    6      -16.406482   1.000000
    7      -16.319072   1.000000
    8      -16.286702   1.000000
    9      -16.188597   1.000000
   10      -16.108428   1.000000
   11      -16.004613   1.000000
   12      -15.908641   1.000000
   13      -15.840348   1.000000
   14      -15.703617   1.000000
   15      -15.637661   1.000000
   16      -15.532822   1.000000
   17      -15.338610   1.000000
   18      -15.287333   1.000000
   19       -9.381935   1.000000
   20       -9.210969   1.000000
   21       -9.104707   1.000000
   22       -9.024549   1.000000
   23       -8.797778   1.000000
   24       -8.702645   1.000000
   25       -8.667153   1.000000
   26       -8.565858   1.000000
   27       -8.458236   1.000000
   28       -8.389866   1.000000
   29       -8.317602   1.000000
   30       -8.248757   1.000000
   31       -8.131607   1.000000
   32       -8.064307   1.000000
   33       -7.919334   1.000000
   34       -7.828435   1.000000
   35       -7.766978   1.000000
   36       -7.692022   1.000000
   37       -7.645611   1.000000
   38       -7.494820   1.000000
   39       -7.442733   1.000000
   40       -7.356498   1.000000
   41       -7.312571   1.000000
   42       -7.226211   1.000000
   43       -7.128738   1.000000
   44       -7.019537   1.000000
   45       -6.953938   1.000000
   46       -6.840937   1.000000
   47       -6.758424   1.000000
   48       -6.620091   1.000000
   49       -6.574220   1.000000
   50       -6.463341   1.000000
   51       -6.426408   1.000000
   52       -6.363841   1.000000
   53       -6.313529   1.000000
   54       -6.235671   1.000000
   55       -6.178461   1.000000
   56       -6.155738   1.000000
   57       -6.007242   1.000000
   58       -5.890440   1.000000
   59       -5.752752   1.000000
   60       -5.684358   1.000000
   61       -5.583340   1.000000
   62       -5.474929   1.000000
   63       -5.407932   1.000000
   64       -5.282468   1.000000
   65       -5.237584   1.000000
   66       -5.110039   1.000000
   67       -5.055244   1.000000
   68       -4.941181   1.000000
   69       -4.779631   1.000000
   70       -4.681991   1.000000
   71       -4.598912   1.000000
   72       -4.429128   1.000000
   73       -4.369908   1.000000
   74       -4.163135   1.000000
   75       -4.150127   1.000000
   76       -4.035751   1.000000
   77       -3.912602   0.999998
   78       -3.827765   0.999975
   79       -3.493233   0.954198
   80       -3.306402   0.642780
   81       -3.050249   0.074176
   82       -2.804682   0.000732
   83       -2.633583   0.000006
   84       -2.579614   0.000001
   85       -2.434784   0.000000
   86       -2.379011   0.000000
   87       -2.258978   0.000000
   88       -2.127781   0.000000
   89       -2.090652   0.000000
   90       -2.054492   0.000000
   91       -1.960820   0.000000
   92       -1.836510   0.000000
   93       -1.459124   0.000000
   94       -1.236583   0.000000
   95       -1.119761   0.000000
   96       -1.041682   0.000000
   97       -0.973650   0.000000
   98       -0.927679   0.000000
   99       -0.861956   0.000000
  100       -0.793559   0.000000
  101       -0.701141   0.000000
  102       -0.663284   0.000000
  103       -0.546742   0.000000
  104       -0.500872   0.000000
  105       -0.394634   0.000000
  106       -0.192444   0.000000
  107       -0.158268   0.000000
  108       -0.042466   0.000000
  109        0.078930   0.000000
  110        0.250596   0.000000
  111        0.448187   0.000000
  112        0.584171   0.000000
  113        0.760669   0.000000
  114        0.857788   0.000000
  115        1.017530   0.000000
  116        1.062828   0.000000
  117        1.187404   0.000000
  118        1.757522   0.000000
  119        1.937385   0.000000
  120        2.238403   0.000000
 
  0.2500000E+00  0.1250000E+00  0.0000000E+00  0.3125000E-01
    1      -17.616039   1.000000
    2      -17.086848   1.000000
    3      -16.863051   1.000000
    4      -16.624059   1.000000
    5      -16.500448   1.000000
    6      -16.367391   1.000000
    7      -16.304003   1.000000
    8      -16.264456   1.000000
    9      -16.147883   1.000000
   10      -16.089336   1.000000
   11      -15.956309   1.000000
   12      -15.898060   1.000000
   13      -15.785685   1.000000
   14      -15.719530   1.000000
   15      -15.624972   1.000000
   16      -15.531235   1.000000
   17      -15.386281   1.000000
   18      -15.277088   1.000000
   19       -9.601486   1.000000
   20       -9.363225   1.000000
   21       -9.175247   1.000000
   22       -9.019011   1.000000
   23       -8.820545   1.000000
   24       -8.729349   1.000000
   25       -8.607997   1.000000
   26       -8.508300   1.000000
   27       -8.413781   1.000000
   28       -8.320825   1.000000
   29       -8.286728   1.000000
   30       -8.210241   1.000000
   31       -8.130134   1.000000
   32       -8.056621   1.000000
   33       -7.941695   1.000000
   34       -7.889797   1.000000
   35       -7.784274   1.000000
   36       -7.624578   1.000000
   37       -7.525443   1.000000
   38       -7.459120   1.000000
   39       -7.401490   1.000000
   40       -7.292952   1.000000
   41       -7.223324   1.000000
   42       -7.155849   1.000000
   43       -7.046194   1.000000
   44       -6.980179   1.000000
   45       -6.897690   1.000000
   46       -6.800888   1.000000
   47       -6.742972   1.000000