       N       E                     dE             d eps       ncg     rms          rms(c)
DAV:   1     0.112626671042E+04    0.11263E+04   -0.35978E+04  8160   0.577E+02
DAV:   2    -0.177773160186E+01   -0.11280E+04   -0.10858E+04 11160   0.173E+02
DAV:   3    -0.199725330470E+03   -0.19795E+03   -0.19005E+03 10920   0.822E+01
DAV:   4    -0.208899133611E+03   -0.91738E+01   -0.88937E+01 12120   0.261E+01
DAV:   5    -0.209223860710E+03   -0.32473E+00   -0.32382E+00 11360   0.361E+00    0.274E+01
DAV:   6    -0.236386683447E+03   -0.27163E+02   -0.11199E+02 12800   0.602E+01    0.592E+01
DAV:   7    -0.196823005750E+03    0.39564E+02   -0.17541E+02 13240   0.151E+02    0.206E+01
DAV:   8    -0.190298601558E+03    0.65244E+01   -0.21173E+01 11760   0.135E+01    0.140E+01
DAV:   9    -0.188295289753E+03    0.20033E+01   -0.37457E+00 12040   0.644E+00    0.935E+00
DAV:  10    -0.187100401091E+03    0.11949E+01   -0.17500E+00 13400   0.770E+00    0.325E+00
DAV:  11    -0.187014433007E+03    0.85968E-01   -0.66143E-01 12320   0.235E+00    0.243E+00
DAV:  12    -0.186974738403E+03    0.39695E-01   -0.37901E-01 12880   0.254E+00    0.274E+00
DAV:  13    -0.186929958083E+03    0.44780E-01   -0.19394E-01 13360   0.281E+00    0.205E+00
DAV:  14    -0.186892001000E+03    0.37957E-01   -0.94883E-02 13000   0.182E+00    0.612E-01
DAV:  15    -0.186887495814E+03    0.45052E-02   -0.15375E-02 11800   0.425E-01    0.487E-01
DAV:  16    -0.186887267834E+03    0.22798E-03   -0.10714E-02 13240   0.506E-01    0.580E-01
DAV:  17    -0.186885147307E+03    0.21205E-02   -0.10313E-02 12960   0.543E-01    0.304E-01
DAV:  18    -0.186884011288E+03    0.11360E-02   -0.26595E-03 12800   0.236E-01    0.186E-01
DAV:  19    -0.186883813139E+03    0.19815E-03   -0.87474E-04 11200   0.148E-01    0.477E-02
DAV:  20    -0.186884679397E+03   -0.86626E-03   -0.84544E-04  9120   0.584E-02    0.460E-02
DAV:  21    -0.186885432979E+03   -0.75358E-03   -0.22866E-04  8160   0.514E-02    0.335E-02
DAV:  22    -0.186886287669E+03   -0.85469E-03   -0.11977E-04  7200   0.315E-02    0.384E-02
DAV:  23    -0.186887531293E+03   -0.12436E-02   -0.15345E-04  7440   0.484E-02    0.223E-02
DAV:  24    -0.186888064581E+03   -0.53329E-03   -0.29851E-05  6800   0.235E-02    0.508E-03
DAV:  25    -0.186888472612E+03   -0.40803E-03   -0.20794E-05  5440   0.101E-02    0.521E-03
DAV:  26    -0.186888710625E+03   -0.23801E-03   -0.91792E-06  6840   0.800E-03    0.164E-03
DAV:  27    -0.186888798378E+03   -0.87753E-04   -0.31819E-06  7160   0.389E-03
   1 F= -.18688880E+03 E0= -.18671741E+03  d E =-.186889E+03
       N       E                     dE             d eps       ncg     rms          rms(c)
DAV:   1    -0.187544158826E+03   -0.65545E+00   -0.27353E+02  8160   0.352E+01    0.470E+00
DAV:   2    -0.189651968104E+03   -0.21078E+01   -0.20594E+01 12320   0.160E+01    0.103E+01
DAV:   3    -0.189341345487E+03    0.31062E+00   -0.45754E+00 12400   0.127E+01    0.618E+00
DAV:   4    -0.188806497825E+03    0.53485E+00   -0.57725E-01 12600   0.429E+00    0.188E+00
DAV:   5    -0.188959655724E+03   -0.15316E+00   -0.52447E-01 12360   0.372E+00    0.590E+00
DAV:   6    -0.188779370984E+03    0.18028E+00   -0.85741E-01 12760   0.448E+00    0.215E+00
DAV:   7    -0.188766321150E+03    0.13050E-01   -0.20681E-01 11640   0.228E+00    0.227E+00
DAV:   8    -0.188735956113E+03    0.30365E-01   -0.12818E-01 13000   0.214E+00    0.147E+00
DAV:   9    -0.188715949261E+03    0.20007E-01   -0.35992E-02 12360   0.950E-01    0.342E-01
DAV:  10    -0.188715238210E+03    0.71105E-03   -0.45867E-03 10800   0.224E-01    0.198E-01
DAV:  11    -0.188714727549E+03    0.51066E-03   -0.25223E-03 12520   0.164E-01    0.102E-01
DAV:  12    -0.188714872057E+03   -0.14451E-03   -0.79052E-04 11720   0.839E-02    0.895E-02
DAV:  13    -0.188714805042E+03    0.67015E-04   -0.25223E-04  7880   0.579E-02
   2 F= -.18871481E+03 E0= -.18857528E+03  d E =-.182601E+01
       N       E                     dE             d eps       ncg     rms          rms(c)
DAV:   1    -0.190645792125E+03   -0.19309E+01   -0.31670E+01  9080   0.143E+01    0.442E+00
DAV:   2    -0.190564624414E+03    0.81168E-01   -0.27498E+00 11120   0.928E+00    0.703E+00
DAV:   3    -0.190135628145E+03    0.42900E+00   -0.13635E+00 12320   0.856E+00    0.427E+00
DAV:   4    -0.189923232961E+03    0.21240E+00   -0.76136E-01 12800   0.437E+00    0.253E+00
DAV:   5    -0.189900341731E+03    0.22891E-01   -0.37957E-01 12240   0.307E+00    0.282E+00
DAV:   6    -0.189825944797E+03    0.74397E-01   -0.15628E-01 12360   0.251E+00    0.856E-01
DAV:   7    -0.189817289071E+03    0.86557E-02   -0.17688E-02 11760   0.630E-01    0.248E-01
DAV:   8    -0.189818319488E+03   -0.10304E-02   -0.51018E-03 12520   0.397E-01    0.404E-01
DAV:   9    -0.189817176705E+03    0.11428E-02   -0.27380E-03 11200   0.331E-01    0.137E-01
DAV:  10    -0.189817442769E+03   -0.26606E-03   -0.91988E-04 10080   0.121E-01    0.128E-01
DAV:  11    -0.189817227131E+03    0.21564E-03   -0.45071E-04  8600   0.763E-02    0.206E-02
DAV:  12    -0.189817250112E+03   -0.22981E-04   -0.76850E-05  6920   0.289E-02
   3 F= -.18981725E+03 E0= -.18969784E+03  d E =-.110245E+01
       N       E                     dE             d eps       ncg     rms          rms(c)
DAV:   1    -0.191415464017E+03   -0.15982E+01   -0.82488E+01  8160   0.206E+01    0.459E+00
DAV:   2    -0.191225817170E+03    0.18965E+00   -0.54481E+00 13160   0.749E+00    0.439E+00
DAV:   3    -0.191375770594E+03   -0.14995E+00   -0.16035E+00 12240   0.895E+00    0.657E+00
DAV:   4    -0.190998462628E+03    0.37731E+00   -0.13947E+00 12320   0.777E+00    0.299E+00
DAV:   5    -0.190920776663E+03    0.77686E-01   -0.39169E-01 12400   0.344E+00    0.252E+00
DAV:   6    -0.190869233673E+03    0.51543E-01   -0.21075E-01 12400   0.305E+00    0.160E+00
DAV:   7    -0.190846298640E+03    0.22935E-01   -0.61053E-02 12640   0.138E+00    0.418E-01
DAV:   8    -0.190844639208E+03    0.16594E-02   -0.86852E-03 11520   0.462E-01    0.360E-01
DAV:   9    -0.190843734519E+03    0.90469E-03   -0.28680E-03 10560   0.357E-01    0.172E-01
DAV:  10    -0.190843968778E+03   -0.23426E-03   -0.13472E-03 11240   0.157E-01    0.113E-01
DAV:  11    -0.190843779532E+03    0.18925E-03   -0.59890E-04 10320   0.887E-02    0.433E-02
DAV:  12    -0.190843786700E+03   -0.71674E-05   -0.10266E-04  7040   0.394E-02
   4 F= -.19084379E+03 E0= -.19073582E+03  d E =-.102654E+01
       N       E                     dE             d eps       ncg     rms          rms(c)
DAV:   1    -0.192145557156E+03   -0.13018E+01   -0.17167E+02  8160   0.290E+01    0.547E+00
DAV:   2    -0.191923976576E+03    0.22158E+00   -0.90984E+00 10880   0.769E+00    0.341E+00
DAV:   3    -0.191798442681E+03    0.12553E+00   -0.14600E+00 11800   0.608E+00    0.368E+00
DAV:   4    -0.191821164366E+03   -0.22722E-01   -0.10758E+00 12360   0.755E+00    0.435E+00
DAV:   5    -0.191552096977E+03    0.26907E+00   -0.43866E-01 12360   0.453E+00    0.814E-01
DAV:   6    -0.191542464890E+03    0.96321E-02   -0.80403E-02 11440   0.116E+00    0.546E-01
DAV:   7    -0.191547121576E+03   -0.46567E-02   -0.38116E-02 11960   0.117E+00    0.102E+00
DAV:   8    -0.191537696103E+03    0.94255E-02   -0.20504E-02 11560   0.870E-01    0.171E-01
DAV:   9    -0.191538488599E+03   -0.79250E-03   -0.29018E-03 11520   0.290E-01    0.293E-01
DAV:  10    -0.191538005421E+03    0.48318E-03   -0.29908E-03 11800   0.351E-01    0.183E-01
DAV:  11    -0.191537737680E+03    0.26774E-03   -0.89898E-04 10080   0.160E-01    0.511E-02
DAV:  12    -0.191537709358E+03    0.28323E-04   -0.11564E-04  6480   0.431E-02
   5 F= -.19153771E+03 E0= -.19142713E+03  d E =-.693923E+00
       N       E                     dE             d eps       ncg     rms          rms(c)
DAV:   1    -0.191611277885E+03   -0.73540E-01   -0.52819E+00  8160   0.486E+00    0.640E-01
DAV:   2    -0.191663713754E+03   -0.52436E-01   -0.28050E-01 13440   0.274E+00    0.206E+00
DAV:   3    -0.191622566029E+03    0.41148E-01   -0.98301E-02 12520   0.207E+00    0.458E-01
DAV:   4    -0.191625489026E+03   -0.29230E-02   -0.21570E-02 10240   0.919E-01    0.766E-01
DAV:   5    -0.191619560886E+03    0.59281E-02   -0.13270E-02 11160   0.743E-01    0.232E-01
DAV:   6    -0.191620293129E+03   -0.73224E-03   -0.52902E-03 11120   0.386E-01    0.381E-01
DAV:   7    -0.191619350207E+03    0.94292E-03   -0.46431E-03 11200   0.440E-01    0.218E-01
DAV:   8    -0.191618844806E+03    0.50540E-03   -0.10078E-03  9840   0.174E-01    0.337E-02
DAV:   9    -0.191618854896E+03   -0.10090E-04   -0.98044E-05  6320   0.345E-02
   6 F= -.19161885E+03 E0= -.19150734E+03  d E =-.811455E-01
       N       E                     dE             d eps       ncg     rms          rms(c)
DAV:   1    -0.191692463166E+03   -0.73618E-01   -0.54196E+00  8160   0.490E+00    0.544E-01
DAV:   2    -0.191727387964E+03   -0.34925E-01   -0.18113E-01 13040   0.190E+00    0.171E+00
DAV:   3    -0.191699813558E+03    0.27574E-01   -0.79350E-02 12480   0.179E+00    0.495E-01
DAV:   4    -0.191700377358E+03   -0.56380E-03   -0.15739E-02 11000   0.752E-01    0.565E-01
DAV:   5    -0.191697113474E+03    0.32639E-02   -0.80316E-03 11120   0.609E-01    0.203E-01
DAV:   6    -0.191697176182E+03   -0.62709E-04   -0.30802E-03 11400   0.292E-01    0.259E-01
DAV:   7    -0.191697177462E+03   -0.12799E-05   -0.34823E-03 10600   0.379E-01    0.264E-01
DAV:   8    -0.191696490271E+03    0.68719E-03   -0.12456E-03  9200   0.212E-01    0.283E-02
DAV:   9    -0.191696514372E+03   -0.24101E-04   -0.85610E-05  5960   0.331E-02
   7 F= -.19169651E+03 E0= -.19158515E+03  d E =-.776595E-01
       N       E                     dE             d eps       ncg     rms          rms(c)
DAV:   1    -0.191764153659E+03   -0.67663E-01   -0.43629E+00  8160   0.443E+00    0.547E-01
DAV:   2    -0.191807650026E+03   -0.43496E-01   -0.19207E-01 11720   0.233E+00    0.204E+00
DAV:   3    -0.191769905503E+03    0.37745E-01   -0.93540E-02 12440   0.192E+00    0.395E-01
DAV:   4    -0.191771328551E+03   -0.14230E-02   -0.13363E-02 11400   0.742E-01    0.564E-01
DAV:   5    -0.191768070936E+03    0.32576E-02   -0.82314E-03 11080   0.609E-01    0.230E-01
DAV:   6    -0.191768763098E+03   -0.69216E-03   -0.45089E-03 11720   0.404E-01    0.385E-01
DAV:   7    -0.191767709958E+03    0.10531E-02   -0.36516E-03 11200   0.394E-01    0.148E-01
DAV:   8    -0.191767397297E+03    0.31266E-03   -0.61407E-04  9680   0.121E-01    0.211E-02
DAV:   9    -0.191767409835E+03   -0.12538E-04   -0.65593E-05  6840   0.259E-02
   8 F= -.19176741E+03 E0= -.19165737E+03  d E =-.708955E-01
       N       E                     dE             d eps       ncg     rms          rms(c)
DAV:   1    -0.191905514611E+03   -0.13812E+00   -0.34263E+01  8160   0.125E+01    0.143E+00
DAV:   2    -0.192193056144E+03   -0.28754E+00   -0.13495E+00 11440   0.574E+00    0.538E+00
DAV:   3    -0.191960052964E+03    0.23300E+00   -0.72102E-01 12320   0.513E+00    0.111E+00
DAV:   4    -0.191972814783E+03   -0.12762E-01   -0.94727E-02 12200   0.201E+00    0.177E+00
DAV:   5    -0.191943020328E+03    0.29794E-01   -0.66849E-02 11360   0.172E+00    0.650E-01
DAV:   6    -0.191944330346E+03   -0.13100E-02   -0.22684E-02 11760   0.101E+00    0.781E-01
DAV:   7    -0.191939762903E+03    0.45674E-02   -0.19310E-02 11720   0.104E+00    0.385E-01
DAV:   8    -0.191937297897E+03    0.24650E-02   -0.39676E-03 11160   0.361E-01    0.613E-02
DAV:   9    -0.191937327089E+03   -0.29193E-04   -0.56211E-04 10120   0.722E-02
   9 F= -.19193733E+03 E0= -.19183356E+03  d E =-.169917E+00
       N       E                     dE             d eps       ncg     rms          rms(c)
DAV:   1    -0.191975005770E+03   -0.37708E-01   -0.23167E+00  8160   0.327E+00    0.478E-01
DAV:   2    -0.191993756365E+03   -0.18751E-01   -0.11531E-01 12160   0.163E+00    0.135E+00
DAV:   3    -0.191978007136E+03    0.15749E-01   -0.43787E-02 12320   0.139E+00    0.386E-01
DAV:   4    -0.191978764827E+03   -0.75769E-03   -0.95802E-03 12240   0.674E-01    0.534E-01
DAV:   5    -0.191976399999E+03    0.23648E-02   -0.81336E-03 11200   0.626E-01    0.304E-01
DAV:   6    -0.191976709579E+03   -0.30958E-03   -0.40386E-03 11520   0.440E-01    0.353E-01
DAV:   7    -0.191975518928E+03    0.11907E-02   -0.23987E-03 10920   0.356E-01    0.676E-02
DAV:   8    -0.191975458779E+03    0.60149E-04   -0.16425E-04  6160   0.652E-02
  10 F= -.19197546E+03 E0= -.19187268E+03  d E =-.381317E-01
       N       E                     dE             d eps       ncg     rms          rms(c)
DAV:   1    -0.192031026254E+03   -0.55507E-01   -0.90889E+00  8160   0.635E+00    0.697E-01
DAV:   2    -0.192088850558E+03   -0.57824E-01   -0.30362E-01 11760   0.257E+00    0.225E+00
DAV:   3    -0.192045296052E+03    0.43555E-01   -0.11517E-01 12280   0.226E+00    0.562E-01
DAV:   4    -0.192048730025E+03   -0.34340E-02   -0.19473E-02 11240   0.922E-01    0.893E-01
DAV:   5    -0.192041552847E+03    0.71772E-02   -0.14458E-02 10840   0.851E-01    0.286E-01
DAV:   6    -0.192041535889E+03    0.16958E-04   -0.37707E-03 12200   0.336E-01    0.239E-01
DAV:   7    -0.192041084882E+03    0.45101E-03   -0.26204E-03 11960   0.393E-01    0.180E-01
DAV:   8    -0.192040659216E+03    0.42567E-03   -0.71701E-04  9680   0.195E-01    0.303E-02
DAV:   9    -0.192040660134E+03   -0.91844E-06   -0.10301E-04  6800   0.378E-02
  11 F= -.19204066E+03 E0= -.19194066E+03  d E =-.652014E-01
       N       E                     dE             d eps       ncg     rms          rms(c)
DAV:   1    -0.192054955804E+03   -0.14297E-01   -0.61355E-01  8160   0.166E+00    0.174E-01
DAV:   2    -0.192055926252E+03   -0.97045E-03   -0.15372E-02 13320   0.429E-01    0.217E-01
DAV:   3    -0.192055823028E+03    0.10322E-03   -0.26011E-03 12280   0.372E-01    0.210E-01
DAV:   4    -0.192055508806E+03    0.31422E-03   -0.14048E-03  9960   0.249E-01    0.164E-01
DAV:   5    -0.192055438615E+03    0.70191E-04   -0.10623E-03  9120   0.228E-01    0.147E-01
DAV:   6    -0.192055279394E+03    0.15922E-03   -0.56452E-04  8720   0.152E-01    0.719E-02
DAV:   7    -0.192055288565E+03   -0.91705E-05   -0.25481E-04  8440   0.122E-01
  12 F= -.19205529E+03 E0= -.19195568E+03  d E =-.146284E-01
       N       E                     dE             d eps       ncg     rms          rms(c)
DAV:   1    -0.192057673041E+03   -0.23936E-02   -0.12527E-02  8160   0.249E-01    0.288E-02
DAV:   2    -0.192057735560E+03   -0.62519E-04   -0.37742E-04 10080   0.805E-02
  13 F= -.19205774E+03 E0= -.19195810E+03  d E =-.244700E-02
       N       E                     dE             d eps       ncg     rms          rms(c)
DAV:   1    -0.192085853282E+03   -0.28180E-01   -0.19186E+00  8160   0.291E+00    0.286E-01
DAV:   2    -0.192091841912E+03   -0.59886E-02   -0.49596E-02 11560   0.805E-01    0.620E-01
DAV:   3    -0.192088970138E+03    0.28718E-02   -0.11955E-02 12440   0.753E-01    0.315E-01
DAV:   4    -0.192088746698E+03    0.22344E-03   -0.30710E-03 11480   0.371E-01    0.297E-01
DAV:   5    -0.192088061684E+03    0.68501E-03   -0.22119E-03  9840   0.342E-01    0.165E-01
DAV:   6    -0.192088285976E+03   -0.22429E-03   -0.12242E-03 10400   0.254E-01    0.203E-01
DAV:   7    -0.192087862191E+03    0.42379E-03   -0.82285E-04 10000   0.231E-01    0.502E-02
DAV:   8    -0.192087825494E+03    0.36697E-04   -0.77502E-05  5880   0.530E-02
  14 F= -.19208783E+03 E0= -.19198989E+03  d E =-.300899E-01
       N       E                     dE             d eps       ncg     rms          rms(c)
DAV:   1    -0.192079596501E+03    0.82657E-02   -0.17750E-01  8160   0.900E-01    0.118E-01
DAV:   2    -0.192080089118E+03   -0.49262E-03   -0.69130E-03 11480   0.282E-01    0.194E-01
DAV:   3    -0.192080083092E+03    0.60257E-05   -0.19764E-03 10520   0.296E-01    0.208E-01
DAV:   4    -0.192079661582E+03    0.42151E-03   -0.67321E-04  8160   0.170E-01    0.472E-02
DAV:   5    -0.192079724940E+03   -0.63358E-04   -0.26448E-04  7200   0.118E-01
  15 F= -.19207972E+03 E0= -.19198134E+03  d E =0.810055E-02
       N       E                     dE             d eps       ncg     rms          rms(c)
DAV:   1    -0.192110777555E+03   -0.31116E-01   -0.21083E+00  8160   0.307E+00    0.313E-01
DAV:   2    -0.192116301867E+03   -0.55243E-02   -0.52532E-02 11600   0.880E-01    0.606E-01
DAV:   3    -0.192113601892E+03    0.27000E-02   -0.11626E-02 12560   0.792E-01    0.325E-01
DAV:   4    -0.192112436238E+03    0.11657E-02   -0.24413E-03 11320   0.317E-01    0.123E-01
DAV:   5    -0.192112521767E+03   -0.85529E-04   -0.14388E-03 12280   0.221E-01    0.190E-01
DAV:   6    -0.192112453768E+03    0.67999E-04   -0.14959E-03 10160   0.280E-01    0.175E-01
DAV:   7    -0.192112252346E+03    0.20142E-03   -0.68860E-04  8320   0.181E-01    0.102E-01
DAV:   8    -0.192112146010E+03    0.10634E-03   -0.17260E-04  6480   0.108E-01    0.184E-02
DAV:   9    -0.192112146907E+03   -0.89691E-06   -0.29050E-05  6800   0.250E-02
  16 F= -.19211215E+03 E0= -.19201538E+03  d E =-.324220E-01
       N       E                     dE             d eps       ncg     rms          rms(c)
DAV:   1    -0.192136379255E+03   -0.24233E-01   -0.11845E+00  8160   0.230E+00    0.219E-01
DAV:   2    -0.192138382169E+03   -0.20029E-02   -0.29624E-02 11800   0.510E-01    0.221E-01
DAV:   3    -0.192139118570E+03   -0.73640E-03   -0.42642E-03 12200   0.468E-01    0.363E-01
DAV:   4    -0.192138051865E+03    0.10667E-02   -0.26118E-03 10040   0.370E-01    0.191E-01
DAV:   5    -0.192137863526E+03    0.18834E-03   -0.10748E-03  9560   0.245E-01    0.138E-01
DAV:   6    -0.192137781350E+03    0.82176E-04   -0.66847E-04  9920   0.168E-01
  17 F= -.19213778E+03 E0= -.19204284E+03  d E =-.256344E-01
       N       E                     dE             d eps       ncg     rms          rms(c)
DAV:   1    -0.192125325463E+03    0.12538E-01   -0.25470E-01  8160   0.109E+00    0.154E-01
DAV:   2    -0.192128879321E+03   -0.35539E-02   -0.12337E-02 12760   0.641E-01    0.562E-01
DAV:   3    -0.192125588530E+03    0.32908E-02   -0.49670E-03 11440   0.567E-01    0.843E-02
DAV:   4    -0.192125593116E+03   -0.45862E-05   -0.37604E-04  8600   0.117E-01
  18 F= -.19212559E+03 E0= -.19202971E+03  d E =0.121882E-01
       N       E                     dE             d eps       ncg     rms          rms(c)
DAV:   1    -0.192120112094E+03    0.54764E-02   -0.79434E-01  8160   0.196E+00    0.319E-01
DAV:   2    -0.192119230766E+03    0.88133E-03   -0.22376E-02 11920   0.479E-01    0.258E-01
DAV:   3    -0.192119845370E+03   -0.61460E-03   -0.57707E-03 11360   0.565E-01    0.388E-01
DAV:   4    -0.192118530169E+03    0.13152E-02   -0.46165E-03 11400   0.523E-01    0.239E-01
DAV:   5    -0.192118525242E+03    0.49267E-05   -0.25908E-03 11400   0.357E-01    0.272E-01
DAV:   6    -0.192117865445E+03    0.65980E-03   -0.14357E-03  9520   0.288E-01    0.958E-02
DAV:   7    -0.192117872179E+03   -0.67345E-05   -0.39152E-04  8160   0.133E-01
  19 F= -.19211787E+03 E0= -.19202128E+03  d E =0.772094E-02
       N       E                     dE             d eps       ncg     rms          rms(c)
DAV:   1    -0.192162683679E+03   -0.44818E-01   -0.38024E+00  8160   0.424E+00    0.503E-01
DAV:   2    -0.192167154573E+03   -0.44709E-02   -0.10547E-01 11640   0.971E-01    0.496E-01
DAV:   3    -0.192171439117E+03   -0.42845E-02   -0.20410E-02 11960   0.109E+00    0.831E-01
DAV:   4    -0.192164388510E+03    0.70506E-02   -0.11656E-02 11240   0.831E-01    0.315E-01
DAV:   5    -0.192165445571E+03   -0.10571E-02   -0.64474E-03 10240   0.562E-01    0.489E-01
DAV:   6    -0.192163612431E+03    0.18331E-02   -0.50099E-03 10800   0.489E-01    0.187E-01
DAV:   7    -0.192163426413E+03    0.18602E-03   -0.13151E-03  9800   0.276E-01    0.140E-01
DAV:   8    -0.192163177646E+03    0.24877E-03   -0.38243E-04  9400   0.158E-01    0.317E-02
DAV:   9    -0.192163164834E+03    0.12812E-04   -0.50756E-05  6160   0.356E-02
  20 F= -.19216316E+03 E0= -.19206944E+03  d E =-.452927E-01
       N       E                     dE             d eps       ncg     rms          rms(c)
DAV:   1    -0.192201468759E+03   -0.38291E-01   -0.25793E+00  8160   0.344E+00    0.369E-01
DAV:   2    -0.192207237378E+03   -0.57686E-02   -0.70748E-02 11400   0.880E-01    0.581E-01
DAV:   3    -0.192206737564E+03    0.49981E-03   -0.13901E-02 12480   0.849E-01    0.547E-01
DAV:   4    -0.192204039651E+03    0.26979E-02   -0.52336E-03 11600   0.489E-01    0.195E-01
DAV:   5    -0.192204103222E+03   -0.63570E-04   -0.22154E-03 11600   0.350E-01    0.234E-01
DAV:   6    -0.192203669757E+03    0.43346E-03   -0.17083E-03 12080   0.326E-01    0.115E-01
DAV:   7    -0.192203477908E+03    0.19185E-03   -0.42803E-04  8960   0.134E-01    0.600E-02
DAV:   8    -0.192203449402E+03    0.28505E-04   -0.10788E-04  6800   0.864E-02
  21 F= -.19220345E+03 E0= -.19211264E+03  d E =-.402846E-01
       N       E                     dE             d eps       ncg     rms          rms(c)
DAV:   1    -0.192214326303E+03   -0.10848E-01   -0.17505E-01  8160   0.896E-01    0.102E-01
DAV:   2    -0.192214964845E+03   -0.63854E-03   -0.52875E-03 11400   0.278E-01    0.219E-01
DAV:   3    -0.192214628471E+03    0.33637E-03   -0.12605E-03 10920   0.256E-01    0.116E-01
DAV:   4    -0.192214563735E+03    0.64736E-04   -0.31276E-04  8360   0.126E-01
  22 F= -.19221456E+03 E0= -.19212449E+03  d E =-.111143E-01
       N       E                     dE             d eps       ncg     rms          rms(c)
DAV:   1    -0.192229563144E+03   -0.14935E-01   -0.43994E-01  8160   0.145E+00    0.207E-01
DAV:   2    -0.192232158732E+03   -0.25956E-02   -0.17434E-02 11520   0.618E-01    0.519E-01
DAV:   3    -0.192230005636E+03    0.21531E-02   -0.55986E-03 11480   0.567E-01    0.212E-01
DAV:   4    -0.192229758987E+03    0.24665E-03   -0.13392E-03  9680   0.249E-01    0.161E-01
DAV:   5    -0.192229687710E+03    0.71277E-04   -0.10624E-03 10080   0.268E-01    0.150E-01
DAV:   6    -0.192229488202E+03    0.19951E-03   -0.56035E-04  8760   0.170E-01    0.716E-02
DAV:   7    -0.192229488318E+03   -0.11628E-06   -0.25270E-04  8240   0.130E-01
  23 F= -.19222949E+03 E0= -.19214076E+03  d E =-.149246E-01
       N       E                     dE             d eps       ncg     rms          rms(c)
DAV:   1    -0.192256632762E+03   -0.27145E-01   -0.93596E-01  8160   0.211E+00    0.296E-01
DAV:   2    -0.192258521344E+03   -0.18886E-02   -0.28673E-02 11240   0.641E-01    0.453E-01
DAV:   3    -0.192257854715E+03    0.66663E-03   -0.87315E-03 11840   0.718E-01    0.412E-01
DAV:   4    -0.192256501144E+03    0.13536E-02   -0.36455E-03 11240   0.424E-01    0.230E-01
DAV:   5    -0.192256421400E+03    0.79745E-04   -0.20510E-03 10080   0.368E-01    0.238E-01
DAV:   6    -0.192255887460E+03    0.53394E-03   -0.11193E-03  9520   0.245E-01    0.715E-02
DAV:   7    -0.192255871088E+03    0.16372E-04   -0.26132E-04  7520   0.108E-01
  24 F= -.19225587E+03 E0= -.19216943E+03  d E =-.263828E-01
       N       E                     dE             d eps       ncg     rms          rms(c)
DAV:   1    -0.192301828538E+03   -0.45941E-01   -0.29799E+00  8160   0.372E+00    0.444E-01
DAV:   2    -0.192316707906E+03   -0.14879E-01   -0.96479E-02 11400   0.135E+00    0.105E+00
DAV:   3    -0.192306407715E+03    0.10300E-01   -0.22879E-02 12120   0.120E+00    0.405E-01
DAV:   4    -0.192306088848E+03    0.31887E-03   -0.57267E-03 11400   0.543E-01    0.401E-01
DAV:   5    -0.192304695056E+03    0.13938E-02   -0.35601E-03 10640   0.492E-01    0.212E-01
DAV:   6    -0.192304591244E+03    0.10381E-03   -0.17728E-03 11440   0.306E-01    0.175E-01
DAV:   7    -0.192304467197E+03    0.12405E-03   -0.11675E-03 10760   0.293E-01    0.150E-01
DAV:   8    -0.192304167556E+03    0.29964E-03   -0.35707E-04  8840   0.150E-01    0.204E-02
DAV:   9    -0.192304170687E+03   -0.31310E-05   -0.45003E-05  6240   0.247E-02
  25 F= -.19230417E+03 E0= -.19222113E+03  d E =-.482996E-01
       N       E                     dE             d eps       ncg     rms          rms(c)
DAV:   1    -0.192311462454E+03   -0.72949E-02   -0.68119E-02  8160   0.565E-01    0.742E-02
DAV:   2    -0.192311814695E+03   -0.35224E-03   -0.24316E-03 11240   0.216E-01    0.174E-01
DAV:   3    -0.192311552856E+03    0.26184E-03   -0.67697E-04  9480   0.204E-01    0.736E-02
DAV:   4    -0.192311528692E+03    0.24164E-04   -0.14640E-04  6360   0.856E-02
  26 F= -.19231153E+03 E0= -.19222885E+03  d E =-.735801E-02
       N       E                     dE             d eps       ncg     rms          rms(c)
DAV:   1    -0.192284860149E+03    0.26693E-01   -0.12551E+00  8160   0.247E+00    0.405E-01
DAV:   2    -0.192290583214E+03   -0.57231E-02   -0.49814E-02 11760   0.105E+00    0.803E-01
DAV:   3    -0.192285011342E+03    0.55719E-02   -0.18085E-02 12320   0.110E+00    0.407E-01
DAV:   4    -0.192283024481E+03    0.19869E-02   -0.40424E-03 10920   0.420E-01    0.143E-01
DAV:   5    -0.192283029243E+03   -0.47623E-05   -0.17861E-03 11200   0.267E-01    0.206E-01
DAV:   6    -0.192282732650E+03    0.29659E-03   -0.12400E-03 10120   0.280E-01    0.134E-01
DAV:   7    -0.192282653840E+03    0.78810E-04   -0.46152E-04  8440   0.164E-01
  27 F= -.19228265E+03 E0= -.19219864E+03  d E =0.288749E-01
       N       E                     dE             d eps       ncg     rms          rms(c)
DAV:   1    -0.192279314859E+03    0.34178E-02   -0.15280E-02  8160   0.292E-01    0.529E-02
DAV:   2    -0.192279541916E+03   -0.22706E-03   -0.87514E-04 11880   0.176E-01    0.133E-01
DAV:   3    -0.192279335925E+03    0.20599E-03   -0.36875E-04  8880   0.165E-01    0.487E-02
DAV:   4    -0.192279330285E+03    0.56399E-05   -0.69226E-05  5880   0.634E-02
  28 F= -.19227933E+03 E0= -.19219521E+03  d E =0.332356E-02
       N       E                     dE             d eps       ncg     rms          rms(c)
DAV:   1    -0.192301249964E+03   -0.21914E-01   -0.10607E+00  8160   0.219E+00    0.298E-01
DAV:   2    -0.192314252029E+03   -0.13002E-01   -0.51969E-02 11040   0.126E+00    0.103E+00
DAV:   3    -0.192303108844E+03    0.11143E-01   -0.16180E-02 12120   0.104E+00    0.174E-01
DAV:   4    -0.192303464742E+03   -0.35590E-03   -0.18363E-03 11280   0.315E-01    0.277E-01
DAV:   5    -0.192302746558E+03    0.71818E-03   -0.12984E-03  9760   0.304E-01    0.973E-02
DAV:   6    -0.192302684853E+03    0.61705E-04   -0.42401E-04  9600   0.993E-02
  29 F= -.19230268E+03 E0= -.19222010E+03  d E =-.233546E-01
       N       E                     dE             d eps       ncg     rms          rms(c)
DAV:   1    -0.192304285034E+03   -0.15385E-02   -0.70129E-01  8160   0.191E+00    0.423E-01
DAV:   2    -0.192311492079E+03   -0.72070E-02   -0.46317E-02 10600   0.117E+00    0.109E+00
DAV:   3    -0.192302108080E+03    0.93840E-02   -0.24267E-02 11800   0.118E+00    0.403E-01
DAV:   4    -0.192300637803E+03    0.14703E-02   -0.51393E-03 11640   0.493E-01    0.295E-01
DAV:   5    -0.192300713553E+03   -0.75750E-04   -0.40920E-03 10160   0.526E-01    0.335E-01
DAV:   6    -0.192299440338E+03    0.12732E-02   -0.23909E-03 11200   0.354E-01    0.102E-01
DAV:   7    -0.192299400386E+03    0.39953E-04   -0.47411E-04  8600   0.168E-01
  30 F= -.19229940E+03 E0= -.19221604E+03  d E =0.328447E-02
       N       E                     dE             d eps       ncg     rms          rms(c)
DAV:   1    -0.192335213582E+03   -0.35773E-01   -0.18829E+00  8160   0.294E+00    0.375E-01
DAV:   2    -0.192348663386E+03   -0.13450E-01   -0.67508E-02 11240   0.132E+00    0.101E+00
DAV:   3    -0.192337701314E+03    0.10962E-01   -0.17839E-02 11440   0.110E+00    0.280E-01
DAV:   4    -0.192338129808E+03   -0.42849E-03   -0.41237E-03 11080   0.491E-01    0.369E-01
DAV:   5    -0.192336852341E+03    0.12775E-02   -0.27110E-03 10280   0.430E-01    0.167E-01
DAV:   6    -0.192336837638E+03    0.14703E-04   -0.11534E-03 10280   0.255E-01    0.164E-01
DAV:   7    -0.192336715048E+03    0.12259E-03   -0.88755E-04 10360   0.254E-01    0.119E-01
DAV:   8    -0.192336521040E+03    0.19401E-03   -0.24157E-04  7800   0.112E-01    0.167E-02
DAV:   9    -0.192336523785E+03   -0.27454E-05   -0.32046E-05  6240   0.206E-02
  31 F= -.19233652E+03 E0= -.19225568E+03  d E =-.371234E-01
       N       E                     dE             d eps       ncg     rms          rms(c)
DAV:   1    -0.192363447397E+03   -0.26926E-01   -0.10369E+00  8160   0.220E+00    0.284E-01
DAV:   2    -0.192369550428E+03   -0.61030E-02   -0.35618E-02 11240   0.899E-01    0.695E-01
DAV:   3    -0.192364742492E+03    0.48079E-02   -0.10033E-02 11960   0.813E-01    0.239E-01
DAV:   4    -0.192364652286E+03    0.90206E-04   -0.22394E-03 11480   0.330E-01    0.243E-01
DAV:   5    -0.192364124503E+03    0.52778E-03   -0.13991E-03 10280   0.306E-01    0.133E-01
DAV:   6    -0.192364058480E+03    0.66023E-04   -0.63299E-04 10080   0.187E-01
  32 F= -.19236406E+03 E0= -.19228463E+03  d E =-.275347E-01
       N       E                     dE             d eps       ncg     rms          rms(c)
DAV:   1    -0.192445597084E+03   -0.81473E-01   -0.19813E+01  8160   0.973E+00    0.117E+00
DAV:   2    -0.192537333525E+03   -0.91736E-01   -0.66137E-01 11760   0.356E+00    0.236E+00
DAV:   3    -0.192475409164E+03    0.61924E-01   -0.13652E-01 11960   0.308E+00    0.941E-01
DAV:   4    -0.192470198189E+03    0.52110E-02   -0.32290E-02 12320   0.134E+00    0.812E-01
DAV:   5    -0.192464043982E+03    0.61542E-02   -0.19291E-02 12440   0.122E+00    0.488E-01
DAV:   6    -0.192462607579E+03    0.14364E-02   -0.94847E-03 12280   0.645E-01    0.338E-01
DAV:   7    -0.192462306762E+03    0.30082E-03   -0.55444E-03 12040   0.584E-01    0.384E-01
DAV:   8    -0.192460712024E+03    0.15947E-02   -0.21549E-03 11880   0.380E-01    0.586E-02
DAV:   9    -0.192460679353E+03    0.32671E-04   -0.22245E-04  7600   0.603E-02
  33 F= -.19246068E+03 E0= -.19238472E+03  d E =-.966209E-01
       N       E                     dE             d eps       ncg     rms          rms(c)
DAV:   1    -0.192484620023E+03   -0.23908E-01   -0.64896E+00  8160   0.547E+00    0.670E-01
DAV:   2    -0.192516149677E+03   -0.31530E-01   -0.24370E-01 11800   0.203E+00    0.129E+00
DAV:   3    -0.192498089439E+03    0.18060E-01   -0.49873E-02 11920   0.185E+00    0.613E-01
DAV:   4    -0.192495406018E+03    0.26834E-02   -0.12298E-02 12280   0.812E-01    0.433E-01
DAV:   5    -0.192493765553E+03    0.16405E-02   -0.61576E-03 12520   0.671E-01    0.298E-01
DAV:   6    -0.192493062940E+03    0.70261E-03   -0.31852E-03 11280   0.389E-01    0.180E-01
DAV:   7    -0.192493162441E+03   -0.99501E-04   -0.19283E-03 11800   0.322E-01    0.230E-01
DAV:   8    -0.192492588951E+03    0.57349E-03   -0.85059E-04  9840   0.249E-01    0.450E-02
DAV:   9    -0.192492565878E+03    0.23073E-04   -0.75461E-05  5960   0.475E-02
  34 F= -.19249257E+03 E0= -.19241725E+03  d E =-.318865E-01
       N       E                     dE             d eps       ncg     rms          rms(c)
DAV:   1    -0.192494677707E+03   -0.20888E-02   -0.66143E-01  8160   0.171E+00    0.199E-01
DAV:   2    -0.192499078416E+03   -0.44007E-02   -0.33078E-02 12120   0.721E-01    0.459E-01
DAV:   3    -0.192497055573E+03    0.20228E-02   -0.53275E-03 12240   0.596E-01    0.178E-01
DAV:   4    -0.192496702530E+03    0.35304E-03   -0.66305E-04  9080   0.186E-01    0.909E-02
DAV:   5    -0.192496757479E+03   -0.54949E-04   -0.52735E-04 10200   0.177E-01
  35 F= -.19249676E+03 E0= -.19242105E+03  d E =-.419160E-02
       N       E                     dE             d eps       ncg     rms          rms(c)
DAV:   1    -0.192500246204E+03   -0.35437E-02   -0.23813E-01  8160   0.106E+00    0.148E-01
DAV:   2    -0.192502305071E+03   -0.20589E-02   -0.78835E-03 11040   0.542E-01    0.418E-01
DAV:   3    -0.192500296818E+03    0.20083E-02   -0.30262E-03 11760   0.476E-01    0.970E-02
DAV:   4    -0.192500377493E+03   -0.80675E-04   -0.53771E-04  8680   0.174E-01
  36 F= -.19250038E+03 E0= -.19242478E+03  d E =-.362001E-02
       N       E                     dE             d eps       ncg     rms          rms(c)
DAV:   1    -0.192503908555E+03   -0.36117E-02   -0.31429E-01  8160   0.121E+00    0.183E-01
DAV:   2    -0.192504340764E+03   -0.43221E-03   -0.11164E-02 11080   0.347E-01    0.199E-01
DAV:   3    -0.192504503213E+03   -0.16245E-03   -0.27409E-03 12280   0.417E-01    0.262E-01
DAV:   4    -0.192503820577E+03    0.68264E-03   -0.13933E-03 10120   0.302E-01    0.956E-02
DAV:   5    -0.192503678203E+03    0.14237E-03   -0.41637E-04  9880   0.104E-01    0.525E-02
DAV:   6    -0.192503729993E+03   -0.51789E-04   -0.24772E-04  9440   0.129E-01
  37 F= -.19250373E+03 E0= -.19242839E+03  d E =-.335250E-02
       N       E                     dE             d eps       ncg     rms          rms(c)
DAV:   1    -0.192504830791E+03   -0.11526E-02   -0.31971E+00  8160   0.383E+00    0.459E-01
DAV:   2    -0.192517930345E+03   -0.13100E-01   -0.12607E-01 11080   0.129E+00    0.744E-01
DAV:   3    -0.192513134445E+03    0.47959E-02   -0.23390E-02 12160   0.121E+00    0.475E-01
DAV:   4    -0.192511022954E+03    0.21115E-02   -0.62467E-03 12320   0.593E-01    0.272E-01
DAV:   5    -0.192510471380E+03    0.55157E-03   -0.26736E-03 10400   0.450E-01    0.218E-01
DAV:   6    -0.192510107277E+03    0.36410E-03   -0.15800E-03 10600   0.290E-01    0.120E-01
DAV:   7    -0.192509901509E+03    0.20577E-03   -0.62169E-04  9920   0.131E-01    0.546E-02
DAV:   8    -0.192509892384E+03    0.91249E-05   -0.15034E-04  8160   0.968E-02
  38 F= -.19250989E+03 E0= -.19243530E+03  d E =-.616239E-02
       N       E                     dE             d eps       ncg     rms          rms(c)
DAV:   1    -0.192510942722E+03   -0.10412E-02   -0.19413E-01  8160   0.996E-01    0.183E-01
DAV:   2    -0.192510786805E+03    0.15592E-03   -0.70674E-03 11760   0.293E-01    0.194E-01
DAV:   3    -0.192510863966E+03   -0.77161E-04   -0.28113E-03 12240   0.422E-01    0.248E-01
DAV:   4    -0.192510184994E+03    0.67897E-03   -0.13568E-03 10360   0.295E-01    0.949E-02
DAV:   5    -0.192510184877E+03    0.11757E-06   -0.54508E-04  8680   0.200E-01
  39 F= -.19251018E+03 E0= -.19243556E+03  d E =-.292493E-03
       N       E                     dE             d eps       ncg     rms          rms(c)
DAV:   1    -0.192510679732E+03   -0.49474E-03   -0.64378E-02  8160   0.554E-01    0.858E-02
DAV:   2    -0.192510934090E+03   -0.25436E-03   -0.32808E-03 10720   0.225E-01    0.126E-01
DAV:   3    -0.192510792923E+03    0.14117E-03   -0.66035E-04 10160   0.202E-01    0.882E-02
DAV:   4    -0.192510716417E+03    0.76506E-04   -0.21964E-04  7120   0.125E-01
  40 F= -.19251072E+03 E0= -.19243620E+03  d E =-.531540E-03
