<?xml version="1.0" encoding="ISO-8859-1"?>
<modeling>
 <generator>
  <i name="program" type="string">vasp </i>
  <i name="version" type="string">5.4.1  </i>
  <i name="subversion" type="string">05Feb16 (build Jul 05 2020 17:13:04) complex                          parallel </i>
  <i name="platform" type="string">IFC91_ompi </i>
  <i name="date" type="string">2024 04 24 </i>
  <i name="time" type="string">14:21:33 </i>
 </generator>
 <incar>
  <i type="int" name="ISTART">     0</i>
  <i type="string" name="PREC">normal</i>
  <i type="string" name="ALGO"> Normal</i>
  <i type="int" name="ISPIN">     1</i>
  <i type="int" name="ICHARG">     2</i>
  <i type="int" name="IBRION">     1</i>
  <i type="int" name="NSW">   100</i>
  <i type="int" name="ISIF">     3</i>
  <i type="int" name="ISYM">     0</i>
  <i name="SYMPREC">      0.00000001</i>
  <i name="POTIM">      0.50000000</i>
  <i type="logical" name="LREAL"> F  </i>
  <i type="logical" name="LPLANE"> F  </i>
  <i type="int" name="ISMEAR">     0</i>
  <i type="logical" name="LWAVE"> F  </i>
  <i type="logical" name="LCHARG"> F  </i>
  <v type="int" name="KPOINT_BSE">    -1     0     0     0</v>
 </incar>
 <kpoints>
  <generation param="Gamma">
   <v type="int" name="divisions">       8        8        1 </v>
   <v name="usershift">      0.00000000       0.00000000       0.00000000 </v>
   <v name="genvec1">      0.12500000       0.00000000       0.00000000 </v>
   <v name="genvec2">     -0.00000000       0.12500000       0.00000000 </v>
   <v name="genvec3">      0.00000000       0.00000000       1.00000000 </v>
   <v name="shift">      0.00000000       0.00000000       0.00000000 </v>
  </generation>
  <varray name="kpointlist" >
   <v>       0.00000000       0.00000000       0.00000000 </v>
   <v>       0.12500000       0.00000000       0.00000000 </v>
   <v>       0.25000000       0.00000000       0.00000000 </v>
   <v>       0.37500000       0.00000000       0.00000000 </v>
   <v>       0.50000000       0.00000000       0.00000000 </v>
   <v>       0.00000000       0.12500000       0.00000000 </v>
   <v>       0.12500000       0.12500000       0.00000000 </v>
   <v>       0.25000000       0.12500000       0.00000000 </v>
   <v>       0.37500000       0.12500000       0.00000000 </v>
   <v>       0.50000000       0.12500000       0.00000000 </v>
   <v>      -0.37500000       0.12500000       0.00000000 </v>
   <v>      -0.25000000       0.12500000       0.00000000 </v>
   <v>      -0.12500000       0.12500000       0.00000000 </v>
   <v>       0.00000000       0.25000000       0.00000000 </v>
   <v>       0.12500000       0.25000000       0.00000000 </v>
   <v>       0.25000000       0.25000000       0.00000000 </v>
   <v>       0.37500000       0.25000000       0.00000000 </v>
   <v>       0.50000000       0.25000000       0.00000000 </v>
   <v>      -0.37500000       0.25000000       0.00000000 </v>
   <v>      -0.25000000       0.25000000       0.00000000 </v>
   <v>      -0.12500000       0.25000000       0.00000000 </v>
   <v>      -0.00000000       0.37500000       0.00000000 </v>
   <v>       0.12500000       0.37500000       0.00000000 </v>
   <v>       0.25000000       0.37500000       0.00000000 </v>
   <v>       0.37500000       0.37500000       0.00000000 </v>
   <v>       0.50000000       0.37500000       0.00000000 </v>
   <v>      -0.37500000       0.37500000       0.00000000 </v>
   <v>      -0.25000000       0.37500000       0.00000000 </v>
   <v>      -0.12500000       0.37500000       0.00000000 </v>
   <v>       0.00000000       0.50000000       0.00000000 </v>
   <v>       0.12500000       0.50000000       0.00000000 </v>
   <v>       0.25000000       0.50000000       0.00000000 </v>
   <v>       0.37500000       0.50000000       0.00000000 </v>
   <v>       0.50000000       0.50000000       0.00000000 </v>
  </varray>
  <varray name="weights" >
   <v>       0.01562500 </v>
   <v>       0.03125000 </v>
   <v>       0.03125000 </v>
   <v>       0.03125000 </v>
   <v>       0.01562500 </v>
   <v>       0.03125000 </v>
   <v>       0.03125000 </v>
   <v>       0.03125000 </v>
   <v>       0.03125000 </v>
   <v>       0.03125000 </v>
   <v>       0.03125000 </v>
   <v>       0.03125000 </v>
   <v>       0.03125000 </v>
   <v>       0.03125000 </v>
   <v>       0.03125000 </v>
   <v>       0.03125000 </v>
   <v>       0.03125000 </v>
   <v>       0.03125000 </v>
   <v>       0.03125000 </v>
   <v>       0.03125000 </v>
   <v>       0.03125000 </v>
   <v>       0.03125000 </v>
   <v>       0.03125000 </v>
   <v>       0.03125000 </v>
   <v>       0.03125000 </v>
   <v>       0.03125000 </v>
   <v>       0.03125000 </v>
   <v>       0.03125000 </v>
   <v>       0.03125000 </v>
   <v>       0.01562500 </v>
   <v>       0.03125000 </v>
   <v>       0.03125000 </v>
   <v>       0.03125000 </v>
   <v>       0.01562500 </v>
  </varray>
 </kpoints>
 <parameters>
  <separator name="general" >
   <i type="string" name="SYSTEM">unknown system</i>
   <i type="logical" name="LCOMPAT"> F  </i>
  </separator>
  <separator name="electronic" >
   <i type="string" name="PREC">normal</i>
   <i name="ENMAX">    280.00000000</i>
   <i name="ENAUG">    373.43800000</i>
   <i name="EDIFF">      0.00010000</i>
   <i type="int" name="IALGO">    38</i>
   <i type="int" name="IWAVPR">    11</i>
   <i type="int" name="NBANDS">   120</i>
   <i name="NELECT">    159.00000000</i>
   <i type="int" name="TURBO">     0</i>
   <i type="int" name="IRESTART">     0</i>
   <i type="int" name="NREBOOT">     0</i>
   <i type="int" name="NMIN">     0</i>
   <i name="EREF">      0.00000000</i>
   <separator name="electronic smearing" >
    <i type="int" name="ISMEAR">     0</i>
    <i name="SIGMA">      0.20000000</i>
    <i name="KSPACING">      0.50000000</i>
    <i type="logical" name="KGAMMA"> T  </i>
   </separator>
   <separator name="electronic projectors" >
    <i type="logical" name="LREAL"> F  </i>
    <v name="ROPT">      0.00000000      0.00000000      0.00000000      0.00000000</v>
    <i type="int" name="LMAXPAW">  -100</i>
    <i type="int" name="LMAXMIX">     2</i>
    <i type="logical" name="NLSPLINE"> F  </i>
   </separator>
   <separator name="electronic startup" >
    <i type="int" name="ISTART">     0</i>
    <i type="int" name="ICHARG">     2</i>
    <i type="int" name="INIWAV">     1</i>
   </separator>
   <separator name="electronic spin" >
    <i type="int" name="ISPIN">     1</i>
    <i type="logical" name="LNONCOLLINEAR"> F  </i>
    <v name="MAGMOM">      1.00000000      1.00000000      1.00000000      1.00000000      1.00000000      1.00000000      1.00000000      1.00000000      1.00000000      1.00000000      1.00000000      1.00000000      1.00000000      1.00000000      1.00000000      1.00000000      1.00000000      1.00000000      1.00000000      1.00000000
      1.00000000      1.00000000      1.00000000      1.00000000      1.00000000      1.00000000      1.00000000</v>
    <i name="NUPDOWN">     -1.00000000</i>
    <i type="logical" name="LSORBIT"> F  </i>
    <v name="SAXIS">      0.00000000      0.00000000      1.00000000</v>
    <i type="logical" name="LSPIRAL"> F  </i>
    <v name="QSPIRAL">      0.00000000      0.00000000      0.00000000</v>
    <i type="logical" name="LZEROZ"> F  </i>
   </separator>
   <separator name="electronic exchange-correlation" >
    <i type="logical" name="LASPH"> F  </i>
    <i type="logical" name="LMETAGGA"> F  </i>
   </separator>
   <separator name="electronic convergence" >
    <i type="int" name="NELM">    60</i>
    <i type="int" name="NELMDL">    -5</i>
    <i type="int" name="NELMIN">     2</i>
    <i name="ENINI">    280.00000000</i>
    <separator name="electronic convergence detail" >
     <i type="logical" name="LDIAG"> T  </i>
     <i type="logical" name="LSUBROT"> F  </i>
     <i name="WEIMIN">      0.00100000</i>
     <i name="EBREAK">      0.00000021</i>
     <i name="DEPER">      0.30000000</i>
     <i type="int" name="NRMM">     4</i>
     <i name="TIME">      0.40000000</i>
    </separator>
   </separator>
   <separator name="electronic mixer" >
    <i name="AMIX">      0.40000000</i>
    <i name="BMIX">      1.00000000</i>
    <i name="AMIN">      0.10000000</i>
    <i name="AMIX_MAG">      1.60000000</i>
    <i name="BMIX_MAG">      1.00000000</i>
    <separator name="electronic mixer details" >
     <i type="int" name="IMIX">     4</i>
     <i type="logical" name="MIXFIRST"> F  </i>
     <i type="int" name="MAXMIX">   -45</i>
     <i name="WC">    100.00000000</i>
     <i type="int" name="INIMIX">     1</i>
     <i type="int" name="MIXPRE">     1</i>
     <i type="int" name="MREMOVE">     5</i>
    </separator>
   </separator>
   <separator name="electronic dipolcorrection" >
    <i type="logical" name="LDIPOL"> F  </i>
    <i type="logical" name="LMONO"> F  </i>
    <i type="int" name="IDIPOL">     0</i>
    <i name="EPSILON">      1.00000000</i>
    <v name="DIPOL">   -100.00000000   -100.00000000   -100.00000000</v>
    <i name="EFIELD">      0.00000000</i>
   </separator>
  </separator>
  <separator name="grids" >
   <i type="int" name="NGX">    42</i>
   <i type="int" name="NGY">    42</i>
   <i type="int" name="NGZ">   126</i>
   <i type="int" name="NGXF">    84</i>
   <i type="int" name="NGYF">    84</i>
   <i type="int" name="NGZF">   252</i>
   <i type="logical" name="ADDGRID"> F  </i>
  </separator>
  <separator name="ionic" >
   <i type="int" name="NSW">   100</i>
   <i type="int" name="IBRION">     1</i>
   <i type="int" name="ISIF">     3</i>
   <i name="PSTRESS">      0.00000000</i>
   <i name="EDIFFG">      0.00100000</i>
   <i type="int" name="NFREE">     0</i>
   <i name="POTIM">      0.50000000</i>
   <i name="SMASS">     -3.00000000</i>
   <i name="SCALEE">      1.00000000</i>
  </separator>
  <separator name="ionic md" >
   <i name="TEBEG">      0.00010000</i>
   <i name="TEEND">      0.00010000</i>
   <i type="int" name="NBLOCK">     1</i>
   <i type="int" name="KBLOCK">   100</i>
   <i type="int" name="NPACO">   256</i>
   <i name="APACO">     16.00000000</i>
  </separator>
  <separator name="symmetry" >
   <i type="int" name="ISYM">     0</i>
   <i name="SYMPREC">      0.00000001</i>
  </separator>
  <separator name="dos" >
   <i type="logical" name="LORBIT"> F  </i>
   <v name="RWIGS">     -1.00000000     -1.00000000     -1.00000000     -1.00000000</v>
   <i type="int" name="NEDOS">   301</i>
   <i name="EMIN">     10.00000000</i>
   <i name="EMAX">    -10.00000000</i>
   <i name="EFERMI">      0.00000000</i>
  </separator>
  <separator name="writing" >
   <i type="int" name="NWRITE">     2</i>
   <i type="logical" name="LWAVE"> F  </i>
   <i type="logical" name="LCHARG"> F  </i>
   <i type="logical" name="LPARD"> F  </i>
   <i type="logical" name="LVTOT"> F  </i>
   <i type="logical" name="LVHAR"> F  </i>
   <i type="logical" name="LELF"> F  </i>
   <i type="logical" name="LOPTICS"> F  </i>
   <v name="STM">      0.00000000      0.00000000      0.00000000      0.00000000      0.00000000      0.00000000      0.00000000</v>
  </separator>
  <separator name="performance" >
   <i type="int" name="NPAR">    40</i>
   <i type="int" name="NSIM">     4</i>
   <i type="int" name="NBLK">    -1</i>
   <i type="logical" name="LPLANE"> F  </i>
   <i type="logical" name="LSCALAPACK"> T  </i>
   <i type="logical" name="LSCAAWARE"> F  </i>
   <i type="logical" name="LSCALU"> F  </i>
   <i type="logical" name="LASYNC"> F  </i>
   <i type="logical" name="LORBITALREAL"> F  </i>
  </separator>
  <separator name="miscellaneous" >
   <i type="int" name="IDIOT">     3</i>
   <i type="logical" name="LMUSIC"> F  </i>
   <v name="POMASS">     50.94100000     95.94000000    183.85000000     32.06600000</v>
   <v name="DARWINR">      0.00000000      0.00000000      0.00000000      0.00000000</v>
   <v name="DARWINV">      1.00000000      1.00000000      1.00000000      1.00000000</v>
   <i type="logical" name="LCORR"> T  </i>
  </separator>
  <i type="logical" name="GGA_COMPAT"> T  </i>
  <i type="logical" name="LBERRY"> F  </i>
  <i type="int" name="ICORELEVEL">     0</i>
  <i type="logical" name="LDAU"> F  </i>
  <i type="int" name="I_CONSTRAINED_M">     0</i>
  <separator name="electronic exchange-correlation" >
   <i type="string" name="GGA">--</i>
   <i type="int" name="VOSKOWN">     0</i>
   <i type="logical" name="LHFCALC"> F  </i>
   <i type="string" name="PRECFOCK"></i>
   <i type="logical" name="LSYMGRAD"> F  </i>
   <i type="logical" name="LHFONE"> F  </i>
   <i type="logical" name="LRHFCALC"> F  </i>
   <i type="logical" name="LTHOMAS"> F  </i>
   <i type="logical" name="LMODELHF"> F  </i>
   <i name="ENCUT4O">     -1.00000000</i>
   <i type="int" name="EXXOEP">     0</i>
   <i type="int" name="FOURORBIT">     0</i>
   <i name="AEXX">      0.00000000</i>
   <i name="HFALPHA">      0.00000000</i>
   <i name="MCALPHA">      0.00000000</i>
   <i name="ALDAX">      1.00000000</i>
   <i name="AGGAX">      1.00000000</i>
   <i name="ALDAC">      1.00000000</i>
   <i name="AGGAC">      1.00000000</i>
   <i type="int" name="NKREDX">     1</i>
   <i type="int" name="NKREDY">     1</i>
   <i type="int" name="NKREDZ">     1</i>
   <i type="logical" name="SHIFTRED"> F  </i>
   <i type="logical" name="ODDONLY"> F  </i>
   <i type="logical" name="EVENONLY"> F  </i>
   <i type="int" name="LMAXFOCK">     0</i>
   <i type="int" name="NMAXFOCKAE">     0</i>
   <i type="logical" name="LFOCKAEDFT"> F  </i>
   <i name="HFSCREEN">      0.00000000</i>
   <i name="HFSCREENC">      0.00000000</i>
   <i type="int" name="NBANDSGWLOW">     0</i>
  </separator>
  <separator name="vdW DFT" >
   <i type="logical" name="LUSE_VDW"> F  </i>
   <i name="Zab_VDW">     -0.84910000</i>
   <i name="PARAM1">      0.12340000</i>
   <i name="PARAM2">      1.00000000</i>
   <i name="PARAM3">      0.00000000</i>
  </separator>
  <separator name="model GW" >
   <i type="int" name="MODEL_GW">     0</i>
   <i name="MODEL_EPS0">     58.26239943</i>
   <i name="MODEL_ALPHA">      1.00000000</i>
  </separator>
  <separator name="linear response parameters" >
   <i type="logical" name="LEPSILON"> F  </i>
   <i type="logical" name="LRPA"> F  </i>
   <i type="logical" name="LNABLA"> F  </i>
   <i type="logical" name="LVEL"> F  </i>
   <i type="int" name="KINTER">     0</i>
   <i name="CSHIFT">      0.10000000</i>
   <i name="OMEGAMAX">     -1.00000000</i>
   <i name="DEG_THRESHOLD">      0.00200000</i>
  </separator>
  <separator name="orbital magnetization" >
   <i type="logical" name="NUCIND"> F  </i>
   <v name="MAGPOS">      0.00000000      0.00000000      0.00000000</v>
   <i type="logical" name="LNICSALL"> T  </i>
   <i type="logical" name="ORBITALMAG"> F  </i>
   <i type="logical" name="LMAGBLOCH"> F  </i>
   <i type="logical" name="LCHIMAG"> F  </i>
   <i type="logical" name="LGAUGE"> T  </i>
   <i type="int" name="MAGATOM">     0</i>
   <v name="MAGDIPOL">      0.00000000      0.00000000      0.00000000</v>
   <v name="AVECCONST">      0.00000000      0.00000000      0.00000000</v>
  </separator>
  <separator name="response functions" >
   <i type="logical" name="LADDER"> F  </i>
   <i type="logical" name="LFXC"> F  </i>
   <i type="logical" name="LHARTREE"> T  </i>
   <i type="int" name="IBSE">     0</i>
   <v type="int" name="KPOINT">    -1     0     0     0</v>
   <i type="logical" name="LTCTE"> F  </i>
   <i type="logical" name="LTETE"> F  </i>
   <i type="logical" name="LTRIPLET"> F  </i>
   <i type="logical" name="LFXCEPS"> F  </i>
   <i type="logical" name="LFXHEG"> F  </i>
   <i type="int" name="NATURALO">     0</i>
   <i type="logical" name="L2ORDER"> F  </i>
   <i type="logical" name="LUSEW"> F  </i>
   <i name="ENCUTGW">     -2.00000000</i>
   <i name="ENCUTGWSOFT">     -2.00000000</i>
   <i name="ENCUTLF">     -1.00000000</i>
   <i type="int" name="LMAXMP2">    -1</i>
   <i name="SCISSOR">      0.00000000</i>
   <i type="int" name="NOMEGA">     0</i>
   <i type="int" name="NOMEGAR">     0</i>
   <i type="int" name="NBANDSGW">    -1</i>
   <i type="int" name="NBANDSO">    -1</i>
   <i type="int" name="NBANDSV">    -1</i>
   <i type="int" name="NELM">     1</i>
   <i type="int" name="NELMHF">     1</i>
   <i type="int" name="DIM">     3</i>
   <i type="int" name="ANTIRES">     0</i>
   <i name="OMEGAMAX">    -30.00000000</i>
   <i name="OMEGAMIN">    -30.00000000</i>
   <i name="OMEGATL">   -200.00000000</i>
   <i type="int" name="OMEGAGRID">     0</i>
   <i name="CSHIFT">     -0.10000000</i>
   <i type="logical" name="SELFENERGY"> F  </i>
   <i type="logical" name="LSPECTRAL"> F  </i>
   <i type="logical" name="LSPECTRALGW"> F  </i>
   <i type="logical" name="LSINGLES"> F  </i>
   <i type="logical" name="LFERMIGW"> F  </i>
   <i type="logical" name="ODDONLYGW"> F  </i>
   <i type="logical" name="EVENONLYGW"> F  </i>
   <i type="int" name="NKREDLFX">     1</i>
   <i type="int" name="NKREDLFY">     1</i>
   <i type="int" name="NKREDLFZ">     1</i>
   <i type="int" name="MAXMEM">  1800</i>
   <i type="int" name="TELESCOPE">     0</i>
   <i type="int" name="TAUPAR">     1</i>
   <i type="int" name="OMEGAPAR">    -1</i>
   <i name="LAMBDA">      1.00000000</i>
  </separator>
  <separator name="External order field" >
   <i name="OFIELD_KAPPA">      0.00000000</i>
   <v name="OFIELD_K">      0.00000000      0.00000000      0.00000000</v>
   <i name="OFIELD_Q6_NEAR">      0.00000000</i>
   <i name="OFIELD_Q6_FAR">      0.00000000</i>
   <i name="OFIELD_A">      0.00000000</i>
  </separator>
 </parameters>
 <atominfo>
  <atoms>      27 </atoms>
  <types>       4 </types>
  <array name="atoms" >
   <dimension dim="1">ion</dimension>
   <field type="string">element</field>
   <field type="int">atomtype</field>
   <set>
    <rc><c>V </c><c>   1</c></rc>
    <rc><c>V </c><c>   1</c></rc>
    <rc><c>V </c><c>   1</c></rc>
    <rc><c>Mo</c><c>   2</c></rc>
    <rc><c>Mo</c><c>   2</c></rc>
    <rc><c>Mo</c><c>   2</c></rc>
    <rc><c>W </c><c>   3</c></rc>
    <rc><c>W </c><c>   3</c></rc>
    <rc><c>W </c><c>   3</c></rc>
    <rc><c>S </c><c>   4</c></rc>
    <rc><c>S </c><c>   4</c></rc>
    <rc><c>S </c><c>   4</c></rc>
    <rc><c>S </c><c>   4</c></rc>
    <rc><c>S </c><c>   4</c></rc>
    <rc><c>S </c><c>   4</c></rc>
    <rc><c>S </c><c>   4</c></rc>
    <rc><c>S </c><c>   4</c></rc>
    <rc><c>S </c><c>   4</c></rc>
    <rc><c>S </c><c>   4</c></rc>
    <rc><c>S </c><c>   4</c></rc>
    <rc><c>S </c><c>   4</c></rc>
    <rc><c>S </c><c>   4</c></rc>
    <rc><c>S </c><c>   4</c></rc>
    <rc><c>S </c><c>   4</c></rc>
    <rc><c>S </c><c>   4</c></rc>
    <rc><c>S </c><c>   4</c></rc>
    <rc><c>S </c><c>   4</c></rc>
   </set>
  </array>
  <array name="atomtypes" >
   <dimension dim="1">type</dimension>
   <field type="int">atomspertype</field>
   <field type="string">element</field>
   <field>mass</field>
   <field>valence</field>
   <field type="string">pseudopotential</field>
   <set>
    <rc><c>   3</c><c>V </c><c>     50.94100000</c><c>      5.00000000</c><c> PAW_PBE V 08Apr2002                    </c></rc>
    <rc><c>   3</c><c>Mo</c><c>     95.94000000</c><c>      6.00000000</c><c> PAW_PBE Mo 08Apr2002                   </c></rc>
    <rc><c>   3</c><c>W </c><c>    183.85000000</c><c>      6.00000000</c><c> PAW_PBE W 08Apr2002                    </c></rc>
    <rc><c>  18</c><c>S </c><c>     32.06600000</c><c>      6.00000000</c><c>  PAW_PBE S 17Jan2003                   </c></rc>
   </set>
  </array>
 </atominfo>
 <structure name="initialpos" >
  <crystal>
   <varray name="basis" >
    <v>       8.66999996       5.03999989       0.00000000 </v>
    <v>      -8.66999982       5.04000013       0.00000000 </v>
    <v>       0.00000000       0.00000000      30.00000000 </v>
   </varray>
   <i name="volume">   2621.80797419 </i>
   <varray name="rec_basis" >
    <v>       0.05767013       0.09920635       0.00000000 </v>
    <v>      -0.05767013       0.09920635       0.00000000 </v>
    <v>       0.00000000       0.00000000       0.03333333 </v>
   </varray>
  </crystal>
  <varray name="positions" >
   <v>       0.66666669       0.66666669       0.00000000 </v>
   <v>       0.00000000       0.00000000       0.00000000 </v>
   <v>       0.33333334       0.00000000       0.00000000 </v>
   <v>       0.00000000       0.66666669       0.00000000 </v>
   <v>       1.00000000       0.33333334       0.00000000 </v>
   <v>       0.66666669       0.33333334       0.00000000 </v>
   <v>       0.33333334       0.33333334       0.00000000 </v>
   <v>       0.33333334       0.66666669       0.00000000 </v>
   <v>       0.66666669       0.00000000       0.00000000 </v>
   <v>       0.11068511       0.22244981       0.95539999 </v>
   <v>       0.22244981       0.11068511       0.04460000 </v>
   <v>       0.11068511       0.55578315       0.95539999 </v>
   <v>       0.22244981       0.44401845       0.04460000 </v>
   <v>       0.11068511       0.88911647       0.95539999 </v>
   <v>       0.22244981       0.77735180       0.04460000 </v>
   <v>       0.44401845       0.22244981       0.95539999 </v>
   <v>       0.55578315       0.11068511       0.04460000 </v>
   <v>       0.44401845       0.55578315       0.95539999 </v>
   <v>       0.55578315       0.44401845       0.04460000 </v>
   <v>       0.44401845       0.88911647       0.95539999 </v>
   <v>       0.55578315       0.77735180       0.04460000 </v>
   <v>       0.77735180       0.22244981       0.95539999 </v>
   <v>       0.88911647       0.11068511       0.04460000 </v>
   <v>       0.77735180       0.55578315       0.95539999 </v>
   <v>       0.88911647       0.44401845       0.04460000 </v>
   <v>       0.77735180       0.88911647       0.95539999 </v>
   <v>       0.88911647       0.77735180       0.04460000 </v>
  </varray>
 </structure>
 <calculation>
  <scstep>
   <time name="dav">   23.22   23.28</time>
   <time name="total">   23.27   23.33</time>
   <energy>
    <i name="alphaZ">     81.65567618 </i>
    <i name="ewald">  41890.23009657 </i>
    <i name="hartreedc"> -47722.85865719 </i>
    <i name="XCdc">   -242.92971639 </i>
    <i name="pawpsdc">   3467.42045192 </i>
    <i name="pawaedc">  -2871.19716117 </i>
    <i name="eentropy">     -0.53921002 </i>
    <i name="bandstr">   -236.95729376 </i>
    <i name="atom">   6761.44252427 </i>
    <i name="e_fr_energy">   1126.26671042 </i>
    <i name="e_wo_entrp">   1126.80592043 </i>
    <i name="e_0_energy">   1126.53631543 </i>
   </energy>
  </scstep>
  <scstep>
   <time name="dav">   29.84   29.91</time>
   <time name="total">   29.84   29.92</time>
   <energy>
    <i name="e_fr_energy">     -1.77773160 </i>
    <i name="e_wo_entrp">     -1.58089945 </i>
    <i name="e_0_energy">     -1.67931553 </i>
   </energy>
  </scstep>
  <scstep>
   <time name="dav">   29.34   29.41</time>
   <time name="total">   29.34   29.42</time>
   <energy>
    <i name="e_fr_energy">   -199.72533047 </i>
    <i name="e_wo_entrp">   -199.43657570 </i>
    <i name="e_0_energy">   -199.58095308 </i>
   </energy>
  </scstep>
  <scstep>
   <time name="dav">   31.92   32.00</time>
   <time name="total">   31.93   32.01</time>
   <energy>
    <i name="e_fr_energy">   -208.89913361 </i>
    <i name="e_wo_entrp">   -208.57660990 </i>
    <i name="e_0_energy">   -208.73787175 </i>
   </energy>
  </scstep>
  <scstep>
   <time name="dav">   30.21   30.28</time>
   <time name="total">   30.67   30.75</time>
   <energy>
    <i name="e_fr_energy">   -209.22386071 </i>
    <i name="e_wo_entrp">   -208.90452568 </i>
    <i name="e_0_energy">   -209.06419319 </i>
   </energy>
  </scstep>
  <scstep>
   <time name="dav">   33.30   33.38</time>
   <time name="total">   33.80   33.89</time>
   <energy>
    <i name="e_fr_energy">   -236.38668345 </i>
    <i name="e_wo_entrp">   -236.10955475 </i>
    <i name="e_0_energy">   -236.24811910 </i>
   </energy>
  </scstep>
  <scstep>
   <time name="dav">   34.33   34.41</time>
   <time name="total">   34.84   34.95</time>
   <energy>
    <i name="e_fr_energy">   -196.82300575 </i>
    <i name="e_wo_entrp">   -196.49264859 </i>
    <i name="e_0_energy">   -196.65782717 </i>
   </energy>
  </scstep>
  <scstep>
   <time name="dav">   31.08   31.15</time>
   <time name="total">   31.59   31.68</time>
   <energy>
    <i name="e_fr_energy">   -190.29860156 </i>
    <i name="e_wo_entrp">   -190.03100776 </i>
    <i name="e_0_energy">   -190.16480466 </i>
   </energy>
  </scstep>
  <scstep>
   <time name="dav">   31.74   31.82</time>
   <time name="total">   32.26   32.35</time>
   <energy>
    <i name="e_fr_energy">   -188.29528975 </i>
    <i name="e_wo_entrp">   -187.96056622 </i>
    <i name="e_0_energy">   -188.12792799 </i>
   </energy>
  </scstep>
  <scstep>
   <time name="dav">   34.69   34.77</time>
   <time name="total">   35.22   35.32</time>
   <energy>
    <i name="e_fr_energy">   -187.10040109 </i>
    <i name="e_wo_entrp">   -186.75388149 </i>
    <i name="e_0_energy">   -186.92714129 </i>
   </energy>
  </scstep>
  <scstep>
   <time name="dav">   32.37   32.45</time>
   <time name="total">   32.90   32.99</time>
   <energy>
    <i name="e_fr_energy">   -187.01443301 </i>
    <i name="e_wo_entrp">   -186.66775591 </i>
    <i name="e_0_energy">   -186.84109446 </i>
   </energy>
  </scstep>
  <scstep>
   <time name="dav">   33.52   33.60</time>
   <time name="total">   34.06   34.15</time>
   <energy>
    <i name="e_fr_energy">   -186.97473840 </i>
    <i name="e_wo_entrp">   -186.63832488 </i>
    <i name="e_0_energy">   -186.80653164 </i>
   </energy>
  </scstep>
  <scstep>
   <time name="dav">   34.66   34.74</time>
   <time name="total">   35.20   35.29</time>
   <energy>
    <i name="e_fr_energy">   -186.92995808 </i>
    <i name="e_wo_entrp">   -186.59110323 </i>
    <i name="e_0_energy">   -186.76053065 </i>
   </energy>
  </scstep>
  <scstep>
   <time name="dav">   33.79   33.87</time>
   <time name="total">   34.34   34.43</time>
   <energy>
    <i name="e_fr_energy">   -186.89200100 </i>
    <i name="e_wo_entrp">   -186.54840998 </i>
    <i name="e_0_energy">   -186.72020549 </i>
   </energy>
  </scstep>
  <scstep>
   <time name="dav">   31.22   31.29</time>
   <time name="total">   31.75   31.84</time>
   <energy>
    <i name="e_fr_energy">   -186.88749581 </i>
    <i name="e_wo_entrp">   -186.54308643 </i>
    <i name="e_0_energy">   -186.71529112 </i>
   </energy>
  </scstep>
  <scstep>
   <time name="dav">   34.30   34.38</time>
   <time name="total">   34.84   34.93</time>
   <energy>
    <i name="e_fr_energy">   -186.88726783 </i>
    <i name="e_wo_entrp">   -186.54376495 </i>
    <i name="e_0_energy">   -186.71551639 </i>
   </energy>
  </scstep>
  <scstep>
   <time name="dav">   33.73   33.81</time>
   <time name="total">   34.27   34.36</time>
   <energy>
    <i name="e_fr_energy">   -186.88514731 </i>
    <i name="e_wo_entrp">   -186.54205389 </i>
    <i name="e_0_energy">   -186.71360060 </i>
   </energy>
  </scstep>
  <scstep>
   <time name="dav">   33.33   33.41</time>
   <time name="total">   33.87   33.96</time>
   <energy>
    <i name="e_fr_energy">   -186.88401129 </i>
    <i name="e_wo_entrp">   -186.54145767 </i>
    <i name="e_0_energy">   -186.71273448 </i>
   </energy>
  </scstep>
  <scstep>
   <time name="dav">   29.86   29.93</time>
   <time name="total">   30.40   30.48</time>
   <energy>
    <i name="e_fr_energy">   -186.88381314 </i>
    <i name="e_wo_entrp">   -186.54075001 </i>
    <i name="e_0_energy">   -186.71228157 </i>
   </energy>
  </scstep>
  <scstep>
   <time name="dav">   25.24   25.30</time>
   <time name="total">   25.78   25.85</time>
   <energy>
    <i name="e_fr_energy">   -186.88467940 </i>
    <i name="e_wo_entrp">   -186.54194590 </i>
    <i name="e_0_energy">   -186.71331265 </i>
   </energy>
  </scstep>
  <scstep>
   <time name="dav">   23.27   23.33</time>
   <time name="total">   23.81   23.88</time>
   <energy>
    <i name="e_fr_energy">   -186.88543298 </i>
    <i name="e_wo_entrp">   -186.54258442 </i>
    <i name="e_0_energy">   -186.71400870 </i>
   </energy>
  </scstep>
  <scstep>
   <time name="dav">   21.18   21.23</time>
   <time name="total">   21.72   21.78</time>
   <energy>
    <i name="e_fr_energy">   -186.88628767 </i>
    <i name="e_wo_entrp">   -186.54345070 </i>
    <i name="e_0_energy">   -186.71486919 </i>
   </energy>
  </scstep>
  <scstep>
   <time name="dav">   21.70   21.75</time>
   <time name="total">   22.23   22.29</time>
   <energy>
    <i name="e_fr_energy">   -186.88753129 </i>
    <i name="e_wo_entrp">   -186.54483057 </i>
    <i name="e_0_energy">   -186.71618093 </i>
   </energy>
  </scstep>
  <scstep>
   <time name="dav">   20.36   20.41</time>
   <time name="total">   20.90   20.96</time>
   <energy>
    <i name="e_fr_energy">   -186.88806458 </i>
    <i name="e_wo_entrp">   -186.54528888 </i>
    <i name="e_0_energy">   -186.71667673 </i>
   </energy>
  </scstep>
  <scstep>
   <time name="dav">   17.43   17.47</time>
   <time name="total">   17.97   18.02</time>
   <energy>
    <i name="e_fr_energy">   -186.88847261 </i>
    <i name="e_wo_entrp">   -186.54567745 </i>
    <i name="e_0_energy">   -186.71707503 </i>
   </energy>
  </scstep>
  <scstep>
   <time name="dav">   20.45   20.49</time>
   <time name="total">   20.99   21.04</time>
   <energy>
    <i name="e_fr_energy">   -186.88871063 </i>
    <i name="e_wo_entrp">   -186.54593621 </i>
    <i name="e_0_energy">   -186.71732342 </i>
   </energy>
  </scstep>
  <scstep>
   <time name="dav">   21.21   21.26</time>
   <time name="total">   21.24   21.30</time>
   <energy>
    <i name="alphaZ">     81.65567618 </i>
    <i name="ewald">  41890.23009657 </i>
    <i name="hartreedc"> -47833.14138531 </i>
    <i name="XCdc">   -231.59824991 </i>
    <i name="pawpsdc">   4192.18674986 </i>
    <i name="pawaedc">  -3610.21248877 </i>
    <i name="eentropy">     -0.34277646 </i>
    <i name="bandstr">  -1437.10894481 </i>
    <i name="atom">   6761.44252427 </i>
    <i name="e_fr_energy">   -186.88879838 </i>
    <i name="e_wo_entrp">   -186.54602191 </i>
    <i name="e_0_energy">   -186.71741015 </i>
   </energy>
  </scstep>
  <structure>
   <crystal>
    <varray name="basis" >
     <v>       8.66999996       5.03999989       0.00000000 </v>
     <v>      -8.66999982       5.04000013       0.00000000 </v>
     <v>       0.00000000       0.00000000      30.00000000 </v>
    </varray>
    <i name="volume">   2621.80797419 </i>
    <varray name="rec_basis" >
     <v>       0.05767013       0.09920635       0.00000000 </v>
     <v>      -0.05767013       0.09920635       0.00000000 </v>
     <v>       0.00000000       0.00000000       0.03333333 </v>
    </varray>
   </crystal>
   <varray name="positions" >
    <v>       0.66666669       0.66666669       0.00000000 </v>
    <v>       0.00000000       0.00000000       0.00000000 </v>
    <v>       0.33333334       0.00000000       0.00000000 </v>
    <v>       0.00000000       0.66666669       0.00000000 </v>
    <v>       1.00000000       0.33333334       0.00000000 </v>
    <v>       0.66666669       0.33333334       0.00000000 </v>
    <v>       0.33333334       0.33333334       0.00000000 </v>
    <v>       0.33333334       0.66666669       0.00000000 </v>
    <v>       0.66666669       0.00000000       0.00000000 </v>
    <v>       0.11068511       0.22244981       0.95539999 </v>
    <v>       0.22244981       0.11068511       0.04460000 </v>
    <v>       0.11068511       0.55578315       0.95539999 </v>
    <v>       0.22244981       0.44401845       0.04460000 </v>
    <v>       0.11068511       0.88911647       0.95539999 </v>
    <v>       0.22244981       0.77735180       0.04460000 </v>
    <v>       0.44401845       0.22244981       0.95539999 </v>
    <v>       0.55578315       0.11068511       0.04460000 </v>
    <v>       0.44401845       0.55578315       0.95539999 </v>
    <v>       0.55578315       0.44401845       0.04460000 </v>
    <v>       0.44401845       0.88911647       0.95539999 </v>
    <v>       0.55578315       0.77735180       0.04460000 </v>
    <v>       0.77735180       0.22244981       0.95539999 </v>
    <v>       0.88911647       0.11068511       0.04460000 </v>
    <v>       0.77735180       0.55578315       0.95539999 </v>
    <v>       0.88911647       0.44401845       0.04460000 </v>
    <v>       0.77735180       0.88911647       0.95539999 </v>
    <v>       0.88911647       0.77735180       0.04460000 </v>
   </varray>
  </structure>
  <varray name="forces" >
   <v>       0.43770941       0.06480802      -0.06238458 </v>
   <v>       0.08201479      -0.04461703      -0.03018223 </v>
   <v>      -0.06499282      -0.04895718       0.06166165 </v>
   <v>       0.17246383      -0.38473303      -0.02024112 </v>
   <v>      -0.52669955       0.00358896      -0.01002841 </v>
   <v>       0.26171504       0.43455230       0.09584719 </v>
   <v>       0.05825835      -0.04869375      -0.01771699 </v>
   <v>      -0.29497739      -0.44971860      -0.07081103 </v>
   <v>      -0.21331073       0.46898388       0.02633956 </v>
   <v>       0.60782238      -0.53780956      -2.10725179 </v>
   <v>       0.26322838      -0.52270896       1.45166424 </v>
   <v>       0.23122016       0.16409891      -2.93411828 </v>
   <v>      -0.04671668       0.10658386       2.89827883 </v>
   <v>      -0.32517908       0.66808016      -1.39233987 </v>
   <v>      -0.37998338       0.72974497       2.17336823 </v>
   <v>       0.36137564      -0.69557490      -2.10539518 </v>
   <v>      -0.37242163      -0.71542210       2.18099369 </v>
   <v>       0.46806053       0.59753984      -2.19837058 </v>
   <v>      -0.59763679       0.54049454       2.14275368 </v>
   <v>      -0.57634491      -0.01162171      -2.10117198 </v>
   <v>       0.59978897       0.00387923       2.03484014 </v>
   <v>       0.23310357      -0.14433439      -2.91508667 </v>
   <v>       0.65819375      -0.14673736       2.10765983 </v>
   <v>      -0.77626857       0.01217163      -2.13746434 </v>
   <v>      -0.11914455      -0.01944313       2.94665651 </v>
   <v>       0.75683825      -0.02240950      -1.47661580 </v>
   <v>      -0.89811696      -0.00174508       1.45911530 </v>
  </varray>
  <varray name="stress" >
   <v>       7.35328856      -0.09744518      -1.52878004 </v>
   <v>      -0.09744509       4.42579742      -0.04529688 </v>
   <v>      -1.52877999      -0.04529695      30.28147732 </v>
  </varray>
  <energy>
   <i name="e_fr_energy">   -186.88879838 </i>
   <i name="e_wo_entrp">   -186.71741015 </i>
   <i name="e_0_energy">     -0.34277646 </i>
  </energy>
  <time name="totalsc">  833.64  835.87</time>
 </calculation>
 <calculation>
  <scstep>
   <time name="dav">   23.18   23.23</time>
   <time name="total">   23.73   23.79</time>
   <energy>
    <i name="alphaZ">     78.91582683 </i>
    <i name="ewald">  39377.56820905 </i>
    <i name="hartreedc"> -45335.12505910 </i>
    <i name="XCdc">   -239.05725510 </i>
    <i name="pawpsdc">   4192.17213574 </i>
    <i name="pawaedc">  -3610.19799244 </i>
    <i name="eentropy">     -0.28177367 </i>
    <i name="bandstr">  -1412.98077441 </i>
    <i name="atom">   6761.44252427 </i>
    <i name="e_fr_energy">   -187.54415883 </i>
    <i name="e_wo_entrp">   -187.26238516 </i>
    <i name="e_0_energy">   -187.40327199 </i>
   </energy>
  </scstep>
  <scstep>
   <time name="dav">   32.38   32.46</time>
   <time name="total">   32.92   33.00</time>
   <energy>
    <i name="e_fr_energy">   -189.65196810 </i>
    <i name="e_wo_entrp">   -189.31199010 </i>
    <i name="e_0_energy">   -189.48197910 </i>
   </energy>
  </scstep>
  <scstep>
   <time name="dav">   32.37   32.45</time>
   <time name="total">   32.93   33.02</time>
   <energy>
    <i name="e_fr_energy">   -189.34134549 </i>
    <i name="e_wo_entrp">   -189.06732553 </i>
    <i name="e_0_energy">   -189.20433551 </i>
   </energy>
  </scstep>
  <scstep>
   <time name="dav">   32.84   32.92</time>
   <time name="total">   33.39   33.48</time>
   <energy>
    <i name="e_fr_energy">   -188.80649783 </i>
    <i name="e_wo_entrp">   -188.52563862 </i>
    <i name="e_0_energy">   -188.66606822 </i>
   </energy>
  </scstep>
  <scstep>
   <time name="dav">   32.35   32.43</time>
   <time name="total">   32.90   32.99</time>
   <energy>
    <i name="e_fr_energy">   -188.95965572 </i>
    <i name="e_wo_entrp">   -188.66568547 </i>
    <i name="e_0_energy">   -188.81267060 </i>
   </energy>
  </scstep>
  <scstep>
   <time name="dav">   33.21   33.29</time>
   <time name="total">   33.76   33.85</time>
   <energy>
    <i name="e_fr_energy">   -188.77937098 </i>
    <i name="e_wo_entrp">   -188.49987115 </i>
    <i name="e_0_energy">   -188.63962107 </i>
   </energy>
  </scstep>
  <scstep>
   <time name="dav">   30.78   30.85</time>
   <time name="total">   31.33   31.41</time>
   <energy>
    <i name="e_fr_energy">   -188.76632115 </i>
    <i name="e_wo_entrp">   -188.48532554 </i>
    <i name="e_0_energy">   -188.62582335 </i>
   </energy>
  </scstep>
  <scstep>
   <time name="dav">   33.73   33.81</time>
   <time name="total">   34.28   34.37</time>
   <energy>
    <i name="e_fr_energy">   -188.73595611 </i>
    <i name="e_wo_entrp">   -188.45541602 </i>
    <i name="e_0_energy">   -188.59568607 </i>
   </energy>
  </scstep>
  <scstep>
   <time name="dav">   32.36   32.44</time>
   <time name="total">   32.91   33.00</time>
   <energy>
    <i name="e_fr_energy">   -188.71594926 </i>
    <i name="e_wo_entrp">   -188.43637000 </i>
    <i name="e_0_energy">   -188.57615963 </i>
   </energy>
  </scstep>
  <scstep>
   <time name="dav">   28.96   29.03</time>
   <time name="total">   29.51   29.59</time>
   <energy>
    <i name="e_fr_energy">   -188.71523821 </i>
    <i name="e_wo_entrp">   -188.43581086 </i>
    <i name="e_0_energy">   -188.57552453 </i>
   </energy>
  </scstep>
  <scstep>
   <time name="dav">   32.71   32.79</time>
   <time name="total">   33.26   33.35</time>
   <energy>
    <i name="e_fr_energy">   -188.71472755 </i>
    <i name="e_wo_entrp">   -188.43575276 </i>
    <i name="e_0_energy">   -188.57524015 </i>
   </energy>
  </scstep>
  <scstep>
   <time name="dav">   31.02   31.09</time>
   <time name="total">   31.56   31.65</time>
   <energy>
    <i name="e_fr_energy">   -188.71487206 </i>
    <i name="e_wo_entrp">   -188.43581739 </i>
    <i name="e_0_energy">   -188.57534472 </i>
   </energy>
  </scstep>
  <scstep>
   <time name="dav">   22.87   22.93</time>
   <time name="total">   22.91   22.97</time>
   <energy>
    <i name="alphaZ">     78.91582683 </i>
    <i name="ewald">  39377.56820905 </i>
    <i name="hartreedc"> -45345.84669086 </i>
    <i name="XCdc">   -237.96854787 </i>
    <i name="pawpsdc">   3950.59777903 </i>
    <i name="pawaedc">  -3365.12066964 </i>
    <i name="eentropy">     -0.27905290 </i>
    <i name="bandstr">  -1408.02418295 </i>
    <i name="atom">   6761.44252427 </i>
    <i name="e_fr_energy">   -188.71480504 </i>
    <i name="e_wo_entrp">   -188.43575214 </i>
    <i name="e_0_energy">   -188.57527859 </i>
   </energy>
  </scstep>
  <structure>
   <crystal>
    <varray name="basis" >
     <v>       8.85496936       5.10274952       0.00000000 </v>
     <v>      -8.85784118       5.10769022       0.00000000 </v>
     <v>       0.00000000       0.00000000      30.00000000 </v>
    </varray>
    <i name="volume">   2712.83355363 </i>
    <varray name="rec_basis" >
     <v>       0.05648364       0.09795486       0.00000000 </v>
     <v>      -0.05642900       0.09792310       0.00000000 </v>
     <v>       0.00000000       0.00000000       0.03333333 </v>
    </varray>
   </crystal>
   <varray name="positions" >
    <v>       0.66819463       0.66575908      -0.00010032 </v>
    <v>       0.00001464      -0.00044171      -0.00004854 </v>
    <v>       0.33291821      -0.00005349       0.00009916 </v>
    <v>      -0.00136150       0.66434554      -0.00003255 </v>
    <v>       0.99855181       0.33481588      -0.00001613 </v>
    <v>       0.66947458       0.33468497       0.00015413 </v>
    <v>       0.33326238       0.33293821      -0.00002849 </v>
    <v>       0.33036033       0.66533502      -0.00011387 </v>
    <v>       0.66831777       0.00283801       0.00004236 </v>
    <v>       0.10980222       0.21818481       0.95201134 </v>
    <v>       0.22068048       0.10745109       0.04693440 </v>
    <v>       0.11211378       0.55592523       0.95068167 </v>
    <v>       0.22282994       0.44465853       0.04926069 </v>
    <v>       0.11297783       0.89321858       0.95316098 </v>
    <v>       0.22488518       0.78190151       0.04809497 </v>
    <v>       0.44169485       0.21811540       0.95201433 </v>
    <v>       0.55132302       0.10829725       0.04810723 </v>
    <v>       0.44818048       0.55734075       0.95186482 </v>
    <v>       0.55670723       0.44826797       0.04804574 </v>
    <v>       0.44235935       0.89066433       0.95202112 </v>
    <v>       0.55747043       0.77570165       0.04787220 </v>
    <v>       0.77730955       0.22111050       0.95071227 </v>
    <v>       0.89024538       0.10815163       0.04798930 </v>
    <v>       0.77525035       0.55800111       0.95196276 </v>
    <v>       0.88869193       0.44425688       0.04933848 </v>
    <v>       0.77935019       0.88690357       0.95302546 </v>
    <v>       0.88660941       0.77984215       0.04694639 </v>
   </varray>
  </structure>
  <varray name="forces" >
   <v>       0.33470497       0.00831431       0.06126544 </v>
   <v>       0.05167605      -0.03025609      -0.09157106 </v>
   <v>      -0.02945692      -0.00753938      -0.06874207 </v>
   <v>       0.45243395      -0.46503791      -0.00146287 </v>
   <v>      -0.62517276       0.07679571       0.01134137 </v>
   <v>       0.42257434       0.43345678       0.03088215 </v>
   <v>      -0.07319963       0.04956899      -0.11269903 </v>
   <v>      -0.18747636      -0.55420826       0.07214177 </v>
   <v>      -0.27430472       0.49051203       0.11938496 </v>
   <v>       0.07195591       0.06059819       0.14034204 </v>
   <v>      -0.04844185       0.06236200      -0.03831171 </v>
   <v>       0.05115972       0.09894290      -0.28762863 </v>
   <v>       0.06128858       0.08499577      -0.00857293 </v>
   <v>      -0.00865388       0.02622829       0.15804595 </v>
   <v>       0.09993456       0.04648677      -0.02584795 </v>
   <v>      -0.10529265      -0.03900826       0.16939769 </v>
   <v>       0.11108052      -0.03966621       0.00285536 </v>
   <v>      -0.05611446      -0.05235571       0.11678064 </v>
   <v>      -0.07058216      -0.05618321      -0.04281946 </v>
   <v>       0.09379385      -0.00390180       0.14935493 </v>
   <v>      -0.10327260      -0.00047038      -0.36521758 </v>
   <v>       0.04943320      -0.09871325      -0.24214550 </v>
   <v>      -0.03136113      -0.10279716      -0.02321388 </v>
   <v>      -0.05149364       0.00310514      -0.18319095 </v>
   <v>      -0.00410038       0.00107653       0.40206875 </v>
   <v>      -0.10560314       0.00174298       0.15358807 </v>
   <v>      -0.02550936       0.00595123      -0.09602550 </v>
  </varray>
  <varray name="stress" >
   <v>     -19.89932696       0.01486886       0.04188339 </v>
   <v>       0.01486875     -19.48348645       0.01353698 </v>
   <v>       0.04188337       0.01353696      -1.76585789 </v>
  </varray>
  <energy>
   <i name="e_fr_energy">   -188.71480504 </i>
   <i name="e_wo_entrp">   -188.57527859 </i>
   <i name="e_0_energy">     -0.27905290 </i>
  </energy>
  <time name="totalsc">  449.86  451.05</time>
 </calculation>
 <calculation>
  <scstep>
   <time name="dav">   25.12   25.18</time>
   <time name="total">   25.66   25.72</time>
   <energy>
    <i name="alphaZ">     82.33689491 </i>
    <i name="ewald">  41299.18474269 </i>
    <i name="hartreedc"> -47297.97259667 </i>
    <i name="XCdc">   -233.84847621 </i>
    <i name="pawpsdc">   3950.06616462 </i>
    <i name="pawaedc">  -3364.58400384 </i>
    <i name="eentropy">     -0.23645600 </i>
    <i name="bandstr">  -1387.03458590 </i>
    <i name="atom">   6761.44252427 </i>
    <i name="e_fr_energy">   -190.64579213 </i>
    <i name="e_wo_entrp">   -190.40933612 </i>
    <i name="e_0_energy">   -190.52756412 </i>
   </energy>
  </scstep>
  <scstep>
   <time name="dav">   29.58   29.65</time>
   <time name="total">   30.11   30.19</time>
   <energy>
    <i name="e_fr_energy">   -190.56462441 </i>
    <i name="e_wo_entrp">   -190.32730357 </i>
    <i name="e_0_energy">   -190.44596399 </i>
   </energy>
  </scstep>
  <scstep>
   <time name="dav">   32.18   32.26</time>
   <time name="total">   32.71   32.80</time>
   <energy>
    <i name="e_fr_energy">   -190.13562814 </i>
    <i name="e_wo_entrp">   -189.88365332 </i>
    <i name="e_0_energy">   -190.00964073 </i>
   </energy>
  </scstep>
  <scstep>
   <time name="dav">   33.28   33.36</time>
   <time name="total">   33.82   33.91</time>
   <energy>
    <i name="e_fr_energy">   -189.92323296 </i>
    <i name="e_wo_entrp">   -189.68731197 </i>
    <i name="e_0_energy">   -189.80527247 </i>
   </energy>
  </scstep>
  <scstep>
   <time name="dav">   31.99   32.07</time>
   <time name="total">   32.52   32.61</time>
   <energy>
    <i name="e_fr_energy">   -189.90034173 </i>
    <i name="e_wo_entrp">   -189.66078339 </i>
    <i name="e_0_energy">   -189.78056256 </i>
   </energy>
  </scstep>
  <scstep>
   <time name="dav">   32.29   32.37</time>
   <time name="total">   32.82   32.91</time>
   <energy>
    <i name="e_fr_energy">   -189.82594480 </i>
    <i name="e_wo_entrp">   -189.58684845 </i>
    <i name="e_0_energy">   -189.70639662 </i>
   </energy>
  </scstep>
  <scstep>
   <time name="dav">   31.01   31.09</time>
   <time name="total">   31.54   31.63</time>
   <energy>
    <i name="e_fr_energy">   -189.81728907 </i>
    <i name="e_wo_entrp">   -189.57866901 </i>
    <i name="e_0_energy">   -189.69797904 </i>
   </energy>
  </scstep>
  <scstep>
   <time name="dav">   32.70   32.77</time>
   <time name="total">   33.23   33.32</time>
   <energy>
    <i name="e_fr_energy">   -189.81831949 </i>
    <i name="e_wo_entrp">   -189.57956255 </i>
    <i name="e_0_energy">   -189.69894102 </i>
   </energy>
  </scstep>
  <scstep>
   <time name="dav">   29.76   29.83</time>
   <time name="total">   30.29   30.37</time>
   <energy>
    <i name="e_fr_energy">   -189.81717670 </i>
    <i name="e_wo_entrp">   -189.57846386 </i>
    <i name="e_0_energy">   -189.69782028 </i>
   </energy>
  </scstep>
  <scstep>
   <time name="dav">   27.32   27.38</time>
   <time name="total">   27.85   27.93</time>
   <energy>
    <i name="e_fr_energy">   -189.81744277 </i>
    <i name="e_wo_entrp">   -189.57873686 </i>
    <i name="e_0_energy">   -189.69808982 </i>
   </energy>
  </scstep>
  <scstep>
   <time name="dav">   24.12   24.18</time>
   <time name="total">   24.66   24.72</time>
   <energy>
    <i name="e_fr_energy">   -189.81722713 </i>
    <i name="e_wo_entrp">   -189.57841740 </i>
    <i name="e_0_energy">   -189.69782227 </i>
   </energy>
  </scstep>
  <scstep>
   <time name="dav">   20.70   20.75</time>
   <time name="total">   20.74   20.80</time>
   <energy>
    <i name="alphaZ">     82.33689491 </i>
    <i name="ewald">  41299.18474269 </i>
    <i name="hartreedc"> -47271.43136638 </i>
    <i name="XCdc">   -235.23792357 </i>
    <i name="pawpsdc">   4038.95681513 </i>
    <i name="pawaedc">  -3454.67531457 </i>
    <i name="eentropy">     -0.23881521 </i>
    <i name="bandstr">  -1410.15480739 </i>
    <i name="atom">   6761.44252427 </i>
    <i name="e_fr_energy">   -189.81725011 </i>
    <i name="e_wo_entrp">   -189.57843491 </i>
    <i name="e_0_energy">   -189.69784251 </i>
   </energy>
  </scstep>
  <structure>
   <crystal>
    <varray name="basis" >
     <v>       8.66717543       4.99688790       0.00000000 </v>
     <v>      -8.66982445       5.00144516       0.00000000 </v>
     <v>       0.00000000       0.00000000      30.00000000 </v>
    </varray>
    <i name="volume">   2600.11630481 </i>
    <varray name="rec_basis" >
     <v>       0.05770640       0.10003196       0.00000000 </v>
     <v>      -0.05765382       0.10000140       0.00000000 </v>
     <v>       0.00000000       0.00000000       0.03333333 </v>
    </varray>
   </crystal>
   <varray name="positions" >
    <v>       0.66852991       0.66545181      -0.00006560 </v>
    <v>       0.00001388      -0.00054166      -0.00010043 </v>
    <v>       0.33287737      -0.00003778       0.00006020 </v>
    <v>      -0.00170150       0.66313725      -0.00003338 </v>
    <v>       0.99807934       0.33554352      -0.00000970 </v>
    <v>       0.67060227       0.33500120       0.00017163 </v>
    <v>       0.33327464       0.33309097      -0.00009236 </v>
    <v>       0.32925731       0.66459220      -0.00007299 </v>
    <v>       0.66887125       0.00391781       0.00011001 </v>
    <v>       0.10997225       0.21821666       0.95209088 </v>
    <v>       0.22073782       0.10760139       0.04691269 </v>
    <v>       0.11232769       0.55604088       0.95051866 </v>
    <v>       0.22303035       0.44474124       0.04925583 </v>
    <v>       0.11301320       0.89327055       0.95325055 </v>
    <v>       0.22505857       0.78188303       0.04808032 </v>
    <v>       0.44152877       0.21815147       0.95211033 </v>
    <v>       0.55136363       0.10812464       0.04810885 </v>
    <v>       0.44803940       0.55730742       0.95193100 </v>
    <v>       0.55654588       0.44824215       0.04802147 </v>
    <v>       0.44244292       0.89056785       0.95210576 </v>
    <v>       0.55737047       0.77579995       0.04766522 </v>
    <v>       0.77719262       0.22089873       0.95057504 </v>
    <v>       0.89004407       0.10801057       0.04797615 </v>
    <v>       0.77520607       0.55805568       0.95185894 </v>
    <v>       0.88868979       0.44426260       0.04956635 </v>
    <v>       0.77925168       0.88700779       0.95311250 </v>
    <v>       0.88659482       0.77987653       0.04689197 </v>
   </varray>
  </structure>
  <varray name="forces" >
   <v>       0.31399222      -0.03491361       0.07764508 </v>
   <v>       0.03540781      -0.01710226      -0.08517997 </v>
   <v>      -0.00357600       0.01115634      -0.08298457 </v>
   <v>       0.53449134      -0.47827362       0.00198531 </v>
   <v>      -0.65651698       0.10583430       0.00732099 </v>
   <v>       0.45992784       0.42023026       0.00589238 </v>
   <v>      -0.11450597       0.08249161      -0.10697110 </v>
   <v>      -0.15872558      -0.58371437       0.08568106 </v>
   <v>      -0.30120040       0.48140991       0.10831937 </v>
   <v>       0.03978267      -0.07371326      -0.33820238 </v>
   <v>       0.02280493      -0.07012313       0.42511324 </v>
   <v>      -0.00101010       0.01391504      -0.87330190 </v>
   <v>       0.02649018      -0.00133563       0.55090579 </v>
   <v>      -0.03064442       0.06150279      -0.27160309 </v>
   <v>      -0.03683367       0.08915779       0.47475332 </v>
   <v>       0.02589252      -0.07192889      -0.30751214 </v>
   <v>      -0.03101432      -0.08788839       0.51277405 </v>
   <v>       0.00675344       0.08452973      -0.39240242 </v>
   <v>      -0.05193503       0.06889753       0.44370677 </v>
   <v>      -0.03625635       0.00003200      -0.33452759 </v>
   <v>       0.02837172      -0.00115570       0.09496786 </v>
   <v>       0.00321544      -0.01762312      -0.81172317 </v>
   <v>       0.08307482      -0.00214307       0.47657488 </v>
   <v>      -0.10911308       0.00191613      -0.67829532 </v>
   <v>      -0.00976759       0.00983344       0.97721018 </v>
   <v>       0.03760048      -0.00205462      -0.30056718 </v>
   <v>      -0.07670591       0.01106278       0.34042053 </v>
  </varray>
  <varray name="stress" >
   <v>     -10.13066605       0.01984051       0.01938989 </v>
   <v>       0.01984052      -9.82777666       0.02660292 </v>
   <v>       0.01938987       0.02660291       6.47606062 </v>
  </varray>
  <energy>
   <i name="e_fr_energy">   -189.81725011 </i>
   <i name="e_wo_entrp">   -189.69784251 </i>
   <i name="e_0_energy">     -0.23881521 </i>
  </energy>
  <time name="totalsc">  400.44  401.49</time>
 </calculation>
 <calculation>
  <scstep>
   <time name="dav">   23.15   23.20</time>
   <time name="total">   23.67   23.73</time>
   <energy>
    <i name="alphaZ">     85.80579763 </i>
    <i name="ewald">  42827.69538406 </i>
    <i name="hartreedc"> -48844.23873397 </i>
    <i name="XCdc">   -232.95462739 </i>
    <i name="pawpsdc">   4039.09642759 </i>
    <i name="pawaedc">  -3454.81304628 </i>
    <i name="eentropy">     -0.21083147 </i>
    <i name="bandstr">  -1373.23835846 </i>
    <i name="atom">   6761.44252427 </i>
    <i name="e_fr_energy">   -191.41546402 </i>
    <i name="e_wo_entrp">   -191.20463254 </i>
    <i name="e_0_energy">   -191.31004828 </i>
   </energy>
  </scstep>
  <scstep>
   <time name="dav">   34.15   34.23</time>
   <time name="total">   34.67   34.76</time>
   <energy>
    <i name="e_fr_energy">   -191.22581717 </i>
    <i name="e_wo_entrp">   -191.01523559 </i>
    <i name="e_0_energy">   -191.12052638 </i>
   </energy>
  </scstep>
  <scstep>
   <time name="dav">   32.00   32.08</time>
   <time name="total">   32.51   32.60</time>
   <energy>
    <i name="e_fr_energy">   -191.37577059 </i>
    <i name="e_wo_entrp">   -191.14345456 </i>
    <i name="e_0_energy">   -191.25961258 </i>
   </energy>
  </scstep>
  <scstep>
   <time name="dav">   32.17   32.24</time>
   <time name="total">   32.69   32.78</time>
   <energy>
    <i name="e_fr_energy">   -190.99846263 </i>
    <i name="e_wo_entrp">   -190.78511089 </i>
    <i name="e_0_energy">   -190.89178676 </i>
   </energy>
  </scstep>
  <scstep>
   <time name="dav">   32.36   32.44</time>
   <time name="total">   32.88   32.97</time>
   <energy>
    <i name="e_fr_energy">   -190.92077666 </i>
    <i name="e_wo_entrp">   -190.70824254 </i>
    <i name="e_0_energy">   -190.81450960 </i>
   </energy>
  </scstep>
  <scstep>
   <time name="dav">   32.36   32.44</time>
   <time name="total">   32.88   32.96</time>
   <energy>
    <i name="e_fr_energy">   -190.86923367 </i>
    <i name="e_wo_entrp">   -190.65161951 </i>
    <i name="e_0_energy">   -190.76042659 </i>
   </energy>
  </scstep>
  <scstep>
   <time name="dav">   32.90   32.98</time>
   <time name="total">   33.42   33.51</time>
   <energy>
    <i name="e_fr_energy">   -190.84629864 </i>
    <i name="e_wo_entrp">   -190.63045302 </i>
    <i name="e_0_energy">   -190.73837583 </i>
   </energy>
  </scstep>
  <scstep>
   <time name="dav">   30.43   30.50</time>
   <time name="total">   30.95   31.04</time>
   <energy>
    <i name="e_fr_energy">   -190.84463921 </i>
    <i name="e_wo_entrp">   -190.62877043 </i>
    <i name="e_0_energy">   -190.73670482 </i>
   </energy>
  </scstep>
  <scstep>
   <time name="dav">   28.38   28.45</time>
   <time name="total">   28.90   28.98</time>
   <energy>
    <i name="e_fr_energy">   -190.84373452 </i>
    <i name="e_wo_entrp">   -190.62787323 </i>
    <i name="e_0_energy">   -190.73580387 </i>
   </energy>
  </scstep>
  <scstep>
   <time name="dav">   29.85   29.92</time>
   <time name="total">   30.37   30.45</time>
   <energy>
    <i name="e_fr_energy">   -190.84396878 </i>
    <i name="e_wo_entrp">   -190.62811800 </i>
    <i name="e_0_energy">   -190.73604339 </i>
   </energy>
  </scstep>
  <scstep>
   <time name="dav">   27.83   27.89</time>
   <time name="total">   28.35   28.42</time>
   <energy>
    <i name="e_fr_energy">   -190.84377953 </i>
    <i name="e_wo_entrp">   -190.62786601 </i>
    <i name="e_0_energy">   -190.73582277 </i>
   </energy>
  </scstep>
  <scstep>
   <time name="dav">   20.92   20.97</time>
   <time name="total">   20.96   21.02</time>
   <energy>
    <i name="alphaZ">     85.80579763 </i>
    <i name="ewald">  42827.69538406 </i>
    <i name="hartreedc"> -48815.75788343 </i>
    <i name="XCdc">   -234.27336226 </i>
    <i name="pawpsdc">   4064.79575068 </i>
    <i name="pawaedc">  -3480.70776187 </i>
    <i name="eentropy">     -0.21592420 </i>
    <i name="bandstr">  -1399.62831158 </i>
    <i name="atom">   6761.44252427 </i>
    <i name="e_fr_energy">   -190.84378670 </i>
    <i name="e_wo_entrp">   -190.62786250 </i>
    <i name="e_0_energy">   -190.73582460 </i>
   </energy>
  </scstep>
  <structure>
   <crystal>
    <varray name="basis" >
     <v>       8.48666545       4.89778257       0.00000000 </v>
     <v>      -8.48846330       4.90086878       0.00000000 </v>
     <v>       0.00000000       0.00000000      30.00000000 </v>
    </varray>
    <i name="volume">   2495.00044100 </i>
    <varray name="rec_basis" >
     <v>       0.05892827       0.10206567       0.00000000 </v>
     <v>      -0.05889116       0.10204406       0.00000000 </v>
     <v>       0.00000000       0.00000000       0.03333333 </v>
    </varray>
   </crystal>
   <varray name="positions" >
    <v>       0.66930839       0.66402200       0.00010892 </v>
    <v>       0.00004410      -0.00072048      -0.00027125 </v>
    <v>       0.33301798       0.00005437      -0.00012356 </v>
    <v>      -0.00268043       0.65806346      -0.00002635 </v>
    <v>       0.99639743       0.33869300       0.00000204 </v>
    <v>       0.67491595       0.33588513       0.00016266 </v>
    <v>       0.33340014       0.33416180      -0.00030883 </v>
    <v>       0.32499665       0.66139658       0.00011575 </v>
    <v>       0.67073624       0.00803449       0.00032475 </v>
    <v>       0.10927398       0.21732360       0.95098588 </v>
    <v>       0.22015365       0.10664837       0.04818470 </v>
    <v>       0.11212469       0.55599489       0.94821583 </v>
    <v>       0.22285291       0.44447237       0.05086945 </v>
    <v>       0.11334382       0.89388545       0.95232475 </v>
    <v>       0.22539369       0.78287634       0.04948652 </v>
    <v>       0.44127825       0.21733777       0.95107021 </v>
    <v>       0.55037733       0.10777017       0.04960160 </v>
    <v>       0.44902398       0.55806260       0.95068791 </v>
    <v>       0.55712770       0.44914535       0.04935152 </v>
    <v>       0.44213530       0.89089515       0.95100384 </v>
    <v>       0.55765295       0.77549987       0.04825143 </v>
    <v>       0.77722937       0.22104480       0.94841325 </v>
    <v>       0.89074550       0.10778364       0.04938543 </v>
    <v>       0.77473821       0.55854118       0.95003627 </v>
    <v>       0.88872973       0.44438933       0.05207524 </v>
    <v>       0.77957071       0.88664445       0.95210602 </v>
    <v>       0.88632622       0.78030878       0.04796590 </v>
   </varray>
  </structure>
  <varray name="forces" >
   <v>       0.33853039      -0.05849142       0.07946695 </v>
   <v>       0.05639009      -0.02926062      -0.04614009 </v>
   <v>       0.00811924       0.03025192      -0.07708103 </v>
   <v>       0.53361082      -0.41915399       0.00792966 </v>
   <v>      -0.63246209       0.13200254       0.00589691 </v>
   <v>       0.46199786       0.36526905      -0.01967093 </v>
   <v>      -0.13474693       0.09524002      -0.07122298 </v>
   <v>      -0.15810212      -0.66501676       0.05053403 </v>
   <v>      -0.31815327       0.54187044       0.06556709 </v>
   <v>      -0.08178031      -0.02927120      -0.19100649 </v>
   <v>      -0.00752524      -0.02439154       0.29016770 </v>
   <v>      -0.02544664      -0.04870696      -0.69653584 </v>
   <v>      -0.02578207      -0.10341224       0.40174882 </v>
   <v>       0.04683213      -0.07877276      -0.19342835 </v>
   <v>      -0.05846417      -0.04907124       0.32495313 </v>
   <v>       0.04458880       0.06537483      -0.16187971 </v>
   <v>      -0.08164335       0.03373289       0.39640804 </v>
   <v>      -0.03380335       0.06542468      -0.28329180 </v>
   <v>       0.05525651       0.01538453       0.27912235 </v>
   <v>       0.02560444      -0.00701867      -0.12666414 </v>
   <v>      -0.05935921      -0.00300499      -0.07714910 </v>
   <v>      -0.01255168       0.06296370      -0.60251886 </v>
   <v>      -0.01927744       0.08591771       0.31065758 </v>
   <v>       0.04288811       0.01061712      -0.48813262 </v>
   <v>      -0.01812519       0.00194537       0.78399460 </v>
   <v>      -0.01345611       0.00514440      -0.21113268 </v>
   <v>       0.06686079       0.00443318       0.24940777 </v>
  </varray>
  <varray name="stress" >
   <v>      -5.56464329      -0.07830953      -0.13543003 </v>
   <v>      -0.07830955      -5.68071631      -0.08371135 </v>
   <v>      -0.13542994      -0.08371133       4.48255568 </v>
  </varray>
  <energy>
   <i name="e_fr_energy">   -190.84378670 </i>
   <i name="e_wo_entrp">   -190.73582460 </i>
   <i name="e_0_energy">     -0.21592420 </i>
  </energy>
  <time name="totalsc">  406.87  407.94</time>
 </calculation>
 <calculation>
  <scstep>
   <time name="dav">   23.14   23.20</time>
   <time name="total">   23.65   23.71</time>
   <energy>
    <i name="alphaZ">     89.93678664 </i>
    <i name="ewald">  44563.99088983 </i>
    <i name="hartreedc"> -50604.53686053 </i>
    <i name="XCdc">   -231.95840360 </i>
    <i name="pawpsdc">   4064.75327846 </i>
    <i name="pawaedc">  -3480.66127509 </i>
    <i name="eentropy">     -0.21451752 </i>
    <i name="bandstr">  -1354.89797963 </i>
    <i name="atom">   6761.44252427 </i>
    <i name="e_fr_energy">   -192.14555716 </i>
    <i name="e_wo_entrp">   -191.93103963 </i>
    <i name="e_0_energy">   -192.03829840 </i>
   </energy>
  </scstep>
  <scstep>
   <time name="dav">   29.03   29.10</time>
   <time name="total">   29.54   29.62</time>
   <energy>
    <i name="e_fr_energy">   -191.92397658 </i>
    <i name="e_wo_entrp">   -191.70773970 </i>
    <i name="e_0_energy">   -191.81585814 </i>
   </energy>
  </scstep>
  <scstep>
   <time name="dav">   31.04   31.12</time>
   <time name="total">   31.55   31.64</time>
   <energy>
    <i name="e_fr_energy">   -191.79844268 </i>
    <i name="e_wo_entrp">   -191.57174853 </i>
    <i name="e_0_energy">   -191.68509560 </i>
   </energy>
  </scstep>
  <scstep>
   <time name="dav">   32.30   32.38</time>
   <time name="total">   32.81   32.90</time>
   <energy>
    <i name="e_fr_energy">   -191.82116437 </i>
    <i name="e_wo_entrp">   -191.61585943 </i>
    <i name="e_0_energy">   -191.71851190 </i>
   </energy>
  </scstep>
  <scstep>
   <time name="dav">   32.25   32.33</time>
   <time name="total">   32.76   32.85</time>
   <energy>
    <i name="e_fr_energy">   -191.55209698 </i>
    <i name="e_wo_entrp">   -191.33037104 </i>
    <i name="e_0_energy">   -191.44123401 </i>
   </energy>
  </scstep>
  <scstep>
   <time name="dav">   30.25   30.32</time>
   <time name="total">   30.76   30.84</time>
   <energy>
    <i name="e_fr_energy">   -191.54246489 </i>
    <i name="e_wo_entrp">   -191.32103648 </i>
    <i name="e_0_energy">   -191.43175069 </i>
   </energy>
  </scstep>
  <scstep>
   <time name="dav">   31.43   31.51</time>
   <time name="total">   31.94   32.02</time>
   <energy>
    <i name="e_fr_energy">   -191.54712158 </i>
    <i name="e_wo_entrp">   -191.32658562 </i>
    <i name="e_0_energy">   -191.43685360 </i>
   </energy>
  </scstep>
  <scstep>
   <time name="dav">   30.54   30.61</time>
   <time name="total">   31.05   31.13</time>
   <energy>
    <i name="e_fr_energy">   -191.53769610 </i>
    <i name="e_wo_entrp">   -191.31652162 </i>
    <i name="e_0_energy">   -191.42710886 </i>
   </energy>
  </scstep>
  <scstep>
   <time name="dav">   30.46   30.53</time>
   <time name="total">   30.97   31.05</time>
   <energy>
    <i name="e_fr_energy">   -191.53848860 </i>
    <i name="e_wo_entrp">   -191.31764161 </i>
    <i name="e_0_energy">   -191.42806510 </i>
   </energy>
  </scstep>
  <scstep>
   <time name="dav">   31.09   31.17</time>
   <time name="total">   31.60   31.69</time>
   <energy>
    <i name="e_fr_energy">   -191.53800542 </i>
    <i name="e_wo_entrp">   -191.31682944 </i>
    <i name="e_0_energy">   -191.42741743 </i>
   </energy>
  </scstep>
  <scstep>
   <time name="dav">   27.31   27.38</time>
   <time name="total">   27.82   27.89</time>
   <energy>
    <i name="e_fr_energy">   -191.53773768 </i>
    <i name="e_wo_entrp">   -191.31665803 </i>
    <i name="e_0_energy">   -191.42719785 </i>
   </energy>
  </scstep>
  <scstep>
   <time name="dav">   19.71   19.76</time>
   <time name="total">   19.75   19.80</time>
   <energy>
    <i name="alphaZ">     89.93678664 </i>
    <i name="ewald">  44563.99088983 </i>
    <i name="hartreedc"> -50572.94263706 </i>
    <i name="XCdc">   -233.38244776 </i>
    <i name="pawpsdc">   4087.40779790 </i>
    <i name="pawaedc">  -3503.44462309 </i>
    <i name="eentropy">     -0.22115649 </i>
    <i name="bandstr">  -1384.32484362 </i>
    <i name="atom">   6761.44252427 </i>
    <i name="e_fr_energy">   -191.53770936 </i>
    <i name="e_wo_entrp">   -191.31655287 </i>
    <i name="e_0_energy">   -191.42713111 </i>
   </energy>
  </scstep>
  <structure>
   <crystal>
    <varray name="basis" >
     <v>       8.29014972       4.77869946       0.00000000 </v>
     <v>      -8.29613908       4.78904528       0.00000000 </v>
     <v>       0.00000000       0.00000000      30.00000000 </v>
    </varray>
    <i name="volume">   2380.39973325 </i>
    <varray name="rec_basis" >
     <v>       0.06035598       0.10455562       0.00000000 </v>
     <v>      -0.06022559       0.10448014       0.00000000 </v>
     <v>       0.00000000       0.00000000       0.03333333 </v>
    </varray>
   </crystal>
   <varray name="positions" >
    <v>       0.67079859       0.66098419       0.00043044 </v>
    <v>       0.00009354      -0.00135455      -0.00046341 </v>
    <v>       0.33348344       0.00034863      -0.00043776 </v>
    <v>      -0.00399787       0.64917872       0.00000451 </v>
    <v>       0.99359755       0.34469843       0.00002185 </v>
    <v>       0.68252306       0.33704920       0.00007635 </v>
    <v>       0.33363022       0.33633023      -0.00059694 </v>
    <v>       0.31611314       0.65459168       0.00034137 </v>
    <v>       0.67484065       0.01654940       0.00058958 </v>
    <v>       0.10799128       0.21704223       0.94973074 </v>
    <v>       0.21952004       0.10584002       0.04980315 </v>
    <v>       0.11117984       0.55551798       0.94489190 </v>
    <v>       0.22136726       0.44335462       0.05301534 </v>
    <v>       0.11294105       0.89305030       0.95114018 </v>
    <v>       0.22454870       0.78322148       0.05128133 </v>
    <v>       0.44224351       0.21731509       0.94993000 </v>
    <v>       0.54971977       0.10858447       0.05166452 </v>
    <v>       0.45010588       0.55933698       0.94906674 </v>
    <v>       0.55804482       0.44944089       0.05096353 </v>
    <v>       0.44198944       0.89091780       0.94996205 </v>
    <v>       0.55749726       0.77558630       0.04846519 </v>
    <v>       0.77792644       0.22202984       0.94545144 </v>
    <v>       0.89204040       0.10879874       0.05113232 </v>
    <v>       0.77491335       0.55858427       0.94759523 </v>
    <v>       0.88866348       0.44457398       0.05573591 </v>
    <v>       0.77978853       0.88650571       0.95082467 </v>
    <v>       0.88665107       0.78013780       0.04937969 </v>
   </varray>
  </structure>
  <varray name="forces" >
   <v>       0.46322327      -0.04910085      -0.00176045 </v>
   <v>       0.10823011      -0.09221207      -0.04424585 </v>
   <v>      -0.00269768       0.06446253      -0.02128477 </v>
   <v>       0.05410153      -0.02925435       0.03337646 </v>
   <v>      -0.00759281       0.05116309       0.03555913 </v>
   <v>       0.09662908       0.02352407       0.06797611 </v>
   <v>      -0.18965111       0.06437720      -0.05231771 </v>
   <v>      -0.09542548      -0.53770079      -0.06315946 </v>
   <v>      -0.26418919       0.52280216       0.02777873 </v>
   <v>      -0.19166610       0.04337340       0.09110665 </v>
   <v>      -0.01904819       0.03622986      -0.00799572 </v>
   <v>      -0.01896930      -0.08155847      -0.30088786 </v>
   <v>      -0.06652831      -0.21292664       0.16973941 </v>
   <v>       0.12291195      -0.19104354       0.03222029 </v>
   <v>      -0.00584189      -0.18245704       0.02704557 </v>
   <v>       0.00961689       0.20359218       0.08823894 </v>
   <v>      -0.08397209       0.14027366       0.10602387 </v>
   <v>      -0.11208156       0.03738485      -0.00385131 </v>
   <v>       0.16438112      -0.05740101      -0.00247041 </v>
   <v>       0.13078499      -0.02544265       0.20787528 </v>
   <v>      -0.21562949      -0.01678379      -0.42462419 </v>
   <v>       0.00372978       0.14227124      -0.25691357 </v>
   <v>      -0.14067697       0.18807448       0.02776654 </v>
   <v>       0.16207632       0.01213274      -0.12173333 </v>
   <v>      -0.02175508      -0.02607768       0.27890437 </v>
   <v>      -0.09399282      -0.01764155       0.08287081 </v>
   <v>       0.21403304      -0.01006103       0.02476247 </v>
  </varray>
  <varray name="stress" >
   <v>       0.46023767      -0.23231459      -0.19506286 </v>
   <v>      -0.23231450       0.27104636      -0.28940988 </v>
   <v>      -0.19506268      -0.28940997      -0.68429579 </v>
  </varray>
  <energy>
   <i name="e_fr_energy">   -191.53770936 </i>
   <i name="e_wo_entrp">   -191.42713111 </i>
   <i name="e_0_energy">     -0.22115649 </i>
  </energy>
  <time name="totalsc">  398.19  399.24</time>
 </calculation>
 <calculation>
  <scstep>
   <time name="dav">   23.14   23.20</time>
   <time name="total">   23.65   23.71</time>
   <energy>
    <i name="alphaZ">     89.68764393 </i>
    <i name="ewald">  44440.27839625 </i>
    <i name="hartreedc"> -50446.95392411 </i>
    <i name="XCdc">   -233.60268349 </i>
    <i name="pawpsdc">   4087.25771627 </i>
    <i name="pawaedc">  -3503.28933871 </i>
    <i name="eentropy">     -0.22197241 </i>
    <i name="bandstr">  -1386.20963988 </i>
    <i name="atom">   6761.44252427 </i>
    <i name="e_fr_energy">   -191.61127789 </i>
    <i name="e_wo_entrp">   -191.38930547 </i>
    <i name="e_0_energy">   -191.50029168 </i>
   </energy>
  </scstep>
  <scstep>
   <time name="dav">   34.78   34.86</time>
   <time name="total">   35.29   35.38</time>
   <energy>
    <i name="e_fr_energy">   -191.66371375 </i>
    <i name="e_wo_entrp">   -191.43480950 </i>
    <i name="e_0_energy">   -191.54926163 </i>
   </energy>
  </scstep>
  <scstep>
   <time name="dav">   32.63   32.70</time>
   <time name="total">   33.13   33.22</time>
   <energy>
    <i name="e_fr_energy">   -191.62256603 </i>
    <i name="e_wo_entrp">   -191.40000669 </i>
    <i name="e_0_energy">   -191.51128636 </i>
   </energy>
  </scstep>
  <scstep>
   <time name="dav">   27.63   27.69</time>
   <time name="total">   28.14   28.21</time>
   <energy>
    <i name="e_fr_energy">   -191.62548903 </i>
    <i name="e_wo_entrp">   -191.40357864 </i>
    <i name="e_0_energy">   -191.51453383 </i>
   </energy>
  </scstep>
  <scstep>
   <time name="dav">   29.66   29.73</time>
   <time name="total">   30.16   30.24</time>
   <energy>
    <i name="e_fr_energy">   -191.61956089 </i>
    <i name="e_wo_entrp">   -191.39570581 </i>
    <i name="e_0_energy">   -191.50763335 </i>
   </energy>
  </scstep>
  <scstep>
   <time name="dav">   29.60   29.67</time>
   <time name="total">   30.11   30.19</time>
   <energy>
    <i name="e_fr_energy">   -191.62029313 </i>
    <i name="e_wo_entrp">   -191.39749464 </i>
    <i name="e_0_energy">   -191.50889389 </i>
   </energy>
  </scstep>
  <scstep>
   <time name="dav">   29.73   29.80</time>
   <time name="total">   30.24   30.32</time>
   <energy>
    <i name="e_fr_energy">   -191.61935021 </i>
    <i name="e_wo_entrp">   -191.39634915 </i>
    <i name="e_0_energy">   -191.50784968 </i>
   </energy>
  </scstep>
  <scstep>
   <time name="dav">   26.79   26.86</time>
   <time name="total">   27.30   27.38</time>
   <energy>
    <i name="e_fr_energy">   -191.61884481 </i>
    <i name="e_wo_entrp">   -191.39585230 </i>
    <i name="e_0_energy">   -191.50734856 </i>
   </energy>
  </scstep>
  <scstep>
   <time name="dav">   19.37   19.41</time>
   <time name="total">   19.41   19.46</time>
   <energy>
    <i name="alphaZ">     89.68764393 </i>
    <i name="ewald">  44440.27839625 </i>
    <i name="hartreedc"> -50449.97927173 </i>
    <i name="XCdc">   -233.49918381 </i>
    <i name="pawpsdc">   4083.93976126 </i>
    <i name="pawaedc">  -3499.92723891 </i>
    <i name="eentropy">     -0.22303332 </i>
    <i name="bandstr">  -1383.33845283 </i>
    <i name="atom">   6761.44252427 </i>
    <i name="e_fr_energy">   -191.61885490 </i>
    <i name="e_wo_entrp">   -191.39582158 </i>
    <i name="e_0_energy">   -191.50733824 </i>
   </energy>
  </scstep>
  <structure>
   <crystal>
    <varray name="basis" >
     <v>       8.30082219       4.77957243       0.00000000 </v>
     <v>      -8.31222878       4.79930468       0.00000000 </v>
     <v>       0.00000000       0.00000000      30.00000000 </v>
    </varray>
    <i name="volume">   2387.01222990 </i>
    <varray name="rec_basis" >
     <v>       0.06031772       0.10446820       0.00000000 </v>
     <v>      -0.06006973       0.10432484       0.00000000 </v>
     <v>       0.00000000       0.00000000       0.03333333 </v>
    </varray>
   </crystal>
   <varray name="positions" >
    <v>       0.67178203       0.65959842       0.00041589 </v>
    <v>      -0.00004927      -0.00206570      -0.00052295 </v>
    <v>       0.33376325       0.00065062      -0.00045821 </v>
    <v>      -0.00394121       0.64921847       0.00005378 </v>
    <v>       0.99392043       0.34474272       0.00007488 </v>
    <v>       0.68262257       0.33685533       0.00018231 </v>
    <v>       0.33340784       0.33707116      -0.00066525 </v>
    <v>       0.31362340       0.65255242       0.00023718 </v>
    <v>       0.67645007       0.01943975       0.00062172 </v>
    <v>       0.10772843       0.21779281       0.94992644 </v>
    <v>       0.21966972       0.10610694       0.04972037 </v>
    <v>       0.11078071       0.55520285       0.94457304 </v>
    <v>       0.22023281       0.44257056       0.05317946 </v>
    <v>       0.11238158       0.89183058       0.95124244 </v>
    <v>       0.22369575       0.78234840       0.05124405 </v>
    <v>       0.44320196       0.21826543       0.95011720 </v>
    <v>       0.55019071       0.10945155       0.05173704 </v>
    <v>       0.44992401       0.55976694       0.94913249 </v>
    <v>       0.55818031       0.44869792       0.05088839 </v>
    <v>       0.44223771       0.89043279       0.95032726 </v>
    <v>       0.55682678       0.77609908       0.04780354 </v>
    <v>       0.77858425       0.22265350       0.94518600 </v>
    <v>       0.89248946       0.11003916       0.05109765 </v>
    <v>       0.77541369       0.55819275       0.94751315 </v>
    <v>       0.88848205       0.44450235       0.05600955 </v>
    <v>       0.77943397       0.88669099       0.95100757 </v>
    <v>       0.88718146       0.77950670       0.04935489 </v>
   </varray>
  </structure>
  <varray name="forces" >
   <v>       0.54874887      -0.02599493       0.00482588 </v>
   <v>       0.12145666      -0.11904629      -0.05967413 </v>
   <v>       0.01068427       0.05843641      -0.03398303 </v>
   <v>       0.10620094      -0.10990190       0.02932233 </v>
   <v>      -0.11632357       0.08102497       0.02314890 </v>
   <v>       0.16933860       0.08451995       0.01832274 </v>
   <v>      -0.24856298       0.05398834      -0.04877213 </v>
   <v>      -0.10830080      -0.57822022       0.00011889 </v>
   <v>      -0.29331238       0.56031436       0.02707722 </v>
   <v>      -0.08924757       0.00639109       0.07147479 </v>
   <v>      -0.01338398       0.02646901      -0.03967230 </v>
   <v>      -0.03896050      -0.08411151      -0.23393202 </v>
   <v>      -0.02962833      -0.12057198       0.15887694 </v>
   <v>       0.06822471      -0.08943226       0.03610416 </v>
   <v>       0.01684854      -0.10389731       0.01434926 </v>
   <v>      -0.02711978       0.11260984       0.09878775 </v>
   <v>      -0.06204869       0.08034213       0.10816737 </v>
   <v>      -0.07870131       0.03513099       0.01972117 </v>
   <v>       0.08902570      -0.04183994       0.01182289 </v>
   <v>       0.09734117      -0.01297533       0.21650657 </v>
   <v>      -0.15534909       0.00175274      -0.48418886 </v>
   <v>      -0.02790883       0.10836776      -0.19433325 </v>
   <v>      -0.06442124       0.12914389       0.05366967 </v>
   <v>       0.08541917      -0.01004165      -0.12501220 </v>
   <v>      -0.00755648      -0.00645369       0.16332011 </v>
   <v>      -0.07226488      -0.02282050       0.12146799 </v>
   <v>       0.11980180      -0.01318397       0.04248328 </v>
  </varray>
  <varray name="stress" >
   <v>      -0.21957351      -0.03836974      -0.01350075 </v>
   <v>      -0.03836979      -0.04059822      -0.09399260 </v>
   <v>      -0.01350079      -0.09399259      -1.21626906 </v>
  </varray>
  <energy>
   <i name="e_fr_energy">   -191.61885490 </i>
   <i name="e_wo_entrp">   -191.50733824 </i>
   <i name="e_0_energy">     -0.22303332 </i>
  </energy>
  <time name="totalsc">  302.03  302.83</time>
 </calculation>
 <calculation>
  <scstep>
   <time name="dav">   23.16   23.21</time>
   <time name="total">   23.67   23.73</time>
   <energy>
    <i name="alphaZ">     89.76441477 </i>
    <i name="ewald">  44472.75592325 </i>
    <i name="hartreedc"> -50483.26589598 </i>
    <i name="XCdc">   -233.45909889 </i>
    <i name="pawpsdc">   4083.60546708 </i>
    <i name="pawaedc">  -3499.58956937 </i>
    <i name="eentropy">     -0.22148647 </i>
    <i name="bandstr">  -1382.72474184 </i>
    <i name="atom">   6761.44252427 </i>
    <i name="e_fr_energy">   -191.69246317 </i>
    <i name="e_wo_entrp">   -191.47097670 </i>
    <i name="e_0_energy">   -191.58171993 </i>
   </energy>
  </scstep>
  <scstep>
   <time name="dav">   33.92   34.00</time>
   <time name="total">   34.42   34.51</time>
   <energy>
    <i name="e_fr_energy">   -191.72738796 </i>
    <i name="e_wo_entrp">   -191.49890476 </i>
    <i name="e_0_energy">   -191.61314636 </i>
   </energy>
  </scstep>
  <scstep>
   <time name="dav">   32.55   32.63</time>
   <time name="total">   33.06   33.15</time>
   <energy>
    <i name="e_fr_energy">   -191.69981356 </i>
    <i name="e_wo_entrp">   -191.47790821 </i>
    <i name="e_0_energy">   -191.58886088 </i>
   </energy>
  </scstep>
  <scstep>
   <time name="dav">   29.29   29.36</time>
   <time name="total">   29.80   29.87</time>
   <energy>
    <i name="e_fr_energy">   -191.70037736 </i>
    <i name="e_wo_entrp">   -191.47943010 </i>
    <i name="e_0_energy">   -191.58990373 </i>
   </energy>
  </scstep>
  <scstep>
   <time name="dav">   29.56   29.63</time>
   <time name="total">   30.07   30.15</time>
   <energy>
    <i name="e_fr_energy">   -191.69711347 </i>
    <i name="e_wo_entrp">   -191.47391799 </i>
    <i name="e_0_energy">   -191.58551573 </i>
   </energy>
  </scstep>
  <scstep>
   <time name="dav">   30.20   30.27</time>
   <time name="total">   30.71   30.79</time>
   <energy>
    <i name="e_fr_energy">   -191.69717618 </i>
    <i name="e_wo_entrp">   -191.47464760 </i>
    <i name="e_0_energy">   -191.58591189 </i>
   </energy>
  </scstep>
  <scstep>
   <time name="dav">   28.45   28.52</time>
   <time name="total">   28.96   29.04</time>
   <energy>
    <i name="e_fr_energy">   -191.69717746 </i>
    <i name="e_wo_entrp">   -191.47446690 </i>
    <i name="e_0_energy">   -191.58582218 </i>
   </energy>
  </scstep>
  <scstep>
[...]
      <set comment="kpoint 31">
       <r>  -17.4835    1.0000 </r>
       <r>  -17.2788    1.0000 </r>
       <r>  -16.9103    1.0000 </r>
       <r>  -16.6197    1.0000 </r>
       <r>  -16.4830    1.0000 </r>
       <r>  -16.3974    1.0000 </r>
       <r>  -16.3171    1.0000 </r>
       <r>  -16.1937    1.0000 </r>
       <r>  -16.0997    1.0000 </r>
       <r>  -16.0166    1.0000 </r>
       <r>  -15.9652    1.0000 </r>
       <r>  -15.9056    1.0000 </r>
       <r>  -15.7934    1.0000 </r>
       <r>  -15.7622    1.0000 </r>
       <r>  -15.6116    1.0000 </r>
       <r>  -15.5094    1.0000 </r>
       <r>  -15.3892    1.0000 </r>
       <r>  -15.2903    1.0000 </r>
       <r>   -9.7053    1.0000 </r>
       <r>   -9.4097    1.0000 </r>
       <r>   -9.3095    1.0000 </r>
       <r>   -8.9364    1.0000 </r>
       <r>   -8.8314    1.0000 </r>
       <r>   -8.6969    1.0000 </r>
       <r>   -8.5276    1.0000 </r>
       <r>   -8.4517    1.0000 </r>
       <r>   -8.4134    1.0000 </r>
       <r>   -8.3200    1.0000 </r>
       <r>   -8.2606    1.0000 </r>
       <r>   -8.2335    1.0000 </r>
       <r>   -8.1303    1.0000 </r>
       <r>   -8.0755    1.0000 </r>
       <r>   -8.0101    1.0000 </r>
       <r>   -7.8914    1.0000 </r>
       <r>   -7.7991    1.0000 </r>
       <r>   -7.6377    1.0000 </r>
       <r>   -7.5679    1.0000 </r>
       <r>   -7.4767    1.0000 </r>
       <r>   -7.3039    1.0000 </r>
       <r>   -7.2006    1.0000 </r>
       <r>   -7.1543    1.0000 </r>
       <r>   -7.1223    1.0000 </r>
       <r>   -7.0380    1.0000 </r>
       <r>   -6.9847    1.0000 </r>
       <r>   -6.8776    1.0000 </r>
       <r>   -6.7721    1.0000 </r>
       <r>   -6.6570    1.0000 </r>
       <r>   -6.6202    1.0000 </r>
       <r>   -6.5604    1.0000 </r>
       <r>   -6.5031    1.0000 </r>
       <r>   -6.3923    1.0000 </r>
       <r>   -6.3274    1.0000 </r>
       <r>   -6.2968    1.0000 </r>
       <r>   -6.2344    1.0000 </r>
       <r>   -6.1762    1.0000 </r>
       <r>   -6.1021    1.0000 </r>
       <r>   -5.9816    1.0000 </r>
       <r>   -5.9118    1.0000 </r>
       <r>   -5.8761    1.0000 </r>
       <r>   -5.8233    1.0000 </r>
       <r>   -5.7483    1.0000 </r>
       <r>   -5.6497    1.0000 </r>
       <r>   -5.5735    1.0000 </r>
       <r>   -5.4127    1.0000 </r>
       <r>   -5.2317    1.0000 </r>
       <r>   -5.1971    1.0000 </r>
       <r>   -5.0852    1.0000 </r>
       <r>   -4.9020    1.0000 </r>
       <r>   -4.8041    1.0000 </r>
       <r>   -4.7568    1.0000 </r>
       <r>   -4.5389    1.0000 </r>
       <r>   -4.4155    1.0000 </r>
       <r>   -4.3279    1.0000 </r>
       <r>   -4.2538    1.0000 </r>
       <r>   -4.1569    1.0000 </r>
       <r>   -4.0413    1.0000 </r>
       <r>   -3.8962    1.0000 </r>
       <r>   -3.6904    0.9990 </r>
       <r>   -3.4626    0.9293 </r>
       <r>   -3.2831    0.5796 </r>
       <r>   -2.9661    0.0206 </r>
       <r>   -2.6827    0.0000 </r>
       <r>   -2.6074    0.0000 </r>
       <r>   -2.5456    0.0000 </r>
       <r>   -2.3775    0.0000 </r>
       <r>   -2.3326    0.0000 </r>
       <r>   -2.2905    0.0000 </r>
       <r>   -2.0965    0.0000 </r>
       <r>   -1.9873    0.0000 </r>
       <r>   -1.9376    0.0000 </r>
       <r>   -1.8984    0.0000 </r>
       <r>   -1.7880    0.0000 </r>
       <r>   -1.5184    0.0000 </r>
       <r>   -1.2789    0.0000 </r>
       <r>   -1.2148    0.0000 </r>
       <r>   -1.0949    0.0000 </r>
       <r>   -1.0627    0.0000 </r>
       <r>   -1.0308    0.0000 </r>
       <r>   -0.9457    0.0000 </r>
       <r>   -0.8944    0.0000 </r>
       <r>   -0.8728    0.0000 </r>
       <r>   -0.7503    0.0000 </r>
       <r>   -0.7294    0.0000 </r>
       <r>   -0.6097    0.0000 </r>
       <r>   -0.5306    0.0000 </r>
       <r>   -0.4249    0.0000 </r>
       <r>   -0.2441    0.0000 </r>
       <r>   -0.1774    0.0000 </r>
       <r>    0.0738    0.0000 </r>
       <r>    0.2028    0.0000 </r>
       <r>    0.4140    0.0000 </r>
       <r>    0.5995    0.0000 </r>
       <r>    0.7392    0.0000 </r>
       <r>    0.9739    0.0000 </r>
       <r>    1.0794    0.0000 </r>
       <r>    1.2346    0.0000 </r>
       <r>    1.4445    0.0000 </r>
       <r>    2.1156    0.0000 </r>
       <r>    2.2741    0.0000 </r>
       <r>    2.3758    0.0000 </r>
      </set>
      <set comment="kpoint 32">
       <r>  -17.5120    1.0000 </r>
       <r>  -17.1570    1.0000 </r>
       <r>  -17.0558    1.0000 </r>
       <r>  -16.6177    1.0000 </r>
       <r>  -16.4056    1.0000 </r>
       <r>  -16.3584    1.0000 </r>
       <r>  -16.3045    1.0000 </r>
       <r>  -16.2346    1.0000 </r>
       <r>  -16.0935    1.0000 </r>
       <r>  -16.0686    1.0000 </r>
       <r>  -15.9527    1.0000 </r>
       <r>  -15.9311    1.0000 </r>
       <r>  -15.7909    1.0000 </r>
       <r>  -15.7412    1.0000 </r>
       <r>  -15.6288    1.0000 </r>
       <r>  -15.5065    1.0000 </r>
       <r>  -15.3827    1.0000 </r>
       <r>  -15.2850    1.0000 </r>
       <r>   -9.5998    1.0000 </r>
       <r>   -9.5534    1.0000 </r>
       <r>   -9.3689    1.0000 </r>
       <r>   -8.9228    1.0000 </r>
       <r>   -8.7266    1.0000 </r>
       <r>   -8.5570    1.0000 </r>
       <r>   -8.5074    1.0000 </r>
       <r>   -8.4657    1.0000 </r>
       <r>   -8.3811    1.0000 </r>
       <r>   -8.3601    1.0000 </r>
       <r>   -8.2994    1.0000 </r>
       <r>   -8.2335    1.0000 </r>
       <r>   -8.1829    1.0000 </r>
       <r>   -8.1209    1.0000 </r>
       <r>   -8.0722    1.0000 </r>
       <r>   -7.9237    1.0000 </r>
       <r>   -7.7750    1.0000 </r>
       <r>   -7.6495    1.0000 </r>
       <r>   -7.5094    1.0000 </r>
       <r>   -7.4649    1.0000 </r>
       <r>   -7.3246    1.0000 </r>
       <r>   -7.2372    1.0000 </r>
       <r>   -7.2005    1.0000 </r>
       <r>   -7.0762    1.0000 </r>
       <r>   -7.0419    1.0000 </r>
       <r>   -6.9516    1.0000 </r>
       <r>   -6.8378    1.0000 </r>
       <r>   -6.7958    1.0000 </r>
       <r>   -6.6896    1.0000 </r>
       <r>   -6.6562    1.0000 </r>
       <r>   -6.5652    1.0000 </r>
       <r>   -6.5026    1.0000 </r>
       <r>   -6.3900    1.0000 </r>
       <r>   -6.3751    1.0000 </r>
       <r>   -6.2846    1.0000 </r>
       <r>   -6.2308    1.0000 </r>
       <r>   -6.0988    1.0000 </r>
       <r>   -6.0905    1.0000 </r>
       <r>   -5.9493    1.0000 </r>
       <r>   -5.9131    1.0000 </r>
       <r>   -5.8935    1.0000 </r>
       <r>   -5.7550    1.0000 </r>
       <r>   -5.7232    1.0000 </r>
       <r>   -5.5854    1.0000 </r>
       <r>   -5.5506    1.0000 </r>
       <r>   -5.4266    1.0000 </r>
       <r>   -5.3204    1.0000 </r>
       <r>   -5.2594    1.0000 </r>
       <r>   -5.0562    1.0000 </r>
       <r>   -4.9222    1.0000 </r>
       <r>   -4.8439    1.0000 </r>
       <r>   -4.7465    1.0000 </r>
       <r>   -4.5857    1.0000 </r>
       <r>   -4.4015    1.0000 </r>
       <r>   -4.3591    1.0000 </r>
       <r>   -4.2494    1.0000 </r>
       <r>   -4.1322    1.0000 </r>
       <r>   -4.0324    1.0000 </r>
       <r>   -3.8845    1.0000 </r>
       <r>   -3.7116    0.9994 </r>
       <r>   -3.4289    0.8910 </r>
       <r>   -3.2059    0.3650 </r>
       <r>   -3.0683    0.0938 </r>
       <r>   -2.6780    0.0000 </r>
       <r>   -2.5792    0.0000 </r>
       <r>   -2.5411    0.0000 </r>
       <r>   -2.3600    0.0000 </r>
       <r>   -2.3399    0.0000 </r>
       <r>   -2.2772    0.0000 </r>
       <r>   -2.1129    0.0000 </r>
       <r>   -1.9606    0.0000 </r>
       <r>   -1.9279    0.0000 </r>
       <r>   -1.9011    0.0000 </r>
       <r>   -1.8318    0.0000 </r>
       <r>   -1.5360    0.0000 </r>
       <r>   -1.2979    0.0000 </r>
       <r>   -1.1855    0.0000 </r>
       <r>   -1.1066    0.0000 </r>
       <r>   -1.0535    0.0000 </r>
       <r>   -1.0105    0.0000 </r>
       <r>   -0.9573    0.0000 </r>
       <r>   -0.9217    0.0000 </r>
       <r>   -0.8587    0.0000 </r>
       <r>   -0.7798    0.0000 </r>
       <r>   -0.6899    0.0000 </r>
       <r>   -0.6383    0.0000 </r>
       <r>   -0.5358    0.0000 </r>
       <r>   -0.4624    0.0000 </r>
       <r>   -0.2074    0.0000 </r>
       <r>   -0.0917    0.0000 </r>
       <r>    0.1013    0.0000 </r>
       <r>    0.2069    0.0000 </r>
       <r>    0.3666    0.0000 </r>
       <r>    0.6076    0.0000 </r>
       <r>    0.7074    0.0000 </r>
       <r>    0.9342    0.0000 </r>
       <r>    1.0471    0.0000 </r>
       <r>    1.2646    0.0000 </r>
       <r>    1.4429    0.0000 </r>
       <r>    2.0839    0.0000 </r>
       <r>    2.2447    0.0000 </r>
       <r>    2.5411    0.0000 </r>
      </set>
      <set comment="kpoint 33">
       <r>  -17.5075    1.0000 </r>
       <r>  -17.2319    1.0000 </r>
       <r>  -16.9315    1.0000 </r>
       <r>  -16.6208    1.0000 </r>
       <r>  -16.4965    1.0000 </r>
       <r>  -16.4062    1.0000 </r>
       <r>  -16.3125    1.0000 </r>
       <r>  -16.1686    1.0000 </r>
       <r>  -16.0912    1.0000 </r>
       <r>  -16.0222    1.0000 </r>
       <r>  -15.9559    1.0000 </r>
       <r>  -15.9269    1.0000 </r>
       <r>  -15.7956    1.0000 </r>
       <r>  -15.7560    1.0000 </r>
       <r>  -15.6114    1.0000 </r>
       <r>  -15.5160    1.0000 </r>
       <r>  -15.3824    1.0000 </r>
       <r>  -15.2944    1.0000 </r>
       <r>   -9.6827    1.0000 </r>
       <r>   -9.4221    1.0000 </r>
       <r>   -9.2914    1.0000 </r>
       <r>   -8.9377    1.0000 </r>
       <r>   -8.8586    1.0000 </r>
       <r>   -8.7469    1.0000 </r>
       <r>   -8.5416    1.0000 </r>
       <r>   -8.4257    1.0000 </r>
       <r>   -8.3776    1.0000 </r>
       <r>   -8.3254    1.0000 </r>
       <r>   -8.2774    1.0000 </r>
       <r>   -8.2386    1.0000 </r>
       <r>   -8.1143    1.0000 </r>
       <r>   -8.0784    1.0000 </r>
       <r>   -7.9996    1.0000 </r>
       <r>   -7.8628    1.0000 </r>
       <r>   -7.7945    1.0000 </r>
       <r>   -7.6507    1.0000 </r>
       <r>   -7.5833    1.0000 </r>
       <r>   -7.4707    1.0000 </r>
       <r>   -7.3109    1.0000 </r>
       <r>   -7.2146    1.0000 </r>
       <r>   -7.1391    1.0000 </r>
       <r>   -7.1122    1.0000 </r>
       <r>   -7.0376    1.0000 </r>
       <r>   -6.9931    1.0000 </r>
       <r>   -6.8791    1.0000 </r>
       <r>   -6.7673    1.0000 </r>
       <r>   -6.6551    1.0000 </r>
       <r>   -6.6027    1.0000 </r>
       <r>   -6.5682    1.0000 </r>
       <r>   -6.5098    1.0000 </r>
       <r>   -6.3828    1.0000 </r>
       <r>   -6.3339    1.0000 </r>
       <r>   -6.3043    1.0000 </r>
       <r>   -6.2469    1.0000 </r>
       <r>   -6.1666    1.0000 </r>
       <r>   -6.0933    1.0000 </r>
       <r>   -5.9841    1.0000 </r>
       <r>   -5.9279    1.0000 </r>
       <r>   -5.8701    1.0000 </r>
       <r>   -5.8337    1.0000 </r>
       <r>   -5.7428    1.0000 </r>
       <r>   -5.6434    1.0000 </r>
       <r>   -5.5660    1.0000 </r>
       <r>   -5.4034    1.0000 </r>
       <r>   -5.2326    1.0000 </r>
       <r>   -5.2075    1.0000 </r>
       <r>   -5.0795    1.0000 </r>
       <r>   -4.9141    1.0000 </r>
       <r>   -4.7906    1.0000 </r>
       <r>   -4.7598    1.0000 </r>
       <r>   -4.5627    1.0000 </r>
       <r>   -4.4064    1.0000 </r>
       <r>   -4.3284    1.0000 </r>
       <r>   -4.2563    1.0000 </r>
       <r>   -4.1509    1.0000 </r>
       <r>   -4.0442    1.0000 </r>
       <r>   -3.9001    1.0000 </r>
       <r>   -3.6907    0.9990 </r>
       <r>   -3.4555    0.9222 </r>
       <r>   -3.2839    0.5819 </r>
       <r>   -2.9768    0.0247 </r>
       <r>   -2.7122    0.0001 </r>
       <r>   -2.5664    0.0000 </r>
       <r>   -2.5414    0.0000 </r>
       <r>   -2.3897    0.0000 </r>
       <r>   -2.3106    0.0000 </r>
       <r>   -2.2812    0.0000 </r>
       <r>   -2.1018    0.0000 </r>
       <r>   -1.9838    0.0000 </r>
       <r>   -1.9388    0.0000 </r>
       <r>   -1.8999    0.0000 </r>
       <r>   -1.7807    0.0000 </r>
       <r>   -1.5202    0.0000 </r>
       <r>   -1.2701    0.0000 </r>
       <r>   -1.2168    0.0000 </r>
       <r>   -1.1234    0.0000 </r>
       <r>   -1.0817    0.0000 </r>
       <r>   -1.0305    0.0000 </r>
       <r>   -0.9592    0.0000 </r>
       <r>   -0.9165    0.0000 </r>
       <r>   -0.8538    0.0000 </r>
       <r>   -0.7798    0.0000 </r>
       <r>   -0.7263    0.0000 </r>
       <r>   -0.6311    0.0000 </r>
       <r>   -0.5160    0.0000 </r>
       <r>   -0.4065    0.0000 </r>
       <r>   -0.2392    0.0000 </r>
       <r>   -0.0961    0.0000 </r>
       <r>    0.1193    0.0000 </r>
       <r>    0.1844    0.0000 </r>
       <r>    0.3782    0.0000 </r>
       <r>    0.6051    0.0000 </r>
       <r>    0.6717    0.0000 </r>
       <r>    0.9423    0.0000 </r>
       <r>    1.0328    0.0000 </r>
       <r>    1.3092    0.0000 </r>
       <r>    1.4725    0.0000 </r>
       <r>    2.1154    0.0000 </r>
       <r>    2.2741    0.0000 </r>
       <r>    2.3743    0.0000 </r>
      </set>
      <set comment="kpoint 34">
       <r>  -17.4954    1.0000 </r>
       <r>  -17.2848    1.0000 </r>
       <r>  -16.7740    1.0000 </r>
       <r>  -16.6830    1.0000 </r>
       <r>  -16.5951    1.0000 </r>
       <r>  -16.4127    1.0000 </r>
       <r>  -16.3060    1.0000 </r>
       <r>  -16.1599    1.0000 </r>
       <r>  -16.0887    1.0000 </r>
       <r>  -15.9861    1.0000 </r>
       <r>  -15.9410    1.0000 </r>
       <r>  -15.9200    1.0000 </r>
       <r>  -15.7973    1.0000 </r>
       <r>  -15.7784    1.0000 </r>
       <r>  -15.5889    1.0000 </r>
       <r>  -15.5301    1.0000 </r>
       <r>  -15.3836    1.0000 </r>
       <r>  -15.3028    1.0000 </r>
       <r>   -9.7239    1.0000 </r>
       <r>   -9.2726    1.0000 </r>
       <r>   -9.2135    1.0000 </r>
       <r>   -9.0141    1.0000 </r>
       <r>   -8.9743    1.0000 </r>
       <r>   -8.8605    1.0000 </r>
       <r>   -8.5558    1.0000 </r>
       <r>   -8.4333    1.0000 </r>
       <r>   -8.3868    1.0000 </r>
       <r>   -8.2845    1.0000 </r>
       <r>   -8.2789    1.0000 </r>
       <r>   -8.2261    1.0000 </r>
       <r>   -8.1051    1.0000 </r>
       <r>   -8.0393    1.0000 </r>
       <r>   -7.9199    1.0000 </r>
       <r>   -7.8358    1.0000 </r>
       <r>   -7.8042    1.0000 </r>
       <r>   -7.6291    1.0000 </r>
       <r>   -7.5709    1.0000 </r>
       <r>   -7.4505    1.0000 </r>
       <r>   -7.4152    1.0000 </r>
       <r>   -7.2020    1.0000 </r>
       <r>   -7.1497    1.0000 </r>
       <r>   -7.1224    1.0000 </r>
       <r>   -7.0415    1.0000 </r>
       <r>   -6.9733    1.0000 </r>
       <r>   -6.8566    1.0000 </r>
       <r>   -6.7271    1.0000 </r>
       <r>   -6.6363    1.0000 </r>
       <r>   -6.6032    1.0000 </r>
       <r>   -6.5551    1.0000 </r>
       <r>   -6.4708    1.0000 </r>
       <r>   -6.3689    1.0000 </r>
       <r>   -6.3574    1.0000 </r>
       <r>   -6.2945    1.0000 </r>
       <r>   -6.2840    1.0000 </r>
       <r>   -6.2513    1.0000 </r>
       <r>   -6.1386    1.0000 </r>
       <r>   -5.9932    1.0000 </r>
       <r>   -5.9419    1.0000 </r>
       <r>   -5.8810    1.0000 </r>
       <r>   -5.8191    1.0000 </r>
       <r>   -5.7490    1.0000 </r>
       <r>   -5.6490    1.0000 </r>
       <r>   -5.6033    1.0000 </r>
       <r>   -5.4509    1.0000 </r>
       <r>   -5.2494    1.0000 </r>
       <r>   -5.0648    1.0000 </r>
       <r>   -4.9778    1.0000 </r>
       <r>   -4.9606    1.0000 </r>
       <r>   -4.8882    1.0000 </r>
       <r>   -4.6834    1.0000 </r>
       <r>   -4.5447    1.0000 </r>
       <r>   -4.4033    1.0000 </r>
       <r>   -4.2810    1.0000 </r>
       <r>   -4.2423    1.0000 </r>
       <r>   -4.2014    1.0000 </r>
       <r>   -4.0626    1.0000 </r>
       <r>   -3.9139    1.0000 </r>
       <r>   -3.6521    0.9975 </r>
       <r>   -3.5159    0.9676 </r>
       <r>   -3.3173    0.6710 </r>
       <r>   -2.8990    0.0060 </r>
       <r>   -2.7529    0.0002 </r>
       <r>   -2.5566    0.0000 </r>
       <r>   -2.5506    0.0000 </r>
       <r>   -2.4036    0.0000 </r>
       <r>   -2.3040    0.0000 </r>
       <r>   -2.2816    0.0000 </r>
       <r>   -2.0908    0.0000 </r>
       <r>   -2.0059    0.0000 </r>
       <r>   -1.9469    0.0000 </r>
       <r>   -1.8884    0.0000 </r>
       <r>   -1.7480    0.0000 </r>
       <r>   -1.4947    0.0000 </r>
       <r>   -1.2749    0.0000 </r>
       <r>   -1.2022    0.0000 </r>
       <r>   -1.1565    0.0000 </r>
       <r>   -1.1177    0.0000 </r>
       <r>   -1.0284    0.0000 </r>
       <r>   -0.9499    0.0000 </r>
       <r>   -0.8969    0.0000 </r>
       <r>   -0.8697    0.0000 </r>
       <r>   -0.7966    0.0000 </r>
       <r>   -0.7330    0.0000 </r>
       <r>   -0.6365    0.0000 </r>
       <r>   -0.4685    0.0000 </r>
       <r>   -0.3678    0.0000 </r>
       <r>   -0.2916    0.0000 </r>
       <r>   -0.1143    0.0000 </r>
       <r>    0.1181    0.0000 </r>
       <r>    0.1664    0.0000 </r>
       <r>    0.4046    0.0000 </r>
       <r>    0.5939    0.0000 </r>
       <r>    0.6612    0.0000 </r>
       <r>    0.9700    0.0000 </r>
       <r>    1.0223    0.0000 </r>
       <r>    1.3308    0.0000 </r>
       <r>    1.4950    0.0000 </r>
       <r>    2.2016    0.0000 </r>
       <r>    2.2195    0.0000 </r>
       <r>    2.3693    0.0000 </r>
      </set>
     </set>
    </set>
   </array>
  </eigenvalues>
  <separator name="orbital magnetization" >
   <v name="MAGDIPOLOUT">      0.00000000      0.00000000      0.00000000</v>
  </separator>
 </calculation>
 <structure name="finalpos" >
  <crystal>
   <varray name="basis" >
    <v>       8.38329311       4.82834016       0.00000000 </v>
    <v>      -8.39174437       4.84284324       0.00000000 </v>
    <v>       0.00000000       0.00000000      30.00000000 </v>
   </varray>
   <i name="volume">   2433.51512022 </i>
   <varray name="rec_basis" >
    <v>       0.05970183       0.10345213       0.00000000 </v>
    <v>      -0.05952303       0.10334795       0.00000000 </v>
    <v>       0.00000000       0.00000000       0.03333333 </v>
   </varray>
  </crystal>
  <varray name="positions" >
   <v>       0.68505466       0.64812524       0.00061872 </v>
   <v>       0.00044660      -0.02451906       0.00031273 </v>
   <v>       0.31708246      -0.03438290      -0.00069334 </v>
   <v>      -0.00169871       0.65890682       0.00000389 </v>
   <v>       0.99844943       0.35284959       0.00002565 </v>
   <v>       0.70020142       0.34702188      -0.00022859 </v>
   <v>       0.31043442       0.35001458      -0.00180186 </v>
   <v>       0.30044576       0.64791076       0.00003845 </v>
   <v>       0.68939261       0.03949047       0.00164564 </v>
   <v>       0.09842628       0.21270473       0.95064506 </v>
   <v>       0.22177398       0.10682089       0.04619890 </v>
   <v>       0.10697026       0.55707589       0.94313296 </v>
   <v>       0.21677347       0.44682598       0.05594781 </v>
   <v>       0.11429989       0.89011969       0.94878352 </v>
   <v>       0.22191984       0.77915586       0.05418495 </v>
   <v>       0.44018222       0.22037511       0.95951829 </v>
   <v>       0.55169173       0.11442683       0.04984143 </v>
   <v>       0.44861864       0.56398550       0.95020601 </v>
   <v>       0.55341801       0.44339395       0.04830144 </v>
   <v>       0.44618217       0.88990859       0.95140107 </v>
   <v>       0.55881118       0.77871587       0.04027244 </v>
   <v>       0.78304193       0.22831490       0.94379345 </v>
   <v>       0.90048814       0.11468769       0.04964020 </v>
   <v>       0.77865921       0.55696303       0.94549163 </v>
   <v>       0.89287728       0.45022352       0.05683186 </v>
   <v>       0.77878946       0.88424733       0.95417629 </v>
   <v>       0.88548209       0.77485170       0.05171131 </v>
  </varray>
 </structure>
</modeling>
