unknown system                          
           1
     8.854969    5.102750    0.000000
    -8.857841    5.107690    0.000000
     0.000000    0.000000   30.000000
   V    Mo   W    S 
   3   3   3  18
Direct configuration=     1
   0.66666669  0.66666669  0.00000000
   0.00000000  0.00000000  0.00000000
   0.33333334  0.00000000  0.00000000
   0.00000000  0.66666669  0.00000000
   1.00000000  0.33333334  0.00000000
   0.66666669  0.33333334  0.00000000
   0.33333334  0.33333334  0.00000000
   0.33333334  0.66666669  0.00000000
   0.66666669  0.00000000  0.00000000
   0.11068511  0.22244981  0.95539999
   0.22244981  0.11068511  0.04460000
   0.11068511  0.55578315  0.95539999
   0.22244981  0.44401845  0.04460000
   0.11068511  0.88911647  0.95539999
   0.22244981  0.77735180  0.04460000
   0.44401845  0.22244981  0.95539999
   0.55578315  0.11068511  0.04460000
   0.44401845  0.55578315  0.95539999
   0.55578315  0.44401845  0.04460000
   0.44401845  0.88911647  0.95539999
   0.55578315  0.77735180  0.04460000
   0.77735180  0.22244981  0.95539999
   0.88911647  0.11068511  0.04460000
   0.77735180  0.55578315  0.95539999
   0.88911647  0.44401845  0.04460000
   0.77735180  0.88911647  0.95539999
   0.88911647  0.77735180  0.04460000
unknown system                          
           1
     8.667175    4.996888    0.000000
    -8.669824    5.001445    0.000000
     0.000000    0.000000   30.000000
   V    Mo   W    S 
   3   3   3  18
Direct configuration=     2
   0.66819463  0.66575908 -0.00010032
   0.00001464 -0.00044171 -0.00004854
   0.33291821 -0.00005349  0.00009916
  -0.00136150  0.66434554 -0.00003255
   0.99855181  0.33481588 -0.00001613
   0.66947458  0.33468497  0.00015413
   0.33326238  0.33293821 -0.00002849
   0.33036033  0.66533502 -0.00011387
   0.66831777  0.00283801  0.00004236
   0.10980222  0.21818481  0.95201134
   0.22068048  0.10745109  0.04693440
   0.11211378  0.55592523  0.95068167
   0.22282994  0.44465853  0.04926069
   0.11297783  0.89321858  0.95316098
   0.22488518  0.78190151  0.04809497
   0.44169485  0.21811540  0.95201433
   0.55132302  0.10829725  0.04810723
   0.44818048  0.55734075  0.95186482
   0.55670723  0.44826797  0.04804574
   0.44235935  0.89066433  0.95202112
   0.55747043  0.77570165  0.04787220
   0.77730955  0.22111050  0.95071227
   0.89024538  0.10815163  0.04798930
   0.77525035  0.55800111  0.95196276
   0.88869193  0.44425688  0.04933848
   0.77935019  0.88690357  0.95302546
   0.88660941  0.77984215  0.04694639
unknown system                          
           1
     8.486665    4.897783    0.000000
    -8.488463    4.900869    0.000000
     0.000000    0.000000   30.000000
   V    Mo   W    S 
   3   3   3  18
Direct configuration=     3
   0.66852991  0.66545181 -0.00006560
   0.00001388 -0.00054166 -0.00010043
   0.33287737 -0.00003778  0.00006020
  -0.00170150  0.66313725 -0.00003338
   0.99807934  0.33554352 -0.00000970
   0.67060227  0.33500120  0.00017163
   0.33327464  0.33309097 -0.00009236
   0.32925731  0.66459220 -0.00007299
   0.66887125  0.00391781  0.00011001
   0.10997225  0.21821666  0.95209088
   0.22073782  0.10760139  0.04691269
   0.11232769  0.55604088  0.95051866
   0.22303035  0.44474124  0.04925583
   0.11301320  0.89327055  0.95325055
   0.22505857  0.78188303  0.04808032
   0.44152877  0.21815147  0.95211033
   0.55136363  0.10812464  0.04810885
   0.44803940  0.55730742  0.95193100
   0.55654588  0.44824215  0.04802147
   0.44244292  0.89056785  0.95210576
   0.55737047  0.77579995  0.04766522
   0.77719262  0.22089873  0.95057504
   0.89004407  0.10801057  0.04797615
   0.77520607  0.55805568  0.95185894
   0.88868979  0.44426260  0.04956635
   0.77925168  0.88700779  0.95311250
   0.88659482  0.77987653  0.04689197
unknown system                          
           1
     8.290150    4.778699    0.000000
    -8.296139    4.789045    0.000000
     0.000000    0.000000   30.000000
   V    Mo   W    S 
   3   3   3  18
Direct configuration=     4
   0.66930839  0.66402200  0.00010892
   0.00004410 -0.00072048 -0.00027125
   0.33301798  0.00005437 -0.00012356
  -0.00268043  0.65806346 -0.00002635
   0.99639743  0.33869300  0.00000204
   0.67491595  0.33588513  0.00016266
   0.33340014  0.33416180 -0.00030883
   0.32499665  0.66139658  0.00011575
   0.67073624  0.00803449  0.00032475
   0.10927398  0.21732360  0.95098588
   0.22015365  0.10664837  0.04818470
   0.11212469  0.55599489  0.94821583
   0.22285291  0.44447237  0.05086945
   0.11334382  0.89388545  0.95232475
   0.22539369  0.78287634  0.04948652
   0.44127825  0.21733777  0.95107021
   0.55037733  0.10777017  0.04960160
   0.44902398  0.55806260  0.95068791
   0.55712770  0.44914535  0.04935152
   0.44213530  0.89089515  0.95100384
   0.55765295  0.77549987  0.04825143
   0.77722937  0.22104480  0.94841325
   0.89074550  0.10778364  0.04938543
   0.77473821  0.55854118  0.95003627
   0.88872973  0.44438933  0.05207524
   0.77957071  0.88664445  0.95210602
   0.88632622  0.78030878  0.04796590
unknown system                          
           1
     8.300822    4.779572    0.000000
    -8.312229    4.799305    0.000000
     0.000000    0.000000   30.000000
   V    Mo   W    S 
   3   3   3  18
Direct configuration=     5
   0.67079859  0.66098419  0.00043044
   0.00009354 -0.00135455 -0.00046341
   0.33348344  0.00034863 -0.00043776
  -0.00399787  0.64917872  0.00000451
   0.99359755  0.34469843  0.00002185
   0.68252306  0.33704920  0.00007635
   0.33363022  0.33633023 -0.00059694
   0.31611314  0.65459168  0.00034137
   0.67484065  0.01654940  0.00058958
   0.10799128  0.21704223  0.94973074
   0.21952004  0.10584002  0.04980315
   0.11117984  0.55551798  0.94489190
   0.22136726  0.44335462  0.05301534
   0.11294105  0.89305030  0.95114018
   0.22454870  0.78322148  0.05128133
   0.44224351  0.21731509  0.94993000
   0.54971977  0.10858447  0.05166452
   0.45010588  0.55933698  0.94906674
   0.55804482  0.44944089  0.05096353
   0.44198944  0.89091780  0.94996205
   0.55749726  0.77558630  0.04846519
   0.77792644  0.22202984  0.94545144
   0.89204040  0.10879874  0.05113232
   0.77491335  0.55858427  0.94759523
   0.88866348  0.44457398  0.05573591
   0.77978853  0.88650571  0.95082467
   0.88665107  0.78013780  0.04937969
unknown system                          
           1
     8.295278    4.777564    0.000000
    -8.307642    4.798963    0.000000
     0.000000    0.000000   30.000000
   V    Mo   W    S 
   3   3   3  18
Direct configuration=     6
   0.67178203  0.65959842  0.00041589
  -0.00004927 -0.00206570 -0.00052295
   0.33376325  0.00065062 -0.00045821
  -0.00394121  0.64921847  0.00005378
   0.99392043  0.34474272  0.00007488
   0.68262257  0.33685533  0.00018231
   0.33340784  0.33707116 -0.00066525
   0.31362340  0.65255242  0.00023718
   0.67645007  0.01943975  0.00062172
   0.10772843  0.21779281  0.94992644
   0.21966972  0.10610694  0.04972037
   0.11078071  0.55520285  0.94457304
   0.22023281  0.44257056  0.05317946
   0.11238158  0.89183058  0.95124244
   0.22369575  0.78234840  0.05124405
   0.44320196  0.21826543  0.95011720
   0.55019071  0.10945155  0.05173704
   0.44992401  0.55976694  0.94913249
   0.55818031  0.44869792  0.05088839
   0.44223771  0.89043279  0.95032726
   0.55682678  0.77609908  0.04780354
   0.77858425  0.22265350  0.94518600
   0.89248946  0.11003916  0.05109765
   0.77541369  0.55819275  0.94751315
   0.88848205  0.44450235  0.05600955
   0.77943397  0.88669099  0.95100757
   0.88718146  0.77950670  0.04935489
unknown system                          
           1
     8.299030    4.779737    0.000000
    -8.313615    4.804992    0.000000
     0.000000    0.000000   30.000000
   V    Mo   W    S 
   3   3   3  18
Direct configuration=     7
   0.67300294  0.65814004  0.00042632
  -0.00025011 -0.00285497 -0.00060428
   0.33403852  0.00087325 -0.00050709
  -0.00415483  0.64840290  0.00009327
   0.99394551  0.34542609  0.00010630
   0.68346894  0.33681412  0.00020720
   0.33304315  0.33791712 -0.00073398
   0.31084737  0.65032358  0.00023827
   0.67812712  0.02257455  0.00066122
   0.10751812  0.21803559  0.95000127
   0.21973766  0.10623490  0.04969409
   0.11032447  0.55493859  0.94421147
   0.21962710  0.44211728  0.05342387
   0.11216220  0.89127370  0.95127108
   0.22328388  0.78187801  0.05129151
   0.44362944  0.21880156  0.95022875
   0.55036831  0.10995138  0.05191198
   0.44989800  0.56012265  0.94913225
   0.55823825  0.44831252  0.05092915
   0.44241442  0.89014510  0.95059619
   0.55645530  0.77647864  0.04716979
   0.77898345  0.22318672  0.94488183
   0.89289434  0.11075362  0.05119544
   0.77558461  0.55794651  0.94731080
   0.88843339  0.44449505  0.05628333
   0.77916946  0.88676664  0.95114690
   0.88742343  0.77915929  0.04943295
unknown system                          
           1
     8.302277    4.781861    0.000000
    -8.322752    4.817347    0.000000
     0.000000    0.000000   30.000000
   V    Mo   W    S 
   3   3   3  18
Direct configuration=     8
   0.67435457  0.65670734  0.00044601
  -0.00049499 -0.00375534 -0.00068531
   0.33435676  0.00110595 -0.00056354
  -0.00442324  0.64799357  0.00011553
   0.99416301  0.34583333  0.00012645
   0.68402641  0.33676504  0.00024083
   0.33246798  0.33871382 -0.00080732
   0.30855538  0.64850915  0.00022781
   0.67958251  0.02530927  0.00074066
   0.10736145  0.21814527  0.95010431
   0.21978812  0.10635539  0.04960765
   0.10986946  0.55471218  0.94394479
   0.21911950  0.44171190  0.05364977
   0.11207305  0.89090742  0.95133010
   0.22294098  0.78144297  0.05129811
   0.44389651  0.21928843  0.95039082
   0.55053074  0.11039197  0.05203439
   0.44986398  0.56045941  0.94920264
   0.55822036  0.44795171  0.05092045
   0.44262526  0.88987975  0.95091306
   0.55615981  0.77683906  0.04644415
   0.77939380  0.22376205  0.94463347
   0.89325049  0.11133709  0.05124804
   0.77570122  0.55772591  0.94713921
   0.88837986  0.44447270  0.05645286
   0.77888017  0.88680339  0.95134789
   0.88757130  0.77884573  0.04949709
unknown system                          
           1
     8.315072    4.788406    0.000000
    -8.336681    4.825851    0.000000
     0.000000    0.000000   30.000000
   V    Mo   W    S 
   3   3   3  18
Direct configuration=     9
   0.67858246  0.65273144  0.00051832
  -0.00131462 -0.00677906 -0.00089842
   0.33542206  0.00169637 -0.00072819
  -0.00550273  0.64702496  0.00015656
   0.99507564  0.34700429  0.00016906
   0.68586512  0.33681076  0.00029510
   0.32991643  0.34099770 -0.00099039
   0.30268894  0.64410170  0.00022250
   0.68329583  0.03243204  0.00099317
   0.10687743  0.21802899  0.95038339
   0.21988957  0.10668231  0.04925834
   0.10850071  0.55416373  0.94331998
   0.21798896  0.44080195  0.05427825
   0.11216861  0.89028286  0.95149709
   0.22209143  0.78029932  0.05125364
   0.44427236  0.22060549  0.95096062
   0.55093142  0.11159360  0.05233772
   0.44979284  0.56137443  0.94952561
   0.55798400  0.44693525  0.05081163
   0.44330219  0.88925526  0.95186900
   0.55563089  0.77777440  0.04418646
   0.78049117  0.22544682  0.94405406
   0.89426973  0.11272817  0.05135302
   0.77589755  0.55705392  0.94662769
   0.88833125  0.44441907  0.05677639
   0.77796837  0.88676767  0.95203375
   0.88779683  0.77798104  0.04973554
unknown system                          
           1
     8.317062    4.788203    0.000000
    -8.340947    4.829592    0.000000
     0.000000    0.000000   30.000000
   V    Mo   W    S 
   3   3   3  18
Direct configuration=    10
   0.67937233  0.65227642  0.00055765
  -0.00159288 -0.00798142 -0.00089787
   0.33588622  0.00173020 -0.00076534
  -0.00591769  0.64701920  0.00012089
   0.99561823  0.34723652  0.00015233
   0.68655158  0.33700604  0.00027113
   0.32829720  0.34162226 -0.00098835
   0.30229478  0.64407929  0.00019981
   0.68357087  0.03295280  0.00105796
   0.10650325  0.21759841  0.95036161
   0.21984673  0.10671603  0.04914072
   0.10803474  0.55407674  0.94320293
   0.21781264  0.44071382  0.05451098
   0.11243475  0.89030015  0.95147781
   0.22188776  0.78010729  0.05127294
   0.44417756  0.22104033  0.95118298
   0.55101872  0.11200279  0.05242843
   0.44984264  0.56162550  0.94963426
   0.55782844  0.44655939  0.05072096
   0.44352040  0.88922285  0.95207432
   0.55579730  0.77785870  0.04356960
   0.78082135  0.22598095  0.94394572
   0.89465943  0.11298077  0.05138061
   0.77598227  0.55672522  0.94642101
   0.88844515  0.44444870  0.05683715
   0.77769440  0.88659248  0.95223202
   0.88782629  0.77772305  0.04989764
unknown system                          
           1
     8.322300    4.790171    0.000000
    -8.345868    4.831000    0.000000
     0.000000    0.000000   30.000000
   V    Mo   W    S 
   3   3   3  18
Direct configuration=    11
   0.68126391  0.65088464  0.00060036
  -0.00207042 -0.01018515 -0.00090176
   0.33667016  0.00167789 -0.00082370
  -0.00673578  0.64674745  0.00009493
   0.99650417  0.34784574  0.00015415
   0.68806644  0.33727537  0.00024980
   0.32549393  0.34295705 -0.00102840
   0.30023966  0.64289750  0.00017892
   0.68490857  0.03548175  0.00118953
   0.10593368  0.21703566  0.95041652
   0.21982923  0.10685693  0.04887647
   0.10736059  0.55395737  0.94303501
   0.21748347  0.44068201  0.05484562
   0.11279528  0.89020101  0.95151931
   0.22148676  0.77968283  0.05124475
   0.44412090  0.22194361  0.95167528
   0.55133318  0.11272944  0.05250816
   0.44979088  0.56197657  0.94986372
   0.55752804  0.44586263  0.05047789
   0.44394816  0.88915211  0.95248526
   0.55592787  0.77811618  0.04242576
   0.78133874  0.22673445  0.94381773
   0.89518543  0.11347168  0.05133754
   0.77606930  0.55621024  0.94617337
   0.88863795  0.44449172  0.05687198
   0.77723978  0.88635182  0.95261816
   0.88786460  0.77717594  0.05009353
unknown system                          
           1
     8.322654    4.790244    0.000000
    -8.346238    4.831099    0.000000
     0.000000    0.000000   30.000000
   V    Mo   W    S 
   3   3   3  18
Direct configuration=    12
   0.68120900  0.65108978  0.00060011
  -0.00208037 -0.01074250 -0.00083698
   0.33682429  0.00127897 -0.00082018
  -0.00688349  0.64692444  0.00007459
   0.99678769  0.34785253  0.00013931
   0.68847786  0.33741837  0.00022327
   0.32448169  0.34322539 -0.00101327
   0.30055126  0.64336142  0.00017210
   0.68477012  0.03512970  0.00119090
   0.10562536  0.21671461  0.95034905
   0.21980220  0.10687449  0.04882446
   0.10732498  0.55403166  0.94306096
   0.21753208  0.44096783  0.05492435
   0.11295809  0.89025642  0.95148792
   0.22148431  0.77979228  0.05126914
   0.44399775  0.22220777  0.95185422
   0.55143718  0.11285898  0.05248915
   0.44975269  0.56195663  0.94987828
   0.55737801  0.44567086  0.05035120
   0.44403496  0.88929366  0.95243685
   0.55610553  0.77802001  0.04239505
   0.78139881  0.22670795  0.94385094
   0.89526550  0.11340514  0.05130003
   0.77606604  0.55607689  0.94615259
   0.88881457  0.44456380  0.05685043
   0.77725083  0.88621095  0.95263849
   0.88784748  0.77706642  0.05015694
unknown system                          
           1
     8.324585    4.790069    0.000000
    -8.348307    4.831152    0.000000
     0.000000    0.000000   30.000000
   V    Mo   W    S 
   3   3   3  18
Direct configuration=    13
   0.68124604  0.65108004  0.00060037
  -0.00208238 -0.01082944 -0.00083117
   0.33684094  0.00121554 -0.00082117
  -0.00690246  0.64694231  0.00007311
   0.99682487  0.34786373  0.00013804
   0.68854833  0.33743116  0.00022112
   0.32433737  0.34327403 -0.00101438
   0.30052971  0.64337559  0.00017140
   0.68479014  0.03515824  0.00119417
   0.10558642  0.21667787  0.95034456
   0.21980035  0.10688086  0.04881442
   0.10731328  0.55403774  0.94306046
   0.21752946  0.44099905  0.05493775
   0.11297737  0.89026012  0.95148617
   0.22147880  0.77979812  0.05127185
   0.44398579  0.22224923  0.95188289
   0.55145585  0.11288282  0.05248738
   0.44974203  0.56196112  0.94988309
   0.55735498  0.44563812  0.05033406
   0.44405236  0.88930464  0.95243778
   0.55611845  0.77801971  0.04237478
   0.78141364  0.22671564  0.94385059
   0.89528021  0.11340640  0.05129461
   0.77606536  0.55605716  0.94614696
   0.88883508  0.44457190  0.05684897
   0.77724720  0.88619575  0.95264646
   0.88784526  0.77704703  0.05016563
unknown system                          
           1
     8.327828    4.792060    0.000000
    -8.351790    4.833562    0.000000
     0.000000    0.000000   30.000000
   V    Mo   W    S 
   3   3   3  18
Direct configuration=    14
   0.68172993  0.65091807  0.00060921
  -0.00216846 -0.01189565 -0.00077065
   0.33710329  0.00067205 -0.00083280
  -0.00715458  0.64705255  0.00005383
   0.99727548  0.34805106  0.00012375
   0.68942984  0.33755856  0.00019886
   0.32257263  0.34387217 -0.00102421
   0.30013794  0.64337360  0.00015620
   0.68515147  0.03566322  0.00123898
   0.10509816  0.21621270  0.95029698
   0.21973424  0.10695676  0.04869075
   0.10711501  0.55409528  0.94304227
   0.21747244  0.44132952  0.05511955
   0.11320107  0.89027324  0.95146700
   0.22135584  0.77979736  0.05130288
   0.44388003  0.22280726  0.95221365
   0.55172591  0.11324025  0.05248183
   0.44958891  0.56203295  0.94995304
   0.55706265  0.44519566  0.05013452
   0.44429998  0.88940433  0.95248439
   0.55626961  0.77804340  0.04205387
   0.78162830  0.22687213  0.94383900
   0.89549196  0.11345327  0.05123003
   0.77609081  0.55575695  0.94604815
   0.88908240  0.44466108  0.05683329
   0.77717387  0.88600789  0.95276754
   0.88786571  0.77680878  0.05028798
unknown system                          
           1
     8.333534    4.793381    0.000000
    -8.357923    4.835607    0.000000
     0.000000    0.000000   30.000000
   V    Mo   W    S 
   3   3   3  18
Direct configuration=    15
   0.68165515  0.65094163  0.00060648
  -0.00212833 -0.01165792 -0.00079278
   0.33706185  0.00080304 -0.00083626
  -0.00712353  0.64706127  0.00006083
   0.99717809  0.34797024  0.00012889
   0.68914217  0.33752271  0.00020608
   0.32303760  0.34370126 -0.00102664
   0.30026663  0.64347055  0.00016293
   0.68497678  0.03550961  0.00123327
   0.10529557  0.21637812  0.95032207
   0.21980295  0.10691146  0.04872157
   0.10719082  0.55406743  0.94304923
   0.21750111  0.44119425  0.05504808
   0.11315334  0.89030773  0.95149006
   0.22141244  0.77980135  0.05127508
   0.44388768  0.22257477  0.95211632
   0.55155992  0.11308031  0.05247715
   0.44970638  0.56200924  0.94993694
   0.55720183  0.44537332  0.05020094
   0.44416380  0.88937987  0.95248192
   0.55622788  0.77802143  0.04214767
   0.78154840  0.22684333  0.94384477
   0.89541506  0.11345538  0.05125319
   0.77606797  0.55589630  0.94608970
   0.88897653  0.44462313  0.05683800
   0.77719553  0.88608421  0.95272947
   0.88784083  0.77689046  0.05023494
unknown system                          
           1
     8.336046    4.793897    0.000000
    -8.360238    4.835772    0.000000
     0.000000    0.000000   30.000000
   V    Mo   W    S 
   3   3   3  18
Direct configuration=    16
   0.68219268  0.65056697  0.00061453
  -0.00222654 -0.01284609 -0.00072087
   0.33726726 -0.00020781 -0.00085390
  -0.00752432  0.64725236  0.00003978
   0.99768675  0.34816647  0.00011480
   0.69005410  0.33789024  0.00017665
   0.32142194  0.34450853 -0.00105794
   0.29995863  0.64359850  0.00016502
   0.68523458  0.03588870  0.00126995
   0.10485265  0.21598787  0.95027676
   0.21987689  0.10707331  0.04857338
   0.10704867  0.55414195  0.94305309
   0.21747580  0.44161377  0.05519629
   0.11338536  0.89029315  0.95145890
   0.22137152  0.77987589  0.05130892
   0.44368936  0.22309903  0.95251794
   0.55175581  0.11333780  0.05245178
   0.44961640  0.56208123  0.95003458
   0.55696348  0.44508746  0.04995189
   0.44438420  0.88951344  0.95248945
   0.55639614  0.77798390  0.04186171
   0.78171764  0.22690480  0.94384311
   0.89554409  0.11349009  0.05118007
   0.77601114  0.55571583  0.94606096
   0.88924570  0.44474801  0.05681781
   0.77710487  0.88588625  0.95285413
   0.88770966  0.77656282  0.05032112
unknown system                          
           1
     8.333646    4.793751    0.000000
    -8.357888    4.835725    0.000000
     0.000000    0.000000   30.000000
   V    Mo   W    S 
   3   3   3  18
Direct configuration=    17
   0.68248953  0.65048365  0.00061570
  -0.00215433 -0.01361848 -0.00065816
   0.33724389 -0.00126029 -0.00086128
  -0.00754276  0.64755802  0.00003031
   0.99796173  0.34824417  0.00009437
   0.69072761  0.33802112  0.00014943
   0.32014005  0.34500498 -0.00107471
   0.29981556  0.64381906  0.00016959
   0.68540322  0.03608357  0.00129058
   0.10440594  0.21563319  0.95022287
   0.21987859  0.10719114  0.04846658
   0.10690057  0.55419943  0.94302513
   0.21740170  0.44196058  0.05535205
   0.11355516  0.89030622  0.95141207
   0.22134350  0.78001262  0.05137521
   0.44353298  0.22349647  0.95284248
   0.55198245  0.11359319  0.05243256
   0.44948717  0.56219780  0.95005215
   0.55667472  0.44472650  0.04979784
   0.44460606  0.88963041  0.95245489
   0.55650260  0.77800169  0.04169720
   0.78187999  0.22696860  0.94381285
   0.89572809  0.11350405  0.05113848
   0.77600580  0.55550358  0.94597915
   0.88948162  0.44486067  0.05683256
   0.77709088  0.88573186  0.95292356
   0.88767214  0.77636066  0.05042643
unknown system                          
           1
     8.322095    4.788531    0.000000
    -8.346923    4.831535    0.000000
     0.000000    0.000000   30.000000
   V    Mo   W    S 
   3   3   3  18
Direct configuration=    18
   0.68233656  0.65056152  0.00062492
  -0.00220478 -0.01331968 -0.00070361
   0.33746134 -0.00045770 -0.00086926
  -0.00752790  0.64739188  0.00003890
   0.99800288  0.34825581  0.00009985
   0.69035420  0.33784161  0.00016394
   0.32054409  0.34475069 -0.00106504
   0.29985468  0.64369775  0.00017494
   0.68526031  0.03598978  0.00129199
   0.10464024  0.21578207  0.95025504
   0.21987511  0.10712159  0.04851070
   0.10692576  0.55416270  0.94303103
   0.21745761  0.44175492  0.05529483
   0.11348445  0.89029464  0.95146367
   0.22129991  0.77986870  0.05130425
   0.44360628  0.22333795  0.95267058
   0.55185469  0.11347834  0.05244782
   0.44957909  0.56213136  0.95005042
   0.55680979  0.44486337  0.04988039
   0.44447364  0.88958310  0.95250813
   0.55644572  0.77798992  0.04173574
   0.78181280  0.22698932  0.94383309
   0.89564779  0.11350235  0.05115872
   0.77601993  0.55556526  0.94597988
   0.88937191  0.44478818  0.05683204
   0.77709012  0.88582972  0.95290172
   0.88773822  0.77645932  0.05038520
unknown system                          
           1
     8.337363    4.793396    0.000000
    -8.361536    4.835228    0.000000
     0.000000    0.000000   30.000000
   V    Mo   W    S 
   3   3   3  18
Direct configuration=    19
   0.68220785  0.65056364  0.00060992
  -0.00232637 -0.01337276 -0.00072033
   0.33876424  0.00166090 -0.00085465
  -0.00782627  0.64674565  0.00000858
   0.99845661  0.34856232  0.00012244
   0.69011825  0.33731431  0.00017340
   0.32018207  0.34460594 -0.00099517
   0.29956206  0.64322183  0.00011349
   0.68526091  0.03623065  0.00126417
   0.10464117  0.21568400  0.95017259
   0.21992194  0.10714071  0.04854392
   0.10692620  0.55419392  0.94302403
   0.21751590  0.44163878  0.05538358
   0.11357165  0.89015372  0.95152854
   0.22107955  0.77967115  0.05119879
   0.44361063  0.22355491  0.95249859
   0.55164437  0.11343422  0.05257847
   0.44959324  0.56199410  0.95007004
   0.55668743  0.44472133  0.04989963
   0.44441327  0.88950044  0.95259557
   0.55634783  0.77796928  0.04167513
   0.78187167  0.22701966  0.94385239
   0.89558813  0.11343526  0.05117149
   0.77602764  0.55545920  0.94595566
   0.88936604  0.44464048  0.05680763
   0.77703519  0.88596059  0.95289488
   0.88797327  0.77651024  0.05042712
unknown system                          
           1
     8.345228    4.795593    0.000000
    -8.368910    4.836551    0.000000
     0.000000    0.000000   30.000000
   V    Mo   W    S 
   3   3   3  18
Direct configuration=    20
   0.68280902  0.65032716  0.00061253
  -0.00211685 -0.01448971 -0.00059019
   0.33749914 -0.00203640 -0.00086115
  -0.00771827  0.64771325  0.00001255
   0.99830031  0.34839617  0.00008007
   0.69141291  0.33811917  0.00012472
   0.31879700  0.34555251 -0.00108519
   0.29960465  0.64396282  0.00016003
   0.68559898  0.03635383  0.00130673
   0.10395169  0.21526461  0.95015347
   0.21993670  0.10735092  0.04834821
   0.10677856  0.55427579  0.94301012
   0.21734463  0.44233930  0.05551624
   0.11375786  0.89028489  0.95137396
   0.22129036  0.78014366  0.05142442
   0.44333824  0.22394955  0.95317018
   0.55214899  0.11382438  0.05243368
   0.44937090  0.56229216  0.95008949
   0.55636254  0.44437042  0.04962238
   0.44481949  0.88972852  0.95241988
   0.55660094  0.77799744  0.04151809
   0.78205127  0.22701186  0.94379593
   0.89586594  0.11349558  0.05108533
   0.77597880  0.55529304  0.94591745
   0.88972577  0.44495164  0.05682763
   0.77706563  0.88559887  0.95300163
   0.88763927  0.77614304  0.05053173
unknown system                          
           1
     8.345913    4.795508    0.000000
    -8.369436    4.836185    0.000000
     0.000000    0.000000   30.000000
   V    Mo   W    S 
   3   3   3  18
Direct configuration=    21
   0.68323742  0.65014067  0.00061158
  -0.00187530 -0.01557175 -0.00048576
   0.33708312 -0.00436793 -0.00085508
  -0.00762997  0.64840419  0.00000277
   0.99853773  0.34846056  0.00004875
   0.69235538  0.33848620  0.00008488
   0.31724622  0.34632988 -0.00113745
   0.29951980  0.64445368  0.00018677
   0.68580233  0.03649153  0.00133587
   0.10332830  0.21482810  0.95009692
   0.22003337  0.10758647  0.04816741
   0.10662097  0.55437131  0.94298813
   0.21721789  0.44295589  0.05568669
   0.11400893  0.89033973  0.95127818
   0.22135731  0.78048932  0.05155907
   0.44299652  0.22439385  0.95372099
   0.55244582  0.11411961  0.05237245
   0.44916885  0.56249026  0.95011492
   0.55593953  0.44393808  0.04938588
   0.44514105  0.88990479  0.95229238
   0.55674604  0.77799689  0.04134634
   0.78224739  0.22702541  0.94373966
   0.89608870  0.11349673  0.05101227
   0.77594704  0.55506449  0.94584757
   0.89006071  0.44517464  0.05684398
   0.77710199  0.88537536  0.95309632
   0.88748732  0.77583647  0.05065839
unknown system                          
           1
     8.341761    4.791802    0.000000
    -8.365745    4.833269    0.000000
     0.000000    0.000000   30.000000
   V    Mo   W    S 
   3   3   3  18
Direct configuration=    22
   0.68333607  0.65008201  0.00060991
  -0.00179902 -0.01582128 -0.00045656
   0.33684868 -0.00512532 -0.00084940
  -0.00756769  0.64860624 -0.00000091
   0.99855083  0.34848731  0.00004102
   0.69263106  0.33862105  0.00007348
   0.31692045  0.34653235 -0.00115486
   0.29949540  0.64457987  0.00018666
   0.68586905  0.03654519  0.00134093
   0.10317687  0.21473557  0.95009107
   0.22007147  0.10765193  0.04811324
   0.10659679  0.55440294  0.94299549
   0.21718743  0.44311497  0.05571617
   0.11406848  0.89035965  0.95124502
   0.22139332  0.78059500  0.05160521
   0.44289994  0.22446326  0.95387740
   0.55252115  0.11418554  0.05234130
   0.44911477  0.56255077  0.95012514
   0.55583829  0.44384741  0.04932665
   0.44522291  0.88994529  0.95225137
   0.55678498  0.77799505  0.04130876
   0.78227458  0.22700964  0.94373621
   0.89613339  0.11349826  0.05098679
   0.77594539  0.55502222  0.94583934
   0.89014246  0.44524477  0.05683973
   0.77712015  0.88532159  0.95312390
   0.88743724  0.77576319  0.05068683
unknown system                          
           1
     8.350655    4.797029    0.000000
    -8.372969    4.835591    0.000000
     0.000000    0.000000   30.000000
   V    Mo   W    S 
   3   3   3  18
Direct configuration=    23
   0.68348903  0.64992335  0.00060215
  -0.00172223 -0.01621707 -0.00041040
   0.33680926 -0.00597737 -0.00083978
  -0.00761002  0.64870789 -0.00001207
   0.99859124  0.34855263  0.00002846
   0.69308768  0.33877413  0.00005512
   0.31636055  0.34690005 -0.00117507
   0.29937754  0.64470444  0.00017977
   0.68597701  0.03671425  0.00134340
   0.10295187  0.21461190  0.95007366
   0.22013542  0.10778813  0.04803542
   0.10656203  0.55445785  0.94302102
   0.21713564  0.44337142  0.05577366
   0.11418971  0.89033764  0.95120008
   0.22142456  0.78074313  0.05165629
   0.44275340  0.22464308  0.95410911
   0.55267501  0.11429054  0.05230355
   0.44900591  0.56261287  0.95015069
   0.55567047  0.44370065  0.04921901
   0.44538739  0.89003313  0.95219940
   0.55685347  0.77800732  0.04123451
   0.78232176  0.22696822  0.94374647
   0.89616271  0.11350150  0.05094144
   0.77591684  0.55494023  0.94583778
   0.89027431  0.44532573  0.05682071
   0.77709603  0.88522436  0.95316887
   0.88733786  0.77557446  0.05073667
unknown system                          
           1
     8.354192    4.797684    0.000000
    -8.375855    4.835102    0.000000
     0.000000    0.000000   30.000000
   V    Mo   W    S 
   3   3   3  18
Direct configuration=    24
   0.68371257  0.64991616  0.00060723
  -0.00150120 -0.01674433 -0.00035078
   0.33580961 -0.00801139 -0.00082939
  -0.00727566  0.64946301 -0.00001291
   0.99861306  0.34860084  0.00001270
   0.69361913  0.33914206  0.00003356
   0.31575488  0.34722692 -0.00122488
   0.29943734  0.64503487  0.00018366
   0.68613162  0.03670669  0.00136541
   0.10262905  0.21438047  0.95008044
   0.22019919  0.10786183  0.04790895
   0.10651958  0.55452036  0.94302063
   0.21708723  0.44368254  0.05581218
   0.11426247  0.89047114  0.95112840
   0.22153462  0.78097837  0.05177591
   0.44254519  0.22467814  0.95444806
   0.55276353  0.11441362  0.05221975
   0.44892076  0.56277036  0.95016406
   0.55547284  0.44352362  0.04911552
   0.44548064  0.89006974  0.95210580