   27   27  100    1
  0.9710400E+02  0.1002848E-08  0.1002848E-08  0.3000000E-08  0.5000000E-15
  1.000000000000000E-004
  CAR 
 unknown system                          
    159     34    120
 
  0.0000000E+00  0.0000000E+00  0.0000000E+00  0.1562500E-01
    1      -17.825784   1.000000
    2      -16.779171   1.000000
    3      -16.691047   1.000000
    4      -16.595744   1.000000
    5      -16.554301   1.000000
    6      -16.466620   1.000000
    7      -16.453551   1.000000
    8      -16.236025   1.000000
    9      -16.133471   1.000000
   10      -16.111643   1.000000
   11      -16.085446   1.000000
   12      -15.961202   1.000000
   13      -15.874501   1.000000
   14      -15.771098   1.000000
   15      -15.591249   1.000000
   16      -15.402278   1.000000
   17      -15.373694   1.000000
   18      -15.192876   1.000000
   19       -9.352523   1.000000
   20       -9.022935   1.000000
   21       -9.008665   1.000000
   22       -8.929737   1.000000
   23       -8.762814   1.000000
   24       -8.655793   1.000000
   25       -8.615872   1.000000
   26       -8.605347   1.000000
   27       -8.549737   1.000000
   28       -8.510312   1.000000
   29       -8.440147   1.000000
   30       -8.428448   1.000000
   31       -8.317216   1.000000
   32       -8.113304   1.000000
   33       -8.090960   1.000000
   34       -8.010953   1.000000
   35       -7.797646   1.000000
   36       -7.772326   1.000000
   37       -7.665998   1.000000
   38       -7.562479   1.000000
   39       -7.454502   1.000000
   40       -7.410105   1.000000
   41       -7.348342   1.000000
   42       -7.237235   1.000000
   43       -7.106537   1.000000
   44       -6.877608   1.000000
   45       -6.809856   1.000000
   46       -6.806491   1.000000
   47       -6.771962   1.000000
   48       -6.650397   1.000000
   49       -6.549663   1.000000
   50       -6.470127   1.000000
   51       -6.425466   1.000000
   52       -6.330665   1.000000
   53       -6.282430   1.000000
   54       -6.259903   1.000000
   55       -6.233228   1.000000
   56       -6.151928   1.000000
   57       -6.023238   1.000000
   58       -5.969477   1.000000
   59       -5.856015   1.000000
   60       -5.534447   1.000000
   61       -5.392169   1.000000
   62       -5.309841   1.000000
   63       -5.268514   1.000000
   64       -5.218084   1.000000
   65       -5.076367   1.000000
   66       -5.002306   1.000000
   67       -4.958809   1.000000
   68       -4.847495   1.000000
   69       -4.819486   1.000000
   70       -4.685602   1.000000
   71       -4.668961   1.000000
   72       -4.598512   1.000000
   73       -4.538543   1.000000
   74       -4.413142   1.000000
   75       -4.081254   1.000000
   76       -3.977921   0.999995
   77       -3.864041   0.999843
   78       -3.585270   0.948602
   79       -3.494024   0.837991
   80       -3.439711   0.726475
   81       -3.176620   0.104168
   82       -2.977246   0.003816
   83       -2.832711   0.000112
   84       -2.714728   0.000003
   85       -2.540964   0.000000
   86       -2.429564   0.000000
   87       -2.386635   0.000000
   88       -2.320560   0.000000
   89       -2.243775   0.000000
   90       -2.173307   0.000000
   91       -1.774940   0.000000
   92       -1.611052   0.000000
   93       -1.429003   0.000000
   94       -1.234939   0.000000
   95       -1.082598   0.000000
   96       -0.920210   0.000000
   97       -0.910580   0.000000
   98       -0.816195   0.000000
   99       -0.784077   0.000000
  100       -0.659636   0.000000
  101       -0.597558   0.000000
  102       -0.524418   0.000000
  103       -0.498619   0.000000
  104       -0.303272   0.000000
  105       -0.224467   0.000000
  106       -0.187216   0.000000
  107       -0.138883   0.000000
  108       -0.048345   0.000000
  109       -0.003791   0.000000
  110        0.240425   0.000000
  111        0.278089   0.000000
  112        0.713856   0.000000
  113        0.797180   0.000000
  114        0.852125   0.000000
  115        0.892423   0.000000
  116        0.959530   0.000000
  117        1.293948   0.000000
  118        1.648792   0.000000
  119        1.838081   0.000000
  120        2.155244   0.000000
 
  0.1250000E+00  0.2775558E-16  0.0000000E+00  0.3125000E-01
    1      -17.801758   1.000000
    2      -16.809770   1.000000
    3      -16.751724   1.000000
    4      -16.656202   1.000000
    5      -16.546572   1.000000
    6      -16.471487   1.000000
    7      -16.398165   1.000000
    8      -16.259921   1.000000
    9      -16.125511   1.000000
   10      -16.081870   1.000000
   11      -16.016413   1.000000
   12      -15.955565   1.000000
   13      -15.858804   1.000000
   14      -15.762925   1.000000
   15      -15.599194   1.000000
   16      -15.409671   1.000000
   17      -15.386529   1.000000
   18      -15.196774   1.000000
   19       -9.347574   1.000000
   20       -9.178707   1.000000
   21       -9.069212   1.000000
   22       -9.020191   1.000000
   23       -8.789189   1.000000
   24       -8.713387   1.000000
   25       -8.650394   1.000000
   26       -8.586952   1.000000
   27       -8.539966   1.000000
   28       -8.505793   1.000000
   29       -8.393942   1.000000
   30       -8.280221   1.000000
   31       -8.230987   1.000000
   32       -8.070419   1.000000
   33       -8.010591   1.000000
   34       -7.922574   1.000000
   35       -7.804467   1.000000
   36       -7.746680   1.000000
   37       -7.609895   1.000000
   38       -7.575538   1.000000
   39       -7.486637   1.000000
   40       -7.443676   1.000000
   41       -7.309577   1.000000
   42       -7.211282   1.000000
   43       -7.151573   1.000000
   44       -6.938262   1.000000
   45       -6.861300   1.000000
   46       -6.787052   1.000000
   47       -6.722821   1.000000
   48       -6.678216   1.000000
   49       -6.510737   1.000000
   50       -6.441719   1.000000
   51       -6.437441   1.000000
   52       -6.383965   1.000000
   53       -6.298657   1.000000
   54       -6.262190   1.000000
   55       -6.227464   1.000000
   56       -6.110880   1.000000
   57       -6.031750   1.000000
   58       -5.950150   1.000000
   59       -5.809476   1.000000
   60       -5.504042   1.000000
   61       -5.429538   1.000000
   62       -5.410308   1.000000
   63       -5.317729   1.000000
   64       -5.240512   1.000000
   65       -5.091638   1.000000
   66       -5.028819   1.000000
   67       -4.954926   1.000000
   68       -4.886870   1.000000
   69       -4.801435   1.000000
   70       -4.722552   1.000000
   71       -4.674770   1.000000
   72       -4.577102   1.000000
   73       -4.467568   1.000000
   74       -4.303450   1.000000
   75       -4.077809   1.000000
   76       -3.943893   0.999985
   77       -3.872056   0.999874
   78       -3.690576   0.991251
   79       -3.608925   0.963968
   80       -3.429206   0.701217
   81       -3.072407   0.023019
   82       -2.965305   0.002958
   83       -2.799405   0.000043
   84       -2.710630   0.000003
   85       -2.546081   0.000000
   86       -2.404349   0.000000
   87       -2.369520   0.000000
   88       -2.313068   0.000000
   89       -2.238684   0.000000
   90       -2.145329   0.000000
   91       -1.780013   0.000000
   92       -1.606840   0.000000
   93       -1.419797   0.000000
   94       -1.238583   0.000000
   95       -1.067467   0.000000
   96       -0.958338   0.000000
   97       -0.898967   0.000000
   98       -0.850334   0.000000
   99       -0.793780   0.000000
  100       -0.744333   0.000000
  101       -0.648319   0.000000
  102       -0.587878   0.000000
  103       -0.544412   0.000000
  104       -0.380859   0.000000
  105       -0.343667   0.000000
  106       -0.164248   0.000000
  107       -0.114018   0.000000
  108       -0.018459   0.000000
  109        0.082328   0.000000
  110        0.204013   0.000000
  111        0.306648   0.000000
  112        0.681929   0.000000
  113        0.743362   0.000000
  114        0.853132   0.000000
  115        0.909813   0.000000
  116        1.033840   0.000000
  117        1.329321   0.000000
  118        1.691931   0.000000
  119        1.878352   0.000000
  120        2.190291   0.000000
 
  0.2500000E+00  0.5551115E-16  0.0000000E+00  0.3125000E-01
    1      -17.731833   1.000000
    2      -16.990978   1.000000
    3      -16.758038   1.000000
    4      -16.711223   1.000000
    5      -16.597744   1.000000
    6      -16.455949   1.000000
    7      -16.362566   1.000000
    8      -16.208707   1.000000
    9      -16.127076   1.000000
   10      -16.031287   1.000000
   11      -15.977402   1.000000
   12      -15.900953   1.000000
   13      -15.796759   1.000000
   14      -15.745718   1.000000
   15      -15.613293   1.000000
   16      -15.436554   1.000000
   17      -15.407598   1.000000
   18      -15.208698   1.000000
   19       -9.518598   1.000000
   20       -9.255784   1.000000
   21       -9.200206   1.000000
   22       -9.125470   1.000000
   23       -8.886336   1.000000
   24       -8.778248   1.000000
   25       -8.605625   1.000000
   26       -8.576321   1.000000
   27       -8.515066   1.000000
   28       -8.411037   1.000000
   29       -8.313838   1.000000
   30       -8.227855   1.000000
   31       -8.105668   1.000000
   32       -8.059421   1.000000
   33       -7.914358   1.000000
   34       -7.864418   1.000000
   35       -7.710932   1.000000
   36       -7.660147   1.000000
   37       -7.593211   1.000000
   38       -7.555918   1.000000
   39       -7.445776   1.000000
   40       -7.368479   1.000000
   41       -7.319829   1.000000
   42       -7.219256   1.000000
   43       -7.099949   1.000000
   44       -7.006418   1.000000
   45       -6.881500   1.000000
   46       -6.789579   1.000000
   47       -6.709697   1.000000
   48       -6.666464   1.000000
   49       -6.550362   1.000000
   50       -6.472248   1.000000
   51       -6.409628   1.000000
   52       -6.368514   1.000000
   53       -6.327420   1.000000
   54       -6.235732   1.000000
   55       -6.170370   1.000000
   56       -6.099076   1.000000
   57       -5.967259   1.000000
   58       -5.927395   1.000000
   59       -5.756455   1.000000
   60       -5.660612   1.000000
   61       -5.620351   1.000000
   62       -5.468379   1.000000
   63       -5.420364   1.000000
   64       -5.293838   1.000000
   65       -5.189603   1.000000
   66       -5.013159   1.000000
   67       -4.940942   1.000000
   68       -4.898049   1.000000
   69       -4.776587   1.000000
   70       -4.726544   1.000000
   71       -4.620947   1.000000
   72       -4.512343   1.000000
   73       -4.334416   1.000000
   74       -4.267270   1.000000
   75       -4.129843   1.000000
   76       -3.980642   0.999995
   77       -3.877887   0.999892
   78       -3.800154   0.999186
   79       -3.660983   0.984876
   80       -3.412027   0.657787
   81       -2.975390   0.003669
   82       -2.928329   0.001290
   83       -2.755206   0.000011
   84       -2.667707   0.000001
   85       -2.541371   0.000000
   86       -2.389202   0.000000
   87       -2.340939   0.000000
   88       -2.273565   0.000000
   89       -2.204474   0.000000
   90       -2.060584   0.000000
   91       -1.785045   0.000000
   92       -1.598069   0.000000
   93       -1.403960   0.000000
   94       -1.247854   0.000000
   95       -1.073765   0.000000
   96       -1.043579   0.000000
   97       -0.988811   0.000000
   98       -0.928981   0.000000
   99       -0.868638   0.000000
  100       -0.810655   0.000000
  101       -0.741307   0.000000
  102       -0.683302   0.000000
  103       -0.630792   0.000000
  104       -0.466752   0.000000
  105       -0.441581   0.000000
  106       -0.228514   0.000000
  107       -0.100478   0.000000
  108       -0.039519   0.000000
  109        0.033392   0.000000
  110        0.249186   0.000000
  111        0.358415   0.000000
  112        0.622763   0.000000
  113        0.689676   0.000000
  114        0.863144   0.000000
  115        0.967168   0.000000
  116        1.151298   0.000000
  117        1.419723   0.000000
  118        1.812741   0.000000
  119        1.993630   0.000000
  120        2.294169   0.000000
 
  0.3750000E+00  0.0000000E+00  0.0000000E+00  0.3125000E-01
    1      -17.626549   1.000000
    2      -17.186998   1.000000
    3      -16.767450   1.000000
    4      -16.730638   1.000000
    5      -16.640304   1.000000
    6      -16.462822   1.000000
    7      -16.343844   1.000000
    8      -16.157276   1.000000
    9      -16.100496   1.000000
   10      -16.007420   1.000000
   11      -15.918507   1.000000
   12      -15.894656   1.000000
   13      -15.774423   1.000000
   14      -15.690210   1.000000
   15      -15.629791   1.000000
   16      -15.463520   1.000000
   17      -15.414734   1.000000
   18      -15.225580   1.000000
   19       -9.724596   1.000000
   20       -9.340439   1.000000
   21       -9.207064   1.000000
   22       -9.175087   1.000000
   23       -8.946802   1.000000
   24       -8.817656   1.000000
   25       -8.576177   1.000000
   26       -8.523516   1.000000
   27       -8.439398   1.000000
   28       -8.320687   1.000000
   29       -8.297788   1.000000
   30       -8.233655   1.000000
   31       -8.121054   1.000000
   32       -8.037034   1.000000
   33       -7.942529   1.000000
   34       -7.821806   1.000000
   35       -7.771583   1.000000
   36       -7.660939   1.000000
   37       -7.587000   1.000000
   38       -7.469337   1.000000
   39       -7.364431   1.000000
   40       -7.268538   1.000000
   41       -7.221098   1.000000
   42       -7.138543   1.000000
   43       -7.059671   1.000000
   44       -6.925920   1.000000
   45       -6.861081   1.000000
   46       -6.832389   1.000000
   47       -6.695579   1.000000
   48       -6.654020   1.000000
   49       -6.529200   1.000000
   50       -6.482839   1.000000
   51       -6.410430   1.000000
   52       -6.375327   1.000000
   53       -6.305794   1.000000
   54       -6.177882   1.000000
   55       -6.110835   1.000000
   56       -6.058497   1.000000
   57       -5.979936   1.000000
   58       -5.934942   1.000000
   59       -5.861997   1.000000
   60       -5.792836   1.000000
   61       -5.745311   1.000000
   62       -5.585937   1.000000
   63       -5.536848   1.000000
   64       -5.309921   1.000000
   65       -5.206713   1.000000
   66       -5.011534   1.000000
   67       -4.919649   1.000000
   68       -4.854840   1.000000
   69       -4.784559   1.000000
   70       -4.743736   1.000000
   71       -4.609588   1.000000
   72       -4.549386   1.000000
   73       -4.420427   1.000000
   74       -4.193509   1.000000
   75       -4.097867   1.000000
   76       -4.036716   0.999999
   77       -3.884202   0.999910
   78       -3.782198   0.998752
   79       -3.575056   0.940528
   80       -3.435662   0.716867
   81       -2.936405   0.001555
   82       -2.890537   0.000517
   83       -2.732410   0.000005
   84       -2.623134   0.000000
   85       -2.509189   0.000000
   86       -2.402930   0.000000
   87       -2.306297   0.000000
   88       -2.219439   0.000000
   89       -2.161346   0.000000
   90       -1.948095   0.000000
   91       -1.781738   0.000000
   92       -1.581839   0.000000
   93       -1.410252   0.000000
   94       -1.297023   0.000000
   95       -1.201732   0.000000
   96       -1.140459   0.000000
   97       -1.066125   0.000000
   98       -0.991978   0.000000
   99       -0.920972   0.000000
  100       -0.858424   0.000000
  101       -0.790119   0.000000
  102       -0.724585   0.000000
  103       -0.683853   0.000000
  104       -0.544451   0.000000
  105       -0.435894   0.000000
  106       -0.345993   0.000000
  107       -0.139396   0.000000
  108       -0.093313   0.000000
  109       -0.051076   0.000000
  110        0.281177   0.000000
  111        0.377544   0.000000
  112        0.582113   0.000000
  113        0.682804   0.000000
  114        0.896731   0.000000
  115        1.026621   0.000000
  116        1.241933   0.000000
  117        1.509704   0.000000
  118        1.993712   0.000000
  119        2.171984   0.000000
  120        2.460047   0.000000
 
  0.5000000E+00  0.1110223E-15  0.0000000E+00  0.1562500E-01
    1      -17.548443   1.000000
    2      -17.297707   1.000000
    3      -16.778090   1.000000
    4      -16.727641   1.000000
    5      -16.657081   1.000000
    6      -16.467955   1.000000
    7      -16.336474   1.000000
    8      -16.160202   1.000000
    9      -16.054097   1.000000
   10      -15.999218   1.000000
   11      -15.918211   1.000000
   12      -15.881665   1.000000
   13      -15.744391   1.000000
   14      -15.713903   1.000000
   15      -15.619792   1.000000
   16      -15.476568   1.000000
   17      -15.407207   1.000000
   18      -15.235146   1.000000
   19       -9.800330   1.000000
   20       -9.380114   1.000000
   21       -9.232006   1.000000
   22       -9.165889   1.000000
   23       -8.944257   1.000000
   24       -8.830367   1.000000
   25       -8.568559   1.000000
   26       -8.511185   1.000000
   27       -8.410352   1.000000
   28       -8.333152   1.000000
   29       -8.269774   1.000000
   30       -8.160612   1.000000
   31       -8.132013   1.000000
   32       -8.038362   1.000000
   33       -7.960028   1.000000
   34       -7.912902   1.000000
   35       -7.760486   1.000000
   36       -7.729213   1.000000
   37       -7.569556   1.000000
   38       -7.418004   1.000000
   39       -7.334643   1.000000
   40       -7.270662   1.000000
   41       -7.118377   1.000000
   42       -7.068571   1.000000
   43       -7.035979   1.000000
   44       -6.902210   1.000000
   45       -6.865256   1.000000
   46       -6.731744   1.000000
   47       -6.667293   1.000000
   48       -6.622399   1.000000
   49       -6.572535   1.000000
   50       -6.516663   1.000000
   51       -6.420858   1.000000
   52       -6.351717   1.000000
   53       -6.337682   1.000000
   54       -6.215924   1.000000
   55       -6.159476   1.000000
   56       -6.049080   1.000000
   57       -5.978411   1.000000
   58       -5.900875   1.000000
   59       -5.859276   1.000000
   60       -5.824559   1.000000
   61       -5.760177   1.000000
   62       -5.564093   1.000000
   63       -5.552200   1.000000
   64       -5.316889   1.000000
   65       -5.301207   1.000000
   66       -5.106718   1.000000
   67       -4.905778   1.000000
   68       -4.891943   1.000000
   69       -4.816144   1.000000
   70       -4.717113   1.000000
   71       -4.593474   1.000000
   72       -4.545887   1.000000
   73       -4.403726   1.000000
   74       -4.215008   1.000000
   75       -4.111111   1.000000
   76       -4.014417   0.999998
   77       -3.840678   0.999706
   78       -3.774474   0.998508
   79       -3.531332   0.894358
   80       -3.460485   0.773095
   81       -2.920437   0.001072
   82       -2.882083   0.000418
   83       -2.724903   0.000004
   84       -2.610315   0.000000
   85       -2.494948   0.000000
   86       -2.398550   0.000000
   87       -2.291548   0.000000
   88       -2.196295   0.000000
   89       -2.141170   0.000000
   90       -1.893444   0.000000
   91       -1.778398   0.000000
   92       -1.565748   0.000000
   93       -1.442705   0.000000
   94       -1.329529   0.000000
   95       -1.230392   0.000000
   96       -1.211710   0.000000
   97       -1.081344   0.000000
   98       -1.038941   0.000000
   99       -0.949919   0.000000
  100       -0.862220   0.000000
  101       -0.807495   0.000000
  102       -0.726923   0.000000
  103       -0.666860   0.000000
  104       -0.598833   0.000000
  105       -0.424304   0.000000
  106       -0.401611   0.000000
  107       -0.172830   0.000000
  108       -0.116288   0.000000
  109       -0.080065   0.000000
  110        0.277549   0.000000
  111        0.388279   0.000000
  112        0.570275   0.000000
  113        0.685598   0.000000
  114        0.912211   0.000000
  115        1.049336   0.000000
  116        1.277401   0.000000
  117        1.545722   0.000000
  118        2.192595   0.000000
  119        2.259796   0.000000
  120        2.399097   0.000000
 
  0.0000000E+00  0.1250000E+00  0.0000000E+00  0.3125000E-01
    1      -17.801822   1.000000
    2      -16.811213   1.000000
    3      -16.745229   1.000000
    4      -16.661918   1.000000
    5      -16.549736   1.000000
    6      -16.471959   1.000000
    7      -16.392664   1.000000
    8      -16.260042   1.000000
    9      -16.129842   1.000000
   10      -16.076352   1.000000
   11      -16.014474   1.000000
   12      -15.956142   1.000000
   13      -15.861704   1.000000
   14      -15.763498   1.000000
   15      -15.600204   1.000000
   16      -15.415468   1.000000
   17      -15.380642   1.000000
   18      -15.195970   1.000000
   19       -9.347900   1.000000
   20       -9.179988   1.000000
   21       -9.065161   1.000000
   22       -9.021723   1.000000
   23       -8.793886   1.000000
   24       -8.712369   1.000000
   25       -8.650531   1.000000
   26       -8.588973   1.000000
   27       -8.541909   1.000000
   28       -8.505127   1.000000
   29       -8.387963   1.000000
   30       -8.267288   1.000000
   31       -8.231646   1.000000
   32       -8.079436   1.000000
   33       -8.011714   1.000000
   34       -7.928576   1.000000
   35       -7.803477   1.000000
   36       -7.738165   1.000000
   37       -7.604523   1.000000
   38       -7.579156   1.000000
   39       -7.494118   1.000000
   40       -7.451525   1.000000
   41       -7.308476   1.000000
   42       -7.201236   1.000000
   43       -7.153689   1.000000
   44       -6.951151   1.000000
   45       -6.852153   1.000000
   46       -6.780543   1.000000
   47       -6.727800   1.000000
   48       -6.672894   1.000000
   49       -6.508128   1.000000
   50       -6.446305   1.000000
   51       -6.428483   1.000000
   52       -6.380074   1.000000
   53       -6.302687   1.000000
   54       -6.257944   1.000000
   55       -6.239417   1.000000
   56       -6.111010   1.000000
   57       -6.029175   1.000000
   58       -5.957208   1.000000
   59       -5.808321   1.000000
   60       -5.513713   1.000000
   61       -5.425259   1.000000
   62       -5.405672   1.000000
   63       -5.326475   1.000000
   64       -5.248615   1.000000
   65       -5.088910   1.000000
   66       -5.018675   1.000000
   67       -4.937840   1.000000
   68       -4.886784   1.000000
   69       -4.817795   1.000000
   70       -4.716901   1.000000
   71       -4.666800   1.000000
   72       -4.578104   1.000000
   73       -4.476933   1.000000
   74       -4.305280   1.000000
   75       -4.074605   1.000000
   76       -3.944443   0.999985
   77       -3.881901   0.999904
   78       -3.692286   0.991534
   79       -3.602863   0.960442
   80       -3.416576   0.669524
   81       -3.088986   0.030203
   82       -2.962513   0.002785
   83       -2.799325   0.000043
   84       -2.698085   0.000002
   85       -2.544889   0.000000
   86       -2.414640   0.000000
   87       -2.359929   0.000000
   88       -2.316938   0.000000
   89       -2.234991   0.000000
   90       -2.147516   0.000000
   91       -1.773465   0.000000
   92       -1.613898   0.000000
   93       -1.423497   0.000000
   94       -1.236264   0.000000
   95       -1.066482   0.000000
   96       -0.962408   0.000000
   97       -0.902232   0.000000
   98       -0.843275   0.000000
   99       -0.794414   0.000000
  100       -0.746464   0.000000
  101       -0.653381   0.000000
  102       -0.584045   0.000000
  103       -0.543070   0.000000
  104       -0.392070   0.000000
  105       -0.340455   0.000000
  106       -0.145861   0.000000
  107       -0.128565   0.000000
  108       -0.006065   0.000000
  109        0.070518   0.000000
  110        0.206802   0.000000
  111        0.311316   0.000000
  112        0.674036   0.000000
  113        0.753528   0.000000
  114        0.859545   0.000000
  115        0.900251   0.000000
  116        1.032755   0.000000
  117        1.326954   0.000000
  118        1.691739   0.000000
  119        1.878415   0.000000
  120        2.190240   0.000000
 
  0.1250000E+00  0.1250000E+00  0.0000000E+00  0.3125000E-01
    1      -17.756053   1.000000
    2      -16.871335   1.000000
    3      -16.840490   1.000000
    4      -16.741583   1.000000
    5      -16.492925   1.000000
    6      -16.453014   1.000000
    7      -16.383585   1.000000
    8      -16.268362   1.000000
    9      -16.087606   1.000000
   10      -16.046083   1.000000
   11      -15.970964   1.000000
   12      -15.933692   1.000000
   13      -15.822067   1.000000
   14      -15.760255   1.000000
   15      -15.614493   1.000000
   16      -15.425075   1.000000
   17      -15.405243   1.000000
   18      -15.197942   1.000000
   19       -9.395304   1.000000
   20       -9.325783   1.000000
   21       -9.193657   1.000000
   22       -9.130467   1.000000
   23       -8.812406   1.000000
   24       -8.695827   1.000000
   25       -8.630457   1.000000
   26       -8.560108   1.000000
   27       -8.521492   1.000000
   28       -8.473386   1.000000
   29       -8.294207   1.000000
   30       -8.246797   1.000000
   31       -8.128180   1.000000
   32       -8.036692   1.000000
   33       -8.024414   1.000000
   34       -7.845596   1.000000
   35       -7.769065   1.000000
   36       -7.712669   1.000000
   37       -7.581007   1.000000
   38       -7.550000   1.000000
   39       -7.465428   1.000000
   40       -7.354053   1.000000
   41       -7.312507   1.000000
   42       -7.268859   1.000000
   43       -7.088743   1.000000
   44       -6.989939   1.000000
   45       -6.857758   1.000000
   46       -6.828468   1.000000
   47       -6.683309   1.000000
   48       -6.673866   1.000000
   49       -6.514001   1.000000
   50       -6.497766   1.000000
   51       -6.385847   1.000000
   52       -6.365188   1.000000
   53       -6.313257   1.000000
   54       -6.256913   1.000000
   55       -6.238107   1.000000
   56       -6.071482   1.000000
   57       -6.051213   1.000000
   58       -5.924722   1.000000
   59       -5.795014   1.000000
   60       -5.583110   1.000000
   61       -5.567516   1.000000
   62       -5.436247   1.000000
   63       -5.334476   1.000000
   64       -5.312049   1.000000
   65       -5.103150   1.000000
   66       -5.047401   1.000000
   67       -4.984309   1.000000
   68       -4.933490   1.000000
   69       -4.780253   1.000000
   70       -4.675303   1.000000
   71       -4.655587   1.000000
   72       -4.547194   1.000000
   73       -4.383380   1.000000
   74       -4.197427   1.000000
   75       -4.121441   1.000000
   76       -4.009142   0.999998
   77       -3.862157   0.999834
   78       -3.748365   0.997321
   79       -3.670216   0.987196
   80       -3.459573   0.771148
   81       -2.981214   0.004147
   82       -2.904374   0.000728
   83       -2.780231   0.000024
   84       -2.660107   0.000000
   85       -2.541299   0.000000
   86       -2.391806   0.000000
   87       -2.338880   0.000000
   88       -2.292194   0.000000
   89       -2.212662   0.000000
   90       -2.112365   0.000000
   91       -1.766323   0.000000
   92       -1.613372   0.000000
   93       -1.398796   0.000000
   94       -1.259025   0.000000
   95       -1.049521   0.000000
   96       -1.020591   0.000000
   97       -0.971340   0.000000
   98       -0.898623   0.000000
   99       -0.856829   0.000000
  100       -0.831733   0.000000
  101       -0.719372   0.000000
  102       -0.654901   0.000000
  103       -0.642261   0.000000
  104       -0.418608   0.000000
  105       -0.403193   0.000000
  106       -0.168590   0.000000
  107       -0.109123   0.000000
  108        0.017812   0.000000
  109        0.036460   0.000000
  110        0.163728   0.000000
  111        0.367199   0.000000
  112        0.670518   0.000000
  113        0.691648   0.000000
  114        0.857890   0.000000
  115        0.935974   0.000000
  116        1.145859   0.000000
  117        1.354650   0.000000
  118        1.772933   0.000000
  119        1.956810   0.000000
  120        2.259485   0.000000
 
  0.2500000E+00  0.1250000E+00  0.0000000E+00  0.3125000E-01
    1      -17.668290   1.000000
    2      -17.065120   1.000000
    3      -16.907506   1.000000
    4      -16.736398   1.000000
    5      -16.494359   1.000000
    6      -16.446986   1.000000
    7      -16.354597   1.000000
    8      -16.214192   1.000000
    9      -16.093990   1.000000
   10      -16.031855   1.000000
   11      -15.938048   1.000000
   12      -15.879908   1.000000
   13      -15.775938   1.000000
   14      -15.719663   1.000000
   15      -15.642345   1.000000
   16      -15.442789   1.000000
   17      -15.423203   1.000000
   18      -15.208425   1.000000
   19       -9.607110   1.000000
   20       -9.430656   1.000000
   21       -9.284244   1.000000
   22       -9.156406   1.000000
   23       -8.844387   1.000000
   24       -8.675822   1.000000
   25       -8.574549   1.000000
   26       -8.505858   1.000000
   27       -8.448186   1.000000
   28       -8.401821   1.000000
   29       -8.272279   1.000000
   30       -8.241952   1.000000
   31       -8.139479   1.000000
   32       -8.058586   1.000000
   33       -7.949583   1.000000
   34       -7.919060   1.000000
   35       -7.801477   1.000000
   36       -7.642260   1.000000
   37       -7.582419   1.000000
   38       -7.451156   1.000000
   39       -7.409470   1.000000
   40       -7.320080   1.000000
   41       -7.206302   1.000000
   42       -7.166211   1.000000
   43       -7.030635   1.000000
   44       -6.958030   1.000000
   45       -6.876602   1.000000
   46       -6.820956   1.000000
   47       -6.709399   1.000000