       N       E                     dE             d eps       ncg     rms          rms(c)
DAV:   1     0.112443545206E+04    0.11244E+04   -0.35858E+04  8160   0.577E+02
DAV:   2    -0.275252613673E+01   -0.11272E+04   -0.10866E+04 11120   0.173E+02
DAV:   3    -0.199660058386E+03   -0.19691E+03   -0.18892E+03 10880   0.819E+01
DAV:   4    -0.208960050982E+03   -0.93000E+01   -0.89981E+01 12080   0.262E+01
DAV:   5    -0.209301770755E+03   -0.34172E+00   -0.34069E+00 11360   0.373E+00    0.275E+01
DAV:   6    -0.236703585922E+03   -0.27402E+02   -0.10805E+02 12760   0.604E+01    0.593E+01
DAV:   7    -0.196696712032E+03    0.40007E+02   -0.17820E+02 13000   0.151E+02    0.202E+01
DAV:   8    -0.189935003872E+03    0.67617E+01   -0.20050E+01 11760   0.133E+01    0.134E+01
DAV:   9    -0.188237594063E+03    0.16974E+01   -0.28919E+00 11920   0.622E+00    0.920E+00
DAV:  10    -0.187049867275E+03    0.11877E+01   -0.18664E+00 13240   0.773E+00    0.291E+00
DAV:  11    -0.187026773517E+03    0.23094E-01   -0.62221E-01 13560   0.305E+00    0.309E+00
DAV:  12    -0.187173144138E+03   -0.14637E+00   -0.82030E-01 13080   0.525E+00    0.577E+00
DAV:  13    -0.186922070952E+03    0.25107E+00   -0.77682E-01 12760   0.415E+00    0.213E+00
DAV:  14    -0.186875639554E+03    0.46431E-01   -0.11912E-01 13240   0.203E+00    0.793E-01
DAV:  15    -0.186869654799E+03    0.59848E-02   -0.12306E-02 12960   0.457E-01    0.343E-01
DAV:  16    -0.186870198193E+03   -0.54339E-03   -0.80049E-03 13280   0.526E-01    0.491E-01
DAV:  17    -0.186868270650E+03    0.19275E-02   -0.55813E-03 12800   0.406E-01    0.206E-01
DAV:  18    -0.186867699385E+03    0.57126E-03   -0.11253E-03 11560   0.136E-01    0.558E-02
DAV:  19    -0.186868312780E+03   -0.61339E-03   -0.73638E-04  9320   0.497E-02    0.494E-02
DAV:  20    -0.186869375893E+03   -0.10631E-02   -0.36831E-04  8200   0.608E-02    0.546E-02
DAV:  21    -0.186869914484E+03   -0.53859E-03   -0.16386E-04  6760   0.378E-02    0.345E-02
DAV:  22    -0.186871245614E+03   -0.13311E-02   -0.19030E-04  7440   0.421E-02    0.145E-02
DAV:  23    -0.186871878106E+03   -0.63249E-03   -0.30556E-05  6800   0.158E-02    0.803E-03
DAV:  24    -0.186872141736E+03   -0.26363E-03   -0.14725E-05  5600   0.104E-02    0.531E-03
DAV:  25    -0.186872459716E+03   -0.31798E-03   -0.10281E-05  5680   0.860E-03    0.438E-03
DAV:  26    -0.186872705122E+03   -0.24541E-03   -0.86184E-06  6800   0.679E-03    0.162E-03
DAV:  27    -0.186872791545E+03   -0.86423E-04   -0.37069E-06  7240   0.392E-03
   1 F= -.18687279E+03 E0= -.18670123E+03  d E =-.186873E+03
       N       E                     dE             d eps       ncg     rms          rms(c)
DAV:   1    -0.187493463196E+03   -0.62076E+00   -0.26999E+02  8160   0.349E+01    0.459E+00
DAV:   2    -0.189301727127E+03   -0.18083E+01   -0.19995E+01 12240   0.149E+01    0.831E+00
DAV:   3    -0.189414026681E+03   -0.11230E+00   -0.42222E+00 12400   0.120E+01    0.696E+00
DAV:   4    -0.188762145723E+03    0.65188E+00   -0.62544E-01 12200   0.491E+00    0.201E+00
DAV:   5    -0.188876342300E+03   -0.11420E+00   -0.43374E-01 11240   0.361E+00    0.538E+00
DAV:   6    -0.188744823519E+03    0.13152E+00   -0.79066E-01 12640   0.434E+00    0.236E+00
DAV:   7    -0.188681688771E+03    0.63135E-01   -0.18465E-01 11360   0.139E+00    0.107E+00
DAV:   8    -0.188665869080E+03    0.15820E-01   -0.48884E-02 11480   0.685E-01    0.653E-01
DAV:   9    -0.188661048079E+03    0.48210E-02   -0.91307E-03 12240   0.309E-01    0.343E-01
DAV:  10    -0.188660380654E+03    0.66743E-03   -0.33161E-03 12960   0.249E-01    0.158E-01
DAV:  11    -0.188660390045E+03   -0.93905E-05   -0.19366E-03 13120   0.211E-01    0.217E-01
DAV:  12    -0.188660265793E+03    0.12425E-03   -0.12020E-03 11160   0.202E-01    0.145E-01
DAV:  13    -0.188660169142E+03    0.96651E-04   -0.32855E-04  8080   0.967E-02
   2 F= -.18866017E+03 E0= -.18851914E+03  d E =-.178738E+01
       N       E                     dE             d eps       ncg     rms          rms(c)
DAV:   1    -0.190572013610E+03   -0.19117E+01   -0.30758E+01  9160   0.141E+01    0.445E+00
DAV:   2    -0.190564265227E+03    0.77484E-02   -0.28073E+00 11280   0.968E+00    0.748E+00
DAV:   3    -0.190051041382E+03    0.51322E+00   -0.13606E+00 12320   0.863E+00    0.418E+00
DAV:   4    -0.189853021121E+03    0.19802E+00   -0.73270E-01 12720   0.412E+00    0.268E+00
DAV:   5    -0.189900074996E+03   -0.47054E-01   -0.48375E-01 12360   0.422E+00    0.383E+00
DAV:   6    -0.189745926605E+03    0.15415E+00   -0.21996E-01 12320   0.322E+00    0.615E-01
DAV:   7    -0.189740078162E+03    0.58484E-02   -0.14913E-02 11920   0.458E-01    0.211E-01
DAV:   8    -0.189740087738E+03   -0.95753E-05   -0.28049E-03 10120   0.153E-01    0.144E-01
DAV:   9    -0.189740201889E+03   -0.11415E-03   -0.90511E-04 10760   0.108E-01    0.123E-01
DAV:  10    -0.189740426827E+03   -0.22494E-03   -0.89026E-04 10320   0.176E-01    0.185E-01
DAV:  11    -0.189740145389E+03    0.28144E-03   -0.53438E-04  9400   0.153E-01    0.301E-02
DAV:  12    -0.189740152701E+03   -0.73117E-05   -0.37316E-05  5840   0.265E-02
   3 F= -.18974015E+03 E0= -.18962111E+03  d E =-.107998E+01
       N       E                     dE             d eps       ncg     rms          rms(c)
DAV:   1    -0.191283319231E+03   -0.15432E+01   -0.70078E+01  8160   0.192E+01    0.460E+00
DAV:   2    -0.191158531123E+03    0.12479E+00   -0.53581E+00 13440   0.827E+00    0.517E+00
DAV:   3    -0.191197025781E+03   -0.38495E-01   -0.15537E+00 12200   0.921E+00    0.624E+00
DAV:   4    -0.190808956273E+03    0.38807E+00   -0.11312E+00 12960   0.680E+00    0.253E+00
DAV:   5    -0.190711298734E+03    0.97658E-01   -0.27952E-01 11240   0.211E+00    0.102E+00
DAV:   6    -0.190708483668E+03    0.28151E-02   -0.87320E-02 12720   0.176E+00    0.131E+00
DAV:   7    -0.190698648442E+03    0.98352E-02   -0.49155E-02 11640   0.150E+00    0.679E-01
DAV:   8    -0.190692752806E+03    0.58956E-02   -0.77248E-03 11040   0.499E-01    0.150E-01
DAV:   9    -0.190692996278E+03   -0.24347E-03   -0.15986E-03 10480   0.123E-01    0.136E-01
DAV:  10    -0.190692893135E+03    0.10314E-03   -0.11748E-03 10760   0.129E-01    0.619E-02
DAV:  11    -0.190692967468E+03   -0.74332E-04   -0.37479E-04  9120   0.122E-01
   4 F= -.19069297E+03 E0= -.19059159E+03  d E =-.952815E+00
       N       E                     dE             d eps       ncg     rms          rms(c)
DAV:   1    -0.192147736578E+03   -0.14548E+01   -0.15336E+02  8160   0.278E+01    0.585E+00
DAV:   2    -0.191831685146E+03    0.31605E+00   -0.98063E+00 12360   0.834E+00    0.399E+00
DAV:   3    -0.191915802713E+03   -0.84118E-01   -0.18494E+00 12240   0.917E+00    0.647E+00
DAV:   4    -0.191630206862E+03    0.28560E+00   -0.17254E+00 12320   0.100E+01    0.393E+00
DAV:   5    -0.191383166564E+03    0.24704E+00   -0.44978E-01 12120   0.377E+00    0.111E+00
DAV:   6    -0.191397723485E+03   -0.14557E-01   -0.17910E-01 12720   0.246E+00    0.190E+00
DAV:   7    -0.191369881368E+03    0.27842E-01   -0.11255E-01 12040   0.212E+00    0.669E-01
DAV:   8    -0.191362894617E+03    0.69868E-02   -0.10978E-02 10160   0.577E-01    0.219E-01
DAV:   9    -0.191363918274E+03   -0.10237E-02   -0.39699E-03 12920   0.434E-01    0.364E-01
DAV:  10    -0.191362955942E+03    0.96233E-03   -0.34817E-03 11040   0.361E-01    0.829E-02
DAV:  11    -0.191362955935E+03    0.72578E-08   -0.50575E-04 10400   0.879E-02
   5 F= -.19136296E+03 E0= -.19126713E+03  d E =-.669988E+00
       N       E                     dE             d eps       ncg     rms          rms(c)
DAV:   1    -0.191453434771E+03   -0.90479E-01   -0.81800E+00  8160   0.603E+00    0.780E-01
DAV:   2    -0.191535902552E+03   -0.82468E-01   -0.34151E-01 12880   0.335E+00    0.251E+00
DAV:   3    -0.191466209764E+03    0.69693E-01   -0.13111E-01 12440   0.275E+00    0.448E-01
DAV:   4    -0.191465009855E+03    0.11999E-02   -0.99627E-03 11080   0.495E-01    0.381E-01
DAV:   5    -0.191464299974E+03    0.70988E-03   -0.64067E-03 11520   0.569E-01    0.375E-01
DAV:   6    -0.191463292511E+03    0.10075E-02   -0.41334E-03 11720   0.441E-01    0.184E-01
DAV:   7    -0.191462955632E+03    0.33688E-03   -0.14439E-03 11480   0.182E-01    0.808E-02
DAV:   8    -0.191462960465E+03   -0.48328E-05   -0.53964E-04  9400   0.146E-01
   6 F= -.19146296E+03 E0= -.19136417E+03  d E =-.100005E+00
       N       E                     dE             d eps       ncg     rms          rms(c)
DAV:   1    -0.191465032405E+03   -0.20768E-02   -0.40381E-03  9200   0.173E-01    0.369E-02
DAV:   2    -0.191465225792E+03   -0.19339E-03   -0.53823E-04  8960   0.140E-01    0.129E-01
DAV:   3    -0.191465050048E+03    0.17574E-03   -0.37664E-04  8320   0.140E-01    0.292E-02
DAV:   4    -0.191465065345E+03   -0.15297E-04   -0.55488E-05  6080   0.436E-02
   7 F= -.19146507E+03 E0= -.19136629E+03  d E =-.210488E-02
       N       E                     dE             d eps       ncg     rms          rms(c)
DAV:   1    -0.191564958773E+03   -0.99909E-01   -0.94972E+00  8160   0.650E+00    0.781E-01
DAV:   2    -0.191639024612E+03   -0.74066E-01   -0.32357E-01 13120   0.317E+00    0.238E+00
DAV:   3    -0.191577332767E+03    0.61692E-01   -0.12192E-01 12480   0.268E+00    0.510E-01
DAV:   4    -0.191577072907E+03    0.25986E-03   -0.14033E-02 11400   0.674E-01    0.561E-01
DAV:   5    -0.191574751751E+03    0.23212E-02   -0.11330E-02 12320   0.732E-01    0.368E-01
DAV:   6    -0.191573627243E+03    0.11245E-02   -0.43723E-03 11280   0.384E-01    0.165E-01
DAV:   7    -0.191573438026E+03    0.18922E-03   -0.16693E-03 11800   0.193E-01    0.137E-01
DAV:   8    -0.191573310232E+03    0.12779E-03   -0.70160E-04  8960   0.193E-01    0.943E-02
DAV:   9    -0.191573222793E+03    0.87439E-04   -0.18069E-04  6200   0.956E-02
   8 F= -.19157322E+03 E0= -.19147426E+03  d E =-.108157E+00
       N       E                     dE             d eps       ncg     rms          rms(c)
DAV:   1    -0.191551083343E+03    0.22227E-01   -0.36408E-01  8160   0.128E+00    0.157E-01
DAV:   2    -0.191553925285E+03   -0.28419E-02   -0.13062E-02 12720   0.640E-01    0.457E-01
DAV:   3    -0.191551480967E+03    0.24443E-02   -0.41664E-03 11640   0.506E-01    0.956E-02
DAV:   4    -0.191551529504E+03   -0.48537E-04   -0.62653E-04  8680   0.147E-01
   9 F= -.19155153E+03 E0= -.19145221E+03  d E =0.216933E-01
       N       E                     dE             d eps       ncg     rms          rms(c)
DAV:   1    -0.191461870110E+03    0.89611E-01   -0.63570E+00  8160   0.539E+00    0.699E-01
DAV:   2    -0.191505230493E+03   -0.43360E-01   -0.22778E-01 13600   0.256E+00    0.177E+00
DAV:   3    -0.191467486339E+03    0.37744E-01   -0.67290E-02 12320   0.204E+00    0.468E-01
DAV:   4    -0.191467686486E+03   -0.20015E-03   -0.14856E-02 11520   0.696E-01    0.577E-01
DAV:   5    -0.191465374359E+03    0.23121E-02   -0.13303E-02 11640   0.749E-01    0.379E-01
DAV:   6    -0.191463910976E+03    0.14634E-02   -0.50575E-03 11040   0.401E-01    0.152E-01
DAV:   7    -0.191463749601E+03    0.16138E-03   -0.13766E-03 11440   0.177E-01    0.104E-01
DAV:   8    -0.191463664643E+03    0.84958E-04   -0.47000E-04  9320   0.158E-01
  10 F= -.19146366E+03 E0= -.19136512E+03  d E =0.878649E-01
       N       E                     dE             d eps       ncg     rms          rms(c)
DAV:   1    -0.191242775863E+03    0.22097E+00   -0.35934E+01  8160   0.128E+01    0.159E+00
DAV:   2    -0.191479836448E+03   -0.23706E+00   -0.12940E+00 13600   0.553E+00    0.386E+00
DAV:   3    -0.191285828527E+03    0.19401E+00   -0.32499E-01 12240   0.450E+00    0.980E-01
DAV:   4    -0.191276325270E+03    0.95033E-02   -0.43650E-02 12320   0.100E+00    0.637E-01
DAV:   5    -0.191273958212E+03    0.23671E-02   -0.22928E-02 12080   0.983E-01    0.748E-01
DAV:   6    -0.191272085117E+03    0.18731E-02   -0.21162E-02 12120   0.111E+00    0.581E-01
DAV:   7    -0.191268338942E+03    0.37462E-02   -0.72480E-03 12280   0.560E-01    0.132E-01
DAV:   8    -0.191268002138E+03    0.33680E-03   -0.10965E-03 10680   0.137E-01    0.628E-02
DAV:   9    -0.191268142826E+03   -0.14069E-03   -0.67971E-04 11360   0.158E-01    0.137E-01
DAV:  10    -0.191267941463E+03    0.20136E-03   -0.43633E-04  8520   0.135E-01    0.272E-02
DAV:  11    -0.191267952083E+03   -0.10620E-04   -0.65328E-05  6240   0.338E-02
  11 F= -.19126795E+03 E0= -.19117881E+03  d E =0.195713E+00
       N       E                     dE             d eps       ncg     rms          rms(c)
DAV:   1    -0.191198663122E+03    0.69278E-01   -0.58879E+00  8160   0.517E+00    0.632E-01
DAV:   2    -0.191238547848E+03   -0.39885E-01   -0.19944E-01 13600   0.220E+00    0.164E+00
DAV:   3    -0.191205194850E+03    0.33353E-01   -0.60795E-02 12320   0.189E+00    0.427E-01
DAV:   4    -0.191204446595E+03    0.74825E-03   -0.89318E-03 11600   0.529E-01    0.384E-01
DAV:   5    -0.191203614389E+03    0.83221E-03   -0.57994E-03 11560   0.572E-01    0.343E-01
DAV:   6    -0.191202511484E+03    0.11029E-02   -0.31128E-03 10800   0.392E-01    0.137E-01
DAV:   7    -0.191202392586E+03    0.11890E-03   -0.10045E-03 10760   0.163E-01    0.952E-02
DAV:   8    -0.191202311093E+03    0.81493E-04   -0.45188E-04  9320   0.140E-01
  12 F= -.19120231E+03 E0= -.19111623E+03  d E =0.656410E-01
       N       E                     dE             d eps       ncg     rms          rms(c)
DAV:   1    -0.191299453846E+03   -0.97061E-01   -0.97654E+00  8160   0.668E+00    0.976E-01
DAV:   2    -0.191421231008E+03   -0.12178E+00   -0.46686E-01 13320   0.415E+00    0.319E+00
DAV:   3    -0.191309189932E+03    0.11204E+00   -0.20453E-01 12320   0.346E+00    0.531E-01
DAV:   4    -0.191309898084E+03   -0.70815E-03   -0.23874E-02 12280   0.887E-01    0.725E-01
DAV:   5    -0.191305476969E+03    0.44211E-02   -0.18987E-02 11560   0.915E-01    0.440E-01
DAV:   6    -0.191303477848E+03    0.19991E-02   -0.74511E-03 10520   0.478E-01    0.190E-01
DAV:   7    -0.191303237920E+03    0.23993E-03   -0.24649E-03 11560   0.236E-01    0.148E-01
DAV:   8    -0.191303058429E+03    0.17949E-03   -0.92345E-04 10240   0.219E-01    0.117E-01
DAV:   9    -0.191302920698E+03    0.13773E-03   -0.28654E-04  7680   0.118E-01    0.324E-02
DAV:  10    -0.191302909706E+03    0.10991E-04   -0.61428E-05  6600   0.322E-02
  13 F= -.19130291E+03 E0= -.19121152E+03  d E =-.100599E+00
       N       E                     dE             d eps       ncg     rms          rms(c)
DAV:   1    -0.191351743138E+03   -0.48822E-01   -0.33056E+00  8160   0.382E+00    0.430E-01
DAV:   2    -0.191370013723E+03   -0.18271E-01   -0.98326E-02 12920   0.133E+00    0.112E+00
DAV:   3    -0.191356021249E+03    0.13992E-01   -0.34158E-02 12440   0.136E+00    0.365E-01
DAV:   4    -0.191355549727E+03    0.47152E-03   -0.57422E-03 10800   0.432E-01    0.328E-01
DAV:   5    -0.191354711197E+03    0.83853E-03   -0.39471E-03 11320   0.425E-01    0.207E-01
DAV:   6    -0.191354432757E+03    0.27844E-03   -0.17025E-03 10800   0.229E-01    0.114E-01
DAV:   7    -0.191354296947E+03    0.13581E-03   -0.70690E-04 10560   0.125E-01    0.751E-02
DAV:   8    -0.191354291736E+03    0.52109E-05   -0.28652E-04  8000   0.124E-01
  14 F= -.19135429E+03 E0= -.19126073E+03  d E =-.513820E-01
       N       E                     dE             d eps       ncg     rms          rms(c)
DAV:   1    -0.191413352075E+03   -0.59055E-01   -0.43997E+00  8160   0.450E+00    0.612E-01
DAV:   2    -0.191454790418E+03   -0.41438E-01   -0.17595E-01 13440   0.235E+00    0.185E+00
DAV:   3    -0.191417492718E+03    0.37298E-01   -0.74204E-02 12320   0.203E+00    0.405E-01
DAV:   4    -0.191417748916E+03   -0.25620E-03   -0.96028E-03 12280   0.614E-01    0.493E-01
DAV:   5    -0.191415812314E+03    0.19366E-02   -0.69947E-03 10800   0.627E-01    0.299E-01
DAV:   6    -0.191414757991E+03    0.10543E-02   -0.26180E-03 10080   0.307E-01    0.101E-01
DAV:   7    -0.191414976900E+03   -0.21891E-03   -0.13920E-03 10760   0.210E-01    0.182E-01
DAV:   8    -0.191414635208E+03    0.34169E-03   -0.81105E-04  8680   0.187E-01    0.445E-02
DAV:   9    -0.191414624488E+03    0.10720E-04   -0.73148E-05  5800   0.455E-02
  15 F= -.19141462E+03 E0= -.19131802E+03  d E =-.603328E-01
       N       E                     dE             d eps       ncg     rms          rms(c)
DAV:   1    -0.191524763311E+03   -0.11013E+00   -0.13711E+01  8160   0.787E+00    0.105E+00
DAV:   2    -0.191671509393E+03   -0.14675E+00   -0.57553E-01 13360   0.447E+00    0.349E+00
DAV:   3    -0.191542928350E+03    0.12858E+00   -0.24972E-01 12360   0.375E+00    0.613E-01
DAV:   4    -0.191544125888E+03   -0.11975E-02   -0.23628E-02 12320   0.964E-01    0.813E-01
DAV:   5    -0.191538280444E+03    0.58454E-02   -0.16651E-02 11320   0.968E-01    0.421E-01
DAV:   6    -0.191536651771E+03    0.16287E-02   -0.59934E-03 10800   0.437E-01    0.194E-01
DAV:   7    -0.191536802540E+03   -0.15077E-03   -0.36661E-03 11680   0.327E-01    0.274E-01
DAV:   8    -0.191536083740E+03    0.71880E-03   -0.20759E-03 10200   0.292E-01    0.857E-02
DAV:   9    -0.191536016284E+03    0.67456E-04   -0.22700E-04  6120   0.809E-02
  16 F= -.19153602E+03 E0= -.19143543E+03  d E =-.121392E+00
       N       E                     dE             d eps       ncg     rms          rms(c)
DAV:   1    -0.191536170125E+03   -0.86385E-04   -0.17399E-01  8160   0.904E-01    0.990E-02
DAV:   2    -0.191536481184E+03   -0.31106E-03   -0.43535E-03 13440   0.227E-01    0.126E-01
DAV:   3    -0.191536440157E+03    0.41027E-04   -0.80420E-04 10600   0.217E-01
  17 F= -.19153644E+03 E0= -.19143612E+03  d E =-.423873E-03
       N       E                     dE             d eps       ncg     rms          rms(c)
DAV:   1    -0.191617268454E+03   -0.80787E-01   -0.72157E+00  8160   0.571E+00    0.697E-01
DAV:   2    -0.191678458589E+03   -0.61190E-01   -0.27026E-01 12960   0.288E+00    0.219E+00
DAV:   3    -0.191628080953E+03    0.50378E-01   -0.98606E-02 12400   0.238E+00    0.462E-01
DAV:   4    -0.191629701852E+03   -0.16209E-02   -0.14226E-02 12000   0.774E-01    0.667E-01
DAV:   5    -0.191625460624E+03    0.42412E-02   -0.10047E-02 11480   0.714E-01    0.243E-01
DAV:   6    -0.191625352842E+03    0.10778E-03   -0.31666E-03 10560   0.296E-01    0.217E-01
DAV:   7    -0.191625782584E+03   -0.42974E-03   -0.38324E-03 11680   0.418E-01    0.320E-01
DAV:   8    -0.191624719020E+03    0.10636E-02   -0.18460E-03  9880   0.288E-01    0.364E-02
DAV:   9    -0.191624732120E+03   -0.13100E-04   -0.10171E-04  5680   0.404E-02
  18 F= -.19162473E+03 E0= -.19152364E+03  d E =-.882920E-01
       N       E                     dE             d eps       ncg     rms          rms(c)
DAV:   1    -0.191702195854E+03   -0.77477E-01   -0.65570E+00  8160   0.546E+00    0.707E-01
DAV:   2    -0.191765746860E+03   -0.63551E-01   -0.27865E-01 12960   0.297E+00    0.229E+00
DAV:   3    -0.191712944916E+03    0.52802E-01   -0.98678E-02 12320   0.241E+00    0.475E-01
DAV:   4    -0.191715263226E+03   -0.23183E-02   -0.15948E-02 11920   0.886E-01    0.717E-01
DAV:   5    -0.191709777432E+03    0.54858E-02   -0.94306E-03 10840   0.736E-01    0.204E-01
DAV:   6    -0.191709947407E+03   -0.16998E-03   -0.32223E-03 11080   0.287E-01    0.234E-01
DAV:   7    -0.191710090443E+03   -0.14304E-03   -0.38561E-03 11240   0.412E-01    0.296E-01
DAV:   8    -0.191709184619E+03    0.90582E-03   -0.16108E-03  9840   0.259E-01    0.342E-02
DAV:   9    -0.191709198106E+03   -0.13487E-04   -0.97482E-05  5680   0.378E-02
  19 F= -.19170920E+03 E0= -.19160882E+03  d E =-.844660E-01
       N       E                     dE             d eps       ncg     rms          rms(c)
DAV:   1    -0.191837359864E+03   -0.12818E+00   -0.40818E+01  8160   0.137E+01    0.159E+00
DAV:   2    -0.192100491373E+03   -0.26313E+00   -0.15572E+00 12920   0.601E+00    0.448E+00
DAV:   3    -0.191922660036E+03    0.17783E+00   -0.45889E-01 12120   0.518E+00    0.132E+00
DAV:   4    -0.191925433779E+03   -0.27737E-02   -0.86078E-02 11760   0.215E+00    0.154E+00
DAV:   5    -0.191896857403E+03    0.28576E-01   -0.42997E-02 11360   0.167E+00    0.478E-01
DAV:   6    -0.191901082784E+03   -0.42254E-02   -0.25003E-02 12440   0.887E-01    0.793E-01
DAV:   7    -0.191896492715E+03    0.45901E-02   -0.23403E-02 12040   0.105E+00    0.501E-01
DAV:   8    -0.191893555634E+03    0.29371E-02   -0.56501E-03 11200   0.450E-01    0.753E-02
DAV:   9    -0.191893537807E+03    0.17827E-04   -0.64332E-04 10440   0.818E-02
  20 F= -.19189354E+03 E0= -.19179748E+03  d E =-.184340E+00
       N       E                     dE             d eps       ncg     rms          rms(c)
DAV:   1    -0.191946117307E+03   -0.52562E-01   -0.53067E+00  8160   0.503E+00    0.682E-01
DAV:   2    -0.191971868703E+03   -0.25751E-01   -0.25914E-01 13400   0.204E+00    0.127E+00
DAV:   3    -0.191958791670E+03    0.13077E-01   -0.52504E-02 12080   0.176E+00    0.633E-01
DAV:   4    -0.191955775894E+03    0.30158E-02   -0.14666E-02 12400   0.861E-01    0.553E-01
DAV:   5    -0.191953379107E+03    0.23968E-02   -0.10076E-02 11680   0.782E-01    0.347E-01
DAV:   6    -0.191952553422E+03    0.82568E-03   -0.56962E-03 11280   0.436E-01    0.234E-01
DAV:   7    -0.191952415853E+03    0.13757E-03   -0.33982E-03 11760   0.392E-01    0.239E-01
DAV:   8    -0.191951810523E+03    0.60533E-03   -0.11772E-03  9200   0.230E-01    0.427E-02
DAV:   9    -0.191951792900E+03    0.17623E-04   -0.10174E-04  6280   0.424E-02
  21 F= -.19195179E+03 E0= -.19185693E+03  d E =-.582551E-01
       N       E                     dE             d eps       ncg     rms          rms(c)
DAV:   1    -0.191989496981E+03   -0.37686E-01   -0.26719E+01  8160   0.111E+01    0.118E+00
DAV:   2    -0.192067495631E+03   -0.77999E-01   -0.94974E-01 11960   0.327E+00    0.159E+00
DAV:   3    -0.192060840870E+03    0.66548E-02   -0.14091E-01 12240   0.293E+00    0.137E+00
DAV:   4    -0.192038179048E+03    0.22662E-01   -0.36377E-02 12400   0.153E+00    0.663E-01
DAV:   5    -0.192037022290E+03    0.11568E-02   -0.19571E-02 11480   0.117E+00    0.647E-01
DAV:   6    -0.192033209673E+03    0.38126E-02   -0.14294E-02 12600   0.767E-01    0.287E-01
DAV:   7    -0.192032200480E+03    0.10092E-02   -0.42745E-03 11880   0.399E-01    0.219E-01
DAV:   8    -0.192031794372E+03    0.40611E-03   -0.14828E-03 10760   0.268E-01    0.890E-02
DAV:   9    -0.192031657944E+03    0.13643E-03   -0.34634E-04  7360   0.874E-02    0.310E-02
DAV:  10    -0.192031662714E+03   -0.47700E-05   -0.14196E-04  7640   0.386E-02
  22 F= -.19203166E+03 E0= -.19194009E+03  d E =-.798698E-01
       N       E                     dE             d eps       ncg     rms          rms(c)
DAV:   1    -0.192032303880E+03   -0.64594E-03   -0.14321E+00  8160   0.254E+00    0.241E-01
DAV:   2    -0.192034895233E+03   -0.25914E-02   -0.32386E-02 11680   0.572E-01    0.338E-01
DAV:   3    -0.192034469708E+03    0.42553E-03   -0.61793E-03 12640   0.604E-01    0.317E-01
DAV:   4    -0.192033419217E+03    0.10505E-02   -0.20097E-03 11280   0.329E-01    0.121E-01
DAV:   5    -0.192033565795E+03   -0.14658E-03   -0.97942E-04 10280   0.263E-01    0.168E-01
DAV:   6    -0.192033263394E+03    0.30240E-03   -0.75764E-04 10360   0.205E-01    0.626E-02
DAV:   7    -0.192033303913E+03   -0.40519E-04   -0.34709E-04  8800   0.132E-01
  23 F= -.19203330E+03 E0= -.19194119E+03  d E =-.164120E-02
       N       E                     dE             d eps       ncg     rms          rms(c)
DAV:   1    -0.192045320860E+03   -0.12057E-01   -0.79267E-01  8160   0.189E+00    0.214E-01
DAV:   2    -0.192047110600E+03   -0.17897E-02   -0.28505E-02 11320   0.468E-01    0.175E-01
DAV:   3    -0.192047795735E+03   -0.68513E-03   -0.32338E-03 12400   0.448E-01    0.306E-01
DAV:   4    -0.192046694852E+03    0.11009E-02   -0.19429E-03 10320   0.353E-01    0.105E-01
DAV:   5    -0.192046828166E+03   -0.13331E-03   -0.82561E-04  9560   0.221E-01    0.148E-01
DAV:   6    -0.192046604256E+03    0.22391E-03   -0.51302E-04  9440   0.167E-01    0.424E-02
DAV:   7    -0.192046582229E+03    0.22027E-04   -0.11158E-04  5880   0.661E-02
  24 F= -.19204658E+03 E0= -.19195529E+03  d E =-.132783E-01
       N       E                     dE             d eps       ncg     rms          rms(c)
DAV:   1    -0.192060272438E+03   -0.13668E-01   -0.11570E+00  8160   0.231E+00    0.290E-01
DAV:   2    -0.192062798208E+03   -0.25258E-02   -0.45139E-02 10960   0.559E-01    0.236E-01
DAV:   3    -0.192064089811E+03   -0.12916E-02   -0.61594E-03 12240   0.601E-01    0.438E-01
DAV:   4    -0.192061972074E+03    0.21177E-02   -0.37245E-03 11120   0.492E-01    0.133E-01
DAV:   5    -0.192062120957E+03   -0.14888E-03   -0.13319E-03  9720   0.270E-01    0.182E-01
DAV:   6    -0.192061797771E+03    0.32319E-03   -0.92144E-04 10680   0.243E-01    0.788E-02
DAV:   7    -0.192061738153E+03    0.59619E-04   -0.27780E-04  8720   0.111E-01
  25 F= -.19206174E+03 E0= -.19197116E+03  d E =-.151559E-01
       N       E                     dE             d eps       ncg     rms          rms(c)
DAV:   1    -0.192072162465E+03   -0.10365E-01   -0.86314E-01  8160   0.199E+00    0.242E-01
DAV:   2    -0.192074945656E+03   -0.27832E-02   -0.34102E-02 10600   0.640E-01    0.307E-01
DAV:   3    -0.192074534983E+03    0.41067E-03   -0.42903E-03 12800   0.555E-01    0.244E-01
DAV:   4    -0.192073757099E+03    0.77788E-03   -0.12777E-03 10040   0.297E-01    0.104E-01
DAV:   5    -0.192073997111E+03   -0.24001E-03   -0.10678E-03 10200   0.247E-01    0.179E-01
DAV:   6    -0.192073685907E+03    0.31120E-03   -0.71550E-04  9480   0.200E-01    0.502E-02
DAV:   7    -0.192073648152E+03    0.37755E-04   -0.10573E-04  6480   0.581E-02
  26 F= -.19207365E+03 E0= -.19198387E+03  d E =-.119100E-01
       N       E                     dE             d eps       ncg     rms          rms(c)
DAV:   1    -0.192075798805E+03   -0.21129E-02   -0.31562E-02  8160   0.402E-01    0.718E-02
DAV:   2    -0.192075868791E+03   -0.69986E-04   -0.17409E-03 10440   0.156E-01    0.953E-02
DAV:   3    -0.192075843495E+03    0.25296E-04   -0.50053E-04  9480   0.175E-01
  27 F= -.19207584E+03 E0= -.19198612E+03  d E =-.219534E-02
       N       E                     dE             d eps       ncg     rms          rms(c)
DAV:   1    -0.192084827882E+03   -0.89591E-02   -0.58932E-01  8160   0.167E+00    0.221E-01
DAV:   2    -0.192085853654E+03   -0.10258E-02   -0.21771E-02 11160   0.424E-01    0.188E-01
DAV:   3    -0.192086406687E+03   -0.55303E-03   -0.38551E-03 12200   0.439E-01    0.313E-01
DAV:   4    -0.192085430414E+03    0.97627E-03   -0.24936E-03 10960   0.391E-01    0.128E-01
DAV:   5    -0.192085234501E+03    0.19591E-03   -0.75894E-04  9680   0.146E-01    0.625E-02
DAV:   6    -0.192085262816E+03   -0.28315E-04   -0.31225E-04  8720   0.140E-01
  28 F= -.19208526E+03 E0= -.19199610E+03  d E =-.941932E-02
       N       E                     dE             d eps       ncg     rms          rms(c)
DAV:   1    -0.192088733397E+03   -0.34989E-02   -0.82009E-02  8160   0.621E-01    0.115E-01
DAV:   2    -0.192089513124E+03   -0.77973E-03   -0.50809E-03 10200   0.386E-01    0.257E-01
DAV:   3    -0.192088762089E+03    0.75103E-03   -0.14594E-03 11080   0.324E-01    0.777E-02
DAV:   4    -0.192088783831E+03   -0.21742E-04   -0.36337E-04  8120   0.148E-01
  29 F= -.19208878E+03 E0= -.19199961E+03  d E =-.352102E-02
       N       E                     dE             d eps       ncg     rms          rms(c)
DAV:   1    -0.192095886111E+03   -0.71240E-02   -0.38351E-01  8160   0.134E+00    0.168E-01
DAV:   2    -0.192096725088E+03   -0.83898E-03   -0.13677E-02 10960   0.334E-01    0.151E-01
DAV:   3    -0.192097061632E+03   -0.33654E-03   -0.19512E-03 11560   0.354E-01    0.236E-01
DAV:   4    -0.192096472468E+03    0.58916E-03   -0.11666E-03 10320   0.277E-01    0.900E-02
DAV:   5    -0.192096507634E+03   -0.35167E-04   -0.50533E-04  8800   0.175E-01
  30 F= -.19209651E+03 E0= -.19200834E+03  d E =-.772380E-02
       N       E                     dE             d eps       ncg     rms          rms(c)
DAV:   1    -0.192099780286E+03   -0.33078E-02   -0.77975E-02  8160   0.620E-01    0.907E-02
DAV:   2    -0.192100225094E+03   -0.44481E-03   -0.34762E-03 12120   0.249E-01    0.162E-01
DAV:   3    -0.192099937103E+03    0.28799E-03   -0.82275E-04 11000   0.244E-01    0.806E-02
DAV:   4    -0.192099916737E+03    0.20365E-04   -0.22691E-04  7640   0.111E-01
  31 F= -.19209992E+03 E0= -.19201170E+03  d E =-.340910E-02
       N       E                     dE             d eps       ncg     rms          rms(c)
DAV:   1    -0.192104282823E+03   -0.43457E-02   -0.13520E-01  8160   0.799E-01    0.117E-01
DAV:   2    -0.192105246271E+03   -0.96345E-03   -0.59508E-03 12400   0.359E-01    0.268E-01
DAV:   3    -0.192104492845E+03    0.75343E-03   -0.16259E-03 10440   0.334E-01    0.858E-02
DAV:   4    -0.192104445256E+03    0.47589E-04   -0.18244E-04  7120   0.982E-02
  32 F= -.19210445E+03 E0= -.19201666E+03  d E =-.452852E-02
       N       E                     dE             d eps       ncg     rms          rms(c)
DAV:   1    -0.192114933757E+03   -0.10441E-01   -0.87377E-01  8160   0.203E+00    0.266E-01
DAV:   2    -0.192117940249E+03   -0.30065E-02   -0.32687E-02 11280   0.608E-01    0.360E-01
DAV:   3    -0.192116971812E+03    0.96844E-03   -0.52331E-03 12240   0.621E-01    0.260E-01
DAV:   4    -0.192116223484E+03    0.74833E-03   -0.14139E-03 10920   0.304E-01    0.119E-01
DAV:   5    -0.192116360868E+03   -0.13738E-03   -0.10288E-03 10600   0.258E-01    0.172E-01
DAV:   6    -0.192116153792E+03    0.20708E-03   -0.81405E-04  9240   0.230E-01    0.803E-02
DAV:   7    -0.192116044698E+03    0.10909E-03   -0.18506E-04  6880   0.849E-02    0.187E-02
DAV:   8    -0.192116052306E+03   -0.76080E-05   -0.54094E-05  8000   0.472E-02
  33 F= -.19211605E+03 E0= -.19202894E+03  d E =-.116070E-01
       N       E                     dE             d eps       ncg     rms          rms(c)
DAV:   1    -0.192132695901E+03   -0.16651E-01   -0.32956E+00  8160   0.392E+00    0.468E-01
DAV:   2    -0.192141202583E+03   -0.85067E-02   -0.11671E-01 11000   0.989E-01    0.465E-01
DAV:   3    -0.192142201972E+03   -0.99939E-03   -0.14337E-02 12320   0.101E+00    0.573E-01
DAV:   4    -0.192138341932E+03    0.38600E-02   -0.57279E-03 11400   0.683E-01    0.217E-01
DAV:   5    -0.192138761492E+03   -0.41956E-03   -0.28384E-03 11120   0.448E-01    0.291E-01
DAV:   6    -0.192138105282E+03    0.65621E-03   -0.21851E-03 10320   0.378E-01    0.130E-01
DAV:   7    -0.192137781989E+03    0.32329E-03   -0.62124E-04 10480   0.133E-01    0.224E-02
DAV:   8    -0.192137786207E+03   -0.42180E-05   -0.63890E-05  7640   0.322E-02
  34 F= -.19213779E+03 E0= -.19205221E+03  d E =-.217339E-01
       N       E                     dE             d eps       ncg     rms          rms(c)
DAV:   1    -0.192153304036E+03   -0.15522E-01   -0.40697E+00  8160   0.436E+00    0.521E-01
DAV:   2    -0.192163316066E+03   -0.10012E-01   -0.14323E-01 10880   0.108E+00    0.488E-01
DAV:   3    -0.192165175126E+03   -0.18591E-02   -0.17246E-02 12280   0.110E+00    0.657E-01
DAV:   4    -0.192160129160E+03    0.50460E-02   -0.79330E-03 11520   0.777E-01    0.245E-01
DAV:   5    -0.192160645763E+03   -0.51660E-03   -0.38965E-03 11800   0.521E-01    0.330E-01
DAV:   6    -0.192159800019E+03    0.84574E-03   -0.30683E-03 11360   0.435E-01    0.141E-01
DAV:   7    -0.192159407846E+03    0.39217E-03   -0.79582E-04 10600   0.144E-01    0.241E-02
DAV:   8    -0.192159411216E+03   -0.33694E-05   -0.78768E-05  7440   0.291E-02
  35 F= -.19215941E+03 E0= -.19207552E+03  d E =-.216250E-01
       N       E                     dE             d eps       ncg     rms          rms(c)
DAV:   1    -0.192167953960E+03   -0.85461E-02   -0.12088E+00  8160   0.236E+00    0.278E-01
DAV:   2    -0.192171286029E+03   -0.33321E-02   -0.46585E-02 10640   0.638E-01    0.267E-01
DAV:   3    -0.192172221625E+03   -0.93560E-03   -0.62029E-03 12800   0.637E-01    0.405E-01
DAV:   4    -0.192170377242E+03    0.18444E-02   -0.28658E-03 11640   0.451E-01    0.119E-01
DAV:   5    -0.192170523110E+03   -0.14587E-03   -0.98651E-04 10200   0.247E-01    0.156E-01
DAV:   6    -0.192170335856E+03    0.18725E-03   -0.69013E-04 10080   0.229E-01    0.766E-02
DAV:   7    -0.192170230008E+03    0.10585E-03   -0.19254E-04  7280   0.877E-02    0.203E-02
DAV:   8    -0.192170237748E+03   -0.77401E-05   -0.49825E-05  8040   0.459E-02
  36 F= -.19217024E+03 E0= -.19208709E+03  d E =-.108265E-01
       N       E                     dE             d eps       ncg     rms          rms(c)
DAV:   1    -0.192180370154E+03   -0.10140E-01   -0.30403E+00  8160   0.376E+00    0.445E-01
DAV:   2    -0.192188140082E+03   -0.77699E-02   -0.11017E-01 10960   0.989E-01    0.419E-01
DAV:   3    -0.192189744425E+03   -0.16043E-02   -0.12603E-02 12480   0.974E-01    0.576E-01
DAV:   4    -0.192185849492E+03    0.38949E-02   -0.57851E-03 11760   0.674E-01    0.209E-01
DAV:   5    -0.192186254188E+03   -0.40470E-03   -0.30024E-03 10640   0.449E-01    0.275E-01
DAV:   6    -0.192185570568E+03    0.68362E-03   -0.18213E-03 10560   0.337E-01    0.931E-02
DAV:   7    -0.192185383968E+03    0.18660E-03   -0.41882E-04  9120   0.997E-02    0.229E-02
DAV:   8    -0.192185383342E+03    0.62628E-06   -0.57549E-05  7480   0.279E-02
  37 F= -.19218538E+03 E0= -.19210346E+03  d E =-.151456E-01
       N       E                     dE             d eps       ncg     rms          rms(c)
DAV:   1    -0.192183491116E+03    0.18929E-02   -0.12290E+01  8160   0.759E+00    0.872E-01
DAV:   2    -0.192212160771E+03   -0.28670E-01   -0.43354E-01 11000   0.177E+00    0.673E-01
DAV:   3    -0.192221717800E+03   -0.95570E-02   -0.40526E-02 12400   0.174E+00    0.117E+00
DAV:   4    -0.192205342973E+03    0.16375E-01   -0.22088E-02 11920   0.137E+00    0.359E-01
DAV:   5    -0.192207895518E+03   -0.25525E-02   -0.12002E-02 11520   0.857E-01    0.586E-01
DAV:   6    -0.192204522667E+03    0.33729E-02   -0.73058E-03 11520   0.735E-01    0.207E-01
DAV:   7    -0.192203745000E+03    0.77767E-03   -0.17010E-03 11840   0.250E-01    0.762E-02
DAV:   8    -0.192203761297E+03   -0.16297E-04   -0.37072E-04  9680   0.143E-01
  38 F= -.19220376E+03 E0= -.19212326E+03  d E =-.183780E-01
       N       E                     dE             d eps       ncg     rms          rms(c)
DAV:   1    -0.192204625050E+03   -0.88005E-03   -0.18530E-01  8160   0.919E-01    0.118E-01
DAV:   2    -0.192205326946E+03   -0.70190E-03   -0.90029E-03 10640   0.313E-01    0.131E-01
DAV:   3    -0.192205321743E+03    0.52039E-05   -0.10527E-03 11520   0.274E-01    0.133E-01
DAV:   4    -0.192205121269E+03    0.20047E-03   -0.37396E-04  9480   0.170E-01    0.571E-02
DAV:   5    -0.192205138736E+03   -0.17468E-04   -0.16554E-04  7160   0.111E-01
  39 F= -.19220514E+03 E0= -.19212482E+03  d E =-.137744E-02
       N       E                     dE             d eps       ncg     rms          rms(c)
DAV:   1    -0.192205866712E+03   -0.74544E-03   -0.98902E-02  8160   0.669E-01    0.824E-02
DAV:   2    -0.192206377902E+03   -0.51119E-03   -0.47769E-03 11240   0.252E-01    0.143E-01
DAV:   3    -0.192206226005E+03    0.15190E-03   -0.68261E-04 11120   0.219E-01    0.890E-02
DAV:   4    -0.192206136004E+03    0.90001E-04   -0.10012E-04  5920   0.860E-02
  40 F= -.19220614E+03 E0= -.19212575E+03  d E =-.997268E-03
