<?xml version="1.0" encoding="ISO-8859-1"?>
<modeling>
 <generator>
  <i name="program" type="string">vasp </i>
  <i name="version" type="string">5.4.1  </i>
  <i name="subversion" type="string">05Feb16 (build Jul 05 2020 17:13:04) complex                          parallel </i>
  <i name="platform" type="string">IFC91_ompi </i>
  <i name="date" type="string">2024 04 19 </i>
  <i name="time" type="string">22:08:29 </i>
 </generator>
 <incar>
  <i type="int" name="ISTART">     0</i>
  <i type="string" name="PREC">normal</i>
  <i type="string" name="ALGO"> Normal</i>
  <i type="int" name="ISPIN">     1</i>
  <i type="int" name="ICHARG">     2</i>
  <i type="int" name="IBRION">     1</i>
  <i type="int" name="NSW">   100</i>
  <i type="int" name="ISIF">     3</i>
  <i type="int" name="ISYM">     0</i>
  <i name="SYMPREC">      0.00000001</i>
  <i name="POTIM">      0.50000000</i>
  <i type="logical" name="LREAL"> F  </i>
  <i type="logical" name="LPLANE"> F  </i>
  <i type="int" name="ISMEAR">     0</i>
  <i type="logical" name="LWAVE"> F  </i>
  <i type="logical" name="LCHARG"> F  </i>
  <v type="int" name="KPOINT_BSE">    -1     0     0     0</v>
 </incar>
 <kpoints>
  <generation param="Gamma">
   <v type="int" name="divisions">       8        8        1 </v>
   <v name="usershift">      0.00000000       0.00000000       0.00000000 </v>
   <v name="genvec1">      0.12500000       0.00000000       0.00000000 </v>
   <v name="genvec2">     -0.00000000       0.12500000       0.00000000 </v>
   <v name="genvec3">      0.00000000       0.00000000       1.00000000 </v>
   <v name="shift">      0.00000000       0.00000000       0.00000000 </v>
  </generation>
  <varray name="kpointlist" >
   <v>       0.00000000       0.00000000       0.00000000 </v>
   <v>       0.12500000       0.00000000       0.00000000 </v>
   <v>       0.25000000       0.00000000       0.00000000 </v>
   <v>       0.37500000       0.00000000       0.00000000 </v>
   <v>       0.50000000       0.00000000       0.00000000 </v>
   <v>       0.00000000       0.12500000       0.00000000 </v>
   <v>       0.12500000       0.12500000       0.00000000 </v>
   <v>       0.25000000       0.12500000       0.00000000 </v>
   <v>       0.37500000       0.12500000       0.00000000 </v>
   <v>       0.50000000       0.12500000       0.00000000 </v>
   <v>      -0.37500000       0.12500000       0.00000000 </v>
   <v>      -0.25000000       0.12500000       0.00000000 </v>
   <v>      -0.12500000       0.12500000       0.00000000 </v>
   <v>       0.00000000       0.25000000       0.00000000 </v>
   <v>       0.12500000       0.25000000       0.00000000 </v>
   <v>       0.25000000       0.25000000       0.00000000 </v>
   <v>       0.37500000       0.25000000       0.00000000 </v>
   <v>       0.50000000       0.25000000       0.00000000 </v>
   <v>      -0.37500000       0.25000000       0.00000000 </v>
   <v>      -0.25000000       0.25000000       0.00000000 </v>
   <v>      -0.12500000       0.25000000       0.00000000 </v>
   <v>      -0.00000000       0.37500000       0.00000000 </v>
   <v>       0.12500000       0.37500000       0.00000000 </v>
   <v>       0.25000000       0.37500000       0.00000000 </v>
   <v>       0.37500000       0.37500000       0.00000000 </v>
   <v>       0.50000000       0.37500000       0.00000000 </v>
   <v>      -0.37500000       0.37500000       0.00000000 </v>
   <v>      -0.25000000       0.37500000       0.00000000 </v>
   <v>      -0.12500000       0.37500000       0.00000000 </v>
   <v>       0.00000000       0.50000000       0.00000000 </v>
   <v>       0.12500000       0.50000000       0.00000000 </v>
   <v>       0.25000000       0.50000000       0.00000000 </v>
   <v>       0.37500000       0.50000000       0.00000000 </v>
   <v>       0.50000000       0.50000000       0.00000000 </v>
  </varray>
  <varray name="weights" >
   <v>       0.01562500 </v>
   <v>       0.03125000 </v>
   <v>       0.03125000 </v>
   <v>       0.03125000 </v>
   <v>       0.01562500 </v>
   <v>       0.03125000 </v>
   <v>       0.03125000 </v>
   <v>       0.03125000 </v>
   <v>       0.03125000 </v>
   <v>       0.03125000 </v>
   <v>       0.03125000 </v>
   <v>       0.03125000 </v>
   <v>       0.03125000 </v>
   <v>       0.03125000 </v>
   <v>       0.03125000 </v>
   <v>       0.03125000 </v>
   <v>       0.03125000 </v>
   <v>       0.03125000 </v>
   <v>       0.03125000 </v>
   <v>       0.03125000 </v>
   <v>       0.03125000 </v>
   <v>       0.03125000 </v>
   <v>       0.03125000 </v>
   <v>       0.03125000 </v>
   <v>       0.03125000 </v>
   <v>       0.03125000 </v>
   <v>       0.03125000 </v>
   <v>       0.03125000 </v>
   <v>       0.03125000 </v>
   <v>       0.01562500 </v>
   <v>       0.03125000 </v>
   <v>       0.03125000 </v>
   <v>       0.03125000 </v>
   <v>       0.01562500 </v>
  </varray>
 </kpoints>
 <parameters>
  <separator name="general" >
   <i type="string" name="SYSTEM">unknown system</i>
   <i type="logical" name="LCOMPAT"> F  </i>
  </separator>
  <separator name="electronic" >
   <i type="string" name="PREC">normal</i>
   <i name="ENMAX">    280.00000000</i>
   <i name="ENAUG">    373.43800000</i>
   <i name="EDIFF">      0.00010000</i>
   <i type="int" name="IALGO">    38</i>
   <i type="int" name="IWAVPR">    11</i>
   <i type="int" name="NBANDS">   120</i>
   <i name="NELECT">    159.00000000</i>
   <i type="int" name="TURBO">     0</i>
   <i type="int" name="IRESTART">     0</i>
   <i type="int" name="NREBOOT">     0</i>
   <i type="int" name="NMIN">     0</i>
   <i name="EREF">      0.00000000</i>
   <separator name="electronic smearing" >
    <i type="int" name="ISMEAR">     0</i>
    <i name="SIGMA">      0.20000000</i>
    <i name="KSPACING">      0.50000000</i>
    <i type="logical" name="KGAMMA"> T  </i>
   </separator>
   <separator name="electronic projectors" >
    <i type="logical" name="LREAL"> F  </i>
    <v name="ROPT">      0.00000000      0.00000000      0.00000000      0.00000000</v>
    <i type="int" name="LMAXPAW">  -100</i>
    <i type="int" name="LMAXMIX">     2</i>
    <i type="logical" name="NLSPLINE"> F  </i>
   </separator>
   <separator name="electronic startup" >
    <i type="int" name="ISTART">     0</i>
    <i type="int" name="ICHARG">     2</i>
    <i type="int" name="INIWAV">     1</i>
   </separator>
   <separator name="electronic spin" >
    <i type="int" name="ISPIN">     1</i>
    <i type="logical" name="LNONCOLLINEAR"> F  </i>
    <v name="MAGMOM">      1.00000000      1.00000000      1.00000000      1.00000000      1.00000000      1.00000000      1.00000000      1.00000000      1.00000000      1.00000000      1.00000000      1.00000000      1.00000000      1.00000000      1.00000000      1.00000000      1.00000000      1.00000000      1.00000000      1.00000000
      1.00000000      1.00000000      1.00000000      1.00000000      1.00000000      1.00000000      1.00000000</v>
    <i name="NUPDOWN">     -1.00000000</i>
    <i type="logical" name="LSORBIT"> F  </i>
    <v name="SAXIS">      0.00000000      0.00000000      1.00000000</v>
    <i type="logical" name="LSPIRAL"> F  </i>
    <v name="QSPIRAL">      0.00000000      0.00000000      0.00000000</v>
    <i type="logical" name="LZEROZ"> F  </i>
   </separator>
   <separator name="electronic exchange-correlation" >
    <i type="logical" name="LASPH"> F  </i>
    <i type="logical" name="LMETAGGA"> F  </i>
   </separator>
   <separator name="electronic convergence" >
    <i type="int" name="NELM">    60</i>
    <i type="int" name="NELMDL">    -5</i>
    <i type="int" name="NELMIN">     2</i>
    <i name="ENINI">    280.00000000</i>
    <separator name="electronic convergence detail" >
     <i type="logical" name="LDIAG"> T  </i>
     <i type="logical" name="LSUBROT"> F  </i>
     <i name="WEIMIN">      0.00100000</i>
     <i name="EBREAK">      0.00000021</i>
     <i name="DEPER">      0.30000000</i>
     <i type="int" name="NRMM">     4</i>
     <i name="TIME">      0.40000000</i>
    </separator>
   </separator>
   <separator name="electronic mixer" >
    <i name="AMIX">      0.40000000</i>
    <i name="BMIX">      1.00000000</i>
    <i name="AMIN">      0.10000000</i>
    <i name="AMIX_MAG">      1.60000000</i>
    <i name="BMIX_MAG">      1.00000000</i>
    <separator name="electronic mixer details" >
     <i type="int" name="IMIX">     4</i>
     <i type="logical" name="MIXFIRST"> F  </i>
     <i type="int" name="MAXMIX">   -45</i>
     <i name="WC">    100.00000000</i>
     <i type="int" name="INIMIX">     1</i>
     <i type="int" name="MIXPRE">     1</i>
     <i type="int" name="MREMOVE">     5</i>
    </separator>
   </separator>
   <separator name="electronic dipolcorrection" >
    <i type="logical" name="LDIPOL"> F  </i>
    <i type="logical" name="LMONO"> F  </i>
    <i type="int" name="IDIPOL">     0</i>
    <i name="EPSILON">      1.00000000</i>
    <v name="DIPOL">   -100.00000000   -100.00000000   -100.00000000</v>
    <i name="EFIELD">      0.00000000</i>
   </separator>
  </separator>
  <separator name="grids" >
   <i type="int" name="NGX">    42</i>
   <i type="int" name="NGY">    42</i>
   <i type="int" name="NGZ">   126</i>
   <i type="int" name="NGXF">    84</i>
   <i type="int" name="NGYF">    84</i>
   <i type="int" name="NGZF">   252</i>
   <i type="logical" name="ADDGRID"> F  </i>
  </separator>
  <separator name="ionic" >
   <i type="int" name="NSW">   100</i>
   <i type="int" name="IBRION">     1</i>
   <i type="int" name="ISIF">     3</i>
   <i name="PSTRESS">      0.00000000</i>
   <i name="EDIFFG">      0.00100000</i>
   <i type="int" name="NFREE">     0</i>
   <i name="POTIM">      0.50000000</i>
   <i name="SMASS">     -3.00000000</i>
   <i name="SCALEE">      1.00000000</i>
  </separator>
  <separator name="ionic md" >
   <i name="TEBEG">      0.00010000</i>
   <i name="TEEND">      0.00010000</i>
   <i type="int" name="NBLOCK">     1</i>
   <i type="int" name="KBLOCK">   100</i>
   <i type="int" name="NPACO">   256</i>
   <i name="APACO">     16.00000000</i>
  </separator>
  <separator name="symmetry" >
   <i type="int" name="ISYM">     0</i>
   <i name="SYMPREC">      0.00000001</i>
  </separator>
  <separator name="dos" >
   <i type="logical" name="LORBIT"> F  </i>
   <v name="RWIGS">     -1.00000000     -1.00000000     -1.00000000     -1.00000000</v>
   <i type="int" name="NEDOS">   301</i>
   <i name="EMIN">     10.00000000</i>
   <i name="EMAX">    -10.00000000</i>
   <i name="EFERMI">      0.00000000</i>
  </separator>
  <separator name="writing" >
   <i type="int" name="NWRITE">     2</i>
   <i type="logical" name="LWAVE"> F  </i>
   <i type="logical" name="LCHARG"> F  </i>
   <i type="logical" name="LPARD"> F  </i>
   <i type="logical" name="LVTOT"> F  </i>
   <i type="logical" name="LVHAR"> F  </i>
   <i type="logical" name="LELF"> F  </i>
   <i type="logical" name="LOPTICS"> F  </i>
   <v name="STM">      0.00000000      0.00000000      0.00000000      0.00000000      0.00000000      0.00000000      0.00000000</v>
  </separator>
  <separator name="performance" >
   <i type="int" name="NPAR">    40</i>
   <i type="int" name="NSIM">     4</i>
   <i type="int" name="NBLK">    -1</i>
   <i type="logical" name="LPLANE"> F  </i>
   <i type="logical" name="LSCALAPACK"> T  </i>
   <i type="logical" name="LSCAAWARE"> F  </i>
   <i type="logical" name="LSCALU"> F  </i>
   <i type="logical" name="LASYNC"> F  </i>
   <i type="logical" name="LORBITALREAL"> F  </i>
  </separator>
  <separator name="miscellaneous" >
   <i type="int" name="IDIOT">     3</i>
   <i type="logical" name="LMUSIC"> F  </i>
   <v name="POMASS">     50.94100000     95.94000000    183.85000000     32.06600000</v>
   <v name="DARWINR">      0.00000000      0.00000000      0.00000000      0.00000000</v>
   <v name="DARWINV">      1.00000000      1.00000000      1.00000000      1.00000000</v>
   <i type="logical" name="LCORR"> T  </i>
  </separator>
  <i type="logical" name="GGA_COMPAT"> T  </i>
  <i type="logical" name="LBERRY"> F  </i>
  <i type="int" name="ICORELEVEL">     0</i>
  <i type="logical" name="LDAU"> F  </i>
  <i type="int" name="I_CONSTRAINED_M">     0</i>
  <separator name="electronic exchange-correlation" >
   <i type="string" name="GGA">--</i>
   <i type="int" name="VOSKOWN">     0</i>
   <i type="logical" name="LHFCALC"> F  </i>
   <i type="string" name="PRECFOCK"></i>
   <i type="logical" name="LSYMGRAD"> F  </i>
   <i type="logical" name="LHFONE"> F  </i>
   <i type="logical" name="LRHFCALC"> F  </i>
   <i type="logical" name="LTHOMAS"> F  </i>
   <i type="logical" name="LMODELHF"> F  </i>
   <i name="ENCUT4O">     -1.00000000</i>
   <i type="int" name="EXXOEP">     0</i>
   <i type="int" name="FOURORBIT">     0</i>
   <i name="AEXX">      0.00000000</i>
   <i name="HFALPHA">      0.00000000</i>
   <i name="MCALPHA">      0.00000000</i>
   <i name="ALDAX">      1.00000000</i>
   <i name="AGGAX">      1.00000000</i>
   <i name="ALDAC">      1.00000000</i>
   <i name="AGGAC">      1.00000000</i>
   <i type="int" name="NKREDX">     1</i>
   <i type="int" name="NKREDY">     1</i>
   <i type="int" name="NKREDZ">     1</i>
   <i type="logical" name="SHIFTRED"> F  </i>
   <i type="logical" name="ODDONLY"> F  </i>
   <i type="logical" name="EVENONLY"> F  </i>
   <i type="int" name="LMAXFOCK">     0</i>
   <i type="int" name="NMAXFOCKAE">     0</i>
   <i type="logical" name="LFOCKAEDFT"> F  </i>
   <i name="HFSCREEN">      0.00000000</i>
   <i name="HFSCREENC">      0.00000000</i>
   <i type="int" name="NBANDSGWLOW">     0</i>
  </separator>
  <separator name="vdW DFT" >
   <i type="logical" name="LUSE_VDW"> F  </i>
   <i name="Zab_VDW">     -0.84910000</i>
   <i name="PARAM1">      0.12340000</i>
   <i name="PARAM2">      1.00000000</i>
   <i name="PARAM3">      0.00000000</i>
  </separator>
  <separator name="model GW" >
   <i type="int" name="MODEL_GW">     0</i>
   <i name="MODEL_EPS0">     58.26239943</i>
   <i name="MODEL_ALPHA">      1.00000000</i>
  </separator>
  <separator name="linear response parameters" >
   <i type="logical" name="LEPSILON"> F  </i>
   <i type="logical" name="LRPA"> F  </i>
   <i type="logical" name="LNABLA"> F  </i>
   <i type="logical" name="LVEL"> F  </i>
   <i type="int" name="KINTER">     0</i>
   <i name="CSHIFT">      0.10000000</i>
   <i name="OMEGAMAX">     -1.00000000</i>
   <i name="DEG_THRESHOLD">      0.00200000</i>
  </separator>
  <separator name="orbital magnetization" >
   <i type="logical" name="NUCIND"> F  </i>
   <v name="MAGPOS">      0.00000000      0.00000000      0.00000000</v>
   <i type="logical" name="LNICSALL"> T  </i>
   <i type="logical" name="ORBITALMAG"> F  </i>
   <i type="logical" name="LMAGBLOCH"> F  </i>
   <i type="logical" name="LCHIMAG"> F  </i>
   <i type="logical" name="LGAUGE"> T  </i>
   <i type="int" name="MAGATOM">     0</i>
   <v name="MAGDIPOL">      0.00000000      0.00000000      0.00000000</v>
   <v name="AVECCONST">      0.00000000      0.00000000      0.00000000</v>
  </separator>
  <separator name="response functions" >
   <i type="logical" name="LADDER"> F  </i>
   <i type="logical" name="LFXC"> F  </i>
   <i type="logical" name="LHARTREE"> T  </i>
   <i type="int" name="IBSE">     0</i>
   <v type="int" name="KPOINT">    -1     0     0     0</v>
   <i type="logical" name="LTCTE"> F  </i>
   <i type="logical" name="LTETE"> F  </i>
   <i type="logical" name="LTRIPLET"> F  </i>
   <i type="logical" name="LFXCEPS"> F  </i>
   <i type="logical" name="LFXHEG"> F  </i>
   <i type="int" name="NATURALO">     0</i>
   <i type="logical" name="L2ORDER"> F  </i>
   <i type="logical" name="LUSEW"> F  </i>
   <i name="ENCUTGW">     -2.00000000</i>
   <i name="ENCUTGWSOFT">     -2.00000000</i>
   <i name="ENCUTLF">     -1.00000000</i>
   <i type="int" name="LMAXMP2">    -1</i>
   <i name="SCISSOR">      0.00000000</i>
   <i type="int" name="NOMEGA">     0</i>
   <i type="int" name="NOMEGAR">     0</i>
   <i type="int" name="NBANDSGW">    -1</i>
   <i type="int" name="NBANDSO">    -1</i>
   <i type="int" name="NBANDSV">    -1</i>
   <i type="int" name="NELM">     1</i>
   <i type="int" name="NELMHF">     1</i>
   <i type="int" name="DIM">     3</i>
   <i type="int" name="ANTIRES">     0</i>
   <i name="OMEGAMAX">    -30.00000000</i>
   <i name="OMEGAMIN">    -30.00000000</i>
   <i name="OMEGATL">   -200.00000000</i>
   <i type="int" name="OMEGAGRID">     0</i>
   <i name="CSHIFT">     -0.10000000</i>
   <i type="logical" name="SELFENERGY"> F  </i>
   <i type="logical" name="LSPECTRAL"> F  </i>
   <i type="logical" name="LSPECTRALGW"> F  </i>
   <i type="logical" name="LSINGLES"> F  </i>
   <i type="logical" name="LFERMIGW"> F  </i>
   <i type="logical" name="ODDONLYGW"> F  </i>
   <i type="logical" name="EVENONLYGW"> F  </i>
   <i type="int" name="NKREDLFX">     1</i>
   <i type="int" name="NKREDLFY">     1</i>
   <i type="int" name="NKREDLFZ">     1</i>
   <i type="int" name="MAXMEM">  1800</i>
   <i type="int" name="TELESCOPE">     0</i>
   <i type="int" name="TAUPAR">     1</i>
   <i type="int" name="OMEGAPAR">    -1</i>
   <i name="LAMBDA">      1.00000000</i>
  </separator>
  <separator name="External order field" >
   <i name="OFIELD_KAPPA">      0.00000000</i>
   <v name="OFIELD_K">      0.00000000      0.00000000      0.00000000</v>
   <i name="OFIELD_Q6_NEAR">      0.00000000</i>
   <i name="OFIELD_Q6_FAR">      0.00000000</i>
   <i name="OFIELD_A">      0.00000000</i>
  </separator>
 </parameters>
 <atominfo>
  <atoms>      27 </atoms>
  <types>       4 </types>
  <array name="atoms" >
   <dimension dim="1">ion</dimension>
   <field type="string">element</field>
   <field type="int">atomtype</field>
   <set>
    <rc><c>V </c><c>   1</c></rc>
    <rc><c>V </c><c>   1</c></rc>
    <rc><c>V </c><c>   1</c></rc>
    <rc><c>Mo</c><c>   2</c></rc>
    <rc><c>Mo</c><c>   2</c></rc>
    <rc><c>Mo</c><c>   2</c></rc>
    <rc><c>W </c><c>   3</c></rc>
    <rc><c>W </c><c>   3</c></rc>
    <rc><c>W </c><c>   3</c></rc>
    <rc><c>S </c><c>   4</c></rc>
    <rc><c>S </c><c>   4</c></rc>
    <rc><c>S </c><c>   4</c></rc>
    <rc><c>S </c><c>   4</c></rc>
    <rc><c>S </c><c>   4</c></rc>
    <rc><c>S </c><c>   4</c></rc>
    <rc><c>S </c><c>   4</c></rc>
    <rc><c>S </c><c>   4</c></rc>
    <rc><c>S </c><c>   4</c></rc>
    <rc><c>S </c><c>   4</c></rc>
    <rc><c>S </c><c>   4</c></rc>
    <rc><c>S </c><c>   4</c></rc>
    <rc><c>S </c><c>   4</c></rc>
    <rc><c>S </c><c>   4</c></rc>
    <rc><c>S </c><c>   4</c></rc>
    <rc><c>S </c><c>   4</c></rc>
    <rc><c>S </c><c>   4</c></rc>
    <rc><c>S </c><c>   4</c></rc>
   </set>
  </array>
  <array name="atomtypes" >
   <dimension dim="1">type</dimension>
   <field type="int">atomspertype</field>
   <field type="string">element</field>
   <field>mass</field>
   <field>valence</field>
   <field type="string">pseudopotential</field>
   <set>
    <rc><c>   3</c><c>V </c><c>     50.94100000</c><c>      5.00000000</c><c> PAW_PBE V 08Apr2002                    </c></rc>
    <rc><c>   3</c><c>Mo</c><c>     95.94000000</c><c>      6.00000000</c><c> PAW_PBE Mo 08Apr2002                   </c></rc>
    <rc><c>   3</c><c>W </c><c>    183.85000000</c><c>      6.00000000</c><c> PAW_PBE W 08Apr2002                    </c></rc>
    <rc><c>  18</c><c>S </c><c>     32.06600000</c><c>      6.00000000</c><c>  PAW_PBE S 17Jan2003                   </c></rc>
   </set>
  </array>
 </atominfo>
 <structure name="initialpos" >
  <crystal>
   <varray name="basis" >
    <v>       8.66999996       5.03999989       0.00000000 </v>
    <v>      -8.66999982       5.04000013       0.00000000 </v>
    <v>       0.00000000       0.00000000      30.00000000 </v>
   </varray>
   <i name="volume">   2621.80797419 </i>
   <varray name="rec_basis" >
    <v>       0.05767013       0.09920635       0.00000000 </v>
    <v>      -0.05767013       0.09920635       0.00000000 </v>
    <v>       0.00000000       0.00000000       0.03333333 </v>
   </varray>
  </crystal>
  <varray name="positions" >
   <v>       0.66666669       0.33333334       0.00000000 </v>
   <v>       0.66666669       0.66666669       0.00000000 </v>
   <v>       0.33333334       0.66666669       0.00000000 </v>
   <v>       0.66666669       0.00000000       0.00000000 </v>
   <v>       0.00000000       0.00000000       0.00000000 </v>
   <v>       0.00000000       0.66666669       0.00000000 </v>
   <v>       1.00000000       0.33333334       0.00000000 </v>
   <v>       0.33333334       0.00000000       0.00000000 </v>
   <v>       0.33333334       0.33333334       0.00000000 </v>
   <v>       0.11068511       0.22244981       0.95539999 </v>
   <v>       0.22244981       0.11068511       0.04460000 </v>
   <v>       0.11068511       0.55578315       0.95539999 </v>
   <v>       0.22244981       0.44401845       0.04460000 </v>
   <v>       0.11068511       0.88911647       0.95539999 </v>
   <v>       0.22244981       0.77735180       0.04460000 </v>
   <v>       0.44401845       0.22244981       0.95539999 </v>
   <v>       0.55578315       0.11068511       0.04460000 </v>
   <v>       0.44401845       0.55578315       0.95539999 </v>
   <v>       0.55578315       0.44401845       0.04460000 </v>
   <v>       0.44401845       0.88911647       0.95539999 </v>
   <v>       0.55578315       0.77735180       0.04460000 </v>
   <v>       0.77735180       0.22244981       0.95539999 </v>
   <v>       0.88911647       0.11068511       0.04460000 </v>
   <v>       0.77735180       0.55578315       0.95539999 </v>
   <v>       0.88911647       0.44401845       0.04460000 </v>
   <v>       0.77735180       0.88911647       0.95539999 </v>
   <v>       0.88911647       0.77735180       0.04460000 </v>
  </varray>
 </structure>
 <calculation>
  <scstep>
   <time name="dav">   23.15   23.21</time>
   <time name="total">   23.20   23.26</time>
   <energy>
    <i name="alphaZ">     81.65567618 </i>
    <i name="ewald">  41890.25210216 </i>
    <i name="hartreedc"> -47722.88705943 </i>
    <i name="XCdc">   -242.92852162 </i>
    <i name="pawpsdc">   3467.42045192 </i>
    <i name="pawaedc">  -2871.19716117 </i>
    <i name="eentropy">     -0.53683129 </i>
    <i name="bandstr">   -238.78572896 </i>
    <i name="atom">   6761.44252427 </i>
    <i name="e_fr_energy">   1124.43545206 </i>
    <i name="e_wo_entrp">   1124.97228335 </i>
    <i name="e_0_energy">   1124.70386771 </i>
   </energy>
  </scstep>
  <scstep>
   <time name="dav">   29.80   29.87</time>
   <time name="total">   29.80   29.88</time>
   <energy>
    <i name="e_fr_energy">     -2.75252614 </i>
    <i name="e_wo_entrp">     -2.57375257 </i>
    <i name="e_0_energy">     -2.66313936 </i>
   </energy>
  </scstep>
  <scstep>
   <time name="dav">   29.19   29.27</time>
   <time name="total">   29.20   29.27</time>
   <energy>
    <i name="e_fr_energy">   -199.66005839 </i>
    <i name="e_wo_entrp">   -199.38924260 </i>
    <i name="e_0_energy">   -199.52465050 </i>
   </energy>
  </scstep>
  <scstep>
   <time name="dav">   31.80   31.88</time>
   <time name="total">   31.80   31.88</time>
   <energy>
    <i name="e_fr_energy">   -208.96005098 </i>
    <i name="e_wo_entrp">   -208.65083763 </i>
    <i name="e_0_energy">   -208.80544430 </i>
   </energy>
  </scstep>
  <scstep>
   <time name="dav">   30.15   30.22</time>
   <time name="total">   30.62   30.70</time>
   <energy>
    <i name="e_fr_energy">   -209.30177076 </i>
    <i name="e_wo_entrp">   -208.99542231 </i>
    <i name="e_0_energy">   -209.14859653 </i>
   </energy>
  </scstep>
  <scstep>
   <time name="dav">   33.17   33.25</time>
   <time name="total">   33.68   33.77</time>
   <energy>
    <i name="e_fr_energy">   -236.70358592 </i>
    <i name="e_wo_entrp">   -236.42097435 </i>
    <i name="e_0_energy">   -236.56228014 </i>
   </energy>
  </scstep>
  <scstep>
   <time name="dav">   33.68   33.76</time>
   <time name="total">   34.18   34.27</time>
   <energy>
    <i name="e_fr_energy">   -196.69671203 </i>
    <i name="e_wo_entrp">   -196.37510951 </i>
    <i name="e_0_energy">   -196.53591077 </i>
   </energy>
  </scstep>
  <scstep>
   <time name="dav">   30.95   31.03</time>
   <time name="total">   31.47   31.56</time>
   <energy>
    <i name="e_fr_energy">   -189.93500387 </i>
    <i name="e_wo_entrp">   -189.65846543 </i>
    <i name="e_0_energy">   -189.79673465 </i>
   </energy>
  </scstep>
  <scstep>
   <time name="dav">   31.29   31.37</time>
   <time name="total">   31.81   31.90</time>
   <energy>
    <i name="e_fr_energy">   -188.23759406 </i>
    <i name="e_wo_entrp">   -187.90692346 </i>
    <i name="e_0_energy">   -188.07225876 </i>
   </energy>
  </scstep>
  <scstep>
   <time name="dav">   34.26   34.34</time>
   <time name="total">   34.80   34.89</time>
   <energy>
    <i name="e_fr_energy">   -187.04986727 </i>
    <i name="e_wo_entrp">   -186.70761638 </i>
    <i name="e_0_energy">   -186.87874183 </i>
   </energy>
  </scstep>
  <scstep>
   <time name="dav">   34.99   35.08</time>
   <time name="total">   35.53   35.62</time>
   <energy>
    <i name="e_fr_energy">   -187.02677352 </i>
    <i name="e_wo_entrp">   -186.67464675 </i>
    <i name="e_0_energy">   -186.85071013 </i>
   </energy>
  </scstep>
  <scstep>
   <time name="dav">   33.87   33.95</time>
   <time name="total">   34.41   34.50</time>
   <energy>
    <i name="e_fr_energy">   -187.17314414 </i>
    <i name="e_wo_entrp">   -186.83912349 </i>
    <i name="e_0_energy">   -187.00613381 </i>
   </energy>
  </scstep>
  <scstep>
   <time name="dav">   33.20   33.28</time>
   <time name="total">   33.73   33.82</time>
   <energy>
    <i name="e_fr_energy">   -186.92207095 </i>
    <i name="e_wo_entrp">   -186.58865265 </i>
    <i name="e_0_energy">   -186.75536180 </i>
   </energy>
  </scstep>
  <scstep>
   <time name="dav">   34.25   34.33</time>
   <time name="total">   34.79   34.88</time>
   <energy>
    <i name="e_fr_energy">   -186.87563955 </i>
    <i name="e_wo_entrp">   -186.52959451 </i>
    <i name="e_0_energy">   -186.70261703 </i>
   </energy>
  </scstep>
  <scstep>
   <time name="dav">   33.61   33.69</time>
   <time name="total">   34.15   34.24</time>
   <energy>
    <i name="e_fr_energy">   -186.86965480 </i>
    <i name="e_wo_entrp">   -186.52538199 </i>
    <i name="e_0_energy">   -186.69751840 </i>
   </energy>
  </scstep>
  <scstep>
   <time name="dav">   34.33   34.42</time>
   <time name="total">   34.87   34.96</time>
   <energy>
    <i name="e_fr_energy">   -186.87019819 </i>
    <i name="e_wo_entrp">   -186.52659213 </i>
    <i name="e_0_energy">   -186.69839516 </i>
   </energy>
  </scstep>
  <scstep>
   <time name="dav">   33.23   33.31</time>
   <time name="total">   33.76   33.85</time>
   <energy>
    <i name="e_fr_energy">   -186.86827065 </i>
    <i name="e_wo_entrp">   -186.52538821 </i>
    <i name="e_0_energy">   -186.69682943 </i>
   </energy>
  </scstep>
  <scstep>
   <time name="dav">   30.52   30.59</time>
   <time name="total">   31.06   31.14</time>
   <energy>
    <i name="e_fr_energy">   -186.86769939 </i>
    <i name="e_wo_entrp">   -186.52440789 </i>
    <i name="e_0_energy">   -186.69605364 </i>
   </energy>
  </scstep>
  <scstep>
   <time name="dav">   25.55   25.61</time>
   <time name="total">   26.09   26.16</time>
   <energy>
    <i name="e_fr_energy">   -186.86831278 </i>
    <i name="e_wo_entrp">   -186.52519431 </i>
    <i name="e_0_energy">   -186.69675354 </i>
   </energy>
  </scstep>
  <scstep>
   <time name="dav">   23.18   23.23</time>
   <time name="total">   23.71   23.78</time>
   <energy>
    <i name="e_fr_energy">   -186.86937589 </i>
    <i name="e_wo_entrp">   -186.52620526 </i>
    <i name="e_0_energy">   -186.69779058 </i>
   </energy>
  </scstep>
  <scstep>
   <time name="dav">   20.17   20.22</time>
   <time name="total">   20.71   20.76</time>
   <energy>
    <i name="e_fr_energy">   -186.86991448 </i>
    <i name="e_wo_entrp">   -186.52674045 </i>
    <i name="e_0_energy">   -186.69832747 </i>
   </energy>
  </scstep>
  <scstep>
   <time name="dav">   21.55   21.60</time>
   <time name="total">   22.08   22.14</time>
   <energy>
    <i name="e_fr_energy">   -186.87124561 </i>
    <i name="e_wo_entrp">   -186.52819770 </i>
    <i name="e_0_energy">   -186.69972166 </i>
   </energy>
  </scstep>
  <scstep>
   <time name="dav">   20.27   20.32</time>
   <time name="total">   20.81   20.87</time>
   <energy>
    <i name="e_fr_energy">   -186.87187811 </i>
    <i name="e_wo_entrp">   -186.52877905 </i>
    <i name="e_0_energy">   -186.70032858 </i>
   </energy>
  </scstep>
  <scstep>
   <time name="dav">   17.66   17.70</time>
   <time name="total">   18.20   18.25</time>
   <energy>
    <i name="e_fr_energy">   -186.87214174 </i>
    <i name="e_wo_entrp">   -186.52901951 </i>
    <i name="e_0_energy">   -186.70058063 </i>
   </energy>
  </scstep>
  <scstep>
   <time name="dav">   17.82   17.87</time>
   <time name="total">   18.36   18.41</time>
   <energy>
    <i name="e_fr_energy">   -186.87245972 </i>
    <i name="e_wo_entrp">   -186.52932258 </i>
    <i name="e_0_energy">   -186.70089115 </i>
   </energy>
  </scstep>
  <scstep>
   <time name="dav">   20.25   20.30</time>
   <time name="total">   20.79   20.85</time>
   <energy>
    <i name="e_fr_energy">   -186.87270512 </i>
    <i name="e_wo_entrp">   -186.52958149 </i>
    <i name="e_0_energy">   -186.70114331 </i>
   </energy>
  </scstep>
  <scstep>
   <time name="dav">   21.28   21.33</time>
   <time name="total">   21.32   21.37</time>
   <energy>
    <i name="alphaZ">     81.65567618 </i>
    <i name="ewald">  41890.25210216 </i>
    <i name="hartreedc"> -47833.02479625 </i>
    <i name="XCdc">   -231.60487147 </i>
    <i name="pawpsdc">   4192.12369021 </i>
    <i name="pawaedc">  -3610.13642199 </i>
    <i name="eentropy">     -0.34311790 </i>
    <i name="bandstr">  -1437.23757676 </i>
    <i name="atom">   6761.44252427 </i>
    <i name="e_fr_energy">   -186.87279155 </i>
    <i name="e_wo_entrp">   -186.52967364 </i>
    <i name="e_0_energy">   -186.70123259 </i>
   </energy>
  </scstep>
  <structure>
   <crystal>
    <varray name="basis" >
     <v>       8.66999996       5.03999989       0.00000000 </v>
     <v>      -8.66999982       5.04000013       0.00000000 </v>
     <v>       0.00000000       0.00000000      30.00000000 </v>
    </varray>
    <i name="volume">   2621.80797419 </i>
    <varray name="rec_basis" >
     <v>       0.05767013       0.09920635       0.00000000 </v>
     <v>      -0.05767013       0.09920635       0.00000000 </v>
     <v>       0.00000000       0.00000000       0.03333333 </v>
    </varray>
   </crystal>
   <varray name="positions" >
    <v>       0.66666669       0.33333334       0.00000000 </v>
    <v>       0.66666669       0.66666669       0.00000000 </v>
    <v>       0.33333334       0.66666669       0.00000000 </v>
    <v>       0.66666669       0.00000000       0.00000000 </v>
    <v>       0.00000000       0.00000000       0.00000000 </v>
    <v>       0.00000000       0.66666669       0.00000000 </v>
    <v>       1.00000000       0.33333334       0.00000000 </v>
    <v>       0.33333334       0.00000000       0.00000000 </v>
    <v>       0.33333334       0.33333334       0.00000000 </v>
    <v>       0.11068511       0.22244981       0.95539999 </v>
    <v>       0.22244981       0.11068511       0.04460000 </v>
    <v>       0.11068511       0.55578315       0.95539999 </v>
    <v>       0.22244981       0.44401845       0.04460000 </v>
    <v>       0.11068511       0.88911647       0.95539999 </v>
    <v>       0.22244981       0.77735180       0.04460000 </v>
    <v>       0.44401845       0.22244981       0.95539999 </v>
    <v>       0.55578315       0.11068511       0.04460000 </v>
    <v>       0.44401845       0.55578315       0.95539999 </v>
    <v>       0.55578315       0.44401845       0.04460000 </v>
    <v>       0.44401845       0.88911647       0.95539999 </v>
    <v>       0.55578315       0.77735180       0.04460000 </v>
    <v>       0.77735180       0.22244981       0.95539999 </v>
    <v>       0.88911647       0.11068511       0.04460000 </v>
    <v>       0.77735180       0.55578315       0.95539999 </v>
    <v>       0.88911647       0.44401845       0.04460000 </v>
    <v>       0.77735180       0.88911647       0.95539999 </v>
    <v>       0.88911647       0.77735180       0.04460000 </v>
   </varray>
  </structure>
  <varray name="forces" >
   <v>       0.12979769       0.15117195      -0.08908475 </v>
   <v>      -0.00000643       0.39559621       0.00000013 </v>
   <v>      -0.12981130       0.15120462       0.08908572 </v>
   <v>       0.29379342       0.10170046       0.06088638 </v>
   <v>       0.00000501      -0.28829709      -0.00000449 </v>
   <v>      -0.29379324       0.10171932      -0.06088195 </v>
   <v>      -0.05175631      -0.30813931      -0.14477451 </v>
   <v>       0.05177124      -0.30814609       0.14475946 </v>
   <v>      -0.00000217      -0.14528852      -0.00000770 </v>
   <v>       0.03888725       0.12354903      -2.91037344 </v>
   <v>      -0.03888430       0.12356606       2.91037227 </v>
   <v>       0.61713737       0.53634769      -2.10247631 </v>
   <v>      -0.46910467       0.61217021       2.17622993 </v>
   <v>       0.18545652       0.14906570      -2.89191304 </v>
   <v>       0.68239994       0.18057059       2.15917731 </v>
   <v>       0.46912197       0.61217516      -2.17621387 </v>
   <v>      -0.61712448       0.53635548       2.10245441 </v>
   <v>      -0.23767824       0.51786537      -1.39467350 </v>
   <v>       0.23768357       0.51785369       1.39469362 </v>
   <v>       0.37875421      -0.68090483      -2.14499445 </v>
   <v>       0.30910638      -0.67586421       1.42681379 </v>
   <v>      -0.68237655       0.18054291      -2.15914783 </v>
   <v>      -0.18547158       0.14903117       2.89187659 </v>
   <v>      -0.30910718      -0.67589685      -1.42685584 </v>
   <v>      -0.37875255      -0.68095154       2.14502621 </v>
   <v>       0.52448472      -0.68848746      -2.17865026 </v>
   <v>      -0.52453027      -0.68850973       2.17867610 </v>
  </varray>
  <varray name="stress" >
   <v>       7.29952171      -0.00000724      -1.60724062 </v>
   <v>      -0.00000723       4.46050266      -0.00001806 </v>
   <v>      -1.60724068      -0.00001817      30.28848834 </v>
  </varray>
  <energy>
   <i name="e_fr_energy">   -186.87279155 </i>
   <i name="e_wo_entrp">   -186.70123259 </i>
   <i name="e_0_energy">     -0.34311790 </i>
  </energy>
  <time name="totalsc">  819.69  821.88</time>
 </calculation>
 <calculation>
  <scstep>
   <time name="dav">   23.03   23.09</time>
   <time name="total">   23.58   23.64</time>
   <energy>
    <i name="alphaZ">     78.92006157 </i>
    <i name="ewald">  39379.55387170 </i>
    <i name="hartreedc"> -45337.02907388 </i>
    <i name="XCdc">   -239.06094494 </i>
    <i name="pawpsdc">   4192.09694263 </i>
    <i name="pawaedc">  -3610.10999505 </i>
    <i name="eentropy">     -0.28492413 </i>
    <i name="bandstr">  -1413.02192536 </i>
    <i name="atom">   6761.44252427 </i>
    <i name="e_fr_energy">   -187.49346320 </i>
    <i name="e_wo_entrp">   -187.20853906 </i>
    <i name="e_0_energy">   -187.35100113 </i>
   </energy>
  </scstep>
  <scstep>
   <time name="dav">   32.11   32.18</time>
   <time name="total">   32.64   32.73</time>
   <energy>
    <i name="e_fr_energy">   -189.30172713 </i>
    <i name="e_wo_entrp">   -188.97971178 </i>
    <i name="e_0_energy">   -189.14071946 </i>
   </energy>
  </scstep>
  <scstep>
   <time name="dav">   32.28   32.36</time>
   <time name="total">   32.84   32.92</time>
   <energy>
    <i name="e_fr_energy">   -189.41402668 </i>
    <i name="e_wo_entrp">   -189.13682041 </i>
    <i name="e_0_energy">   -189.27542355 </i>
   </energy>
  </scstep>
  <scstep>
   <time name="dav">   31.87   31.94</time>
   <time name="total">   32.41   32.50</time>
   <energy>
    <i name="e_fr_energy">   -188.76214572 </i>
    <i name="e_wo_entrp">   -188.47870073 </i>
    <i name="e_0_energy">   -188.62042323 </i>
   </energy>
  </scstep>
  <scstep>
   <time name="dav">   29.73   29.81</time>
   <time name="total">   30.28   30.36</time>
   <energy>
    <i name="e_fr_energy">   -188.87634230 </i>
    <i name="e_wo_entrp">   -188.58439504 </i>
    <i name="e_0_energy">   -188.73036867 </i>
   </energy>
  </scstep>
  <scstep>
   <time name="dav">   32.82   32.90</time>
   <time name="total">   33.36   33.45</time>
   <energy>
    <i name="e_fr_energy">   -188.74482352 </i>
    <i name="e_wo_entrp">   -188.45942322 </i>
    <i name="e_0_energy">   -188.60212337 </i>
   </energy>
  </scstep>
  <scstep>
   <time name="dav">   30.04   30.11</time>
   <time name="total">   30.59   30.67</time>
   <energy>
    <i name="e_fr_energy">   -188.68168877 </i>
    <i name="e_wo_entrp">   -188.39737898 </i>
    <i name="e_0_energy">   -188.53953387 </i>
   </energy>
  </scstep>
  <scstep>
   <time name="dav">   30.32   30.39</time>
   <time name="total">   30.87   30.95</time>
   <energy>
    <i name="e_fr_energy">   -188.66586908 </i>
    <i name="e_wo_entrp">   -188.38257492 </i>
    <i name="e_0_energy">   -188.52422200 </i>
   </energy>
  </scstep>
  <scstep>
   <time name="dav">   32.06   32.14</time>
   <time name="total">   32.62   32.70</time>
   <energy>
    <i name="e_fr_energy">   -188.66104808 </i>
    <i name="e_wo_entrp">   -188.37832013 </i>
    <i name="e_0_energy">   -188.51968411 </i>
   </energy>
  </scstep>
  <scstep>
   <time name="dav">   33.61   33.69</time>
   <time name="total">   34.16   34.25</time>
   <energy>
    <i name="e_fr_energy">   -188.66038065 </i>
    <i name="e_wo_entrp">   -188.37783417 </i>
    <i name="e_0_energy">   -188.51910741 </i>
   </energy>
  </scstep>
  <scstep>
   <time name="dav">   33.96   34.04</time>
   <time name="total">   34.51   34.60</time>
   <energy>
    <i name="e_fr_energy">   -188.66039004 </i>
    <i name="e_wo_entrp">   -188.37857106 </i>
    <i name="e_0_energy">   -188.51948055 </i>
   </energy>
  </scstep>
  <scstep>
   <time name="dav">   29.64   29.71</time>
   <time name="total">   30.19   30.27</time>
   <energy>
    <i name="e_fr_energy">   -188.66026579 </i>
    <i name="e_wo_entrp">   -188.37852910 </i>
    <i name="e_0_energy">   -188.51939744 </i>
   </energy>
  </scstep>
  <scstep>
   <time name="dav">   23.06   23.11</time>
   <time name="total">   23.09   23.16</time>
   <energy>
    <i name="alphaZ">     78.92006157 </i>
    <i name="ewald">  39379.55387170 </i>
    <i name="hartreedc"> -45347.78054410 </i>
    <i name="XCdc">   -237.97654635 </i>
    <i name="pawpsdc">   3950.53723725 </i>
    <i name="pawaedc">  -3365.04815972 </i>
    <i name="eentropy">     -0.28205022 </i>
    <i name="bandstr">  -1408.02656354 </i>
    <i name="atom">   6761.44252427 </i>
    <i name="e_fr_energy">   -188.66016914 </i>
    <i name="e_wo_entrp">   -188.37811892 </i>
    <i name="e_0_energy">   -188.51914403 </i>
   </energy>
  </scstep>
  <structure>
   <crystal>
    <varray name="basis" >
     <v>       8.85504224       5.10573099       0.00000000 </v>
     <v>      -8.85504232       5.10573160       0.00000000 </v>
     <v>       0.00000000       0.00000000      30.00000000 </v>
    </varray>
    <i name="volume">   2712.68798692 </i>
    <varray name="rec_basis" >
     <v>       0.05646501       0.09792916       0.00000000 </v>
     <v>      -0.05646500       0.09792916       0.00000000 </v>
     <v>       0.00000000       0.00000000       0.03333333 </v>
    </varray>
   </crystal>
   <varray name="positions" >
    <v>       0.66775131       0.33369573      -0.00014326 </v>
    <v>       0.66855998       0.66856002       0.00000000 </v>
    <v>       0.33369585       0.66775150       0.00014326 </v>
    <v>       0.66797080      -0.00033064       0.00009791 </v>
    <v>      -0.00137977      -0.00137980      -0.00000001 </v>
    <v>      -0.00033055       0.66797089      -0.00009790 </v>
    <v>       0.99838126       0.33200259      -0.00023281 </v>
    <v>       0.33200260      -0.00161882       0.00023279 </v>
    <v>       0.33263799       0.33263800      -0.00000001 </v>
    <v>       0.11138460       0.22293292       0.95071985 </v>
    <v>       0.22293301       0.11138468       0.04928013 </v>
    <v>       0.11496903       0.55663313       0.95201902 </v>
    <v>       0.22407452       0.44825341       0.04809957 </v>
    <v>       0.11191450       0.88931392       0.95074954 </v>
    <v>       0.22521256       0.77631746       0.04807215 </v>
    <v>       0.44825348       0.22407449       0.95190045 </v>
    <v>       0.55663320       0.11496903       0.04798093 </v>
    <v>       0.44583569       0.55892290       0.95315723 </v>
    <v>       0.55892286       0.44583562       0.04684279 </v>
    <v>       0.44181341       0.88480392       0.95195065 </v>
    <v>       0.55340847       0.77325714       0.04689444 </v>
    <v>       0.77631739       0.22521236       0.95192789 </v>
    <v>       0.88931371       0.11191438       0.04925039 </v>
    <v>       0.77325698       0.55340831       0.95310548 </v>
    <v>       0.88480370       0.44181318       0.04804939 </v>
    <v>       0.77551591       0.88436218       0.95189653 </v>
    <v>       0.88436195       0.77551593       0.04810350 </v>
   </varray>
  </structure>
  <varray name="forces" >
   <v>       0.17051563       0.12787647       0.04636180 </v>
   <v>      -0.00038660       0.38745848       0.00002262 </v>
   <v>      -0.17120524       0.12787733      -0.04642746 </v>
   <v>       0.25192029       0.29088223       0.07353508 </v>
   <v>      -0.00005610      -0.08807565       0.00012628 </v>
   <v>      -0.25114538       0.29222158      -0.07353233 </v>
   <v>       0.09526029      -0.35160445      -0.04168422 </v>
   <v>      -0.09438326      -0.35271184       0.04171812 </v>
   <v>      -0.00047974      -0.35981509       0.00003320 </v>
   <v>      -0.07428928       0.08287899      -0.04086614 </v>
   <v>       0.07444692       0.08306711       0.04050280 </v>
   <v>       0.08458335      -0.04908572       0.12914701 </v>
   <v>       0.04240211      -0.05337518      -0.13957703 </v>
   <v>       0.04830564       0.12299301      -0.13550678 </v>
   <v>      -0.01317268       0.10561753       0.11746601 </v>
   <v>      -0.04233203      -0.05247375       0.13975263 </v>
   <v>      -0.08496232      -0.04849034      -0.12896580 </v>
   <v>       0.06716344      -0.07327675       0.22329522 </v>
   <v>      -0.06626755      -0.07349957      -0.22345730 </v>
   <v>      -0.09717405      -0.04374981       0.09244031 </v>
   <v>       0.02730190      -0.03737209      -0.03329160 </v>
   <v>       0.01274445       0.10560685      -0.11711267 </v>
   <v>      -0.04843923       0.12297276       0.13507433 </v>
   <v>      -0.02713412      -0.03763083       0.03363872 </v>
   <v>       0.09665792      -0.04439096      -0.09229148 </v>
   <v>       0.03389598      -0.09190049      -0.14987498 </v>
   <v>      -0.03377034      -0.09199981       0.14947367 </v>
  </varray>
  <varray name="stress" >
   <v>     -19.88717937       0.00047949      -0.01345471 </v>
   <v>       0.00047948     -19.48643957       0.00008508 </v>
   <v>      -0.01345460       0.00008503      -1.72779500 </v>
  </varray>
  <energy>
   <i name="e_fr_energy">   -188.66016914 </i>
   <i name="e_wo_entrp">   -188.51914403 </i>
   <i name="e_0_energy">     -0.28205022 </i>
  </energy>
  <time name="totalsc">  445.91  447.09</time>
 </calculation>
 <calculation>
  <scstep>
   <time name="dav">   25.20   25.26</time>
   <time name="total">   25.74   25.80</time>
   <energy>
    <i name="alphaZ">     82.34192307 </i>
    <i name="ewald">  41301.42345655 </i>
    <i name="hartreedc"> -47300.05873758 </i>
    <i name="XCdc">   -233.85831925 </i>
    <i name="pawpsdc">   3949.34419110 </i>
    <i name="pawaedc">  -3363.84357789 </i>
    <i name="eentropy">     -0.23572358 </i>
    <i name="bandstr">  -1387.12775031 </i>
    <i name="atom">   6761.44252427 </i>
    <i name="e_fr_energy">   -190.57201361 </i>
    <i name="e_wo_entrp">   -190.33629003 </i>
    <i name="e_0_energy">   -190.45415182 </i>
   </energy>
  </scstep>
  <scstep>
   <time name="dav">   29.86   29.94</time>
   <time name="total">   30.39   30.47</time>
   <energy>
    <i name="e_fr_energy">   -190.56426523 </i>
    <i name="e_wo_entrp">   -190.32592631 </i>
    <i name="e_0_energy">   -190.44509577 </i>
   </energy>
  </scstep>
  <scstep>
   <time name="dav">   32.10   32.18</time>
   <time name="total">   32.63   32.72</time>
   <energy>
    <i name="e_fr_energy">   -190.05104138 </i>
    <i name="e_wo_entrp">   -189.80100310 </i>
    <i name="e_0_energy">   -189.92602224 </i>
   </energy>
  </scstep>
  <scstep>
   <time name="dav">   32.99   33.07</time>
   <time name="total">   33.53   33.61</time>
   <energy>
    <i name="e_fr_energy">   -189.85302112 </i>
    <i name="e_wo_entrp">   -189.61717700 </i>
    <i name="e_0_energy">   -189.73509906 </i>
   </energy>
  </scstep>
  <scstep>
   <time name="dav">   32.20   32.27</time>
   <time name="total">   32.72   32.81</time>
   <energy>
    <i name="e_fr_energy">   -189.90007500 </i>
    <i name="e_wo_entrp">   -189.65486461 </i>
    <i name="e_0_energy">   -189.77746980 </i>
   </energy>
  </scstep>
  <scstep>
   <time name="dav">   32.10   32.17</time>
   <time name="total">   32.63   32.72</time>
   <energy>
    <i name="e_fr_energy">   -189.74592661 </i>
    <i name="e_wo_entrp">   -189.50765431 </i>
    <i name="e_0_energy">   -189.62679046 </i>
   </energy>
  </scstep>
  <scstep>
   <time name="dav">   31.26   31.34</time>
   <time name="total">   31.80   31.88</time>
   <energy>
    <i name="e_fr_energy">   -189.74007816 </i>
    <i name="e_wo_entrp">   -189.50211745 </i>
    <i name="e_0_energy">   -189.62109781 </i>
   </energy>
  </scstep>
  <scstep>
   <time name="dav">   27.31   27.37</time>
   <time name="total">   27.84   27.92</time>
   <energy>
    <i name="e_fr_energy">   -189.74008774 </i>
    <i name="e_wo_entrp">   -189.50213276 </i>
    <i name="e_0_energy">   -189.62111025 </i>
   </energy>
  </scstep>
  <scstep>
   <time name="dav">   28.76   28.83</time>
   <time name="total">   29.29   29.37</time>
   <energy>
    <i name="e_fr_energy">   -189.74020189 </i>
    <i name="e_wo_entrp">   -189.50210869 </i>
    <i name="e_0_energy">   -189.62115529 </i>
   </energy>
  </scstep>
  <scstep>
   <time name="dav">   27.75   27.81</time>
   <time name="total">   28.28   28.36</time>
   <energy>
    <i name="e_fr_energy">   -189.74042683 </i>
    <i name="e_wo_entrp">   -189.50232804 </i>
    <i name="e_0_energy">   -189.62137744 </i>
   </energy>
  </scstep>
  <scstep>
   <time name="dav">   25.90   25.96</time>
   <time name="total">   26.43   26.51</time>
   <energy>
    <i name="e_fr_energy">   -189.74014539 </i>
    <i name="e_wo_entrp">   -189.50205643 </i>
    <i name="e_0_energy">   -189.62110091 </i>
   </energy>
  </scstep>
  <scstep>
   <time name="dav">   18.20   18.25</time>
   <time name="total">   18.24   18.29</time>
   <energy>
    <i name="alphaZ">     82.34192307 </i>
    <i name="ewald">  41301.42345655 </i>
    <i name="hartreedc"> -47273.69240760 </i>
    <i name="XCdc">   -235.24965214 </i>
    <i name="pawpsdc">   4038.68792173 </i>
    <i name="pawaedc">  -3454.38924374 </i>
    <i name="eentropy">     -0.23807812 </i>
    <i name="bandstr">  -1410.06659672 </i>
    <i name="atom">   6761.44252427 </i>
    <i name="e_fr_energy">   -189.74015270 </i>
    <i name="e_wo_entrp">   -189.50207458 </i>
    <i name="e_0_energy">   -189.62111364 </i>
   </energy>
  </scstep>
  <structure>
   <crystal>
    <varray name="basis" >
     <v>       8.66720689       4.99961240       0.00000000 </v>
     <v>      -8.66720173       4.99960394       0.00000000 </v>
     <v>       0.00000000       0.00000000      30.00000000 </v>
    </varray>
    <i name="volume">   2599.95753011 </i>
    <varray name="rec_basis" >
     <v>       0.05768868       0.10000781       0.00000000 </v>
     <v>      -0.05768878       0.10000787       0.00000000 </v>
     <v>       0.00000000       0.00000000       0.03333333 </v>
    </varray>
   </crystal>
   <varray name="positions" >
    <v>       0.66812809       0.33374497      -0.00011697 </v>
    <v>       0.66920502       0.66920579       0.00000001 </v>
    <v>       0.33374443       0.66812895       0.00011693 </v>
    <v>       0.66869729      -0.00008807       0.00013960 </v>
    <v>      -0.00152653      -0.00152645       0.00000006 </v>
    <v>      -0.00008500       0.66869887      -0.00013960 </v>
    <v>       0.99788707       0.33132542      -0.00025644 </v>
    <v>       0.33132442      -0.00211569       0.00025644 </v>
    <v>       0.33203817       0.33203911       0.00000001 </v>
    <v>       0.11145131       0.22314233       0.95069668 </v>
    <v>       0.22314288       0.11145154       0.04930310 </v>
    <v>       0.11496851       0.55647012       0.95209225 </v>
    <v>       0.22402633       0.44812378       0.04802043 </v>
    <v>       0.11216577       0.88947240       0.95067271 </v>
    <v>       0.22537584       0.77650604       0.04813875 </v>
    <v>       0.44812542       0.22402774       0.95197968 </v>
    <v>       0.55647082       0.11496986       0.04790781 </v>
    <v>       0.44577813       0.55873634       0.95328384 </v>
    <v>       0.55873679       0.44577683       0.04671609 </v>
    <v>       0.44164721       0.88482437       0.95200306 </v>
    <v>       0.55337244       0.77316867       0.04687557 </v>
    <v>       0.77650554       0.22537604       0.95186149 </v>
    <v>       0.88947203       0.11216574       0.04932698 </v>
    <v>       0.77316824       0.55337169       0.95312455 </v>
    <v>       0.88482259       0.44164641       0.04799706 </v>
    <v>       0.77539538       0.88417654       0.95181155 </v>
    <v>       0.88417626       0.77539512       0.04818825 </v>
   </varray>
  </structure>
  <varray name="forces" >
   <v>       0.20874746       0.10303233       0.06850352 </v>
   <v>      -0.00024293       0.38791338      -0.00001333 </v>
   <v>      -0.20898911       0.10296398      -0.06858482 </v>
   <v>       0.22684187       0.35286667       0.05186452 </v>
   <v>       0.00002382      -0.01060073       0.00004255 </v>
   <v>      -0.22645884       0.35366282      -0.05182584 </v>
   <v>       0.15083452      -0.37150149      -0.00302150 </v>
   <v>      -0.15040398      -0.37214599       0.00298242 </v>
   <v>      -0.00031562      -0.43309687      -0.00007061 </v>
   <v>      -0.03328368       0.00547393      -0.61238936 </v>
   <v>       0.03319641       0.00536988       0.61230876 </v>
   <v>       0.07958010       0.07495793      -0.34943948 </v>
   <v>      -0.04304945       0.05831196       0.35871413 </v>
   <v>       0.00222748       0.06450855      -0.69541362 </v>
   <v>       0.09928998       0.01891674       0.64224127 </v>
   <v>       0.04290166       0.05803183      -0.35837372 </v>
   <v>      -0.07945700       0.07468777       0.34917133 </v>
   <v>      -0.00263436       0.05879842      -0.22035220 </v>
   <v>       0.00228636       0.05876328       0.22034689 </v>
   <v>       0.01942405      -0.08523844      -0.38413211 </v>
   <v>       0.06974603      -0.09957852       0.41748560 </v>
   <v>      -0.09903248       0.01902502      -0.64189727 </v>
   <v>      -0.00215824       0.06451435       0.69541653 </v>
   <v>      -0.06984455      -0.09922870      -0.41748719 </v>
   <v>      -0.01921536      -0.08493225       0.38386947 </v>
   <v>       0.07274670      -0.15276044      -0.65032403 </v>
   <v>      -0.07276084      -0.15271543       0.65037808 </v>
  </varray>
  <varray name="stress" >
   <v>     -10.16621653       0.00023389      -0.02513587 </v>
   <v>       0.00023384      -9.83092203       0.00006933 </v>
   <v>      -0.02513599       0.00006925       6.50107413 </v>
  </varray>
  <energy>
   <i name="e_fr_energy">   -189.74015270 </i>
   <i name="e_wo_entrp">   -189.62111364 </i>
   <i name="e_0_energy">     -0.23807812 </i>
  </energy>
  <time name="totalsc">  394.23  395.27</time>
 </calculation>
 <calculation>
  <scstep>
   <time name="dav">   23.02   23.08</time>
   <time name="total">   23.54   23.60</time>
   <energy>
    <i name="alphaZ">     85.82321378 </i>
    <i name="ewald">  42833.53866145 </i>
    <i name="hartreedc"> -48850.54146097 </i>
    <i name="XCdc">   -232.96082292 </i>
    <i name="pawpsdc">   4038.53616187 </i>
    <i name="pawaedc">  -3454.23072084 </i>
    <i name="eentropy">     -0.19704159 </i>
    <i name="bandstr">  -1372.69383429 </i>
    <i name="atom">   6761.44252427 </i>
    <i name="e_fr_energy">   -191.28331923 </i>
    <i name="e_wo_entrp">   -191.08627764 </i>
    <i name="e_0_energy">   -191.18479843 </i>
   </energy>
  </scstep>
  <scstep>
   <time name="dav">   34.70   34.79</time>
   <time name="total">   35.22   35.31</time>
   <energy>
    <i name="e_fr_energy">   -191.15853112 </i>
    <i name="e_wo_entrp">   -190.95675983 </i>
    <i name="e_0_energy">   -191.05764548 </i>
   </energy>
  </scstep>
  <scstep>
   <time name="dav">   31.83   31.91</time>
   <time name="total">   32.35   32.43</time>
   <energy>
    <i name="e_fr_energy">   -191.19702578 </i>
    <i name="e_wo_entrp">   -190.97875770 </i>
    <i name="e_0_energy">   -191.08789174 </i>
   </energy>
  </scstep>
  <scstep>
   <time name="dav">   33.58   33.66</time>
   <time name="total">   34.10   34.19</time>
   <energy>
    <i name="e_fr_energy">   -190.80895627 </i>
    <i name="e_wo_entrp">   -190.60941429 </i>
    <i name="e_0_energy">   -190.70918528 </i>
   </energy>
  </scstep>
  <scstep>
   <time name="dav">   29.74   29.82</time>
   <time name="total">   30.26   30.34</time>
   <energy>
    <i name="e_fr_energy">   -190.71129873 </i>
    <i name="e_wo_entrp">   -190.50797484 </i>
    <i name="e_0_energy">   -190.60963679 </i>
   </energy>
  </scstep>
  <scstep>
   <time name="dav">   33.01   33.09</time>
   <time name="total">   33.53   33.62</time>
   <energy>
    <i name="e_fr_energy">   -190.70848367 </i>
    <i name="e_wo_entrp">   -190.50469294 </i>
    <i name="e_0_energy">   -190.60658831 </i>
   </energy>
  </scstep>
  <scstep>
   <time name="dav">   30.62   30.69</time>
   <time name="total">   31.14   31.22</time>
   <energy>
    <i name="e_fr_energy">   -190.69864844 </i>
    <i name="e_wo_entrp">   -190.49591133 </i>
    <i name="e_0_energy">   -190.59727989 </i>
   </energy>
  </scstep>
  <scstep>
   <time name="dav">   29.29   29.36</time>
   <time name="total">   29.82   29.90</time>
   <energy>
    <i name="e_fr_energy">   -190.69275281 </i>
    <i name="e_wo_entrp">   -190.48998730 </i>
    <i name="e_0_energy">   -190.59137005 </i>
   </energy>
  </scstep>
  <scstep>
   <time name="dav">   28.09   28.16</time>
   <time name="total">   28.61   28.68</time>
   <energy>
    <i name="e_fr_energy">   -190.69299628 </i>
    <i name="e_wo_entrp">   -190.49004652 </i>
    <i name="e_0_energy">   -190.59152140 </i>
   </energy>
  </scstep>
  <scstep>
   <time name="dav">   28.70   28.77</time>
   <time name="total">   29.23   29.30</time>
   <energy>
    <i name="e_fr_energy">   -190.69289314 </i>
    <i name="e_wo_entrp">   -190.49009043 </i>
    <i name="e_0_energy">   -190.59149178 </i>
   </energy>
  </scstep>
  <scstep>
   <time name="dav">   25.32   25.38</time>
   <time name="total">   25.36   25.43</time>
   <energy>
    <i name="alphaZ">     85.82321378 </i>
    <i name="ewald">  42833.53866145 </i>
    <i name="hartreedc"> -48821.67386039 </i>
    <i name="XCdc">   -234.29976399 </i>
    <i name="pawpsdc">   4062.78273483 </i>
    <i name="pawaedc">  -3478.65079517 </i>
    <i name="eentropy">     -0.20275418 </i>
    <i name="bandstr">  -1399.45292807 </i>
    <i name="atom">   6761.44252427 </i>
    <i name="e_fr_energy">   -190.69296747 </i>
    <i name="e_wo_entrp">   -190.49021328 </i>
    <i name="e_0_energy">   -190.59159038 </i>
   </energy>
  </scstep>
  <structure>
   <crystal>
    <varray name="basis" >
     <v>       8.48484827       4.89990989       0.00000000 </v>
     <v>      -8.48483892       4.89989412       0.00000000 </v>
     <v>       0.00000000       0.00000000      30.00000000 </v>
    </varray>
    <i name="volume">   2494.49412933 </i>
    <varray name="rec_basis" >
     <v>       0.05892851       0.10204280       0.00000000 </v>
     <v>      -0.05892870       0.10204291       0.00000000 </v>
     <v>       0.00000000       0.00000000       0.03333333 </v>
    </varray>
   </crystal>
   <varray name="positions" >
    <v>       0.66952193       0.33351861       0.00004380 </v>
    <v>       0.67163719       0.67163931      -0.00000005 </v>
    <v>       0.33351724       0.66952242      -0.00004402 </v>
    <v>       0.67184857       0.00149472       0.00022860 </v>
    <v>      -0.00139902      -0.00139934       0.00000008 </v>
    <v>       0.00150224       0.67185296      -0.00022848 </v>
    <v>       0.99613414       0.32832117      -0.00022979 </v>
    <v>       0.32831821      -0.00387242       0.00022964 </v>
    <v>       0.32913904       0.32914178      -0.00000023 </v>
    <v>       0.11123079       0.22304430       0.94894146 </v>
    <v>       0.22304280       0.11123031       0.05105840 </v>
    <v>       0.11602923       0.55696964       0.95096089 </v>
    <v>       0.22439228       0.44904757       0.04918777 </v>
    <v>       0.11236550       0.88978891       0.94875537 </v>
    <v>       0.22579886       0.77588651       0.04991602 </v>
    <v>       0.44904365       0.22438983       0.95081319 </v>
    <v>       0.55696766       0.11602556       0.04903822 </v>
    <v>       0.44636686       0.55954542       0.95244966 </v>
    <v>       0.55954307       0.44636886       0.04755039 </v>
    <v>       0.44124750       0.88394788       0.95080155 </v>
    <v>       0.55290609       0.77207541       0.04812422 </v>
    <v>       0.77588891       0.22579811       0.95008492 </v>
    <v>       0.88978918       0.11236503       0.05124469 </v>
    <v>       0.77207796       0.55290979       0.95187560 </v>
    <v>       0.88395219       0.44124919       0.04919768 </v>
    <v>       0.77460469       0.88274760       0.95003824 </v>
    <v>       0.88274771       0.77460532       0.04996206 </v>
   </varray>
  </structure>
  <varray name="forces" >
   <v>       0.25735522       0.09041113       0.07860238 </v>
   <v>       0.00772419       0.33106398       0.00024035 </v>
   <v>      -0.24896410       0.08971903      -0.07631324 </v>
   <v>       0.20184322       0.43336602      -0.00513395 </v>
   <v>       0.00144875       0.10775290      -0.00108000 </v>
   <v>      -0.21331690       0.41498805       0.00500534 </v>
   <v>       0.21916328      -0.42832480       0.03177478 </v>
   <v>      -0.23330489      -0.41239564      -0.03182583 </v>
   <v>       0.00929509      -0.44610191       0.00017325 </v>
   <v>      -0.01088917      -0.07271402      -0.48745133 </v>
   <v>       0.01111811      -0.07326167       0.48949982 </v>
   <v>      -0.00221315      -0.01775673      -0.18815360 </v>
   <v>      -0.03446434      -0.01392054       0.20517080 </v>
   <v>      -0.04287829       0.00237985      -0.53867472 </v>
   <v>       0.01319686      -0.01395825       0.49243920 </v>
   <v>       0.03802163      -0.00839828      -0.20239152 </v>
   <v>      -0.00173517      -0.01155287       0.18369057 </v>
   <v>       0.03241489       0.00470062      -0.09789253 </v>
   <v>      -0.02562461       0.00495565       0.09216544 </v>
   <v>       0.01955995       0.03865768      -0.19677389 </v>
   <v>       0.02881924       0.01820187       0.31320600 </v>
   <v>      -0.02037433      -0.01401629      -0.49044661 </v>
   <v>       0.04292984       0.00233486       0.54013352 </v>
   <v>      -0.02570531       0.01192778      -0.30978751 </v>
   <v>      -0.02334895       0.03205605       0.19210280 </v>
   <v>       0.03597667      -0.03526268      -0.46012291 </v>
   <v>      -0.03604775      -0.03485180       0.46184338 </v>
  </varray>
  <varray name="stress" >
   <v>      -5.88281138      -0.01282169      -0.03957902 </v>
   <v>      -0.01282178      -5.83600487      -0.00095533 </v>
   <v>      -0.03957898      -0.00095537       4.50454406 </v>
  </varray>
  <energy>
   <i name="e_fr_energy">   -190.69296747 </i>
   <i name="e_wo_entrp">   -190.59159038 </i>
   <i name="e_0_energy">     -0.20275418 </i>
  </energy>
  <time name="totalsc">  378.12  379.11</time>
 </calculation>
 <calculation>
  <scstep>
   <time name="dav">   23.03   23.08</time>
   <time name="total">   23.55   23.60</time>
   <energy>
    <i name="alphaZ">     90.36380293 </i>
    <i name="ewald">  44751.02563923 </i>
    <i name="hartreedc"> -50796.54010353 </i>
    <i name="XCdc">   -231.70987596 </i>
    <i name="pawpsdc">   4062.93402384 </i>
    <i name="pawaedc">  -3478.80073048 </i>
    <i name="eentropy">     -0.18284667 </i>
    <i name="bandstr">  -1350.68017022 </i>
    <i name="atom">   6761.44252427 </i>
    <i name="e_fr_energy">   -192.14773658 </i>
    <i name="e_wo_entrp">   -191.96488991 </i>
    <i name="e_0_energy">   -192.05631324 </i>
   </energy>
  </scstep>
  <scstep>
   <time name="dav">   32.23   32.31</time>
   <time name="total">   32.73   32.82</time>
   <energy>
    <i name="e_fr_energy">   -191.83168515 </i>
    <i name="e_wo_entrp">   -191.64210037 </i>
    <i name="e_0_energy">   -191.73689276 </i>
   </energy>
  </scstep>
  <scstep>
   <time name="dav">   31.85   31.93</time>
   <time name="total">   32.37   32.45</time>
   <energy>
    <i name="e_fr_energy">   -191.91580271 </i>
    <i name="e_wo_entrp">   -191.71605022 </i>
    <i name="e_0_energy">   -191.81592647 </i>
   </energy>
  </scstep>
  <scstep>
   <time name="dav">   32.09   32.16</time>
   <time name="total">   32.59   32.68</time>
   <energy>
    <i name="e_fr_energy">   -191.63020686 </i>
    <i name="e_wo_entrp">   -191.44700879 </i>
    <i name="e_0_energy">   -191.53860783 </i>
   </energy>
  </scstep>
  <scstep>
   <time name="dav">   31.64   31.72</time>
   <time name="total">   32.15   32.24</time>
   <energy>
    <i name="e_fr_energy">   -191.38316656 </i>
    <i name="e_wo_entrp">   -191.19128268 </i>
    <i name="e_0_energy">   -191.28722462 </i>
   </energy>
  </scstep>
  <scstep>
   <time name="dav">   33.02   33.10</time>
   <time name="total">   33.53   33.62</time>
   <energy>
    <i name="e_fr_energy">   -191.39772348 </i>
    <i name="e_wo_entrp">   -191.20479304 </i>
    <i name="e_0_energy">   -191.30125826 </i>
   </energy>
  </scstep>
  <scstep>
   <time name="dav">   31.53   31.60</time>
   <time name="total">   32.04   32.12</time>
   <energy>
    <i name="e_fr_energy">   -191.36988137 </i>
    <i name="e_wo_entrp">   -191.17857581 </i>
    <i name="e_0_energy">   -191.27422859 </i>
   </energy>
  </scstep>
  <scstep>
   <time name="dav">   27.39   27.45</time>
   <time name="total">   27.90   27.97</time>
   <energy>
    <i name="e_fr_energy">   -191.36289462 </i>
    <i name="e_wo_entrp">   -191.17139594 </i>
    <i name="e_0_energy">   -191.26714528 </i>
   </energy>
  </scstep>
  <scstep>
   <time name="dav">   33.47   33.55</time>
   <time name="total">   33.98   34.07</time>
   <energy>
    <i name="e_fr_energy">   -191.36391827 </i>
    <i name="e_wo_entrp">   -191.17219774 </i>
    <i name="e_0_energy">   -191.26805801 </i>
   </energy>
  </scstep>
  <scstep>
   <time name="dav">   29.33   29.40</time>
   <time name="total">   29.83   29.91</time>
   <energy>
    <i name="e_fr_energy">   -191.36295594 </i>
    <i name="e_wo_entrp">   -191.17130233 </i>
    <i name="e_0_energy">   -191.26712914 </i>
   </energy>
  </scstep>
  <scstep>
   <time name="dav">   27.92   27.99</time>
   <time name="total">   27.96   28.04</time>
   <energy>
    <i name="alphaZ">     90.36380293 </i>
    <i name="ewald">  44751.02563923 </i>
    <i name="hartreedc"> -50760.83205580 </i>
    <i name="XCdc">   -233.32147025 </i>
    <i name="pawpsdc">   4085.08041505 </i>
    <i name="pawaedc">  -3501.02430947 </i>
    <i name="eentropy">     -0.19164759 </i>
    <i name="bandstr">  -1383.90585432 </i>
    <i name="atom">   6761.44252427 </i>
    <i name="e_fr_energy">   -191.36295594 </i>
    <i name="e_wo_entrp">   -191.17130834 </i>
    <i name="e_0_energy">   -191.26713214 </i>
   </energy>
  </scstep>
  <structure>
   <crystal>
    <varray name="basis" >
     <v>       8.26672519       4.77559942       0.00000000 </v>
     <v>      -8.26748807       4.77692086       0.00000000 </v>
     <v>       0.00000000       0.00000000      30.00000000 </v>
    </varray>
    <i name="volume">   2369.15109796 </i>
    <varray name="rec_basis" >
     <v>       0.06048902       0.10468925       0.00000000 </v>
     <v>      -0.06047229       0.10467959       0.00000000 </v>
     <v>       0.00000000       0.00000000       0.03333333 </v>
    </varray>
   </crystal>
   <varray name="positions" >
    <v>       0.67248959       0.33271721       0.00038260 </v>
    <v>       0.67594447       0.67584997       0.00000076 </v>
    <v>       0.33276104       0.67242924      -0.00037478 </v>
    <v>       0.67878529       0.00553967       0.00021716 </v>
    <v>      -0.00000869      -0.00002746      -0.00000380 </v>
    <v>       0.00527585       0.67866246      -0.00021744 </v>
    <v>       0.99240966       0.32136120      -0.00007957 </v>
    <v>       0.32144225      -0.00733532       0.00007914 </v>
    <v>       0.32339545       0.32328198       0.00000024 </v>
    <v>       0.11019004       0.22206443       0.94629247 </v>
    <v>       0.22205686       0.11018165       0.05371487 </v>
    <v>       0.11639618       0.55722239       0.94961197 </v>
    <v>       0.22427127       0.44973951       0.05062219 </v>
    <v>       0.11198186       0.89009662       0.94589085 </v>
    <v>       0.22579674       0.77513146       0.05255150 </v>
    <v>       0.44981309       0.22430287       0.94938896 </v>
    <v>       0.55726082       0.11648034       0.05037075 </v>
    <v>       0.44699534       0.56001527       0.95152756 </v>
    <v>       0.56005615       0.44696064       0.04845239 </v>
    <v>       0.44173748       0.88375081       0.94940489 </v>
    <v>       0.55306743       0.77158984       0.04992499 </v>
    <v>       0.77509033       0.22583935       0.94745667 </v>
    <v>       0.89009724       0.11198025       0.05411482 </v>
    <v>       0.77154579       0.55298671       0.95008656 </v>
    <v>       0.88366476       0.44169328       0.05057725 </v>
    <v>       0.77414045       0.88155335       0.94753744 </v>
    <v>       0.88155773       0.77414674       0.05246945 </v>
   </varray>
  </structure>
  <varray name="forces" >
   <v>       0.27311716       0.12684734      -0.00771551 </v>
   <v>      -0.00296242       0.25558576      -0.00088011 </v>
   <v>      -0.27782898       0.12598047       0.00241300 </v>
   <v>       0.16855068       0.32668020      -0.02559106 </v>
   <v>       0.00602251       0.18661181      -0.00102992 </v>
   <v>      -0.16110702       0.34309507       0.02490098 </v>
   <v>       0.29473935      -0.36046028      -0.00524209 </v>
   <v>      -0.28813672      -0.38180992       0.00725847 </v>
   <v>      -0.00848640      -0.41283732      -0.00005094 </v>
   <v>      -0.03239942      -0.09680709      -0.23744776 </v>
   <v>       0.02969282      -0.09701149       0.24358928 </v>
   <v>      -0.08071761      -0.17963161       0.16645473 </v>
   <v>      -0.00916002      -0.11767924      -0.08057704 </v>
   <v>      -0.11957953      -0.04473538      -0.27564044 </v>
   <v>      -0.06233994       0.00566636       0.16107891 </v>
   <v>       0.00845991      -0.11948029       0.06697873 </v>
   <v>       0.08263291      -0.18378818      -0.15284365 </v>
   <v>       0.04181264      -0.08454918       0.18504746 </v>
   <v>      -0.04537618      -0.08308877      -0.17355262 </v>
   <v>      -0.06271784       0.18218910       0.10776340 </v>
   <v>      -0.04127564       0.11940945      -0.01878819 </v>
   <v>       0.06326706       0.00442006      -0.18217866 </v>
   <v>       0.12137500      -0.03996926       0.27856503 </v>
   <v>       0.03830860       0.12196834       0.00659965 </v>
   <v>       0.06506798       0.19189714      -0.09119097 </v>
   <v>      -0.01167452       0.10519517      -0.11003849 </v>
   <v>       0.01071563       0.10630174       0.11211781 </v>
  </varray>
  <varray name="stress" >
   <v>      -0.24091964       0.03733740       0.34409966 </v>
   <v>       0.03733736       0.26026596       0.01523208 </v>
   <v>       0.34409983       0.01523225      -0.48916595 </v>
  </varray>
  <energy>
   <i name="e_fr_energy">   -191.36295594 </i>
   <i name="e_wo_entrp">   -191.26713214 </i>
   <i name="e_0_energy">     -0.19164759 </i>
  </energy>
  <time name="totalsc">  383.49  384.50</time>
 </calculation>
 <calculation>
  <scstep>
   <time name="dav">   23.03   23.08</time>
   <time name="total">   23.53   23.59</time>
   <energy>
    <i name="alphaZ">     90.37579413 </i>
    <i name="ewald">  44736.93386852 </i>
    <i name="hartreedc"> -50747.50895129 </i>
    <i name="XCdc">   -233.39727535 </i>
    <i name="pawpsdc">   4085.25217989 </i>
    <i name="pawaedc">  -3501.19343639 </i>
    <i name="eentropy">     -0.19515034 </i>
    <i name="bandstr">  -1383.16298821 </i>
    <i name="atom">   6761.44252427 </i>
    <i name="e_fr_energy">   -191.45343477 </i>
    <i name="e_wo_entrp">   -191.25828443 </i>
    <i name="e_0_energy">   -191.35585960 </i>
   </energy>
  </scstep>
  <scstep>
   <time name="dav">   33.37   33.45</time>
   <time name="total">   33.88   33.97</time>
   <energy>
    <i name="e_fr_energy">   -191.53590255 </i>
    <i name="e_wo_entrp">   -191.33019846 </i>
    <i name="e_0_energy">   -191.43305051 </i>
   </energy>
  </scstep>
  <scstep>
   <time name="dav">   32.36   32.43</time>
   <time name="total">   32.86   32.95</time>
   <energy>
    <i name="e_fr_energy">   -191.46620976 </i>
    <i name="e_wo_entrp">   -191.26962773 </i>
    <i name="e_0_energy">   -191.36791875 </i>
   </energy>
  </scstep>
  <scstep>
   <time name="dav">   29.38   29.45</time>
   <time name="total">   29.89   29.97</time>
   <energy>
    <i name="e_fr_energy">   -191.46500986 </i>
    <i name="e_wo_entrp">   -191.26801585 </i>
    <i name="e_0_energy">   -191.36651285 </i>
   </energy>
  </scstep>
  <scstep>
   <time name="dav">   30.37   30.45</time>
   <time name="total">   30.88   30.96</time>
   <energy>
    <i name="e_fr_energy">   -191.46429997 </i>
    <i name="e_wo_entrp">   -191.26658021 </i>
    <i name="e_0_energy">   -191.36544009 </i>
   </energy>
  </scstep>
  <scstep>
   <time name="dav">   30.80   30.87</time>
   <time name="total">   31.31   31.40</time>
   <energy>
    <i name="e_fr_energy">   -191.46329251 </i>
    <i name="e_wo_entrp">   -191.26575330 </i>
    <i name="e_0_energy">   -191.36452291 </i>
   </energy>
  </scstep>
  <scstep>
   <time name="dav">   30.27   30.35</time>
   <time name="total">   30.78   30.86</time>
   <energy>
    <i name="e_fr_energy">   -191.46295563 </i>
    <i name="e_wo_entrp">   -191.26530588 </i>
    <i name="e_0_energy">   -191.36413076 </i>
   </energy>
  </scstep>
  <scstep>
   <time name="dav">   25.87   25.94</time>
   <time name="total">   25.91   25.98</time>
   <energy>
    <i name="alphaZ">     90.37579413 </i>
    <i name="ewald">  44736.93386852 </i>
    <i name="hartreedc"> -50748.43908929 </i>
    <i name="XCdc">   -233.37856706 </i>
    <i name="pawpsdc">   4083.70940994 </i>
    <i name="pawaedc">  -3499.61555647 </i>
    <i name="eentropy">     -0.19758424 </i>
    <i name="bandstr">  -1382.29376027 </i>
    <i name="atom">   6761.44252427 </i>
    <i name="e_fr_energy">   -191.46296046 </i>
    <i name="e_wo_entrp">   -191.26537622 </i>
    <i name="e_0_energy">   -191.36416834 </i>
   </energy>
  </scstep>
  <structure>
   <crystal>
    <varray name="basis" >
     <v>       8.26111279       4.77930364       0.00000000 </v>
     <v>      -8.26092774       4.77898610       0.00000000 </v>
     <v>       0.00000000       0.00000000      30.00000000 </v>
    </varray>
    <i name="volume">   2368.83675535 </i>
    <varray name="rec_basis" >
     <v>       0.06052320       0.10462006       0.00000000 </v>
     <v>      -0.06052722       0.10462240       0.00000000 </v>
     <v>       0.00000000       0.00000000       0.03333333 </v>
    </varray>
   </crystal>
   <varray name="positions" >
    <v>       0.67395884       0.33255444       0.00037215 </v>
    <v>       0.67726523       0.67718754      -0.00000066 </v>
    <v>       0.33258004       0.67390735      -0.00037290 </v>
    <v>       0.68098944       0.00673337       0.00017557 </v>
    <v>       0.00096915       0.00091470      -0.00000549 </v>
    <v>       0.00657376       0.68092742      -0.00017697 </v>
    <v>       0.99141792       0.31861335      -0.00008711 </v>
    <v>       0.31860502      -0.00845405       0.00008996 </v>
    <v>       0.32123000       0.32116611       0.00000016 </v>
    <v>       0.10959447       0.22165981       0.94588863 </v>
    <v>       0.22164317       0.10959304       0.05412873 </v>
    <v>       0.11524673       0.55654742       0.94987202 </v>
    <v>       0.22364457       0.44917288       0.05050216 </v>
    <v>       0.11139866       0.89022247       0.94542369 </v>
    <v>       0.22564222       0.77533765       0.05283112 </v>
    <v>       0.44923555       0.22366927       0.94948696 </v>
    <v>       0.55657048       0.11530465       0.05013272 </v>
    <v>       0.44669238       0.55946622       0.95182056 </v>
    <v>       0.55950419       0.44667545       0.04817795 </v>
    <v>       0.44248421       0.88486139       0.94956930 </v>
    <v>       0.55355468       0.77231553       0.04990719 </v>
    <v>       0.77529273       0.22567603       0.94714283 </v>
    <v>       0.89025276       0.11141618       0.05458676 </v>
    <v>       0.77227564       0.55349529       0.95008464 </v>
    <v>       0.88483145       0.44248232       0.05043966 </v>
    <v>       0.77463869       0.88211519       0.94734151 </v>
    <v>       0.88212246       0.77465344       0.05266879 </v>
   </varray>
  </structure>
  <varray name="forces" >
   <v>       0.28501492       0.17922498       0.04008578 </v>
   <v>       0.00264664       0.28545639       0.00069657 </v>
   <v>      -0.26864236       0.17720656      -0.03962888 </v>
   <v>       0.21376341       0.34525575       0.00380706 </v>
   <v>       0.00178336       0.16757286       0.00352955 </v>
   <v>      -0.22346673       0.33087472      -0.00082975 </v>
   <v>       0.29805478      -0.39848914       0.02540462 </v>
   <v>      -0.31362057      -0.38580004      -0.02604130 </v>
   <v>       0.00479704      -0.45194613      -0.00052311 </v>
   <v>      -0.01827451      -0.06385140      -0.22648979 </v>
   <v>       0.01856226      -0.06513899       0.22674137 </v>
   <v>      -0.04702941      -0.15114395       0.21389105 </v>
   <v>      -0.00535693      -0.10015437      -0.09734067 </v>
   <v>      -0.10302955      -0.03088856      -0.23437882 </v>
   <v>      -0.05098314       0.00589993       0.16961853 </v>
   <v>       0.00632704      -0.09944404       0.10121426 </v>
   <v>       0.04520037      -0.14885575      -0.21864793 </v>
   <v>       0.03097621      -0.07814752       0.24225140 </v>
   <v>      -0.02724021      -0.07933371      -0.24589672 </v>
   <v>      -0.07441158       0.14359741       0.13404037 </v>
   <v>      -0.03234988       0.07673949      -0.03740379 </v>
   <v>       0.04940060       0.00756660      -0.16442529 </v>
   <v>       0.10288585      -0.03294762       0.22780984 </v>
   <v>       0.03337614       0.07478475       0.03818651 </v>
   <v>       0.07202502       0.13842654      -0.13679414 </v>
   <v>       0.00077176       0.07696388      -0.09321087 </v>
   <v>      -0.00118055       0.07657138       0.09433416 </v>
  </varray>
  <varray name="stress" >
   <v>      -0.01309319      -0.02052519       0.26535149 </v>
   <v>      -0.02052519       0.21495463      -0.01166903 </v>
   <v>       0.26535156      -0.01166890      -1.18149589 </v>
  </varray>
  <energy>
   <i name="e_fr_energy">   -191.46296046 </i>
   <i name="e_wo_entrp">   -191.36416834 </i>
   <i name="e_0_energy">     -0.19758424 </i>
  </energy>
  <time name="totalsc">  283.87  284.62</time>
 </calculation>
 <calculation>
  <scstep>
   <time name="dav">   25.31   25.37</time>
   <time name="total">   25.82   25.88</time>
   <energy>
    <i name="alphaZ">     90.37411476 </i>
    <i name="ewald">  44736.17851605 </i>
    <i name="hartreedc"> -50747.70257064 </i>
    <i name="XCdc">   -233.37794333 </i>
    <i name="pawpsdc">   4083.66920846 </i>
    <i name="pawaedc">  -3499.57526300 </i>
    <i name="eentropy">     -0.19754934 </i>
    <i name="bandstr">  -1382.27606965 </i>
    <i name="atom">   6761.44252427 </i>
    <i name="e_fr_energy">   -191.46503240 </i>
    <i name="e_wo_entrp">   -191.26748306 </i>
    <i name="e_0_energy">   -191.36625773 </i>
   </energy>
  </scstep>
  <scstep>
   <time name="dav">   24.91   24.97</time>
   <time name="total">   25.43   25.49</time>
   <energy>
    <i name="e_fr_energy">   -191.46522579 </i>
    <i name="e_wo_entrp">   -191.26733217 </i>
    <i name="e_0_energy">   -191.36627898 </i>
   </energy>
  </scstep>
  <scstep>
   <time name="dav">   23.51   23.57</time>
   <time name="total">   24.02   24.09</time>
   <energy>
    <i name="e_fr_energy">   -191.46505005 </i>
    <i name="e_wo_entrp">   -191.26740054 </i>
    <i name="e_0_energy">   -191.36622530 </i>
   </energy>
  </scstep>
  <scstep>
   <time name="dav">   18.76   18.80</time>
   <time name="total">   18.79   18.85</time>
   <energy>
    <i name="alphaZ">     90.37411476 </i>
    <i name="ewald">  44736.17851605 </i>
    <i name="hartreedc"> -50747.92132303 </i>
    <i name="XCdc">   -233.37625232 </i>
    <i name="pawpsdc">   4083.66954629 </i>
    <i name="pawaedc">  -3499.57632076 </i>
    <i name="eentropy">     -0.19755546 </i>
    <i name="bandstr">  -1382.05831515 </i>
    <i name="atom">   6761.44252427 </i>
    <i name="e_fr_energy">   -191.46506535 </i>
    <i name="e_wo_entrp">   -191.26750988 </i>
    <i name="e_0_energy">   -191.36628761 </i>
   </energy>
  </scstep>
  <structure>
   <crystal>
    <varray name="basis" >
     <v>       8.26113144       4.77936828       0.00000000 </v>
     <v>      -8.26095799       4.77907078       0.00000000 </v>
     <v>       0.00000000       0.00000000      30.00000000 </v>
    </varray>
    <i name="volume">   2368.88077409 </i>
    <varray name="rec_basis" >
     <v>       0.06052315       0.10461849       0.00000000 </v>
     <v>      -0.06052692       0.10462069       0.00000000 </v>
     <v>       0.00000000       0.00000000       0.03333333 </v>
    </varray>
   </crystal>
   <varray name="positions" >
    <v>       0.67399590       0.33255628       0.00037350 </v>
    <v>       0.67729568       0.67721767      -0.00000064 </v>
    <v>       0.33258271       0.67394314      -0.00037423 </v>
    <v>       0.68103922       0.00675666       0.00017572 </v>
    <v>       0.00098722       0.00093256      -0.00000537 </v>
    <v>       0.00659485       0.68097623      -0.00017702 </v>
    <v>       0.99139397       0.31855243      -0.00008624 </v>
    <v>       0.31854452      -0.00847560       0.00008907 </v>
    <v>       0.32118216       0.32111766       0.00000014 </v>
    <v>       0.10958665       0.22165428       0.94588143 </v>
    <v>       0.22163751       0.10958506       0.05413593 </v>
[...]
      <set comment="kpoint 31">
       <r>  -17.5562    1.0000 </r>
       <r>  -17.2560    1.0000 </r>
       <r>  -16.9165    1.0000 </r>
       <r>  -16.7314    1.0000 </r>
       <r>  -16.5231    1.0000 </r>
       <r>  -16.4569    1.0000 </r>
       <r>  -16.3220    1.0000 </r>
       <r>  -16.1804    1.0000 </r>
       <r>  -16.0613    1.0000 </r>
       <r>  -16.0120    1.0000 </r>
       <r>  -15.9532    1.0000 </r>
       <r>  -15.8725    1.0000 </r>
       <r>  -15.7567    1.0000 </r>
       <r>  -15.6983    1.0000 </r>
       <r>  -15.6162    1.0000 </r>
       <r>  -15.4791    1.0000 </r>
       <r>  -15.4046    1.0000 </r>
       <r>  -15.2263    1.0000 </r>
       <r>   -9.7643    1.0000 </r>
       <r>   -9.4742    1.0000 </r>
       <r>   -9.3570    1.0000 </r>
       <r>   -9.0792    1.0000 </r>
       <r>   -8.8542    1.0000 </r>
       <r>   -8.7292    1.0000 </r>
       <r>   -8.5450    1.0000 </r>
       <r>   -8.4969    1.0000 </r>
       <r>   -8.4228    1.0000 </r>
       <r>   -8.3265    1.0000 </r>
       <r>   -8.2704    1.0000 </r>
       <r>   -8.1978    1.0000 </r>
       <r>   -8.1228    1.0000 </r>
       <r>   -8.0575    1.0000 </r>
       <r>   -8.0392    1.0000 </r>
       <r>   -7.8944    1.0000 </r>
       <r>   -7.8242    1.0000 </r>
       <r>   -7.7429    1.0000 </r>
       <r>   -7.6281    1.0000 </r>
       <r>   -7.4056    1.0000 </r>
       <r>   -7.2923    1.0000 </r>
       <r>   -7.2020    1.0000 </r>
       <r>   -7.1447    1.0000 </r>
       <r>   -7.1013    1.0000 </r>
       <r>   -7.0261    1.0000 </r>
       <r>   -6.8955    1.0000 </r>
       <r>   -6.8356    1.0000 </r>
       <r>   -6.7787    1.0000 </r>
       <r>   -6.7334    1.0000 </r>
       <r>   -6.6067    1.0000 </r>
       <r>   -6.5158    1.0000 </r>
       <r>   -6.4900    1.0000 </r>
       <r>   -6.4003    1.0000 </r>
       <r>   -6.3525    1.0000 </r>
       <r>   -6.3012    1.0000 </r>
       <r>   -6.2353    1.0000 </r>
       <r>   -6.1651    1.0000 </r>
       <r>   -6.0600    1.0000 </r>
       <r>   -5.9707    1.0000 </r>
       <r>   -5.8880    1.0000 </r>
       <r>   -5.8674    1.0000 </r>
       <r>   -5.8054    1.0000 </r>
       <r>   -5.6970    1.0000 </r>
       <r>   -5.6217    1.0000 </r>
       <r>   -5.4756    1.0000 </r>
       <r>   -5.3502    1.0000 </r>
       <r>   -5.2707    1.0000 </r>
       <r>   -5.1143    1.0000 </r>
       <r>   -5.0574    1.0000 </r>
       <r>   -4.8912    1.0000 </r>
       <r>   -4.8209    1.0000 </r>
       <r>   -4.6722    1.0000 </r>
       <r>   -4.6287    1.0000 </r>
       <r>   -4.5094    1.0000 </r>
       <r>   -4.4106    1.0000 </r>
       <r>   -4.2575    1.0000 </r>
       <r>   -4.1180    1.0000 </r>
       <r>   -4.0244    1.0000 </r>
       <r>   -3.8137    0.9994 </r>
       <r>   -3.7130    0.9944 </r>
       <r>   -3.5727    0.9385 </r>
       <r>   -3.4065    0.6433 </r>
       <r>   -2.9878    0.0048 </r>
       <r>   -2.8796    0.0004 </r>
       <r>   -2.7081    0.0000 </r>
       <r>   -2.5741    0.0000 </r>
       <r>   -2.5239    0.0000 </r>
       <r>   -2.3934    0.0000 </r>
       <r>   -2.2823    0.0000 </r>
       <r>   -2.1710    0.0000 </r>
       <r>   -2.1375    0.0000 </r>
       <r>   -1.9314    0.0000 </r>
       <r>   -1.7290    0.0000 </r>
       <r>   -1.6487    0.0000 </r>
       <r>   -1.4267    0.0000 </r>
       <r>   -1.3265    0.0000 </r>
       <r>   -1.2352    0.0000 </r>
       <r>   -1.1823    0.0000 </r>
       <r>   -1.0860    0.0000 </r>
       <r>   -1.0303    0.0000 </r>
       <r>   -0.9510    0.0000 </r>
       <r>   -0.8787    0.0000 </r>
       <r>   -0.7815    0.0000 </r>
       <r>   -0.7253    0.0000 </r>
       <r>   -0.6666    0.0000 </r>
       <r>   -0.5714    0.0000 </r>
       <r>   -0.4656    0.0000 </r>
       <r>   -0.4101    0.0000 </r>
       <r>   -0.1845    0.0000 </r>
       <r>   -0.1065    0.0000 </r>
       <r>   -0.0267    0.0000 </r>
       <r>    0.2727    0.0000 </r>
       <r>    0.3963    0.0000 </r>
       <r>    0.5584    0.0000 </r>
       <r>    0.6790    0.0000 </r>
       <r>    0.8974    0.0000 </r>
       <r>    1.0286    0.0000 </r>
       <r>    1.2724    0.0000 </r>
       <r>    1.5312    0.0000 </r>
       <r>    2.1290    0.0000 </r>
       <r>    2.3058    0.0000 </r>
       <r>    2.3867    0.0000 </r>
      </set>
      <set comment="kpoint 32">
       <r>  -17.5537    1.0000 </r>
       <r>  -17.2178    1.0000 </r>
       <r>  -17.0100    1.0000 </r>
       <r>  -16.7289    1.0000 </r>
       <r>  -16.4827    1.0000 </r>
       <r>  -16.3872    1.0000 </r>
       <r>  -16.2984    1.0000 </r>
       <r>  -16.2260    1.0000 </r>
       <r>  -16.1140    1.0000 </r>
       <r>  -16.0542    1.0000 </r>
       <r>  -15.9330    1.0000 </r>
       <r>  -15.8554    1.0000 </r>
       <r>  -15.7585    1.0000 </r>
       <r>  -15.6850    1.0000 </r>
       <r>  -15.6003    1.0000 </r>
       <r>  -15.4905    1.0000 </r>
       <r>  -15.3927    1.0000 </r>
       <r>  -15.2321    1.0000 </r>
       <r>   -9.6948    1.0000 </r>
       <r>   -9.5850    1.0000 </r>
       <r>   -9.4431    1.0000 </r>
       <r>   -9.0246    1.0000 </r>
       <r>   -8.7119    1.0000 </r>
       <r>   -8.6823    1.0000 </r>
       <r>   -8.5493    1.0000 </r>
       <r>   -8.4483    1.0000 </r>
       <r>   -8.4325    1.0000 </r>
       <r>   -8.3471    1.0000 </r>
       <r>   -8.2851    1.0000 </r>
       <r>   -8.2400    1.0000 </r>
       <r>   -8.1355    1.0000 </r>
       <r>   -8.1079    1.0000 </r>
       <r>   -8.0307    1.0000 </r>
       <r>   -7.9385    1.0000 </r>
       <r>   -7.8307    1.0000 </r>
       <r>   -7.7874    1.0000 </r>
       <r>   -7.5860    1.0000 </r>
       <r>   -7.4090    1.0000 </r>
       <r>   -7.3110    1.0000 </r>
       <r>   -7.2486    1.0000 </r>
       <r>   -7.1965    1.0000 </r>
       <r>   -7.1008    1.0000 </r>
       <r>   -7.0034    1.0000 </r>
       <r>   -6.9051    1.0000 </r>
       <r>   -6.8484    1.0000 </r>
       <r>   -6.7352    1.0000 </r>
       <r>   -6.6994    1.0000 </r>
       <r>   -6.5870    1.0000 </r>
       <r>   -6.5292    1.0000 </r>
       <r>   -6.4747    1.0000 </r>
       <r>   -6.4166    1.0000 </r>
       <r>   -6.3524    1.0000 </r>
       <r>   -6.2767    1.0000 </r>
       <r>   -6.2195    1.0000 </r>
       <r>   -6.1202    1.0000 </r>
       <r>   -6.0388    1.0000 </r>
       <r>   -5.9778    1.0000 </r>
       <r>   -5.9050    1.0000 </r>
       <r>   -5.8491    1.0000 </r>
       <r>   -5.7022    1.0000 </r>
       <r>   -5.6783    1.0000 </r>
       <r>   -5.5700    1.0000 </r>
       <r>   -5.4867    1.0000 </r>
       <r>   -5.4131    1.0000 </r>
       <r>   -5.2464    1.0000 </r>
       <r>   -5.1724    1.0000 </r>
       <r>   -5.0743    1.0000 </r>
       <r>   -4.9603    1.0000 </r>
       <r>   -4.8299    1.0000 </r>
       <r>   -4.7019    1.0000 </r>
       <r>   -4.5882    1.0000 </r>
       <r>   -4.4817    1.0000 </r>
       <r>   -4.4028    1.0000 </r>
       <r>   -4.3678    1.0000 </r>
       <r>   -4.1220    1.0000 </r>
       <r>   -4.0330    1.0000 </r>
       <r>   -3.8334    0.9996 </r>
       <r>   -3.6202    0.9699 </r>
       <r>   -3.5480    0.9144 </r>
       <r>   -3.3164    0.3936 </r>
       <r>   -3.0791    0.0257 </r>
       <r>   -2.9038    0.0007 </r>
       <r>   -2.7476    0.0000 </r>
       <r>   -2.5862    0.0000 </r>
       <r>   -2.5321    0.0000 </r>
       <r>   -2.4247    0.0000 </r>
       <r>   -2.2535    0.0000 </r>
       <r>   -2.1704    0.0000 </r>
       <r>   -2.1274    0.0000 </r>
       <r>   -1.9408    0.0000 </r>
       <r>   -1.7776    0.0000 </r>
       <r>   -1.6411    0.0000 </r>
       <r>   -1.4011    0.0000 </r>
       <r>   -1.2989    0.0000 </r>
       <r>   -1.1938    0.0000 </r>
       <r>   -1.1430    0.0000 </r>
       <r>   -1.0576    0.0000 </r>
       <r>   -0.9844    0.0000 </r>
       <r>   -0.9534    0.0000 </r>
       <r>   -0.9025    0.0000 </r>
       <r>   -0.8118    0.0000 </r>
       <r>   -0.7328    0.0000 </r>
       <r>   -0.6631    0.0000 </r>
       <r>   -0.5675    0.0000 </r>
       <r>   -0.5155    0.0000 </r>
       <r>   -0.3963    0.0000 </r>
       <r>   -0.2641    0.0000 </r>
       <r>   -0.0718    0.0000 </r>
       <r>    0.0530    0.0000 </r>
       <r>    0.2772    0.0000 </r>
       <r>    0.4074    0.0000 </r>
       <r>    0.5076    0.0000 </r>
       <r>    0.6783    0.0000 </r>
       <r>    0.8751    0.0000 </r>
       <r>    1.0328    0.0000 </r>
       <r>    1.2700    0.0000 </r>
       <r>    1.5247    0.0000 </r>
       <r>    2.1053    0.0000 </r>
       <r>    2.2711    0.0000 </r>
       <r>    2.5663    0.0000 </r>
      </set>
      <set comment="kpoint 33">
       <r>  -17.5234    1.0000 </r>
       <r>  -17.3105    1.0000 </r>
       <r>  -16.8958    1.0000 </r>
       <r>  -16.7259    1.0000 </r>
       <r>  -16.5080    1.0000 </r>
       <r>  -16.4546    1.0000 </r>
       <r>  -16.3423    1.0000 </r>
       <r>  -16.1826    1.0000 </r>
       <r>  -16.1491    1.0000 </r>
       <r>  -16.0351    1.0000 </r>
       <r>  -15.8818    1.0000 </r>
       <r>  -15.8219    1.0000 </r>
       <r>  -15.7603    1.0000 </r>
       <r>  -15.6829    1.0000 </r>
       <r>  -15.6031    1.0000 </r>
       <r>  -15.5034    1.0000 </r>
       <r>  -15.3955    1.0000 </r>
       <r>  -15.2421    1.0000 </r>
       <r>   -9.7663    1.0000 </r>
       <r>   -9.4752    1.0000 </r>
       <r>   -9.4163    1.0000 </r>
       <r>   -8.9742    1.0000 </r>
       <r>   -8.8042    1.0000 </r>
       <r>   -8.7594    1.0000 </r>
       <r>   -8.6512    1.0000 </r>
       <r>   -8.6111    1.0000 </r>
       <r>   -8.3784    1.0000 </r>
       <r>   -8.2882    1.0000 </r>
       <r>   -8.2359    1.0000 </r>
       <r>   -8.1661    1.0000 </r>
       <r>   -8.0993    1.0000 </r>
       <r>   -8.0739    1.0000 </r>
       <r>   -7.9685    1.0000 </r>
       <r>   -7.9087    1.0000 </r>
       <r>   -7.8599    1.0000 </r>
       <r>   -7.7787    1.0000 </r>
       <r>   -7.5161    1.0000 </r>
       <r>   -7.4818    1.0000 </r>
       <r>   -7.3929    1.0000 </r>
       <r>   -7.3353    1.0000 </r>
       <r>   -7.1398    1.0000 </r>
       <r>   -7.0707    1.0000 </r>
       <r>   -6.9677    1.0000 </r>
       <r>   -6.8984    1.0000 </r>
       <r>   -6.8658    1.0000 </r>
       <r>   -6.7696    1.0000 </r>
       <r>   -6.6665    1.0000 </r>
       <r>   -6.5994    1.0000 </r>
       <r>   -6.5483    1.0000 </r>
       <r>   -6.4650    1.0000 </r>
       <r>   -6.4281    1.0000 </r>
       <r>   -6.3320    1.0000 </r>
       <r>   -6.2819    1.0000 </r>
       <r>   -6.1349    1.0000 </r>
       <r>   -6.0840    1.0000 </r>
       <r>   -6.0299    1.0000 </r>
       <r>   -5.9611    1.0000 </r>
       <r>   -5.9365    1.0000 </r>
       <r>   -5.8760    1.0000 </r>
       <r>   -5.7494    1.0000 </r>
       <r>   -5.6556    1.0000 </r>
       <r>   -5.6144    1.0000 </r>
       <r>   -5.5206    1.0000 </r>
       <r>   -5.4068    1.0000 </r>
       <r>   -5.3046    1.0000 </r>
       <r>   -5.1787    1.0000 </r>
       <r>   -5.0806    1.0000 </r>
       <r>   -4.8620    1.0000 </r>
       <r>   -4.7563    1.0000 </r>
       <r>   -4.7105    1.0000 </r>
       <r>   -4.5851    1.0000 </r>
       <r>   -4.4431    1.0000 </r>
       <r>   -4.4234    1.0000 </r>
       <r>   -4.3782    1.0000 </r>
       <r>   -4.1585    1.0000 </r>
       <r>   -4.0489    1.0000 </r>
       <r>   -3.9082    1.0000 </r>
       <r>   -3.5624    0.9292 </r>
       <r>   -3.4857    0.8232 </r>
       <r>   -3.3046    0.3619 </r>
       <r>   -3.1030    0.0377 </r>
       <r>   -2.9386    0.0016 </r>
       <r>   -2.8250    0.0001 </r>
       <r>   -2.5886    0.0000 </r>
       <r>   -2.5429    0.0000 </r>
       <r>   -2.4635    0.0000 </r>
       <r>   -2.2218    0.0000 </r>
       <r>   -2.1676    0.0000 </r>
       <r>   -2.1222    0.0000 </r>
       <r>   -1.9029    0.0000 </r>
       <r>   -1.8120    0.0000 </r>
       <r>   -1.6232    0.0000 </r>
       <r>   -1.3796    0.0000 </r>
       <r>   -1.2895    0.0000 </r>
       <r>   -1.1496    0.0000 </r>
       <r>   -1.1113    0.0000 </r>
       <r>   -1.0510    0.0000 </r>
       <r>   -0.9833    0.0000 </r>
       <r>   -0.9336    0.0000 </r>
       <r>   -0.8687    0.0000 </r>
       <r>   -0.8471    0.0000 </r>
       <r>   -0.7355    0.0000 </r>
       <r>   -0.6653    0.0000 </r>
       <r>   -0.5823    0.0000 </r>
       <r>   -0.5166    0.0000 </r>
       <r>   -0.4627    0.0000 </r>
       <r>   -0.3713    0.0000 </r>
       <r>   -0.0118    0.0000 </r>
       <r>    0.1031    0.0000 </r>
       <r>    0.2406    0.0000 </r>
       <r>    0.4201    0.0000 </r>
       <r>    0.5264    0.0000 </r>
       <r>    0.6823    0.0000 </r>
       <r>    0.8650    0.0000 </r>
       <r>    1.0647    0.0000 </r>
       <r>    1.2653    0.0000 </r>
       <r>    1.5464    0.0000 </r>
       <r>    2.1422    0.0000 </r>
       <r>    2.3007    0.0000 </r>
       <r>    2.4058    0.0000 </r>
      </set>
      <set comment="kpoint 34">
       <r>  -17.4876    1.0000 </r>
       <r>  -17.3799    1.0000 </r>
       <r>  -16.7503    1.0000 </r>
       <r>  -16.7244    1.0000 </r>
       <r>  -16.6448    1.0000 </r>
       <r>  -16.4841    1.0000 </r>
       <r>  -16.3290    1.0000 </r>
       <r>  -16.1778    1.0000 </r>
       <r>  -16.1583    1.0000 </r>
       <r>  -16.0183    1.0000 </r>
       <r>  -15.8530    1.0000 </r>
       <r>  -15.7940    1.0000 </r>
       <r>  -15.7594    1.0000 </r>
       <r>  -15.6846    1.0000 </r>
       <r>  -15.6116    1.0000 </r>
       <r>  -15.5114    1.0000 </r>
       <r>  -15.4026    1.0000 </r>
       <r>  -15.2466    1.0000 </r>
       <r>   -9.8050    1.0000 </r>
       <r>   -9.3965    1.0000 </r>
       <r>   -9.3507    1.0000 </r>
       <r>   -8.9395    1.0000 </r>
       <r>   -8.9091    1.0000 </r>
       <r>   -8.8799    1.0000 </r>
       <r>   -8.7036    1.0000 </r>
       <r>   -8.6308    1.0000 </r>
       <r>   -8.3534    1.0000 </r>
       <r>   -8.2990    1.0000 </r>
       <r>   -8.2242    1.0000 </r>
       <r>   -8.1443    1.0000 </r>
       <r>   -8.0719    1.0000 </r>
       <r>   -8.0328    1.0000 </r>
       <r>   -7.9117    1.0000 </r>
       <r>   -7.8910    1.0000 </r>
       <r>   -7.7643    1.0000 </r>
       <r>   -7.7587    1.0000 </r>
       <r>   -7.6678    1.0000 </r>
       <r>   -7.4559    1.0000 </r>
       <r>   -7.4279    1.0000 </r>
       <r>   -7.3479    1.0000 </r>
       <r>   -7.0938    1.0000 </r>
       <r>   -7.0546    1.0000 </r>
       <r>   -6.9852    1.0000 </r>
       <r>   -6.9021    1.0000 </r>
       <r>   -6.8261    1.0000 </r>
       <r>   -6.7835    1.0000 </r>
       <r>   -6.6824    1.0000 </r>
       <r>   -6.5942    1.0000 </r>
       <r>   -6.5464    1.0000 </r>
       <r>   -6.4584    1.0000 </r>
       <r>   -6.4454    1.0000 </r>
       <r>   -6.3114    1.0000 </r>
       <r>   -6.2842    1.0000 </r>
       <r>   -6.1849    1.0000 </r>
       <r>   -6.1133    1.0000 </r>
       <r>   -6.0221    1.0000 </r>
       <r>   -5.9535    1.0000 </r>
       <r>   -5.9252    1.0000 </r>
       <r>   -5.7922    1.0000 </r>
       <r>   -5.7580    1.0000 </r>
       <r>   -5.7373    1.0000 </r>
       <r>   -5.5803    1.0000 </r>
       <r>   -5.5451    1.0000 </r>
       <r>   -5.4793    1.0000 </r>
       <r>   -5.3130    1.0000 </r>
       <r>   -5.1319    1.0000 </r>
       <r>   -5.1268    1.0000 </r>
       <r>   -4.8164    1.0000 </r>
       <r>   -4.7157    1.0000 </r>
       <r>   -4.6786    1.0000 </r>
       <r>   -4.4984    1.0000 </r>
       <r>   -4.4635    1.0000 </r>
       <r>   -4.4276    1.0000 </r>
       <r>   -4.3659    1.0000 </r>
       <r>   -4.2304    1.0000 </r>
       <r>   -4.0505    1.0000 </r>
       <r>   -3.9545    1.0000 </r>
       <r>   -3.5458    0.9119 </r>
       <r>   -3.4189    0.6754 </r>
       <r>   -3.3665    0.5338 </r>
       <r>   -3.0646    0.0202 </r>
       <r>   -2.9545    0.0023 </r>
       <r>   -2.8804    0.0004 </r>
       <r>   -2.5790    0.0000 </r>
       <r>   -2.5577    0.0000 </r>
       <r>   -2.4808    0.0000 </r>
       <r>   -2.2086    0.0000 </r>
       <r>   -2.1620    0.0000 </r>
       <r>   -2.1217    0.0000 </r>
       <r>   -1.8800    0.0000 </r>
       <r>   -1.8217    0.0000 </r>
       <r>   -1.6115    0.0000 </r>
       <r>   -1.3666    0.0000 </r>
       <r>   -1.2872    0.0000 </r>
       <r>   -1.1303    0.0000 </r>
       <r>   -1.1017    0.0000 </r>
       <r>   -1.0696    0.0000 </r>
       <r>   -1.0049    0.0000 </r>
       <r>   -0.9244    0.0000 </r>
       <r>   -0.8477    0.0000 </r>
       <r>   -0.8228    0.0000 </r>
       <r>   -0.7141    0.0000 </r>
       <r>   -0.6508    0.0000 </r>
       <r>   -0.6027    0.0000 </r>
       <r>   -0.5858    0.0000 </r>
       <r>   -0.4867    0.0000 </r>
       <r>   -0.3911    0.0000 </r>
       <r>    0.0006    0.0000 </r>
       <r>    0.1179    0.0000 </r>
       <r>    0.2156    0.0000 </r>
       <r>    0.4370    0.0000 </r>
       <r>    0.5391    0.0000 </r>
       <r>    0.6886    0.0000 </r>
       <r>    0.8712    0.0000 </r>
       <r>    1.0835    0.0000 </r>
       <r>    1.2609    0.0000 </r>
       <r>    1.5630    0.0000 </r>
       <r>    2.2244    0.0000 </r>
       <r>    2.2620    0.0000 </r>
       <r>    2.3931    0.0000 </r>
      </set>
     </set>
    </set>
   </array>
  </eigenvalues>
  <separator name="orbital magnetization" >
   <v name="MAGDIPOLOUT">      0.00000000      0.00000000      0.00000000</v>
  </separator>
 </calculation>
 <structure name="finalpos" >
  <crystal>
   <varray name="basis" >
    <v>       8.32424995       4.82058854       0.00000000 </v>
    <v>      -8.32594402       4.82351230       0.00000000 </v>
    <v>       0.00000000       0.00000000      30.00000000 </v>
   </varray>
   <i name="volume">   2408.64216991 </i>
   <varray name="rec_basis" >
    <v>       0.06007757       0.10370088       0.00000000 </v>
    <v>      -0.06004115       0.10367978       0.00000000 </v>
    <v>       0.00000000       0.00000000       0.03333333 </v>
   </varray>
  </crystal>
  <varray name="positions" >
   <v>       0.70204548       0.34214782      -0.00148835 </v>
   <v>       0.68852775       0.69185270       0.00026714 </v>
   <v>       0.34804040       0.70432802       0.00210228 </v>
   <v>       0.69145399       0.00763323      -0.00059591 </v>
   <v>      -0.00307925      -0.00328823      -0.00008158 </v>
   <v>       0.00791298       0.69226181       0.00059149 </v>
   <v>       0.98489553       0.29840811      -0.00054052 </v>
   <v>       0.29842361      -0.01525046       0.00023264 </v>
   <v>       0.29920887       0.29812750      -0.00026319 </v>
   <v>       0.10244266       0.21356715       0.94310754 </v>
   <v>       0.21387869       0.10263510       0.05659527 </v>
   <v>       0.11696184       0.55407280       0.95697116 </v>
   <v>       0.22293093       0.44818261       0.04736160 </v>
   <v>       0.10404157       0.88842053       0.94330345 </v>
   <v>       0.22361265       0.77994054       0.05541141 </v>
   <v>       0.44681535       0.22157182       0.95172725 </v>
   <v>       0.55297930       0.11572990       0.04359373 </v>
   <v>       0.44191521       0.55638438       0.95822036 </v>
   <v>       0.55628078       0.44222766       0.04149257 </v>
   <v>       0.44405206       0.89602864       0.95016799 </v>
   <v>       0.55918756       0.77891801       0.05124981 </v>
   <v>       0.77963883       0.22349242       0.94442153 </v>
   <v>       0.88873446       0.10461250       0.05647308 </v>
   <v>       0.77678835       0.55778939       0.95012555 </v>
   <v>       0.89597731       0.44349146       0.04965916 </v>
   <v>       0.77302847       0.88200517       0.94529502 </v>
   <v>       0.88151905       0.77292387       0.05459943 </v>
  </varray>
 </structure>
</modeling>
