unknown system                          
           1
     8.855042    5.105731    0.000000
    -8.855042    5.105732    0.000000
     0.000000    0.000000   30.000000
   V    Mo   W    S 
   3   3   3  18
Direct configuration=     1
   0.66666669  0.33333334  0.00000000
   0.66666669  0.66666669  0.00000000
   0.33333334  0.66666669  0.00000000
   0.66666669  0.00000000  0.00000000
   0.00000000  0.00000000  0.00000000
   0.00000000  0.66666669  0.00000000
   1.00000000  0.33333334  0.00000000
   0.33333334  0.00000000  0.00000000
   0.33333334  0.33333334  0.00000000
   0.11068511  0.22244981  0.95539999
   0.22244981  0.11068511  0.04460000
   0.11068511  0.55578315  0.95539999
   0.22244981  0.44401845  0.04460000
   0.11068511  0.88911647  0.95539999
   0.22244981  0.77735180  0.04460000
   0.44401845  0.22244981  0.95539999
   0.55578315  0.11068511  0.04460000
   0.44401845  0.55578315  0.95539999
   0.55578315  0.44401845  0.04460000
   0.44401845  0.88911647  0.95539999
   0.55578315  0.77735180  0.04460000
   0.77735180  0.22244981  0.95539999
   0.88911647  0.11068511  0.04460000
   0.77735180  0.55578315  0.95539999
   0.88911647  0.44401845  0.04460000
   0.77735180  0.88911647  0.95539999
   0.88911647  0.77735180  0.04460000
unknown system                          
           1
     8.667207    4.999612    0.000000
    -8.667202    4.999604    0.000000
     0.000000    0.000000   30.000000
   V    Mo   W    S 
   3   3   3  18
Direct configuration=     2
   0.66775131  0.33369573 -0.00014326
   0.66855998  0.66856002  0.00000000
   0.33369585  0.66775150  0.00014326
   0.66797080 -0.00033064  0.00009791
  -0.00137977 -0.00137980 -0.00000001
  -0.00033055  0.66797089 -0.00009790
   0.99838126  0.33200259 -0.00023281
   0.33200260 -0.00161882  0.00023279
   0.33263799  0.33263800 -0.00000001
   0.11138460  0.22293292  0.95071985
   0.22293301  0.11138468  0.04928013
   0.11496903  0.55663313  0.95201902
   0.22407452  0.44825341  0.04809957
   0.11191450  0.88931392  0.95074954
   0.22521256  0.77631746  0.04807215
   0.44825348  0.22407449  0.95190045
   0.55663320  0.11496903  0.04798093
   0.44583569  0.55892290  0.95315723
   0.55892286  0.44583562  0.04684279
   0.44181341  0.88480392  0.95195065
   0.55340847  0.77325714  0.04689444
   0.77631739  0.22521236  0.95192789
   0.88931371  0.11191438  0.04925039
   0.77325698  0.55340831  0.95310548
   0.88480370  0.44181318  0.04804939
   0.77551591  0.88436218  0.95189653
   0.88436195  0.77551593  0.04810350
unknown system                          
           1
     8.484848    4.899910    0.000000
    -8.484839    4.899894    0.000000
     0.000000    0.000000   30.000000
   V    Mo   W    S 
   3   3   3  18
Direct configuration=     3
   0.66812809  0.33374497 -0.00011697
   0.66920502  0.66920579  0.00000001
   0.33374443  0.66812895  0.00011693
   0.66869729 -0.00008807  0.00013960
  -0.00152653 -0.00152645  0.00000006
  -0.00008500  0.66869887 -0.00013960
   0.99788707  0.33132542 -0.00025644
   0.33132442 -0.00211569  0.00025644
   0.33203817  0.33203911  0.00000001
   0.11145131  0.22314233  0.95069668
   0.22314288  0.11145154  0.04930310
   0.11496851  0.55647012  0.95209225
   0.22402633  0.44812378  0.04802043
   0.11216577  0.88947240  0.95067271
   0.22537584  0.77650604  0.04813875
   0.44812542  0.22402774  0.95197968
   0.55647082  0.11496986  0.04790781
   0.44577813  0.55873634  0.95328384
   0.55873679  0.44577683  0.04671609
   0.44164721  0.88482437  0.95200306
   0.55337244  0.77316867  0.04687557
   0.77650554  0.22537604  0.95186149
   0.88947203  0.11216574  0.04932698
   0.77316824  0.55337169  0.95312455
   0.88482259  0.44164641  0.04799706
   0.77539538  0.88417654  0.95181155
   0.88417626  0.77539512  0.04818825
unknown system                          
           1
     8.266725    4.775599    0.000000
    -8.267488    4.776921    0.000000
     0.000000    0.000000   30.000000
   V    Mo   W    S 
   3   3   3  18
Direct configuration=     4
   0.66952193  0.33351861  0.00004380
   0.67163719  0.67163931 -0.00000005
   0.33351724  0.66952242 -0.00004402
   0.67184857  0.00149472  0.00022860
  -0.00139902 -0.00139934  0.00000008
   0.00150224  0.67185296 -0.00022848
   0.99613414  0.32832117 -0.00022979
   0.32831821 -0.00387242  0.00022964
   0.32913904  0.32914178 -0.00000023
   0.11123079  0.22304430  0.94894146
   0.22304280  0.11123031  0.05105840
   0.11602923  0.55696964  0.95096089
   0.22439228  0.44904757  0.04918777
   0.11236550  0.88978891  0.94875537
   0.22579886  0.77588651  0.04991602
   0.44904365  0.22438983  0.95081319
   0.55696766  0.11602556  0.04903822
   0.44636686  0.55954542  0.95244966
   0.55954307  0.44636886  0.04755039
   0.44124750  0.88394788  0.95080155
   0.55290609  0.77207541  0.04812422
   0.77588891  0.22579811  0.95008492
   0.88978918  0.11236503  0.05124469
   0.77207796  0.55290979  0.95187560
   0.88395219  0.44124919  0.04919768
   0.77460469  0.88274760  0.95003824
   0.88274771  0.77460532  0.04996206
unknown system                          
           1
     8.261113    4.779304    0.000000
    -8.260928    4.778986    0.000000
     0.000000    0.000000   30.000000
   V    Mo   W    S 
   3   3   3  18
Direct configuration=     5
   0.67248959  0.33271721  0.00038260
   0.67594447  0.67584997  0.00000076
   0.33276104  0.67242924 -0.00037478
   0.67878529  0.00553967  0.00021716
  -0.00000869 -0.00002746 -0.00000380
   0.00527585  0.67866246 -0.00021744
   0.99240966  0.32136120 -0.00007957
   0.32144225 -0.00733532  0.00007914
   0.32339545  0.32328198  0.00000024
   0.11019004  0.22206443  0.94629247
   0.22205686  0.11018165  0.05371487
   0.11639618  0.55722239  0.94961197
   0.22427127  0.44973951  0.05062219
   0.11198186  0.89009662  0.94589085
   0.22579674  0.77513146  0.05255150
   0.44981309  0.22430287  0.94938896
   0.55726082  0.11648034  0.05037075
   0.44699534  0.56001527  0.95152756
   0.56005615  0.44696064  0.04845239
   0.44173748  0.88375081  0.94940489
   0.55306743  0.77158984  0.04992499
   0.77509033  0.22583935  0.94745667
   0.89009724  0.11198025  0.05411482
   0.77154579  0.55298671  0.95008656
   0.88366476  0.44169328  0.05057725
   0.77414045  0.88155335  0.94753744
   0.88155773  0.77414674  0.05246945
unknown system                          
           1
     8.261131    4.779368    0.000000
    -8.260958    4.779071    0.000000
     0.000000    0.000000   30.000000
   V    Mo   W    S 
   3   3   3  18
Direct configuration=     6
   0.67395884  0.33255444  0.00037215
   0.67726523  0.67718754 -0.00000066
   0.33258004  0.67390735 -0.00037290
   0.68098944  0.00673337  0.00017557
   0.00096915  0.00091470 -0.00000549
   0.00657376  0.68092742 -0.00017697
   0.99141792  0.31861335 -0.00008711
   0.31860502 -0.00845405  0.00008996
   0.32123000  0.32116611  0.00000016
   0.10959447  0.22165981  0.94588863
   0.22164317  0.10959304  0.05412873
   0.11524673  0.55654742  0.94987202
   0.22364457  0.44917288  0.05050216
   0.11139866  0.89022247  0.94542369
   0.22564222  0.77533765  0.05283112
   0.44923555  0.22366927  0.94948696
   0.55657048  0.11530465  0.05013272
   0.44669238  0.55946622  0.95182056
   0.55950419  0.44667545  0.04817795
   0.44248421  0.88486139  0.94956930
   0.55355468  0.77231553  0.04990719
   0.77529273  0.22567603  0.94714283
   0.89025276  0.11141618  0.05458676
   0.77227564  0.55349529  0.95008464
   0.88483145  0.44248232  0.05043966
   0.77463869  0.88211519  0.94734151
   0.88212246  0.77465344  0.05266879
unknown system                          
           1
     8.258818    4.781985    0.000000
    -8.258294    4.781082    0.000000
     0.000000    0.000000   30.000000
   V    Mo   W    S 
   3   3   3  18
Direct configuration=     7
   0.67399590  0.33255628  0.00037350
   0.67729568  0.67721767 -0.00000064
   0.33258271  0.67394314 -0.00037423
   0.68103922  0.00675666  0.00017572
   0.00098722  0.00093256 -0.00000537
   0.00659485  0.68097623 -0.00017702
   0.99139397  0.31855243 -0.00008624
   0.31854452 -0.00847560  0.00008907
   0.32118216  0.32111766  0.00000014
   0.10958665  0.22165428  0.94588143
   0.22163751  0.10958506  0.05413593
   0.11522716  0.55653377  0.94987987
   0.22363330  0.44916206  0.05049836
   0.11138892  0.89022555  0.94541628
   0.22563964  0.77534174  0.05283636
   0.44922487  0.22365802  0.94949091
   0.55655697  0.11528544  0.05012469
   0.44668561  0.55945554  0.95182930
   0.55949362  0.44666831  0.04816907
   0.44249502  0.88488185  0.94957437
   0.55356096  0.77232606  0.04990540
   0.77529691  0.22567373  0.94713778
   0.89025560  0.11140621  0.05459394
   0.77228602  0.55350129  0.95008646
   0.88485118  0.44249271  0.05043448
   0.77464725  0.88212382  0.94733892
   0.88213102  0.77466198  0.05267142
unknown system                          
           1
     8.258476    4.780493    0.000000
    -8.258134    4.779905    0.000000
     0.000000    0.000000   30.000000
   V    Mo   W    S 
   3   3   3  18
Direct configuration=     8
   0.67580201  0.33262563  0.00043075
   0.67868510  0.67870410 -0.00000140
   0.33261536  0.67588492 -0.00044287
   0.68349319  0.00787643  0.00018126
   0.00193715  0.00191811  0.00000362
   0.00798833  0.68353372 -0.00017670
   0.99027379  0.31549183 -0.00004438
   0.31546589 -0.00983159  0.00004588
   0.31870262  0.31872846 -0.00000140
   0.10917358  0.22137073  0.94550818
   0.22135735  0.10918373  0.05450377
   0.11436995  0.55590564  0.95025165
   0.22311921  0.44872613  0.05032170
   0.11092115  0.89036339  0.94503486
   0.22554831  0.77549524  0.05309291
   0.44872226  0.22312008  0.94965839
   0.55588496  0.11433939  0.04976714
   0.44633462  0.55898526  0.95224036
   0.55898136  0.44633985  0.04777905
   0.44296971  0.88578143  0.94981485
   0.55377222  0.77277913  0.04983075
   0.77550570  0.22555566  0.94687549
   0.89038988  0.11093588  0.05496155
   0.77278398  0.55378999  0.95014679
   0.88583213  0.44301066  0.05021318
   0.77505145  0.88254540  0.94718463
   0.88253318  0.77505526  0.05281989
unknown system                          
           1
     8.258255    4.772946    0.000000
    -8.256178    4.769368    0.000000
     0.000000    0.000000   30.000000
   V    Mo   W    S 
   3   3   3  18
Direct configuration=     9
   0.67539542  0.33257551  0.00042075
   0.67839240  0.67837781 -0.00000074
   0.33259236  0.67542190 -0.00043043
   0.68304608  0.00770355  0.00018246
   0.00179062  0.00175325  0.00000228
   0.00770506  0.68304385 -0.00017764
   0.99047665  0.31606577 -0.00004462
   0.31604769 -0.00953048  0.00004680
   0.31921580  0.31920829 -0.00000145
   0.10925169  0.22141547  0.94558313
   0.22139630  0.10925704  0.05443301
   0.11450861  0.55602812  0.95016667
   0.22320491  0.44879053  0.05036315
   0.11102281  0.89033251  0.94511403
   0.22555953  0.77547309  0.05304573
   0.44881295  0.22321486  0.94961966
   0.55602217  0.11451044  0.04984756
   0.44640737  0.55906491  0.95214858
   0.55907704  0.44640015  0.04786371
   0.44289271  0.88561312  0.94977052
   0.55376669  0.77272764  0.04984671
   0.77546352  0.22558070  0.94692051
   0.89036044  0.11103778  0.05488373
   0.77271329  0.55375355  0.95013298
   0.88563468  0.44292015  0.05025474
   0.77498787  0.88247692  0.94721710
   0.88246981  0.77499802  0.05279095
unknown system                          
           1
     8.250292    4.757647    0.000000
    -8.248640    4.754824    0.000000
     0.000000    0.000000   30.000000
   V    Mo   W    S 
   3   3   3  18
Direct configuration=    10
   0.67263689  0.33225049  0.00035881
   0.67697417  0.67715198 -0.00000423
   0.33229782  0.67312230 -0.00040928
   0.68127868  0.00636907  0.00012896
   0.00115059  0.00112432 -0.00000346
   0.00698097  0.68149116 -0.00013392
   0.99206972  0.31839668 -0.00008671
   0.31830900 -0.00854792  0.00008734
   0.32122996  0.32143012 -0.00000453
   0.10952193  0.22160716  0.94579411
   0.22155323  0.10960533  0.05425781
   0.11501237  0.55660054  0.94984383
   0.22346324  0.44908326  0.05057416
   0.11135163  0.89015936  0.94528226
   0.22569050  0.77533413  0.05282706
   0.44896961  0.22345061  0.94931877
   0.55645381  0.11472686  0.05027351
   0.44669556  0.55945902  0.95176009
   0.55937472  0.44674754  0.04833027
   0.44264104  0.88483989  0.94972719
   0.55383220  0.77272230  0.04986934
   0.77540457  0.22563219  0.94698765
   0.89027554  0.11141381  0.05472516
   0.77278428  0.55400284  0.95001907
   0.88524480  0.44290997  0.05044520
   0.77480021  0.88227248  0.94733878
   0.88221741  0.77485898  0.05269267
unknown system                          
           1
     8.245960    4.756168    0.000000
    -8.244005    4.752829    0.000000
     0.000000    0.000000   30.000000
   V    Mo   W    S 
   3   3   3  18
Direct configuration=    11
   0.66615024  0.33100032  0.00025765
   0.67334854  0.67359629 -0.00000187
   0.33108085  0.66705745 -0.00031084
   0.67752140  0.00441226  0.00008008
  -0.00017763 -0.00013001  0.00004369
   0.00527236  0.67779308 -0.00006664
   0.99513729  0.32388615 -0.00013528
   0.32387982 -0.00567504  0.00014595
   0.32645554  0.32671709  0.00000271
   0.11029810  0.22204230  0.94635288
   0.22199236  0.11042316  0.05366137
   0.11618816  0.55791709  0.94894207
   0.22425658  0.44980298  0.05118165
   0.11238854  0.88992203  0.94587451
   0.22605559  0.77495646  0.05236249
   0.44948118  0.22419504  0.94865850
   0.55768702  0.11567307  0.05122621
   0.44744694  0.56034759  0.95067022
   0.56016914  0.44751736  0.04946549
   0.44200366  0.88306487  0.94948823
   0.55390998  0.77246106  0.05002187
   0.77521970  0.22592900  0.94743951
   0.89006899  0.11245044  0.05409493
   0.77263779  0.55428832  0.94983500
   0.88366872  0.44235879  0.05070811
   0.77441917  0.88173562  0.94756204
   0.88165445  0.77447169  0.05243935
unknown system                          
           1
     8.246591    4.770793    0.000000
    -8.245570    4.769068    0.000000
     0.000000    0.000000   30.000000
   V    Mo   W    S 
   3   3   3  18
Direct configuration=    12
   0.66315892  0.32992129  0.00023141
   0.67198391  0.67222556 -0.00001244
   0.33000564  0.66427452 -0.00029063
   0.67633222  0.00416217  0.00005068
  -0.00088915 -0.00077470  0.00001599
   0.00509833  0.67664716 -0.00006008
   0.99654854  0.32626487 -0.00016470
   0.32628990 -0.00437055  0.00016464
   0.32853853  0.32879449 -0.00000490
   0.11068157  0.22225253  0.94656910
   0.22224704  0.11080945  0.05344971
   0.11663396  0.55832206  0.94858967
   0.22458761  0.44997871  0.05146035
   0.11280524  0.89003366  0.94611956
   0.22634462  0.77487475  0.05220368
   0.44962280  0.22449405  0.94838906
   0.55809597  0.11612235  0.05156735
   0.44764351  0.56054014  0.95023015
   0.56035449  0.44772341  0.04990812
   0.44172897  0.88233785  0.94943457
   0.55382372  0.77228581  0.05005938
   0.77513047  0.22619235  0.94764175
   0.89016382  0.11286400  0.05388100
   0.77247465  0.55419357  0.94982532
   0.88293009  0.44206292  0.05073040
   0.77434215  0.88161515  0.94765149
   0.88153692  0.77436686  0.05235927
unknown system                          
           1
     8.244114    4.765261    0.000000
    -8.243667    4.764532    0.000000
     0.000000    0.000000   30.000000
   V    Mo   W    S 
   3   3   3  18
Direct configuration=    13
   0.66467840  0.32906104  0.00032632
   0.67384771  0.67395785 -0.00001577
   0.32906427  0.66564743 -0.00035209
   0.67926063  0.00635175  0.00008414
  -0.00070381 -0.00047803 -0.00000206
   0.00698492  0.67949191 -0.00009756
   0.99554715  0.32380917 -0.00013686
   0.32390107 -0.00513438  0.00014181
   0.32617132  0.32629691 -0.00000394
   0.11049252  0.22212535  0.94621027
   0.22219852  0.11053704  0.05376467
   0.11583714  0.55745817  0.94895605
   0.22419551  0.44938862  0.05135044
   0.11242227  0.89059315  0.94579706
   0.22652864  0.77514276  0.05251239
   0.44911295  0.22406364  0.94859019
   0.55735654  0.11558848  0.05108334
   0.44717617  0.55983262  0.95065196
   0.55971060  0.44723668  0.04941730
   0.44213046  0.88323637  0.94966307
   0.55368014  0.77238890  0.04994013
   0.77528920  0.22641187  0.94752599
   0.89060097  0.11242343  0.05422538
   0.77252369  0.55385991  0.95005887
   0.88347905  0.44222406  0.05032021
   0.77471894  0.88202916  0.94747801
   0.88200949  0.77467060  0.05251058
unknown system                          
           1
     8.248255    4.770543    0.000000
    -8.248281    4.770624    0.000000
     0.000000    0.000000   30.000000
   V    Mo   W    S 
   3   3   3  18
Direct configuration=    14
   0.66446606  0.32836306  0.00036678
   0.67433691  0.67430869 -0.00003084
   0.32841135  0.66554495 -0.00038271
   0.68108157  0.00735547  0.00002863
   0.00003709  0.00029353 -0.00005637
   0.00778379  0.68128372 -0.00008561
   0.99499307  0.32202405 -0.00010886
   0.32226662 -0.00539490  0.00006781
   0.32537801  0.32529418 -0.00002498
   0.11031821  0.22182051  0.94606007
   0.22193152  0.11035745  0.05394578
   0.11525310  0.55721636  0.94909418
   0.22395039  0.44917585  0.05128905
   0.11224246  0.89072828  0.94561022
   0.22640054  0.77531306  0.05266081
   0.44894987  0.22383732  0.94867294
   0.55717795  0.11509623  0.05093566
   0.44703257  0.55953901  0.95086539
   0.55945917  0.44708074  0.04920216
   0.44254923  0.88376337  0.94989233
   0.55398947  0.77277806  0.04985121
   0.77545221  0.22631083  0.94743473
   0.89072810  0.11224965  0.05446486
   0.77290519  0.55411562  0.95017900
   0.88386394  0.44255626  0.05004787
   0.77500732  0.88226620  0.94741860
   0.88224874  0.77493693  0.05260119
unknown system                          
           1
     8.254305    4.779470    0.000000
    -8.254164    4.779255    0.000000
     0.000000    0.000000   30.000000
   V    Mo   W    S 
   3   3   3  18
Direct configuration=    15
   0.66701709  0.32904302  0.00039660
   0.67578621  0.67579635 -0.00000841
   0.32903481  0.66788059 -0.00039393
   0.68229367  0.00785672  0.00009797
   0.00022722  0.00047116  0.00001175
   0.00827531  0.68246105 -0.00009506
   0.99392481  0.32016475 -0.00006603
   0.32035461 -0.00647904  0.00007106
   0.32342499  0.32341242 -0.00000184
   0.11004913  0.22174743  0.94585232
   0.22180986  0.11005536  0.05410184
   0.11488968  0.55675986  0.94938715
   0.22366068  0.44895016  0.05108319
   0.11194126  0.89075618  0.94540129
   0.22631323  0.77539897  0.05280023
   0.44873105  0.22354360  0.94887606
   0.55672088  0.11474359  0.05062453
   0.44681730  0.55931116  0.95124124
   0.55922258  0.44686331  0.04880938
   0.44274933  0.88435349  0.94993902
   0.55389417  0.77283532  0.04978162
   0.77553830  0.22624674  0.94728584
   0.89073436  0.11192513  0.05460902
   0.77295149  0.55401157  0.95023390
   0.88444289  0.44274799  0.04998780
   0.77503252  0.88237295  0.94732592
   0.88237705  0.77498465  0.05264741
unknown system                          
           1
     8.254434    4.780246    0.000000
    -8.254310    4.780063    0.000000
     0.000000    0.000000   30.000000
   V    Mo   W    S 
   3   3   3  18
Direct configuration=    16
   0.66916219  0.32865883  0.00048160
   0.67786695  0.67784616 -0.00001814
   0.32862305  0.67002013 -0.00047969
   0.68542349  0.00945702  0.00007150
   0.00093752  0.00120692 -0.00002004
   0.00990530  0.68563886 -0.00009708
   0.99250347  0.31670499 -0.00005470
   0.31690545 -0.00790383  0.00003059
   0.32055790  0.32050204 -0.00001530
   0.10962348  0.22144067  0.94546605
   0.22149640  0.10960321  0.05450767
   0.11387045  0.55603962  0.94984833
   0.22317295  0.44846969  0.05086330
   0.11140581  0.89103545  0.94493397
   0.22619766  0.77570607  0.05309422
   0.44829533  0.22304925  0.94910305
   0.55602802  0.11378024  0.05016383
   0.44640670  0.55877875  0.95185033
   0.55870884  0.44646808  0.04820780
   0.44338126  0.88547615  0.95029045
   0.55403404  0.77325220  0.04960745
   0.77579487  0.22614212  0.94701722
   0.89099312  0.11138575  0.05511492
   0.77335748  0.55410508  0.95042000
   0.88551002  0.44335391  0.04961692
   0.77529805  0.88273745  0.94714489
   0.88275466  0.77525963  0.05285076
unknown system                          
           1
     8.255758    4.784983    0.000000
    -8.255743    4.784987    0.000000
     0.000000    0.000000   30.000000
   V    Mo   W    S 
   3   3   3  18
Direct configuration=    17
   0.66837606  0.32817114  0.00049253
   0.67779532  0.67774462 -0.00000942
   0.32814761  0.66934483 -0.00047188
   0.68572795  0.00963407  0.00007830
   0.00085490  0.00114861  0.00000778
   0.01007910  0.68594014 -0.00006850
   0.99272544  0.31675599 -0.00003371
   0.31700439 -0.00766164  0.00004658
   0.32075586  0.32065118 -0.00000095
   0.10969915  0.22146907  0.94544339
   0.22151892  0.10966732  0.05450522
   0.11378300  0.55604822  0.94981026
   0.22318775  0.44843833  0.05090795
   0.11145945  0.89113214  0.94490089
   0.22625574  0.77575144  0.05308539
   0.44827645  0.22306087  0.94903316
   0.55604606  0.11369676  0.05019608
   0.44641308  0.55876415  0.95181264
   0.55869414  0.44647687  0.04824789
   0.44343391  0.88546148  0.95035785
   0.55407739  0.77329796  0.04956751
   0.77582754  0.22620664  0.94701552
   0.89108054  0.11143663  0.05511847
   0.77340545  0.55413630  0.95045219
   0.88548497  0.44339700  0.04952960
   0.77532764  0.88274603  0.94713394
   0.88277662  0.77529831  0.05284122
unknown system                          
           1
     8.260442    4.792613    0.000000
    -8.260518    4.792774    0.000000
     0.000000    0.000000   30.000000
   V    Mo   W    S 
   3   3   3  18
Direct configuration=    18
   0.67006982  0.32797465  0.00055715
   0.67943335  0.67935226 -0.00000495
   0.32794337  0.67105923 -0.00052115
   0.68791318  0.01063249  0.00009603
   0.00133428  0.00163483  0.00002179
   0.01107164  0.68813007 -0.00006693
   0.99165888  0.31427447  0.00000155
   0.31454282 -0.00869264  0.00002633
   0.31859298  0.31844204  0.00000390
   0.10941011  0.22127920  0.94516390
   0.22131498  0.10935888  0.05477136
   0.11301532  0.55553140  0.95016675
   0.22283265  0.44808901  0.05070648
   0.11107404  0.89132929  0.94456960
   0.22614015  0.77596905  0.05328310
   0.44795607  0.22270994  0.94922243
   0.55554196  0.11294707  0.04983638
   0.44612432  0.55839364  0.95228479
   0.55832599  0.44619676  0.04777882
   0.44389789  0.88630450  0.95061749
   0.55418992  0.77358841  0.04942933
   0.77602713  0.22609834  0.94681560
   0.89125824  0.11104757  0.05543387
   0.77370178  0.55424061  0.95058592
   0.88631698  0.44385746  0.04925465
   0.77550301  0.88298234  0.94699354
   0.88302361  0.77548359  0.05297214
unknown system                          
           1
     8.264296    4.807531    0.000000
    -8.264554    4.808005    0.000000
     0.000000    0.000000   30.000000
   V    Mo   W    S 
   3   3   3  18
Direct configuration=    19
   0.67113100  0.32731329  0.00060526
   0.68115603  0.68102006 -0.00002162
   0.32732359  0.67228487 -0.00058352
   0.69005933  0.01158152  0.00007380
   0.00166812  0.00197242 -0.00001031
   0.01204629  0.69032362 -0.00008850
   0.99088535  0.31213894 -0.00001161
   0.31243836 -0.00941833 -0.00001548
   0.31655622  0.31630070 -0.00002027
   0.10917687  0.22111765  0.94490152
   0.22113630  0.10910330  0.05507159
   0.11217454  0.55503934  0.95051103
   0.22250593  0.44774028  0.05055593
   0.11072612  0.89163587  0.94425308
   0.22605756  0.77622671  0.05348496
   0.44762439  0.22237502  0.94936052
   0.55505018  0.11210869  0.04951510
   0.44586167  0.55801491  0.95276175
   0.55794835  0.44594960  0.04732881
   0.44441699  0.88713090  0.95094712
   0.55432354  0.77388588  0.04927043
   0.77627039  0.22601041  0.94664430
   0.89154584  0.11067808  0.05579623
   0.77402449  0.55437448  0.95075330
   0.88714459  0.44439285  0.04892065
   0.77570262  0.88322523  0.94685195
   0.88325980  0.77568815  0.05314390
unknown system                          
           1
     8.274834    4.819628    0.000000
    -8.275550    4.820892    0.000000
     0.000000    0.000000   30.000000
   V    Mo   W    S 
   3   3   3  18
Direct configuration=    20
   0.67437755  0.32562956  0.00076425
   0.68609090  0.68579185 -0.00000504
   0.32581142  0.67601453 -0.00065596
   0.69497153  0.01362299  0.00018588
   0.00238228  0.00271264  0.00006876
   0.01405834  0.69523610 -0.00007864
   0.98892072  0.30711238  0.00010632
   0.30756261 -0.01112184 -0.00001358
   0.31109185  0.31052393  0.00001286
   0.10847948  0.22064169  0.94420413
   0.22061605  0.10832281  0.05570605
   0.11005757  0.55377182  0.95139923
   0.22164033  0.44677971  0.05004468
   0.10981665  0.89247418  0.94346631
   0.22572181  0.77695488  0.05392348
   0.44676309  0.22150585  0.94974363
   0.55382438  0.11000905  0.04862987
   0.44520892  0.55699270  0.95412533
   0.55693602  0.44532557  0.04600301
   0.44576280  0.88928617  0.95171408
   0.55467247  0.77458242  0.04881398
   0.77689175  0.22568097  0.94616800
   0.89230312  0.10976188  0.05647861
   0.77479585  0.55473095  0.95118301
   0.88925861  0.44573040  0.04806377
   0.77625928  0.88388260  0.94642922
   0.88393908  0.77625866  0.05351866
unknown system                          
           1
     8.278509    4.831148    0.000000
    -8.279324    4.832582    0.000000
     0.000000    0.000000   30.000000
   V    Mo   W    S 
   3   3   3  18
Direct configuration=    21
   0.67619498  0.32491245  0.00072805
   0.68809179  0.68773917 -0.00005944
   0.32533311  0.67812804 -0.00070005
   0.69572243  0.01376954  0.00012476
   0.00250723  0.00277681 -0.00004983
   0.01429205  0.69613135 -0.00019732
   0.98837191  0.30603702 -0.00003234
   0.30648619 -0.01159247 -0.00011108
   0.30916331  0.30845398 -0.00008465
   0.10790206  0.22031369  0.94400073
   0.22021888  0.10771017  0.05607078
   0.10936447  0.55332375  0.95178393
   0.22129870  0.44647086  0.04985918
   0.10938985  0.89285162  0.94328759
   0.22545301  0.77726234  0.05420474
   0.44643544  0.22113076  0.94993181
   0.55333211  0.10925972  0.04832771
   0.44497273  0.55662692  0.95482000
   0.55658570  0.44511557  0.04536455
   0.44627536  0.89017925  0.95192298
   0.55481770  0.77478007  0.04868694
   0.77717376  0.22539665  0.94598760
   0.89265773  0.10925295  0.05684788
   0.77506460  0.55491740  0.95135084
   0.89015204  0.44630724  0.04787661
   0.77660417  0.88436864  0.94626580
   0.88435314  0.77659094  0.05379213
unknown system                          
           1
     8.283809    4.831898    0.000000
    -8.284771    4.833584    0.000000
     0.000000    0.000000   30.000000
   V    Mo   W    S 
   3   3   3  18
Direct configuration=    22
   0.68005115  0.32348688  0.00077437
   0.69248764  0.69198360 -0.00003618
   0.32435435  0.68257762 -0.00064786
   0.69862709  0.01477333  0.00028838
   0.00284147  0.00313786  0.00004936
   0.01523246  0.69903786 -0.00020318
   0.98675665  0.30252537  0.00008399
   0.30320130 -0.01284072 -0.00006791
   0.30463924  0.30359071 -0.00003719
   0.10687061  0.21965708  0.94347258
   0.21952121  0.10661472  0.05651250
   0.10787316  0.55232071  0.95257523
   0.22054142  0.44567113  0.04930204
   0.10857780  0.89356286  0.94279096
   0.22488433  0.77796628  0.05458869
   0.44576043  0.22037733  0.95031988
   0.55238218  0.10776234  0.04756929
   0.44435860  0.55583500  0.95627178
   0.55583468  0.44454778  0.04395122
   0.44730830  0.89205539  0.95235221
   0.55511485  0.77523869  0.04831266
   0.77769528  0.22483083  0.94553764
   0.89327132  0.10845353  0.05720853
   0.77562017  0.55525063  0.95170783
   0.89190948  0.44730100  0.04732676
   0.77727267  0.88526074  0.94587855
   0.88522659  0.77723590  0.05411777
unknown system                          
           1
     8.285998    4.832049    0.000000
    -8.287201    4.834149    0.000000
     0.000000    0.000000   30.000000
   V    Mo   W    S 
   3   3   3  18
Direct configuration=    23
   0.68005194  0.32375395  0.00069117
   0.69160463  0.69114427 -0.00004324
   0.32482360  0.68259729 -0.00058673
   0.69746503  0.01416063  0.00024075
   0.00249342  0.00276642  0.00002077
   0.01465957  0.69795528 -0.00019499
   0.98712001  0.30348637  0.00000185
   0.30415689 -0.01251007 -0.00005872
   0.30564894  0.30464391 -0.00006492
   0.10670978  0.21958479  0.94360946
   0.21942728  0.10645765  0.05641648
   0.10837713  0.55253863  0.95252941
   0.22066343  0.44583329  0.04931342
   0.10864471  0.89343825  0.94294967
   0.22476116  0.77790813  0.05457014
   0.44589638  0.22049879  0.95030631
   0.55258623  0.10822626  0.04765655
   0.44432030  0.55610074  0.95626066
   0.55611795  0.44451896  0.04396531
   0.44704655  0.89187521  0.95214072
   0.55507808  0.77510759  0.04838909
   0.77761454  0.22471437  0.94557604
   0.89313180  0.10849354  0.05710315
   0.77549556  0.55523421  0.95164702
   0.89169887  0.44704502  0.04753861
   0.77729715  0.88540016  0.94593024
   0.88532353  0.77724083  0.05409167
unknown system                          
           1
     8.291681    4.834523    0.000000
    -8.292923    4.836688    0.000000
     0.000000    0.000000   30.000000
   V    Mo   W    S 
   3   3   3  18
Direct configuration=    24
   0.68119126  0.32369272  0.00062622
   0.69218242  0.69172091 -0.00004313
   0.32514629  0.68388291 -0.00051211
   0.69752341  0.01406574  0.00025155
   0.00234323  0.00259856  0.00002308
   0.01452698  0.69809095 -0.00019930
   0.98677632  0.30302652  0.00000518
   0.30376253 -0.01269661 -0.00006844
   0.30506021  0.30397915 -0.00006535
   0.10641210  0.21937198  0.94359275
   0.21920646  0.10615432  0.05643133
   0.10841069  0.55247025  0.95269601
   0.22057931  0.44578299  0.04918398
   0.10853231  0.89345830  0.94298301
   0.22452474  0.77805265  0.05465092
   0.44587518  0.22042790  0.95039642
   0.55254070  0.10826711  0.04752828
   0.44415899  0.55615827  0.95658761
   0.55620966  0.44435884  0.04363726
   0.44702387  0.89217046  0.95207678