   27   27  100    1
  0.9710400E+02  0.1002848E-08  0.1002848E-08  0.3000000E-08  0.5000000E-15
  1.000000000000000E-004
  CAR 
 unknown system                          
    159     34    120
 
  0.0000000E+00  0.0000000E+00  0.0000000E+00  0.1562500E-01
    1      -17.791510   1.000000
    2      -16.656838   1.000000
    3      -16.647284   1.000000
    4      -16.576347   1.000000
    5      -16.504827   1.000000
    6      -16.417604   1.000000
    7      -16.362607   1.000000
    8      -16.324297   1.000000
    9      -16.166237   1.000000
   10      -16.097079   1.000000
   11      -16.033048   1.000000
   12      -15.996879   1.000000
   13      -15.910656   1.000000
   14      -15.810503   1.000000
   15      -15.538519   1.000000
   16      -15.518991   1.000000
   17      -15.365483   1.000000
   18      -15.333943   1.000000
   19       -9.272863   1.000000
   20       -8.901393   1.000000
   21       -8.850718   1.000000
   22       -8.824034   1.000000
   23       -8.769950   1.000000
   24       -8.683526   1.000000
   25       -8.632792   1.000000
   26       -8.526293   1.000000
   27       -8.479714   1.000000
   28       -8.420414   1.000000
   29       -8.391793   1.000000
   30       -8.351033   1.000000
   31       -8.323814   1.000000
   32       -8.302207   1.000000
   33       -8.281353   1.000000
   34       -8.083931   1.000000
   35       -7.784184   1.000000
   36       -7.768980   1.000000
   37       -7.727347   1.000000
   38       -7.572353   1.000000
   39       -7.508053   1.000000
   40       -7.388589   1.000000
   41       -7.298205   1.000000
   42       -7.193302   1.000000
   43       -7.153714   1.000000
   44       -6.891532   1.000000
   45       -6.823027   1.000000
   46       -6.731326   1.000000
   47       -6.657642   1.000000
   48       -6.603132   1.000000
   49       -6.594488   1.000000
   50       -6.499529   1.000000
   51       -6.468872   1.000000
   52       -6.415123   1.000000
   53       -6.349124   1.000000
   54       -6.324315   1.000000
   55       -6.272436   1.000000
   56       -6.018778   1.000000
   57       -5.962342   1.000000
   58       -5.955665   1.000000
   59       -5.657189   1.000000
   60       -5.629561   1.000000
   61       -5.528431   1.000000
   62       -5.434439   1.000000
   63       -5.294325   1.000000
   64       -5.274104   1.000000
   65       -4.976524   1.000000
   66       -4.935794   1.000000
   67       -4.907644   1.000000
   68       -4.877574   1.000000
   69       -4.830234   1.000000
   70       -4.777791   1.000000
   71       -4.626286   1.000000
   72       -4.537953   1.000000
   73       -4.470809   1.000000
   74       -4.334210   1.000000
   75       -4.223866   1.000000
   76       -3.986998   0.999998
   77       -3.811098   0.999574
   78       -3.519621   0.898765
   79       -3.512587   0.889676
   80       -3.456748   0.796719
   81       -3.325212   0.460118
   82       -2.854590   0.000304
   83       -2.652109   0.000001
   84       -2.639917   0.000000
   85       -2.594392   0.000000
   86       -2.447855   0.000000
   87       -2.394413   0.000000
   88       -2.275741   0.000000
   89       -2.104897   0.000000
   90       -2.097621   0.000000
   91       -1.940626   0.000000
   92       -1.621850   0.000000
   93       -1.413204   0.000000
   94       -1.384043   0.000000
   95       -1.292996   0.000000
   96       -1.181580   0.000000
   97       -0.991757   0.000000
   98       -0.972102   0.000000
   99       -0.637260   0.000000
  100       -0.621731   0.000000
  101       -0.569279   0.000000
  102       -0.512849   0.000000
  103       -0.448042   0.000000
  104       -0.355174   0.000000
  105       -0.241806   0.000000
  106       -0.112159   0.000000
  107        0.011491   0.000000
  108        0.028287   0.000000
  109        0.132637   0.000000
  110        0.223249   0.000000
  111        0.262401   0.000000
  112        0.510814   0.000000
  113        0.591841   0.000000
  114        0.881698   0.000000
  115        0.948858   0.000000
  116        1.045429   0.000000
  117        1.061921   0.000000
  118        1.643456   0.000000
  119        1.834370   0.000000
  120        2.151607   0.000000
 
  0.1250000E+00  0.2775558E-16  0.0000000E+00  0.3125000E-01
    1      -17.767005   1.000000
    2      -16.760201   1.000000
    3      -16.629882   1.000000
    4      -16.607821   1.000000
    5      -16.552753   1.000000
    6      -16.431534   1.000000
    7      -16.299314   1.000000
    8      -16.276007   1.000000
    9      -16.167093   1.000000
   10      -16.104112   1.000000
   11      -16.054425   1.000000
   12      -15.897721   1.000000
   13      -15.895895   1.000000
   14      -15.799471   1.000000
   15      -15.553223   1.000000
   16      -15.538476   1.000000
   17      -15.368378   1.000000
   18      -15.337393   1.000000
   19       -9.278175   1.000000
   20       -9.089882   1.000000
   21       -8.963375   1.000000
   22       -8.907838   1.000000
   23       -8.794394   1.000000
   24       -8.742968   1.000000
   25       -8.660731   1.000000
   26       -8.503460   1.000000
   27       -8.473859   1.000000
   28       -8.423160   1.000000
   29       -8.379114   1.000000
   30       -8.281505   1.000000
   31       -8.229904   1.000000
   32       -8.189267   1.000000
   33       -8.108747   1.000000
   34       -7.930334   1.000000
   35       -7.831782   1.000000
   36       -7.756601   1.000000
   37       -7.622380   1.000000
   38       -7.594448   1.000000
   39       -7.555193   1.000000
   40       -7.340684   1.000000
   41       -7.305176   1.000000
   42       -7.192935   1.000000
   43       -7.157284   1.000000
   44       -6.937909   1.000000
   45       -6.836736   1.000000
   46       -6.791982   1.000000
   47       -6.739502   1.000000
   48       -6.570830   1.000000
   49       -6.556636   1.000000
   50       -6.463440   1.000000
   51       -6.436902   1.000000
   52       -6.403725   1.000000
   53       -6.397121   1.000000
   54       -6.315275   1.000000
   55       -6.237523   1.000000
   56       -6.078352   1.000000
   57       -5.965555   1.000000
   58       -5.889547   1.000000
   59       -5.643117   1.000000
   60       -5.630614   1.000000
   61       -5.519035   1.000000
   62       -5.408997   1.000000
   63       -5.379075   1.000000
   64       -5.320514   1.000000
   65       -5.169661   1.000000
   66       -5.037486   1.000000
   67       -4.921924   1.000000
   68       -4.823526   1.000000
   69       -4.757149   1.000000
   70       -4.702982   1.000000
   71       -4.656749   1.000000
   72       -4.555448   1.000000
   73       -4.349054   1.000000
   74       -4.334794   1.000000
   75       -4.167710   1.000000
   76       -3.891751   0.999953
   77       -3.881774   0.999937
   78       -3.658417   0.987964
   79       -3.633567   0.981249
   80       -3.378518   0.609031
   81       -3.226604   0.212608
   82       -2.852625   0.000289
   83       -2.677864   0.000001
   84       -2.648562   0.000001
   85       -2.544869   0.000000
   86       -2.453918   0.000000
   87       -2.376655   0.000000
   88       -2.246909   0.000000
   89       -2.116207   0.000000
   90       -2.103200   0.000000
   91       -1.929487   0.000000
   92       -1.579479   0.000000
   93       -1.427775   0.000000
   94       -1.383802   0.000000
   95       -1.259524   0.000000
   96       -1.179922   0.000000
   97       -1.006238   0.000000
   98       -0.963708   0.000000
   99       -0.759755   0.000000
  100       -0.709216   0.000000
  101       -0.646264   0.000000
  102       -0.522744   0.000000
  103       -0.451692   0.000000
  104       -0.352695   0.000000
  105       -0.272198   0.000000
  106       -0.245134   0.000000
  107       -0.028612   0.000000
  108        0.048315   0.000000
  109        0.182778   0.000000
  110        0.200004   0.000000
  111        0.336146   0.000000
  112        0.529038   0.000000
  113        0.643839   0.000000
  114        0.886778   0.000000
  115        0.960023   0.000000
  116        1.014782   0.000000
  117        1.092437   0.000000
  118        1.686807   0.000000
  119        1.871618   0.000000
  120        2.186652   0.000000
 
  0.2500000E+00  0.5551115E-16  0.0000000E+00  0.3125000E-01
    1      -17.695409   1.000000
    2      -16.951457   1.000000
    3      -16.673895   1.000000
    4      -16.661442   1.000000
    5      -16.570575   1.000000
    6      -16.407463   1.000000
    7      -16.263850   1.000000
    8      -16.186041   1.000000
    9      -16.179792   1.000000
   10      -16.109499   1.000000
   11      -16.013587   1.000000
   12      -15.869057   1.000000
   13      -15.800553   1.000000
   14      -15.726288   1.000000
   15      -15.594463   1.000000
   16      -15.582133   1.000000
   17      -15.378390   1.000000
   18      -15.347638   1.000000
   19       -9.485040   1.000000
   20       -9.167313   1.000000
   21       -9.102636   1.000000
   22       -9.078194   1.000000
   23       -8.847826   1.000000
   24       -8.816366   1.000000
   25       -8.646275   1.000000
   26       -8.481386   1.000000
   27       -8.428576   1.000000
   28       -8.411387   1.000000
   29       -8.340428   1.000000
   30       -8.247828   1.000000
   31       -8.083212   1.000000
   32       -7.981633   1.000000
   33       -7.965199   1.000000
   34       -7.893659   1.000000
   35       -7.775915   1.000000
   36       -7.675569   1.000000
   37       -7.613538   1.000000
   38       -7.554414   1.000000
   39       -7.415016   1.000000
   40       -7.340729   1.000000
   41       -7.284444   1.000000
   42       -7.188257   1.000000
   43       -7.080476   1.000000
   44       -6.919540   1.000000
   45       -6.881576   1.000000
   46       -6.856834   1.000000
   47       -6.774382   1.000000
   48       -6.604716   1.000000
   49       -6.587022   1.000000
   50       -6.535532   1.000000
   51       -6.460116   1.000000
   52       -6.330368   1.000000
   53       -6.278332   1.000000
   54       -6.205268   1.000000
   55       -6.194839   1.000000
   56       -6.147640   1.000000
   57       -5.980392   1.000000
   58       -5.847827   1.000000
   59       -5.719192   1.000000
   60       -5.699159   1.000000
   61       -5.625287   1.000000
   62       -5.492787   1.000000
   63       -5.483004   1.000000
   64       -5.341138   1.000000
   65       -5.256696   1.000000
   66       -5.201546   1.000000
   67       -4.899058   1.000000
   68       -4.829246   1.000000
   69       -4.757421   1.000000
   70       -4.683228   1.000000
   71       -4.566953   1.000000
   72       -4.428427   1.000000
   73       -4.365684   1.000000
   74       -4.202967   1.000000
   75       -4.191554   1.000000
   76       -3.980041   0.999997
   77       -3.870321   0.999913
   78       -3.708509   0.995475
   79       -3.659781   0.988263
   80       -3.359188   0.555714
   81       -3.142252   0.081680
   82       -2.834571   0.000179
   83       -2.717285   0.000005
   84       -2.633528   0.000000
   85       -2.495182   0.000000
   86       -2.474581   0.000000
   87       -2.320839   0.000000
   88       -2.196910   0.000000
   89       -2.102391   0.000000
   90       -2.093273   0.000000
   91       -1.914651   0.000000
   92       -1.500205   0.000000
   93       -1.485639   0.000000
   94       -1.325538   0.000000
   95       -1.223342   0.000000
   96       -1.190274   0.000000
   97       -1.119245   0.000000
   98       -0.947550   0.000000
   99       -0.902655   0.000000
  100       -0.866831   0.000000
  101       -0.761416   0.000000
  102       -0.613770   0.000000
  103       -0.545672   0.000000
  104       -0.463003   0.000000
  105       -0.303704   0.000000
  106       -0.271383   0.000000
  107       -0.111234   0.000000
  108        0.028160   0.000000
  109        0.175563   0.000000
  110        0.197617   0.000000
  111        0.314721   0.000000
  112        0.584498   0.000000
  113        0.701852   0.000000
  114        0.968296   0.000000
  115        0.979076   0.000000
  116        1.030633   0.000000
  117        1.173908   0.000000
  118        1.808486   0.000000
  119        1.979190   0.000000
  120        2.290768   0.000000
 
  0.3750000E+00  0.0000000E+00  0.0000000E+00  0.3125000E-01
    1      -17.586149   1.000000
    2      -17.154043   1.000000
    3      -16.716026   1.000000
    4      -16.701458   1.000000
    5      -16.554338   1.000000
    6      -16.408976   1.000000
    7      -16.239072   1.000000
    8      -16.199087   1.000000
    9      -16.152487   1.000000
   10      -16.045299   1.000000
   11      -15.949114   1.000000
   12      -15.856432   1.000000
   13      -15.772779   1.000000
   14      -15.676648   1.000000
   15      -15.647365   1.000000
   16      -15.567783   1.000000
   17      -15.392613   1.000000
   18      -15.361908   1.000000
   19       -9.702830   1.000000
   20       -9.271354   1.000000
   21       -9.202261   1.000000
   22       -9.047919   1.000000
   23       -8.925498   1.000000
   24       -8.812696   1.000000
   25       -8.618077   1.000000
   26       -8.469975   1.000000
   27       -8.396193   1.000000
   28       -8.381752   1.000000
   29       -8.299009   1.000000
   30       -8.234716   1.000000
   31       -8.085171   1.000000
   32       -7.968421   1.000000
   33       -7.877201   1.000000
   34       -7.823318   1.000000
   35       -7.792596   1.000000
   36       -7.683671   1.000000
   37       -7.578075   1.000000
   38       -7.476299   1.000000
   39       -7.382443   1.000000
   40       -7.296456   1.000000
   41       -7.157426   1.000000
   42       -7.103434   1.000000
   43       -6.991169   1.000000
   44       -6.919344   1.000000
   45       -6.897956   1.000000
   46       -6.750379   1.000000
   47       -6.702459   1.000000
   48       -6.636590   1.000000
   49       -6.583124   1.000000
   50       -6.543835   1.000000
   51       -6.378597   1.000000
   52       -6.347718   1.000000
   53       -6.291861   1.000000
   54       -6.229264   1.000000
   55       -6.051744   1.000000
   56       -6.043071   1.000000
   57       -6.004350   1.000000
   58       -5.989366   1.000000
   59       -5.920863   1.000000
   60       -5.823282   1.000000
   61       -5.711814   1.000000
   62       -5.709222   1.000000
   63       -5.497148   1.000000
   64       -5.408095   1.000000
   65       -5.264001   1.000000
   66       -5.128524   1.000000
   67       -4.865698   1.000000
   68       -4.846148   1.000000
   69       -4.804095   1.000000
   70       -4.756862   1.000000
   71       -4.609672   1.000000
   72       -4.427475   1.000000
   73       -4.309170   1.000000
   74       -4.203963   1.000000
   75       -4.110382   1.000000
   76       -4.011459   0.999999
   77       -3.894022   0.999956
   78       -3.605229   0.969938
   79       -3.577246   0.953717
   80       -3.391768   0.644489
   81       -3.137138   0.076355
   82       -2.804771   0.000078
   83       -2.732588   0.000009
   84       -2.615716   0.000000
   85       -2.529806   0.000000
   86       -2.420185   0.000000
   87       -2.275514   0.000000
   88       -2.167458   0.000000
   89       -2.086118   0.000000
   90       -2.020569   0.000000
   91       -1.900826   0.000000
   92       -1.514162   0.000000
   93       -1.439539   0.000000
   94       -1.319193   0.000000
   95       -1.303642   0.000000
   96       -1.226851   0.000000
   97       -1.219534   0.000000
   98       -1.029861   0.000000
   99       -0.958918   0.000000
  100       -0.894865   0.000000
  101       -0.797619   0.000000
  102       -0.709327   0.000000
  103       -0.664338   0.000000
  104       -0.476701   0.000000
  105       -0.343338   0.000000
  106       -0.334852   0.000000
  107       -0.171046   0.000000
  108       -0.038186   0.000000
  109        0.147077   0.000000
  110        0.167511   0.000000
  111        0.266204   0.000000
  112        0.617295   0.000000
  113        0.716802   0.000000
  114        0.958282   0.000000
  115        1.088322   0.000000
  116        1.119950   0.000000
  117        1.270941   0.000000
  118        1.992031   0.000000
  119        2.148808   0.000000
  120        2.460899   0.000000
 
  0.5000000E+00  0.1110223E-15  0.0000000E+00  0.1562500E-01
    1      -17.501405   1.000000
    2      -17.272427   1.000000
    3      -16.730795   1.000000
    4      -16.715565   1.000000
    5      -16.544689   1.000000
    6      -16.415825   1.000000
    7      -16.226506   1.000000
    8      -16.207704   1.000000
    9      -16.153934   1.000000
   10      -15.987569   1.000000
   11      -15.915365   1.000000
   12      -15.868647   1.000000
   13      -15.755568   1.000000
   14      -15.705266   1.000000
   15      -15.670734   1.000000
   16      -15.526457   1.000000
   17      -15.400284   1.000000
   18      -15.370218   1.000000
   19       -9.782421   1.000000
   20       -9.313105   1.000000
   21       -9.245306   1.000000
   22       -9.018338   1.000000
   23       -8.954280   1.000000
   24       -8.780181   1.000000
   25       -8.592031   1.000000
   26       -8.499693   1.000000
   27       -8.452436   1.000000
   28       -8.351456   1.000000
   29       -8.281773   1.000000
   30       -8.199195   1.000000
   31       -8.048863   1.000000
   32       -7.936781   1.000000
   33       -7.873001   1.000000
   34       -7.851384   1.000000
   35       -7.795900   1.000000
   36       -7.681777   1.000000
   37       -7.671368   1.000000
   38       -7.452809   1.000000
   39       -7.384454   1.000000
   40       -7.267451   1.000000
   41       -7.017326   1.000000
   42       -6.976794   1.000000
   43       -6.939535   1.000000
   44       -6.902151   1.000000
   45       -6.875343   1.000000
   46       -6.741498   1.000000
   47       -6.685446   1.000000
   48       -6.628657   1.000000
   49       -6.598921   1.000000
   50       -6.568217   1.000000
   51       -6.429432   1.000000
   52       -6.341123   1.000000
   53       -6.235061   1.000000
   54       -6.177873   1.000000
   55       -6.165126   1.000000
   56       -6.075950   1.000000
   57       -5.977840   1.000000
   58       -5.943611   1.000000
   59       -5.910126   1.000000
   60       -5.869750   1.000000
   61       -5.834446   1.000000
   62       -5.697097   1.000000
   63       -5.463859   1.000000
   64       -5.441578   1.000000
   65       -5.371929   1.000000
   66       -5.119776   1.000000
   67       -4.974751   1.000000
   68       -4.853162   1.000000
   69       -4.852140   1.000000
   70       -4.749393   1.000000
   71       -4.570517   1.000000
   72       -4.406607   1.000000
   73       -4.268228   1.000000
   74       -4.188832   1.000000
   75       -4.136207   1.000000
   76       -4.018631   0.999999
   77       -3.860954   0.999887
   78       -3.545714   0.927724
   79       -3.521003   0.900484
   80       -3.432782   0.745532
   81       -3.154916   0.096064
   82       -2.789701   0.000051
   83       -2.732849   0.000009
   84       -2.609231   0.000000
   85       -2.540444   0.000000
   86       -2.401023   0.000000
   87       -2.259022   0.000000
   88       -2.149276   0.000000
   89       -2.076109   0.000000
   90       -1.991748   0.000000
   91       -1.888507   0.000000
   92       -1.493212   0.000000
   93       -1.443321   0.000000
   94       -1.397215   0.000000
   95       -1.339150   0.000000
   96       -1.249102   0.000000
   97       -1.224895   0.000000
   98       -1.072158   0.000000
   99       -0.976212   0.000000
  100       -0.886708   0.000000
  101       -0.791025   0.000000
  102       -0.733124   0.000000
  103       -0.697227   0.000000
  104       -0.500462   0.000000
  105       -0.380477   0.000000
  106       -0.347203   0.000000
  107       -0.189573   0.000000
  108       -0.075640   0.000000
  109        0.121571   0.000000
  110        0.163614   0.000000
  111        0.246328   0.000000
  112        0.626950   0.000000
  113        0.724628   0.000000
  114        0.953731   0.000000
  115        1.124602   0.000000
  116        1.163526   0.000000
  117        1.312344   0.000000
  118        2.198623   0.000000
  119        2.260098   0.000000
  120        2.350986   0.000000
 
  0.0000000E+00  0.1250000E+00  0.0000000E+00  0.3125000E-01
    1      -17.766240   1.000000
    2      -16.761784   1.000000
    3      -16.665395   1.000000
    4      -16.625843   1.000000
    5      -16.473563   1.000000
    6      -16.392828   1.000000
    7      -16.348463   1.000000
    8      -16.307634   1.000000
    9      -16.181022   1.000000
   10      -16.052467   1.000000
   11      -16.019014   1.000000
   12      -15.974826   1.000000
   13      -15.891215   1.000000
   14      -15.789315   1.000000
   15      -15.561406   1.000000
   16      -15.514019   1.000000
   17      -15.383938   1.000000
   18      -15.332202   1.000000
   19       -9.265246   1.000000
   20       -9.122178   1.000000
   21       -8.949545   1.000000
   22       -8.895128   1.000000
   23       -8.791619   1.000000
   24       -8.687540   1.000000
   25       -8.612470   1.000000
   26       -8.581272   1.000000
   27       -8.484044   1.000000
   28       -8.439346   1.000000
   29       -8.368072   1.000000
   30       -8.339572   1.000000
   31       -8.275664   1.000000
   32       -8.112494   1.000000
   33       -8.070213   1.000000
   34       -7.966852   1.000000
   35       -7.841876   1.000000
   36       -7.728469   1.000000
   37       -7.675307   1.000000
   38       -7.592935   1.000000
   39       -7.508666   1.000000
   40       -7.377700   1.000000
   41       -7.290796   1.000000
   42       -7.201984   1.000000
   43       -7.120254   1.000000
   44       -6.935354   1.000000
   45       -6.900608   1.000000
   46       -6.784502   1.000000
   47       -6.675260   1.000000
   48       -6.578020   1.000000
   49       -6.535593   1.000000
   50       -6.519547   1.000000
   51       -6.425047   1.000000
   52       -6.405559   1.000000
   53       -6.366640   1.000000
   54       -6.349664   1.000000
   55       -6.283946   1.000000
   56       -6.036318   1.000000
   57       -5.981472   1.000000
   58       -5.888744   1.000000
   59       -5.679339   1.000000
   60       -5.552052   1.000000
   61       -5.497911   1.000000
   62       -5.391959   1.000000
   63       -5.359777   1.000000
   64       -5.322065   1.000000
   65       -5.141901   1.000000
   66       -5.072476   1.000000
   67       -4.992807   1.000000
   68       -4.915465   1.000000
   69       -4.821416   1.000000
   70       -4.639589   1.000000
   71       -4.589170   1.000000
   72       -4.488978   1.000000
   73       -4.423189   1.000000
   74       -4.228107   1.000000
   75       -4.177099   1.000000
   76       -3.947464   0.999991
   77       -3.872600   0.999919
   78       -3.674266   0.991059
   79       -3.629150   0.979771
   80       -3.369087   0.583208
   81       -3.236779   0.234086
   82       -2.830715   0.000161
   83       -2.722700   0.000006
   84       -2.632531   0.000000
   85       -2.528457   0.000000
   86       -2.430472   0.000000
   87       -2.374527   0.000000
   88       -2.277323   0.000000
   89       -2.133917   0.000000
   90       -2.074397   0.000000
   91       -1.930545   0.000000
   92       -1.600956   0.000000
   93       -1.444884   0.000000
   94       -1.351488   0.000000
   95       -1.284388   0.000000
   96       -1.172234   0.000000
   97       -1.006016   0.000000
   98       -0.956019   0.000000
   99       -0.717745   0.000000
  100       -0.686714   0.000000
  101       -0.627695   0.000000
  102       -0.547933   0.000000
  103       -0.463910   0.000000
  104       -0.380312   0.000000
  105       -0.253700   0.000000
  106       -0.215366   0.000000
  107       -0.092645   0.000000
  108        0.086590   0.000000
  109        0.196761   0.000000
  110        0.228925   0.000000
  111        0.269777   0.000000
  112        0.394067   0.000000
  113        0.764464   0.000000
  114        0.879479   0.000000
  115        0.946707   0.000000
  116        1.036945   0.000000
  117        1.094593   0.000000
  118        1.687098   0.000000
  119        1.873996   0.000000
  120        2.186561   0.000000
 
  0.1250000E+00  0.1250000E+00  0.0000000E+00  0.3125000E-01
    1      -17.717934   1.000000
    2      -16.869006   1.000000
    3      -16.785143   1.000000
    4      -16.591359   1.000000
    5      -16.490363   1.000000
    6      -16.396564   1.000000
    7      -16.307277   1.000000
    8      -16.264954   1.000000
    9      -16.172615   1.000000
   10      -16.076638   1.000000
   11      -16.011896   1.000000
   12      -15.898638   1.000000
   13      -15.809473   1.000000
   14      -15.765614   1.000000
   15      -15.588123   1.000000
   16      -15.547037   1.000000
   17      -15.394379   1.000000
   18      -15.333625   1.000000
   19       -9.357615   1.000000
   20       -9.264066   1.000000
   21       -9.117828   1.000000
   22       -8.959104   1.000000
   23       -8.839577   1.000000
   24       -8.740625   1.000000
   25       -8.611659   1.000000
   26       -8.521884   1.000000
   27       -8.458442   1.000000
   28       -8.384548   1.000000
   29       -8.346781   1.000000
   30       -8.290382   1.000000
   31       -8.153584   1.000000
   32       -8.064516   1.000000
   33       -7.983045   1.000000
   34       -7.904126   1.000000
   35       -7.759332   1.000000
   36       -7.727032   1.000000
   37       -7.606333   1.000000
   38       -7.521728   1.000000
   39       -7.426134   1.000000
   40       -7.337232   1.000000
   41       -7.284078   1.000000
   42       -7.245024   1.000000
   43       -7.117893   1.000000
   44       -6.972268   1.000000
   45       -6.896937   1.000000
   46       -6.807729   1.000000
   47       -6.757076   1.000000
   48       -6.616080   1.000000
   49       -6.549134   1.000000
   50       -6.518567   1.000000
   51       -6.439177   1.000000
   52       -6.355196   1.000000
   53       -6.319866   1.000000
   54       -6.289740   1.000000
   55       -6.201820   1.000000
   56       -6.104397   1.000000
   57       -5.989546   1.000000
   58       -5.831341   1.000000
   59       -5.708558   1.000000
   60       -5.624258   1.000000
   61       -5.562277   1.000000
   62       -5.486854   1.000000
   63       -5.396727   1.000000
   64       -5.350315   1.000000
   65       -5.190746   1.000000
   66       -5.162182   1.000000
   67       -5.072843   1.000000
   68       -4.887404   1.000000
   69       -4.739657   1.000000
   70       -4.637282   1.000000
   71       -4.572991   1.000000
   72       -4.440049   1.000000
   73       -4.291152   1.000000
   74       -4.228093   1.000000
   75       -4.165799   1.000000
   76       -4.017537   0.999999
   77       -3.862713   0.999892
   78       -3.771758   0.998884
   79       -3.627106   0.979053
   80       -3.329951   0.473439
   81       -3.182511   0.133675
   82       -2.827402   0.000147
   83       -2.730956   0.000008
   84       -2.629365   0.000000
   85       -2.522129   0.000000
   86       -2.435170   0.000000
   87       -2.331320   0.000000
   88       -2.221375   0.000000
   89       -2.130026   0.000000
   90       -2.082127   0.000000
   91       -1.919948   0.000000
   92       -1.544584   0.000000
   93       -1.470524   0.000000
   94       -1.333859   0.000000
   95       -1.243248   0.000000
   96       -1.172389   0.000000
   97       -1.045986   0.000000
   98       -0.953959   0.000000
   99       -0.881056   0.000000
  100       -0.806193   0.000000
  101       -0.738406   0.000000
  102       -0.579219   0.000000
  103       -0.510949   0.000000
  104       -0.399807   0.000000
  105       -0.330419   0.000000
  106       -0.262885   0.000000
  107       -0.114674   0.000000
  108        0.049764   0.000000
  109        0.124920   0.000000
  110        0.237414   0.000000
  111        0.309214   0.000000
  112        0.499928   0.000000
  113        0.796236   0.000000
  114        0.911331   0.000000
  115        0.958053   0.000000
  116        1.074599   0.000000
  117        1.112185   0.000000
  118        1.769718   0.000000
  119        1.946156   0.000000
  120        2.256152   0.000000
 
  0.2500000E+00  0.1250000E+00  0.0000000E+00  0.3125000E-01
    1      -17.625817   1.000000
    2      -17.044914   1.000000
    3      -16.885697   1.000000
    4      -16.567462   1.000000
    5      -16.505254   1.000000
    6      -16.390883   1.000000
    7      -16.262441   1.000000
    8      -16.236838   1.000000
    9      -16.142517   1.000000
   10      -16.079585   1.000000
   11      -15.982568   1.000000
   12      -15.861448   1.000000
   13      -15.769036   1.000000
   14      -15.683808   1.000000
   15      -15.634042   1.000000
   16      -15.570458   1.000000
   17      -15.407707   1.000000
   18      -15.340291   1.000000
   19       -9.587444   1.000000
   20       -9.405651   1.000000
   21       -9.162087   1.000000
   22       -9.028335   1.000000
   23       -8.875998   1.000000
   24       -8.710679   1.000000
   25       -8.602965   1.000000
   26       -8.462006   1.000000
   27       -8.398602   1.000000
   28       -8.366253   1.000000
   29       -8.326303   1.000000
   30       -8.242391   1.000000
   31       -8.116754   1.000000
   32       -8.028673   1.000000
   33       -7.972394   1.000000
   34       -7.907634   1.000000
   35       -7.789010   1.000000
   36       -7.631888   1.000000
   37       -7.508515   1.000000
   38       -7.460068   1.000000
   39       -7.379910   1.000000
   40       -7.320373   1.000000
   41       -7.237395   1.000000
   42       -7.140398   1.000000
   43       -7.026246   1.000000
   44       -6.938547   1.000000
   45       -6.857784   1.000000
   46       -6.810221   1.000000
   47       -6.738950   1.000000