       N       E                     dE             d eps       ncg     rms          rms(c)
DAV:   1     0.112434495573E+04    0.11243E+04   -0.35858E+04  8160   0.577E+02
DAV:   2    -0.319657757225E+01   -0.11275E+04   -0.10845E+04 11200   0.173E+02
DAV:   3    -0.199773030802E+03   -0.19658E+03   -0.18888E+03 10880   0.821E+01
DAV:   4    -0.208965666831E+03   -0.91926E+01   -0.89147E+01 12320   0.262E+01
DAV:   5    -0.209272506118E+03   -0.30684E+00   -0.30588E+00 11360   0.342E+00    0.275E+01
DAV:   6    -0.237518953210E+03   -0.28246E+02   -0.10916E+02 12360   0.599E+01    0.594E+01
DAV:   7    -0.196669755615E+03    0.40849E+02   -0.17511E+02 13440   0.152E+02    0.202E+01
DAV:   8    -0.189678211632E+03    0.69915E+01   -0.18303E+01 12040   0.129E+01    0.129E+01
DAV:   9    -0.188191794262E+03    0.14864E+01   -0.32310E+00 12920   0.622E+00    0.934E+00
DAV:  10    -0.186928101880E+03    0.12637E+01   -0.17714E+00 13320   0.799E+00    0.213E+00
DAV:  11    -0.187016865470E+03   -0.88764E-01   -0.56431E-01 13600   0.282E+00    0.353E+00
DAV:  12    -0.186953028342E+03    0.63837E-01   -0.59966E-01 12800   0.420E+00    0.340E+00
DAV:  13    -0.186856863038E+03    0.96165E-01   -0.27918E-01 13360   0.291E+00    0.183E+00
DAV:  14    -0.186822166755E+03    0.34696E-01   -0.91649E-02 13120   0.153E+00    0.578E-01
DAV:  15    -0.186817432398E+03    0.47344E-02   -0.12364E-02 11880   0.384E-01    0.367E-01
DAV:  16    -0.186816868878E+03    0.56352E-03   -0.83788E-03 12880   0.457E-01    0.437E-01
DAV:  17    -0.186815478422E+03    0.13905E-02   -0.53909E-03 13040   0.404E-01    0.235E-01
DAV:  18    -0.186815072295E+03    0.40613E-03   -0.16123E-03 11400   0.180E-01    0.974E-02
DAV:  19    -0.186815096603E+03   -0.24308E-04   -0.58597E-04  9320   0.683E-02
   1 F= -.18681510E+03 E0= -.18664368E+03  d E =-.186815E+03
       N       E                     dE             d eps       ncg     rms          rms(c)
DAV:   1    -0.187481648802E+03   -0.66658E+00   -0.27580E+02  8160   0.353E+01    0.469E+00
DAV:   2    -0.189421931487E+03   -0.19403E+01   -0.20271E+01 11960   0.154E+01    0.909E+00
DAV:   3    -0.189316033114E+03    0.10590E+00   -0.39298E+00 12400   0.122E+01    0.647E+00
DAV:   4    -0.188725576678E+03    0.59046E+00   -0.63500E-01 12520   0.463E+00    0.174E+00
DAV:   5    -0.188751605881E+03   -0.26029E-01   -0.35596E-01 12440   0.244E+00    0.338E+00
DAV:   6    -0.188725647514E+03    0.25958E-01   -0.54377E-01 12320   0.397E+00    0.290E+00
DAV:   7    -0.188661782366E+03    0.63865E-01   -0.17837E-01 12600   0.219E+00    0.113E+00
DAV:   8    -0.188640066988E+03    0.21715E-01   -0.48953E-02 10000   0.766E-01    0.462E-01
DAV:   9    -0.188638821356E+03    0.12456E-02   -0.80677E-03 11600   0.375E-01    0.387E-01
DAV:  10    -0.188638739555E+03    0.81801E-04   -0.51673E-03 12880   0.403E-01    0.343E-01
DAV:  11    -0.188637853212E+03    0.88634E-03   -0.29873E-03 11480   0.257E-01    0.108E-01
DAV:  12    -0.188638124966E+03   -0.27175E-03   -0.79623E-04 11240   0.841E-02    0.841E-02
DAV:  13    -0.188638123101E+03    0.18654E-05   -0.23295E-04  6600   0.592E-02
   2 F= -.18863812E+03 E0= -.18849829E+03  d E =-.182303E+01
       N       E                     dE             d eps       ncg     rms          rms(c)
DAV:   1    -0.190596499044E+03   -0.19584E+01   -0.32044E+01  9160   0.144E+01    0.447E+00
DAV:   2    -0.190524429320E+03    0.72070E-01   -0.27863E+00 12360   0.944E+00    0.712E+00
DAV:   3    -0.190071766252E+03    0.45266E+00   -0.13144E+00 12280   0.863E+00    0.424E+00
DAV:   4    -0.189855732357E+03    0.21603E+00   -0.69619E-01 13120   0.438E+00    0.248E+00
DAV:   5    -0.189765125973E+03    0.90606E-01   -0.29686E-01 12280   0.201E+00    0.919E-01
DAV:   6    -0.189753818359E+03    0.11308E-01   -0.48805E-02 11680   0.108E+00    0.744E-01
DAV:   7    -0.189750269552E+03    0.35488E-02   -0.13933E-02 11440   0.672E-01    0.270E-01
DAV:   8    -0.189749757053E+03    0.51250E-03   -0.20701E-03 11680   0.186E-01    0.136E-01
DAV:   9    -0.189750157831E+03   -0.40078E-03   -0.11515E-03 11640   0.150E-01    0.177E-01
DAV:  10    -0.189750329021E+03   -0.17119E-03   -0.15475E-03 10000   0.252E-01    0.228E-01
DAV:  11    -0.189749888833E+03    0.44019E-03   -0.76291E-04  8720   0.171E-01    0.270E-02
DAV:  12    -0.189749930788E+03   -0.41955E-04   -0.61441E-05  5920   0.282E-02
   3 F= -.18974993E+03 E0= -.18963152E+03  d E =-.111181E+01
       N       E                     dE             d eps       ncg     rms          rms(c)
DAV:   1    -0.191349271622E+03   -0.15994E+01   -0.79789E+01  8160   0.203E+01    0.461E+00
DAV:   2    -0.191153077404E+03    0.19619E+00   -0.53864E+00 13000   0.755E+00    0.445E+00
DAV:   3    -0.191299009672E+03   -0.14593E+00   -0.14962E+00 12360   0.905E+00    0.652E+00
DAV:   4    -0.190899565513E+03    0.39944E+00   -0.12579E+00 12960   0.769E+00    0.274E+00
DAV:   5    -0.190780606671E+03    0.11896E+00   -0.30655E-01 12160   0.228E+00    0.900E-01
DAV:   6    -0.190764937994E+03    0.15669E-01   -0.70579E-02 10760   0.100E+00    0.551E-01
DAV:   7    -0.190770583358E+03   -0.56454E-02   -0.32164E-02 11960   0.113E+00    0.966E-01
DAV:   8    -0.190761503757E+03    0.90796E-02   -0.13052E-02 11760   0.796E-01    0.164E-01
DAV:   9    -0.190761947274E+03   -0.44352E-03   -0.18101E-03 11760   0.217E-01    0.216E-01
DAV:  10    -0.190762047083E+03   -0.99809E-04   -0.21746E-03 11920   0.308E-01    0.223E-01
DAV:  11    -0.190761612144E+03    0.43494E-03   -0.10497E-03 10280   0.193E-01    0.520E-02
DAV:  12    -0.190761612802E+03   -0.65853E-06   -0.12256E-04  6280   0.454E-02
   4 F= -.19076161E+03 E0= -.19065817E+03  d E =-.101168E+01
       N       E                     dE             d eps       ncg     rms          rms(c)
DAV:   1    -0.192111383085E+03   -0.13498E+01   -0.16733E+02  8160   0.288E+01    0.562E+00
DAV:   2    -0.191840248344E+03    0.27113E+00   -0.92036E+00 11320   0.794E+00    0.374E+00
DAV:   3    -0.191969223594E+03   -0.12898E+00   -0.19337E+00 12080   0.805E+00    0.754E+00
DAV:   4    -0.191773261239E+03    0.19596E+00   -0.25305E+00 11160   0.106E+01    0.458E+00
DAV:   5    -0.191577669738E+03    0.19559E+00   -0.65376E-01 12440   0.574E+00    0.331E+00
DAV:   6    -0.191440301750E+03    0.13737E+00   -0.26990E-01 12480   0.390E+00    0.137E+00
DAV:   7    -0.191423685805E+03    0.16616E-01   -0.58323E-02 12320   0.128E+00    0.546E-01
DAV:   8    -0.191419072635E+03    0.46132E-02   -0.10325E-02 10680   0.452E-01    0.234E-01
DAV:   9    -0.191421099885E+03   -0.20273E-02   -0.52339E-03 12720   0.482E-01    0.468E-01
DAV:  10    -0.191419289222E+03    0.18107E-02   -0.44717E-03 11600   0.468E-01    0.138E-01
DAV:  11    -0.191419105177E+03    0.18404E-03   -0.74661E-04 10560   0.129E-01    0.525E-02
DAV:  12    -0.191419093965E+03    0.11212E-04   -0.11940E-04  6840   0.477E-02
   5 F= -.19141909E+03 E0= -.19131759E+03  d E =-.657481E+00
       N       E                     dE             d eps       ncg     rms          rms(c)
DAV:   1    -0.191460218440E+03   -0.41113E-01   -0.31462E+00  8160   0.376E+00    0.545E-01
DAV:   2    -0.191495985828E+03   -0.35767E-01   -0.19804E-01 13280   0.229E+00    0.162E+00
DAV:   3    -0.191468799834E+03    0.27186E-01   -0.55399E-02 12560   0.173E+00    0.363E-01
DAV:   4    -0.191470068879E+03   -0.12690E-02   -0.10734E-02 11640   0.684E-01    0.581E-01
DAV:   5    -0.191466871962E+03    0.31969E-02   -0.78638E-03 10400   0.592E-01    0.219E-01
DAV:   6    -0.191466430883E+03    0.44108E-03   -0.24199E-03 11200   0.217E-01    0.824E-02
DAV:   7    -0.191466282355E+03    0.14853E-03   -0.62251E-04  9400   0.906E-02    0.361E-02
DAV:   8    -0.191466267927E+03    0.14428E-04   -0.10353E-04  6760   0.380E-02
   6 F= -.19146627E+03 E0= -.19136301E+03  d E =-.471740E-01
       N       E                     dE             d eps       ncg     rms          rms(c)
DAV:   1    -0.191519181313E+03   -0.52899E-01   -0.63176E+00  8160   0.531E+00    0.622E-01
DAV:   2    -0.191540840993E+03   -0.21660E-01   -0.19148E-01 13520   0.158E+00    0.117E+00
DAV:   3    -0.191529089690E+03    0.11751E-01   -0.53970E-02 12320   0.167E+00    0.691E-01
DAV:   4    -0.191526659864E+03    0.24298E-02   -0.15929E-02 11760   0.815E-01    0.565E-01
DAV:   5    -0.191524151434E+03    0.25084E-02   -0.10742E-02 10760   0.705E-01    0.350E-01
DAV:   6    -0.191523115575E+03    0.10359E-02   -0.40660E-03 10320   0.346E-01    0.139E-01
DAV:   7    -0.191523002095E+03    0.11348E-03   -0.15292E-03 11960   0.204E-01    0.143E-01
DAV:   8    -0.191522860326E+03    0.14177E-03   -0.70741E-04  8600   0.184E-01    0.825E-02
DAV:   9    -0.191522797582E+03    0.62744E-04   -0.14037E-04  5960   0.791E-02
   7 F= -.19152280E+03 E0= -.19141802E+03  d E =-.565297E-01
       N       E                     dE             d eps       ncg     rms          rms(c)
DAV:   1    -0.191542999585E+03   -0.20139E-01   -0.67423E-01  8160   0.177E+00    0.268E-01
DAV:   2    -0.191545847609E+03   -0.28480E-02   -0.27250E-02 13360   0.745E-01    0.518E-01
DAV:   3    -0.191543110326E+03    0.27373E-02   -0.85193E-03 11760   0.666E-01    0.204E-01
DAV:   4    -0.191542659005E+03    0.45132E-03   -0.22543E-03 12040   0.254E-01    0.152E-01
DAV:   5    -0.191542760955E+03   -0.10195E-03   -0.18424E-03 11160   0.269E-01    0.219E-01
DAV:   6    -0.191542345458E+03    0.41550E-03   -0.11556E-03  9280   0.229E-01    0.690E-02
DAV:   7    -0.191542305073E+03    0.40386E-04   -0.17305E-04  5880   0.705E-02
   8 F= -.19154231E+03 E0= -.19143718E+03  d E =-.195075E-01
       N       E                     dE             d eps       ncg     rms          rms(c)
DAV:   1    -0.191585164831E+03   -0.42819E-01   -0.31506E+00  8160   0.375E+00    0.424E-01
DAV:   2    -0.191599899016E+03   -0.14734E-01   -0.98237E-02 13600   0.149E+00    0.994E-01
DAV:   3    -0.191589224648E+03    0.10674E-01   -0.27969E-02 12840   0.120E+00    0.305E-01
DAV:   4    -0.191589101197E+03    0.12345E-03   -0.55405E-03 11200   0.424E-01    0.355E-01
DAV:   5    -0.191588227371E+03    0.87383E-03   -0.39592E-03 11360   0.428E-01    0.224E-01
DAV:   6    -0.191587911378E+03    0.31599E-03   -0.17291E-03 10560   0.246E-01    0.102E-01
DAV:   7    -0.191587830797E+03    0.80582E-04   -0.71001E-04 10720   0.142E-01
   9 F= -.19158783E+03 E0= -.19148254E+03  d E =-.455257E-01
       N       E                     dE             d eps       ncg     rms          rms(c)
DAV:   1    -0.191527638135E+03    0.60273E-01   -0.50286E+00  8160   0.473E+00    0.496E-01
DAV:   2    -0.191546363172E+03   -0.18725E-01   -0.13581E-01 13480   0.151E+00    0.107E+00
DAV:   3    -0.191534558285E+03    0.11805E-01   -0.36810E-02 12160   0.132E+00    0.493E-01
DAV:   4    -0.191534522437E+03    0.35847E-04   -0.12326E-02 11200   0.674E-01    0.520E-01
DAV:   5    -0.191532096999E+03    0.24254E-02   -0.63790E-03 11040   0.572E-01    0.225E-01
DAV:   6    -0.191531690498E+03    0.40650E-03   -0.21591E-03 11520   0.272E-01    0.119E-01
DAV:   7    -0.191531945706E+03   -0.25521E-03   -0.15719E-03 11560   0.249E-01    0.211E-01
DAV:   8    -0.191531497100E+03    0.44861E-03   -0.88632E-04  8760   0.208E-01    0.484E-02
DAV:   9    -0.191531484513E+03    0.12587E-04   -0.79224E-05  6040   0.457E-02
  10 F= -.19153148E+03 E0= -.19142593E+03  d E =0.563463E-01
       N       E                     dE             d eps       ncg     rms          rms(c)
DAV:   1    -0.191464673204E+03    0.66824E-01   -0.11701E+01  8160   0.722E+00    0.811E-01
DAV:   2    -0.191512934855E+03   -0.48262E-01   -0.33446E-01 13000   0.264E+00    0.178E+00
DAV:   3    -0.191479474318E+03    0.33461E-01   -0.95418E-02 11520   0.214E+00    0.822E-01
DAV:   4    -0.191478384902E+03    0.10894E-02   -0.35088E-02 12200   0.110E+00    0.801E-01
DAV:   5    -0.191473302341E+03    0.50826E-02   -0.17596E-02 11520   0.924E-01    0.432E-01
DAV:   6    -0.191471189511E+03    0.21128E-02   -0.60455E-03 12160   0.498E-01    0.160E-01
DAV:   7    -0.191470987962E+03    0.20155E-03   -0.20216E-03 11880   0.178E-01    0.829E-02
DAV:   8    -0.191470852374E+03    0.13559E-03   -0.43346E-04 10240   0.949E-02    0.583E-02
DAV:   9    -0.191470856491E+03   -0.41167E-05   -0.20227E-04  7080   0.960E-02
  11 F= -.19147086E+03 E0= -.19136533E+03  d E =0.606280E-01
       N       E                     dE             d eps       ncg     rms          rms(c)
DAV:   1    -0.191454209721E+03    0.16643E-01   -0.33970E+00  8160   0.386E+00    0.375E-01
DAV:   2    -0.191463082506E+03   -0.88728E-02   -0.75462E-02 12680   0.964E-01    0.722E-01
DAV:   3    -0.191459845404E+03    0.32371E-02   -0.23310E-02 12440   0.991E-01    0.555E-01
DAV:   4    -0.191457384221E+03    0.24612E-02   -0.77636E-03 11920   0.503E-01    0.207E-01
DAV:   5    -0.191456670915E+03    0.71331E-03   -0.15331E-03 10120   0.155E-01    0.835E-02
DAV:   6    -0.191456855516E+03   -0.18460E-03   -0.93934E-04 11520   0.161E-01    0.136E-01
DAV:   7    -0.191456713721E+03    0.14179E-03   -0.76514E-04  9600   0.198E-01    0.960E-02
DAV:   8    -0.191456611422E+03    0.10230E-03   -0.19715E-04  6240   0.930E-02    0.351E-02
DAV:   9    -0.191456610632E+03    0.79042E-06   -0.58279E-05  5800   0.489E-02
  12 F= -.19145661E+03 E0= -.19135019E+03  d E =0.142459E-01
       N       E                     dE             d eps       ncg     rms          rms(c)
DAV:   1    -0.191476168529E+03   -0.19557E-01   -0.14889E+00  8160   0.259E+00    0.309E-01
DAV:   2    -0.191486900376E+03   -0.10732E-01   -0.61469E-02 12240   0.109E+00    0.909E-01
DAV:   3    -0.191479617118E+03    0.72833E-02   -0.22614E-02 12200   0.996E-01    0.335E-01
DAV:   4    -0.191479035442E+03    0.58168E-03   -0.40457E-03 10280   0.361E-01    0.236E-01
DAV:   5    -0.191478537053E+03    0.49839E-03   -0.17875E-03 10640   0.299E-01    0.139E-01
DAV:   6    -0.191478343873E+03    0.19318E-03   -0.67582E-04 10360   0.150E-01    0.648E-02
DAV:   7    -0.191478350820E+03   -0.69477E-05   -0.31473E-04  7560   0.972E-02
  13 F= -.19147835E+03 E0= -.19136939E+03  d E =-.217402E-01
       N       E                     dE             d eps       ncg     rms          rms(c)
DAV:   1    -0.191485307875E+03   -0.69640E-02   -0.19366E-01  8160   0.952E-01    0.130E-01
DAV:   2    -0.191486213686E+03   -0.90581E-03   -0.73933E-03 13600   0.383E-01    0.274E-01
DAV:   3    -0.191485490496E+03    0.72319E-03   -0.23795E-03 11280   0.342E-01    0.118E-01
DAV:   4    -0.191485462393E+03    0.28102E-04   -0.71325E-04  8560   0.169E-01
  14 F= -.19148546E+03 E0= -.19137583E+03  d E =-.711157E-02
       N       E                     dE             d eps       ncg     rms          rms(c)
DAV:   1    -0.191498808197E+03   -0.13318E-01   -0.67460E-01  8160   0.178E+00    0.280E-01
DAV:   2    -0.191508306543E+03   -0.94983E-02   -0.39534E-02 13240   0.103E+00    0.981E-01
DAV:   3    -0.191499495203E+03    0.88113E-02   -0.20922E-02 11640   0.949E-01    0.229E-01
DAV:   4    -0.191499067338E+03    0.42787E-03   -0.20670E-03 10360   0.232E-01    0.132E-01
DAV:   5    -0.191499060211E+03    0.71268E-05   -0.13149E-03 11240   0.242E-01    0.163E-01
DAV:   6    -0.191498774886E+03    0.28533E-03   -0.78086E-04  8800   0.189E-01    0.554E-02
DAV:   7    -0.191498740455E+03    0.34430E-04   -0.16301E-04  6000   0.642E-02
  15 F= -.19149874E+03 E0= -.19138728E+03  d E =-.132781E-01
       N       E                     dE             d eps       ncg     rms          rms(c)
DAV:   1    -0.191507603238E+03   -0.88284E-02   -0.65281E-01  8160   0.172E+00    0.240E-01
DAV:   2    -0.191515287747E+03   -0.76845E-02   -0.31779E-02 12720   0.940E-01    0.859E-01
DAV:   3    -0.191508220789E+03    0.70670E-02   -0.15461E-02 11040   0.811E-01    0.189E-01
DAV:   4    -0.191508129553E+03    0.91236E-04   -0.16455E-03  9680   0.245E-01    0.162E-01
DAV:   5    -0.191507957763E+03    0.17179E-03   -0.11834E-03 10520   0.243E-01    0.126E-01
DAV:   6    -0.191507797390E+03    0.16037E-03   -0.52931E-04  8760   0.140E-01    0.407E-02
DAV:   7    -0.191507786282E+03    0.11108E-04   -0.13890E-04  6600   0.585E-02
  16 F= -.19150779E+03 E0= -.19139535E+03  d E =-.904583E-02
       N       E                     dE             d eps       ncg     rms          rms(c)
DAV:   1    -0.191523297396E+03   -0.15500E-01   -0.10108E+00  8160   0.216E+00    0.258E-01
DAV:   2    -0.191526374305E+03   -0.30769E-02   -0.30366E-02 13320   0.708E-01    0.488E-01
DAV:   3    -0.191524489094E+03    0.18852E-02   -0.10076E-02 11520   0.650E-01    0.295E-01
DAV:   4    -0.191524135197E+03    0.35390E-03   -0.38779E-03 10880   0.373E-01    0.262E-01
DAV:   5    -0.191523638692E+03    0.49650E-03   -0.22080E-03  9560   0.314E-01    0.163E-01
DAV:   6    -0.191523374865E+03    0.26383E-03   -0.10024E-03  9840   0.190E-01    0.728E-02
DAV:   7    -0.191523449005E+03   -0.74140E-04   -0.54157E-04  8400   0.143E-01
  17 F= -.19152345E+03 E0= -.19140992E+03  d E =-.156627E-01
       N       E                     dE             d eps       ncg     rms          rms(c)
DAV:   1    -0.191555905317E+03   -0.32530E-01   -0.26204E+00  8160   0.349E+00    0.426E-01
DAV:   2    -0.191561899241E+03   -0.59939E-02   -0.80940E-02 12440   0.956E-01    0.619E-01
DAV:   3    -0.191561109031E+03    0.79021E-03   -0.23788E-02 12320   0.102E+00    0.615E-01
DAV:   4    -0.191558472592E+03    0.26364E-02   -0.11047E-02 11600   0.663E-01    0.373E-01
DAV:   5    -0.191557500692E+03    0.97190E-03   -0.63767E-03  9920   0.493E-01    0.284E-01
DAV:   6    -0.191556745164E+03    0.75553E-03   -0.26705E-03 11920   0.305E-01    0.105E-01
DAV:   7    -0.191556617417E+03    0.12775E-03   -0.69948E-04  9880   0.117E-01    0.634E-02
DAV:   8    -0.191556610501E+03    0.69165E-05   -0.26560E-04  7560   0.110E-01
  18 F= -.19155661E+03 E0= -.19144127E+03  d E =-.331615E-01
       N       E                     dE             d eps       ncg     rms          rms(c)
DAV:   1    -0.191546752528E+03    0.98649E-02   -0.31363E-01  8160   0.119E+00    0.124E-01
DAV:   2    -0.191547395887E+03   -0.64336E-03   -0.78633E-03 12320   0.277E-01    0.185E-01
DAV:   3    -0.191547324119E+03    0.71768E-04   -0.23035E-03 10400   0.299E-01    0.195E-01
DAV:   4    -0.191547026665E+03    0.29745E-03   -0.10318E-03  8640   0.193E-01    0.836E-02
DAV:   5    -0.191546949873E+03    0.76792E-04   -0.26426E-04  6400   0.895E-02
  19 F= -.19154695E+03 E0= -.19143197E+03  d E =0.966063E-02
       N       E                     dE             d eps       ncg     rms          rms(c)
DAV:   1    -0.191557183449E+03   -0.10157E-01   -0.96521E-01  8160   0.207E+00    0.257E-01
DAV:   2    -0.191565189999E+03   -0.80065E-02   -0.35519E-02 12760   0.990E-01    0.861E-01
DAV:   3    -0.191557985040E+03    0.72050E-02   -0.16600E-02 11440   0.840E-01    0.204E-01
DAV:   4    -0.191558058964E+03   -0.73925E-04   -0.22997E-03  9720   0.305E-01    0.219E-01
DAV:   5    -0.191557655628E+03    0.40334E-03   -0.17083E-03 10320   0.286E-01    0.124E-01
DAV:   6    -0.191557587994E+03    0.67634E-04   -0.72642E-04 10080   0.157E-01
  20 F= -.19155759E+03 E0= -.19144236E+03  d E =-.106381E-01
       N       E                     dE             d eps       ncg     rms          rms(c)
DAV:   1    -0.191573298051E+03   -0.15642E-01   -0.14768E+00  8160   0.260E+00    0.295E-01
DAV:   2    -0.191578584605E+03   -0.52866E-02   -0.43229E-02 13560   0.810E-01    0.633E-01
DAV:   3    -0.191575401661E+03    0.31829E-02   -0.15467E-02 12120   0.817E-01    0.348E-01
DAV:   4    -0.191574344067E+03    0.10576E-02   -0.37657E-03 11080   0.344E-01    0.150E-01
DAV:   5    -0.191573967166E+03    0.37690E-03   -0.10469E-03 10960   0.133E-01    0.869E-02
DAV:   6    -0.191574220422E+03   -0.25326E-03   -0.10894E-03 10800   0.218E-01    0.181E-01
DAV:   7    -0.191573911839E+03    0.30858E-03   -0.74564E-04  8600   0.186E-01    0.621E-02
DAV:   8    -0.191573901605E+03    0.10234E-04   -0.18939E-04  5840   0.867E-02
  21 F= -.19157390E+03 E0= -.19145819E+03  d E =-.163136E-01
       N       E                     dE             d eps       ncg     rms          rms(c)
DAV:   1    -0.191601700553E+03   -0.27789E-01   -0.15787E+00  8160   0.273E+00    0.370E-01
DAV:   2    -0.191605059836E+03   -0.33593E-02   -0.53428E-02 12240   0.809E-01    0.556E-01
DAV:   3    -0.191604894502E+03    0.16533E-03   -0.19080E-02 12240   0.917E-01    0.574E-01
DAV:   4    -0.191602008258E+03    0.28862E-02   -0.82464E-03 11280   0.552E-01    0.253E-01
DAV:   5    -0.191601929322E+03    0.78936E-04   -0.43365E-03 10360   0.426E-01    0.264E-01
DAV:   6    -0.191601214082E+03    0.71524E-03   -0.21822E-03 10960   0.284E-01    0.100E-01
DAV:   7    -0.191601294963E+03   -0.80881E-04   -0.89186E-04  8720   0.196E-01
  22 F= -.19160129E+03 E0= -.19148599E+03  d E =-.273934E-01
       N       E                     dE             d eps       ncg     rms          rms(c)
DAV:   1    -0.191614328953E+03   -0.13115E-01   -0.43837E-01  8160   0.142E+00    0.185E-01
DAV:   2    -0.191616747806E+03   -0.24189E-02   -0.16764E-02 11400   0.598E-01    0.449E-01
DAV:   3    -0.191614921625E+03    0.18262E-02   -0.64331E-03 11600   0.506E-01    0.195E-01
DAV:   4    -0.191614785666E+03    0.13596E-03   -0.16505E-03  9480   0.246E-01    0.160E-01
DAV:   5    -0.191614624116E+03    0.16155E-03   -0.10097E-03  9200   0.226E-01    0.110E-01
DAV:   6    -0.191614502987E+03    0.12113E-03   -0.38391E-04  7800   0.115E-01    0.366E-02
DAV:   7    -0.191614524027E+03   -0.21040E-04   -0.15501E-04  6280   0.779E-02
  23 F= -.19161452E+03 E0= -.19149975E+03  d E =-.132291E-01
       N       E                     dE             d eps       ncg     rms          rms(c)
DAV:   1    -0.191640251509E+03   -0.25749E-01   -0.13164E+00  8160   0.245E+00    0.276E-01
DAV:   2    -0.191642474965E+03   -0.22235E-02   -0.35590E-02 12240   0.555E-01    0.323E-01
DAV:   3    -0.191643381713E+03   -0.90675E-03   -0.10321E-02 10920   0.629E-01    0.487E-01
DAV:   4    -0.191641395788E+03    0.19859E-02   -0.55084E-03 11000   0.446E-01    0.170E-01
DAV:   5    -0.191641263846E+03    0.13194E-03   -0.17065E-03 10080   0.282E-01    0.166E-01
DAV:   6    -0.191641072366E+03    0.19148E-03   -0.92959E-04 10360   0.209E-01    0.813E-02
DAV:   7    -0.191640991852E+03    0.80514E-04   -0.28459E-04  6360   0.900E-02
  24 F= -.19164099E+03 E0= -.19152761E+03  d E =-.264678E-01
       N       E                     dE             d eps       ncg     rms          rms(c)
DAV:   1    -0.191615972388E+03    0.25100E-01   -0.12503E+00  8160   0.238E+00    0.267E-01
DAV:   2    -0.191619219849E+03   -0.32475E-02   -0.36153E-02 12240   0.671E-01    0.454E-01
DAV:   3    -0.191618282529E+03    0.93732E-03   -0.11180E-02 12560   0.682E-01    0.363E-01
DAV:   4    -0.191617221789E+03    0.10607E-02   -0.34175E-03 10920   0.362E-01    0.182E-01
DAV:   5    -0.191617086408E+03    0.13538E-03   -0.17540E-03  9960   0.294E-01    0.178E-01
DAV:   6    -0.191616854749E+03    0.23166E-03   -0.10037E-03  9760   0.197E-01    0.948E-02
DAV:   7    -0.191616922103E+03   -0.67355E-04   -0.68328E-04  9160   0.178E-01
  25 F= -.19161692E+03 E0= -.19150259E+03  d E =0.240697E-01
       N       E                     dE             d eps       ncg     rms          rms(c)
DAV:   1    -0.191638910081E+03   -0.22055E-01   -0.10496E+00  8160   0.219E+00    0.236E-01
DAV:   2    -0.191641988048E+03   -0.30780E-02   -0.29465E-02 11600   0.618E-01    0.428E-01
DAV:   3    -0.191640643828E+03    0.13442E-02   -0.78746E-03 12320   0.605E-01    0.270E-01
DAV:   4    -0.191640159738E+03    0.48409E-03   -0.23975E-03 10680   0.307E-01    0.178E-01
DAV:   5    -0.191639963333E+03    0.19640E-03   -0.14196E-03 10080   0.263E-01    0.142E-01
DAV:   6    -0.191639854297E+03    0.10904E-03   -0.69338E-04  8480   0.171E-01    0.924E-02
DAV:   7    -0.191639897453E+03   -0.43155E-04   -0.62108E-04  8680   0.166E-01
  26 F= -.19163990E+03 E0= -.19152673E+03  d E =-.229753E-01
       N       E                     dE             d eps       ncg     rms          rms(c)
DAV:   1    -0.191640357385E+03   -0.50309E-03   -0.23332E-01  8160   0.101E+00    0.969E-02
DAV:   2    -0.191640678747E+03   -0.32136E-03   -0.43857E-03 12240   0.185E-01    0.107E-01
DAV:   3    -0.191640688008E+03   -0.92615E-05   -0.10018E-03 11400   0.208E-01    0.132E-01
DAV:   4    -0.191640530364E+03    0.15764E-03   -0.42531E-04  8080   0.148E-01    0.563E-02
DAV:   5    -0.191640539818E+03   -0.94538E-05   -0.17770E-04  5520   0.926E-02
  27 F= -.19164054E+03 E0= -.19152719E+03  d E =-.642365E-03
       N       E                     dE             d eps       ncg     rms          rms(c)
DAV:   1    -0.191643940868E+03   -0.34105E-02   -0.12574E+00  8160   0.233E+00    0.243E-01
DAV:   2    -0.191646940939E+03   -0.30001E-02   -0.25412E-02 12240   0.651E-01    0.455E-01
DAV:   3    -0.191645197555E+03    0.17434E-02   -0.83511E-03 12360   0.634E-01    0.262E-01
DAV:   4    -0.191644808490E+03    0.38907E-03   -0.26312E-03 11000   0.321E-01    0.186E-01
DAV:   5    -0.191644652256E+03    0.15623E-03   -0.14701E-03  9960   0.274E-01    0.155E-01
DAV:   6    -0.191644417405E+03    0.23485E-03   -0.70691E-04  9480   0.179E-01    0.534E-02
DAV:   7    -0.191644516049E+03   -0.98644E-04   -0.37471E-04  7560   0.125E-01
  28 F= -.19164452E+03 E0= -.19153079E+03  d E =-.397623E-02
       N       E                     dE             d eps       ncg     rms          rms(c)
DAV:   1    -0.191683459610E+03   -0.39042E-01   -0.59537E+00  8160   0.517E+00    0.576E-01
DAV:   2    -0.191692638734E+03   -0.91791E-02   -0.15317E-01 12400   0.123E+00    0.634E-01
DAV:   3    -0.191693874615E+03   -0.12359E-02   -0.34258E-02 11760   0.127E+00    0.772E-01
DAV:   4    -0.191687851168E+03    0.60234E-02   -0.14822E-02 11120   0.891E-01    0.349E-01
DAV:   5    -0.191687613368E+03    0.23780E-03   -0.69440E-03 11560   0.560E-01    0.386E-01
DAV:   6    -0.191686320343E+03    0.12930E-02   -0.52635E-03 11400   0.487E-01    0.158E-01
DAV:   7    -0.191686261117E+03    0.59226E-04   -0.15106E-03 10240   0.218E-01    0.154E-01
DAV:   8    -0.191686043954E+03    0.21716E-03   -0.72462E-04  8560   0.185E-01    0.749E-02
DAV:   9    -0.191685990060E+03    0.53894E-04   -0.14722E-04  5920   0.755E-02
  29 F= -.19168599E+03 E0= -.19157388E+03  d E =-.414740E-01
       N       E                     dE             d eps       ncg     rms          rms(c)
DAV:   1    -0.191716385670E+03   -0.30342E-01   -0.26537E+00  8160   0.345E+00    0.376E-01
DAV:   2    -0.191721361792E+03   -0.49761E-02   -0.70501E-02 12240   0.839E-01    0.503E-01
DAV:   3    -0.191721900705E+03   -0.53891E-03   -0.21119E-02 11800   0.923E-01    0.612E-01
DAV:   4    -0.191718351537E+03    0.35492E-02   -0.73749E-03 11280   0.562E-01    0.150E-01
DAV:   5    -0.191717938759E+03    0.41278E-03   -0.13201E-03 10120   0.150E-01    0.696E-02
DAV:   6    -0.191718065196E+03   -0.12644E-03   -0.65935E-04 10720   0.149E-01    0.104E-01
DAV:   7    -0.191717926791E+03    0.13841E-03   -0.30580E-04  9200   0.136E-01    0.396E-02
DAV:   8    -0.191717915350E+03    0.11441E-04   -0.60445E-05  6080   0.487E-02
  30 F= -.19171792E+03 E0= -.19160790E+03  d E =-.319253E-01
       N       E                     dE             d eps       ncg     rms          rms(c)
DAV:   1    -0.191731968772E+03   -0.14042E-01   -0.53234E-01  8160   0.157E+00    0.203E-01
DAV:   2    -0.191733554876E+03   -0.15861E-02   -0.18373E-02 12480   0.482E-01    0.355E-01
DAV:   3    -0.191732857657E+03    0.69722E-03   -0.63347E-03 12000   0.528E-01    0.269E-01
DAV:   4    -0.191732081728E+03    0.77593E-03   -0.14959E-03  9640   0.239E-01    0.701E-02
DAV:   5    -0.191732021412E+03    0.60316E-04   -0.40942E-04  9080   0.709E-02
  31 F= -.19173202E+03 E0= -.19162314E+03  d E =-.141061E-01
       N       E                     dE             d eps       ncg     rms          rms(c)
DAV:   1    -0.191775760558E+03   -0.43679E-01   -0.62659E+00  8160   0.533E+00    0.601E-01
DAV:   2    -0.191792178650E+03   -0.16418E-01   -0.19021E-01 12240   0.143E+00    0.942E-01
DAV:   3    -0.191788030260E+03    0.41484E-02   -0.51885E-02 11760   0.152E+00    0.815E-01
DAV:   4    -0.191781334953E+03    0.66953E-02   -0.12813E-02 12280   0.765E-01    0.243E-01
DAV:   5    -0.191781115154E+03    0.21980E-03   -0.48558E-03 11600   0.444E-01    0.281E-01
DAV:   6    -0.191780707858E+03    0.40730E-03   -0.36017E-03 12040   0.462E-01    0.197E-01
DAV:   7    -0.191780200969E+03    0.50689E-03   -0.11453E-03 10520   0.229E-01    0.627E-02
DAV:   8    -0.191780181832E+03    0.19137E-04   -0.22481E-04  7400   0.102E-01
  32 F= -.19178018E+03 E0= -.19167484E+03  d E =-.481604E-01
       N       E                     dE             d eps       ncg     rms          rms(c)
DAV:   1    -0.191814995497E+03   -0.34795E-01   -0.46479E+00  8160   0.457E+00    0.508E-01
DAV:   2    -0.191831687557E+03   -0.16692E-01   -0.15333E-01 13040   0.141E+00    0.966E-01
DAV:   3    -0.191823686383E+03    0.80012E-02   -0.41318E-02 11920   0.139E+00    0.576E-01
DAV:   4    -0.191820454773E+03    0.32316E-02   -0.68071E-03 12080   0.571E-01    0.229E-01
DAV:   5    -0.191820323516E+03    0.13126E-03   -0.37764E-03 12200   0.432E-01    0.254E-01
DAV:   6    -0.191819830292E+03    0.49322E-03   -0.23754E-03 11960   0.376E-01    0.137E-01
DAV:   7    -0.191819589969E+03    0.24032E-03   -0.71972E-04 10640   0.155E-01    0.409E-02
DAV:   8    -0.191819559777E+03    0.30192E-04   -0.10700E-04  7040   0.459E-02
  33 F= -.19181956E+03 E0= -.19171729E+03  d E =-.393779E-01
       N       E                     dE             d eps       ncg     rms          rms(c)
DAV:   1    -0.191824350364E+03   -0.47604E-02   -0.85306E-02  8160   0.633E-01    0.974E-02
DAV:   2    -0.191825474009E+03   -0.11236E-02   -0.46820E-03 12520   0.387E-01    0.313E-01
DAV:   3    -0.191824419275E+03    0.10547E-02   -0.19306E-03 10480   0.342E-01    0.593E-02
DAV:   4    -0.191824396643E+03    0.22631E-04   -0.11374E-04  6000   0.671E-02
  34 F= -.19182440E+03 E0= -.19172260E+03  d E =-.483687E-02
       N       E                     dE             d eps       ncg     rms          rms(c)
DAV:   1    -0.191797478004E+03    0.26941E-01   -0.21857E+00  8160   0.315E+00    0.347E-01
DAV:   2    -0.191806951503E+03   -0.94735E-02   -0.71163E-02 13240   0.106E+00    0.780E-01
DAV:   3    -0.191801059093E+03    0.58924E-02   -0.21892E-02 12480   0.102E+00    0.351E-01
DAV:   4    -0.191799977486E+03    0.10816E-02   -0.33572E-03 11200   0.348E-01    0.163E-01
DAV:   5    -0.191799618866E+03    0.35862E-03   -0.14042E-03 10880   0.215E-01    0.128E-01
DAV:   6    -0.191799797922E+03   -0.17906E-03   -0.13238E-03 10720   0.274E-01    0.168E-01
DAV:   7    -0.191799506306E+03    0.29162E-03   -0.62224E-04  8880   0.189E-01    0.629E-02
DAV:   8    -0.191799471038E+03    0.35268E-04   -0.13667E-04  6680   0.907E-02
  35 F= -.19179947E+03 E0= -.19169510E+03  d E =0.249256E-01
       N       E                     dE             d eps       ncg     rms          rms(c)
DAV:   1    -0.191784087677E+03    0.15419E-01   -0.52471E+00  8160   0.486E+00    0.542E-01
DAV:   2    -0.191811435515E+03   -0.27348E-01   -0.16323E-01 12200   0.178E+00    0.143E+00
DAV:   3    -0.191791983574E+03    0.19452E-01   -0.64252E-02 12040   0.169E+00    0.487E-01
DAV:   4    -0.191790108258E+03    0.18753E-02   -0.81961E-03 11280   0.495E-01    0.284E-01
DAV:   5    -0.191789316325E+03    0.79193E-03   -0.35209E-03 11680   0.404E-01    0.237E-01
DAV:   6    -0.191789145305E+03    0.17102E-03   -0.28372E-03 12320   0.406E-01    0.182E-01
DAV:   7    -0.191788916334E+03    0.22897E-03   -0.11294E-03 10440   0.239E-01    0.120E-01
DAV:   8    -0.191788766902E+03    0.14943E-03   -0.40170E-04  8800   0.160E-01    0.502E-02
DAV:   9    -0.191788740730E+03    0.26172E-04   -0.67815E-05  6280   0.563E-02
  36 F= -.19178874E+03 E0= -.19168124E+03  d E =0.107303E-01
       N       E                     dE             d eps       ncg     rms          rms(c)
DAV:   1    -0.191802491353E+03   -0.13724E-01   -0.32398E+00  8160   0.380E+00    0.437E-01
DAV:   2    -0.191810110323E+03   -0.76190E-02   -0.10459E-01 12600   0.115E+00    0.561E-01
DAV:   3    -0.191808560084E+03    0.15502E-02   -0.19204E-02 12080   0.101E+00    0.469E-01
DAV:   4    -0.191806270322E+03    0.22898E-02   -0.83409E-03 11920   0.626E-01    0.266E-01
DAV:   5    -0.191806157780E+03    0.11254E-03   -0.40253E-03 11360   0.451E-01    0.284E-01
DAV:   6    -0.191805397812E+03    0.75997E-03   -0.23769E-03 11120   0.364E-01    0.102E-01
DAV:   7    -0.191805329574E+03    0.68238E-04   -0.45181E-04  8960   0.129E-01
  37 F= -.19180533E+03 E0= -.19169704E+03  d E =-.165888E-01
       N       E                     dE             d eps       ncg     rms          rms(c)
DAV:   1    -0.191819278143E+03   -0.13880E-01   -0.61684E+00  8160   0.526E+00    0.586E-01
DAV:   2    -0.191832963746E+03   -0.13686E-01   -0.19750E-01 12280   0.142E+00    0.700E-01
DAV:   3    -0.191833145158E+03   -0.18141E-03   -0.41576E-02 11760   0.141E+00    0.777E-01
DAV:   4    -0.191827095156E+03    0.60500E-02   -0.13310E-02 12440   0.905E-01    0.319E-01
DAV:   5    -0.191826881879E+03    0.21328E-03   -0.56656E-03 11040   0.566E-01    0.349E-01
DAV:   6    -0.191825735209E+03    0.11467E-02   -0.48212E-03 12000   0.474E-01    0.137E-01
DAV:   7    -0.191825511514E+03    0.22370E-03   -0.11000E-03 10480   0.153E-01    0.565E-02
DAV:   8    -0.191825492409E+03    0.19105E-04   -0.21360E-04  8360   0.104E-01
  38 F= -.19182549E+03 E0= -.19171646E+03  d E =-.201628E-01
       N       E                     dE             d eps       ncg     rms          rms(c)
DAV:   1    -0.191828854623E+03   -0.33431E-02   -0.16461E-01  8160   0.888E-01    0.149E-01
DAV:   2    -0.191830553818E+03   -0.16992E-02   -0.89727E-03 10440   0.516E-01    0.402E-01
DAV:   3    -0.191828851191E+03    0.17026E-02   -0.37627E-03 12160   0.464E-01    0.102E-01
DAV:   4    -0.191828772043E+03    0.79148E-04   -0.45272E-04  8880   0.135E-01
  39 F= -.19182877E+03 E0= -.19171994E+03  d E =-.327963E-02
       N       E                     dE             d eps       ncg     rms          rms(c)
DAV:   1    -0.191840156909E+03   -0.11306E-01   -0.21094E+00  8160   0.314E+00    0.406E-01
DAV:   2    -0.191848177355E+03   -0.80204E-02   -0.80481E-02 13600   0.107E+00    0.754E-01
DAV:   3    -0.191843353438E+03    0.48239E-02   -0.24573E-02 12200   0.110E+00    0.440E-01
DAV:   4    -0.191841387119E+03    0.19663E-02   -0.46025E-03 12440   0.459E-01    0.165E-01
DAV:   5    -0.191840876065E+03    0.51105E-03   -0.21027E-03 10520   0.163E-01    0.877E-02
DAV:   6    -0.191840912582E+03   -0.36517E-04   -0.88800E-04 10760   0.136E-01
  40 F= -.19184091E+03 E0= -.19173201E+03  d E =-.121405E-01
       N       E                     dE             d eps       ncg     rms          rms(c)
DAV:   1    -0.191845786771E+03   -0.49107E-02   -0.23933E-01  8160   0.106E+00    0.162E-01
DAV:   2    -0.191847849508E+03   -0.20627E-02   -0.12359E-02 12560   0.539E-01    0.402E-01
DAV:   3    -0.191846109664E+03    0.17398E-02   -0.45411E-03 12680   0.501E-01    0.135E-01
DAV:   4    -0.191846024328E+03    0.85336E-04   -0.69305E-04 10160   0.158E-01
  41 F= -.19184602E+03 E0= -.19173784E+03  d E =-.511175E-02
       N       E                     dE             d eps       ncg     rms          rms(c)
DAV:   1    -0.191846108943E+03    0.72042E-06   -0.54143E-04  9640   0.124E-01    0.614E-02
DAV:   2    -0.191846640996E+03   -0.53205E-03   -0.12736E-03 11160   0.288E-01    0.206E-01
DAV:   3    -0.191846064881E+03    0.57612E-03   -0.81677E-04  9760   0.230E-01    0.247E-02
DAV:   4    -0.191846087978E+03   -0.23097E-04   -0.51095E-05  5840   0.576E-02
  42 F= -.19184609E+03 E0= -.19173787E+03  d E =-.636504E-04
       N       E                     dE             d eps       ncg     rms          rms(c)
DAV:   1    -0.191851277130E+03   -0.52122E-02   -0.29908E-01  8160   0.119E+00    0.165E-01
DAV:   2    -0.191852060917E+03   -0.78379E-03   -0.11922E-02 11520   0.360E-01    0.227E-01
DAV:   3    -0.191851923169E+03    0.13775E-03   -0.33433E-03 12360   0.410E-01    0.217E-01
DAV:   4    -0.191851421289E+03    0.50188E-03   -0.93564E-04 10080   0.226E-01    0.646E-02
DAV:   5    -0.191851356877E+03    0.64413E-04   -0.28705E-04  7280   0.667E-02
  43 F= -.19185136E+03 E0= -.19174370E+03  d E =-.526890E-02
       N       E                     dE             d eps       ncg     rms          rms(c)
DAV:   1    -0.191860775366E+03   -0.93541E-02   -0.12753E+00  8160   0.245E+00    0.333E-01
DAV:   2    -0.191866086887E+03   -0.53115E-02   -0.54544E-02 11680   0.828E-01    0.557E-01
DAV:   3    -0.191863573474E+03    0.25134E-02   -0.14620E-02 11800   0.855E-01    0.364E-01
DAV:   4    -0.191862426584E+03    0.11469E-02   -0.32763E-03 12360   0.410E-01    0.194E-01
DAV:   5    -0.191862078958E+03    0.34763E-03   -0.16170E-03 10680   0.308E-01    0.141E-01
DAV:   6    -0.191861977317E+03    0.10164E-03   -0.90280E-04 10680   0.223E-01    0.917E-02
DAV:   7    -0.191861842781E+03    0.13454E-03   -0.30517E-04  9240   0.103E-01    0.228E-02
DAV:   8    -0.191861834497E+03    0.82838E-05   -0.45470E-05  7080   0.289E-02
  44 F= -.19186183E+03 E0= -.19175542E+03  d E =-.104776E-01
       N       E                     dE             d eps       ncg     rms          rms(c)
DAV:   1    -0.191851350822E+03    0.10492E-01   -0.12877E+00  8160   0.245E+00    0.341E-01
DAV:   2    -0.191854461131E+03   -0.31103E-02   -0.53292E-02 11000   0.701E-01    0.401E-01
DAV:   3    -0.191855033684E+03   -0.57255E-03   -0.13771E-02 11840   0.832E-01    0.488E-01
DAV:   4    -0.191852337143E+03    0.26965E-02   -0.45506E-03 11160   0.505E-01    0.140E-01
DAV:   5    -0.191852400005E+03   -0.62862E-04   -0.16051E-03 10400   0.290E-01    0.176E-01
DAV:   6    -0.191852091074E+03    0.30893E-03   -0.11158E-03 11440   0.261E-01    0.800E-02
DAV:   7    -0.191852022251E+03    0.68823E-04   -0.24570E-04  8440   0.102E-01
  45 F= -.19185202E+03 E0= -.19174466E+03  d E =0.981225E-02
       N       E                     dE             d eps       ncg     rms          rms(c)
DAV:   1    -0.191858167665E+03   -0.60766E-02   -0.32870E-01  8160   0.124E+00    0.177E-01
DAV:   2    -0.191860926548E+03   -0.27589E-02   -0.15427E-02 12200   0.602E-01    0.470E-01
DAV:   3    -0.191858479038E+03    0.24475E-02   -0.55871E-03 12080   0.557E-01    0.128E-01
DAV:   4    -0.191858385138E+03    0.93900E-04   -0.71745E-04 10000   0.143E-01
  46 F= -.19185839E+03 E0= -.19175199E+03  d E =-.636289E-02
       N       E                     dE             d eps       ncg     rms          rms(c)
DAV:   1    -0.191843628637E+03    0.14850E-01   -0.18858E+00  8160   0.297E+00    0.433E-01
DAV:   2    -0.191858925099E+03   -0.15296E-01   -0.90504E-02 11560   0.134E+00    0.111E+00
DAV:   3    -0.191845575940E+03    0.13349E-01   -0.39724E-02 11840   0.137E+00    0.367E-01
DAV:   4    -0.191844663849E+03    0.91209E-03   -0.50458E-03 10920   0.414E-01    0.236E-01
DAV:   5    -0.191844059280E+03    0.60457E-03   -0.27308E-03 11120   0.366E-01    0.194E-01
DAV:   6    -0.191843762263E+03    0.29702E-03   -0.16099E-03 11440   0.313E-01    0.118E-01
DAV:   7    -0.191843610852E+03    0.15141E-03   -0.48476E-04  9280   0.145E-01    0.489E-02
DAV:   8    -0.191843601988E+03    0.88648E-05   -0.12548E-04  7240   0.883E-02
  47 F= -.19184360E+03 E0= -.19173523E+03  d E =0.147832E-01
       N       E                     dE             d eps       ncg     rms          rms(c)
DAV:   1    -0.191832179119E+03    0.11432E-01   -0.16170E+00  8160   0.274E+00    0.402E-01
DAV:   2    -0.191846296225E+03   -0.14117E-01   -0.76270E-02 11440   0.130E+00    0.109E+00
DAV:   3    -0.191833707905E+03    0.12588E-01   -0.34182E-02 12160   0.128E+00    0.313E-01
DAV:   4    -0.191833073986E+03    0.63392E-03   -0.36841E-03 10800   0.326E-01    0.195E-01
DAV:   5    -0.191832555148E+03    0.51884E-03   -0.19837E-03 10600   0.265E-01    0.151E-01
DAV:   6    -0.191832528629E+03    0.26519E-04   -0.13036E-03 11600   0.288E-01    0.136E-01
DAV:   7    -0.191832303689E+03    0.22494E-03   -0.45571E-04  9080   0.159E-01    0.397E-02
DAV:   8    -0.191832301873E+03    0.18166E-05   -0.88908E-05  6880   0.736E-02
  48 F= -.19183230E+03 E0= -.19172270E+03  d E =0.113001E-01
       N       E                     dE             d eps       ncg     rms          rms(c)
DAV:   1    -0.191832488577E+03   -0.18489E-03   -0.26235E-01  8160   0.108E+00    0.137E-01
DAV:   2    -0.191834174981E+03   -0.16864E-02   -0.99292E-03 13600   0.523E-01    0.350E-01
DAV:   3    -0.191832802237E+03    0.13727E-02   -0.31424E-03 11880   0.411E-01    0.977E-02
DAV:   4    -0.191832838315E+03   -0.36077E-04   -0.59235E-04  8720   0.176E-01
  49 F= -.19183284E+03 E0= -.19172310E+03  d E =-.536442E-03
       N       E                     dE             d eps       ncg     rms          rms(c)
DAV:   1    -0.191837435868E+03   -0.46336E-02   -0.27803E-01  8160   0.115E+00    0.160E-01
DAV:   2    -0.191838910225E+03   -0.14744E-02   -0.12053E-02 12200   0.461E-01    0.337E-01
DAV:   3    -0.191837775611E+03    0.11346E-02   -0.42447E-03 12240   0.450E-01    0.155E-01
DAV:   4    -0.191837583808E+03    0.19180E-03   -0.72835E-04  9800   0.172E-01    0.764E-02
DAV:   5    -0.191837499542E+03    0.84266E-04   -0.35426E-04  7920   0.985E-02
  50 F= -.19183750E+03 E0= -.19172793E+03  d E =-.466123E-02
       N       E                     dE             d eps       ncg     rms          rms(c)
DAV:   1    -0.191841454989E+03   -0.38712E-02   -0.18981E-01  8160   0.950E-01    0.142E-01
DAV:   2    -0.191842700926E+03   -0.12459E-02   -0.83002E-03 11120   0.416E-01    0.301E-01
DAV:   3    -0.191841650346E+03    0.10506E-02   -0.29633E-03 11280   0.395E-01    0.112E-01
DAV:   4    -0.191841696461E+03   -0.46115E-04   -0.53656E-04  8760   0.181E-01
  51 F= -.19184170E+03 E0= -.19173212E+03  d E =-.419692E-02
       N       E                     dE             d eps       ncg     rms          rms(c)
DAV:   1    -0.191842130261E+03   -0.47992E-03   -0.27510E-02  8160   0.388E-01    0.653E-02
DAV:   2    -0.191842674207E+03   -0.54395E-03   -0.17168E-03 12720   0.274E-01    0.210E-01
DAV:   3    -0.191842125294E+03    0.54891E-03   -0.77691E-04  9520   0.230E-01    0.391E-02
DAV:   4    -0.191842149490E+03   -0.24197E-04   -0.87386E-05  5680   0.754E-02
  52 F= -.19184215E+03 E0= -.19173276E+03  d E =-.453029E-03
       N       E                     dE             d eps       ncg     rms          rms(c)
DAV:   1    -0.191847071078E+03   -0.49458E-02   -0.41092E-01  8160   0.138E+00    0.159E-01
DAV:   2    -0.191848119686E+03   -0.10486E-02   -0.12571E-02 12840   0.379E-01    0.237E-01
DAV:   3    -0.191847784298E+03    0.33539E-03   -0.31144E-03 12040   0.396E-01    0.189E-01
DAV:   4    -0.191847503484E+03    0.28081E-03   -0.82805E-04  9880   0.221E-01    0.917E-02
DAV:   5    -0.191847453303E+03    0.50182E-04   -0.42204E-04  9400   0.152E-01
  53 F= -.19184745E+03 E0= -.19173849E+03  d E =-.530381E-02
       N       E                     dE             d eps       ncg     rms          rms(c)
DAV:   1    -0.191843509074E+03    0.39944E-02   -0.25196E-01  8160   0.108E+00    0.111E-01
DAV:   2    -0.191844383387E+03   -0.87431E-03   -0.83565E-03 12720   0.325E-01    0.208E-01
DAV:   3    -0.191843974080E+03    0.40931E-03   -0.22278E-03 11120   0.311E-01    0.128E-01
DAV:   4    -0.191843822015E+03    0.15206E-03   -0.40965E-04  8160   0.149E-01    0.531E-02
DAV:   5    -0.191843777423E+03    0.44592E-04   -0.12051E-04  6200   0.488E-02
  54 F= -.19184378E+03 E0= -.19173452E+03  d E =0.367588E-02
       N       E                     dE             d eps       ncg     rms          rms(c)
DAV:   1    -0.191842808985E+03    0.10130E-02   -0.19463E-01  8160   0.934E-01    0.117E-01
DAV:   2    -0.191843977502E+03   -0.11685E-02   -0.69681E-03 12640   0.453E-01    0.287E-01
DAV:   3    -0.191842971220E+03    0.10063E-02   -0.21425E-03 11960   0.343E-01    0.731E-02
DAV:   4    -0.191843051692E+03   -0.80472E-04   -0.36536E-04  8120   0.151E-01
  55 F= -.19184305E+03 E0= -.19173378E+03  d E =0.725731E-03
       N       E                     dE             d eps       ncg     rms          rms(c)
DAV:   1    -0.191838461804E+03    0.45094E-02   -0.12369E+00  8160   0.235E+00    0.247E-01
DAV:   2    -0.191841627784E+03   -0.31660E-02   -0.30426E-02 12280   0.728E-01    0.394E-01
DAV:   3    -0.191840001070E+03    0.16267E-02   -0.62230E-03 12200   0.597E-01    0.201E-01
DAV:   4    -0.191839674258E+03    0.32681E-03   -0.19146E-03 10240   0.255E-01    0.132E-01
DAV:   5    -0.191839716941E+03   -0.42684E-04   -0.12723E-03 11320   0.254E-01    0.164E-01
DAV:   6    -0.191839513031E+03    0.20391E-03   -0.69516E-04  8440   0.208E-01    0.654E-02
DAV:   7    -0.191839452318E+03    0.60714E-04   -0.13507E-04  5600   0.688E-02
  56 F= -.19183945E+03 E0= -.19173060E+03  d E =0.359937E-02
       N       E                     dE             d eps       ncg     rms          rms(c)
DAV:   1    -0.191845521739E+03   -0.60087E-02   -0.49787E+00  8160   0.472E+00    0.496E-01
DAV:   2    -0.191861263229E+03   -0.15741E-01   -0.13315E-01 12480   0.168E+00    0.931E-01
DAV:   3    -0.191851573789E+03    0.96894E-02   -0.28647E-02 12240   0.130E+00    0.331E-01
DAV:   4    -0.191850163961E+03    0.14098E-02   -0.52287E-03 12320   0.390E-01    0.188E-01
DAV:   5    -0.191850046446E+03    0.11752E-03   -0.27863E-03 11240   0.302E-01    0.208E-01
DAV:   6    -0.191850225191E+03   -0.17875E-03   -0.28887E-03 11400   0.413E-01    0.238E-01
DAV:   7    -0.191849540222E+03    0.68497E-03   -0.11856E-03  9520   0.239E-01    0.287E-02
DAV:   8    -0.191849541780E+03   -0.15584E-05   -0.73145E-05  6160   0.323E-02
  57 F= -.19184954E+03 E0= -.19174069E+03  d E =-.100895E-01
       N       E                     dE             d eps       ncg     rms          rms(c)
DAV:   1    -0.191852746861E+03   -0.32066E-02   -0.13518E-01  8160   0.794E-01    0.994E-02
DAV:   2    -0.191853043600E+03   -0.29674E-03   -0.45869E-03 10280   0.209E-01    0.115E-01
DAV:   3    -0.191853075196E+03   -0.31596E-04   -0.11596E-03 11240   0.233E-01    0.138E-01
DAV:   4    -0.191852892514E+03    0.18268E-03   -0.35564E-04  8240   0.150E-01    0.528E-02
DAV:   5    -0.191852878106E+03    0.14409E-04   -0.12506E-04  6160   0.876E-02
  58 F= -.19185288E+03 E0= -.19174448E+03  d E =-.333633E-02
       N       E                     dE             d eps       ncg     rms          rms(c)
DAV:   1    -0.191845987465E+03    0.69050E-02   -0.49068E-01  8160   0.151E+00    0.189E-01
DAV:   2    -0.191848320786E+03   -0.23333E-02   -0.19048E-02 12000   0.569E-01    0.390E-01
DAV:   3    -0.191846771559E+03    0.15492E-02   -0.55115E-03 12280   0.533E-01    0.181E-01
DAV:   4    -0.191846570742E+03    0.20082E-03   -0.10292E-03  9720   0.225E-01    0.112E-01
DAV:   5    -0.191846458303E+03    0.11244E-03   -0.57346E-04  9560   0.178E-01    0.900E-02
DAV:   6    -0.191846401518E+03    0.56785E-04   -0.39474E-04  9240   0.138E-01
  59 F= -.19184640E+03 E0= -.19173715E+03  d E =0.647659E-02
       N       E                     dE             d eps       ncg     rms          rms(c)
DAV:   1    -0.191838280076E+03    0.81782E-02   -0.77765E-01  8160   0.190E+00    0.272E-01
DAV:   2    -0.191843305758E+03   -0.50257E-02   -0.34573E-02 11000   0.838E-01    0.631E-01
DAV:   3    -0.191839311664E+03    0.39941E-02   -0.12503E-02 12240   0.786E-01    0.230E-01
DAV:   4    -0.191838946506E+03    0.36516E-03   -0.16195E-03 11040   0.247E-01    0.135E-01
DAV:   5    -0.191838698514E+03    0.24799E-03   -0.93178E-04 10680   0.181E-01    0.983E-02
DAV:   6    -0.191838728663E+03   -0.30149E-04   -0.63828E-04 10120   0.203E-01
  60 F= -.19183873E+03 E0= -.19172886E+03  d E =0.767285E-02
       N       E                     dE             d eps       ncg     rms          rms(c)
DAV:   1    -0.191848769221E+03   -0.10071E-01   -0.14270E+00  8160   0.257E+00    0.348E-01
DAV:   2    -0.191857656308E+03   -0.88871E-02   -0.60660E-02 12160   0.111E+00    0.821E-01
DAV:   3    -0.191850760118E+03    0.68962E-02   -0.19436E-02 12280   0.103E+00    0.290E-01
DAV:   4    -0.191850041790E+03    0.71833E-03   -0.25030E-03 11280   0.300E-01    0.143E-01
DAV:   5    -0.191849668322E+03    0.37347E-03   -0.13250E-03 10680   0.152E-01    0.836E-02
DAV:   6    -0.191849778631E+03   -0.11031E-03   -0.73449E-04 11200   0.193E-01    0.127E-01
DAV:   7    -0.191849596803E+03    0.18183E-03   -0.42891E-04  9480   0.165E-01    0.456E-02
DAV:   8    -0.191849579059E+03    0.17743E-04   -0.72669E-05  6160   0.654E-02
  61 F= -.19184958E+03 E0= -.19174060E+03  d E =-.108504E-01
       N       E                     dE             d eps       ncg     rms          rms(c)
DAV:   1    -0.191851370613E+03   -0.17738E-02   -0.74406E-02  8160   0.580E-01    0.620E-02
DAV:   2    -0.191851584350E+03   -0.21374E-03   -0.19886E-03 13040   0.161E-01    0.102E-01
DAV:   3    -0.191851477521E+03    0.10683E-03   -0.44173E-04  9680   0.159E-01    0.563E-02
DAV:   4    -0.191851461297E+03    0.16224E-04   -0.12184E-04  5520   0.733E-02
  62 F= -.19185146E+03 E0= -.19174271E+03  d E =-.188224E-02
       N       E                     dE             d eps       ncg     rms          rms(c)
DAV:   1    -0.191847507641E+03    0.39699E-02   -0.23679E-01  8160   0.104E+00    0.112E-01
DAV:   2    -0.191848701000E+03   -0.11934E-02   -0.74424E-03 12960   0.389E-01    0.280E-01
DAV:   3    -0.191847812408E+03    0.88859E-03   -0.19921E-03 11240   0.343E-01    0.814E-02
DAV:   4    -0.191847843085E+03   -0.30676E-04   -0.31875E-04  8120   0.134E-01
  63 F= -.19184784E+03 E0= -.19173859E+03  d E =0.361821E-02
       N       E                     dE             d eps       ncg     rms          rms(c)
DAV:   1    -0.191851563370E+03   -0.37510E-02   -0.20602E-01  8160   0.984E-01    0.137E-01
DAV:   2    -0.191852850050E+03   -0.12867E-02   -0.92397E-03 12320   0.473E-01    0.314E-01
DAV:   3    -0.191851799994E+03    0.10501E-02   -0.25653E-03 11480   0.396E-01    0.103E-01
DAV:   4    -0.191851802563E+03   -0.25695E-05   -0.54225E-04  8840   0.174E-01
  64 F= -.19185180E+03 E0= -.19174284E+03  d E =-.395948E-02
       N       E                     dE             d eps       ncg     rms          rms(c)
DAV:   1    -0.191846058728E+03    0.57413E-02   -0.12562E+00  8160   0.237E+00    0.257E-01
DAV:   2    -0.191850460933E+03   -0.44022E-02   -0.32408E-02 12240   0.727E-01    0.490E-01
DAV:   3    -0.191847502790E+03    0.29581E-02   -0.88663E-03 12000   0.704E-01    0.203E-01
DAV:   4    -0.191847240667E+03    0.26212E-03   -0.19088E-03 11160   0.257E-01    0.152E-01
DAV:   5    -0.191847167433E+03    0.73234E-04   -0.11625E-03 10600   0.265E-01    0.148E-01
DAV:   6    -0.191846990763E+03    0.17667E-03   -0.52719E-04  8360   0.173E-01    0.542E-02
DAV:   7    -0.191846947309E+03    0.43454E-04   -0.15070E-04  5800   0.627E-02
  65 F= -.19184695E+03 E0= -.19173747E+03  d E =0.485525E-02
       N       E                     dE             d eps       ncg     rms          rms(c)
DAV:   1    -0.191854496959E+03   -0.75062E-02   -0.18289E+00  8160   0.288E+00    0.298E-01
DAV:   2    -0.191857207420E+03   -0.27105E-02   -0.42792E-02 12240   0.631E-01    0.311E-01
DAV:   3    -0.191857439940E+03   -0.23252E-03   -0.79872E-03 12000   0.667E-01    0.369E-01
DAV:   4    -0.191855952174E+03    0.14878E-02   -0.29285E-03 11360   0.441E-01    0.160E-01
DAV:   5    -0.191856073488E+03   -0.12131E-03   -0.16364E-03 10320   0.315E-01    0.203E-01
DAV:   6    -0.191855682937E+03    0.39055E-03   -0.14748E-03 11080   0.251E-01    0.656E-02
DAV:   7    -0.191855617149E+03    0.65788E-04   -0.28649E-04  6800   0.753E-02
  66 F= -.19185562E+03 E0= -.19174715E+03  d E =-.866984E-02
       N       E                     dE             d eps       ncg     rms          rms(c)
DAV:   1    -0.191857480445E+03   -0.17975E-02   -0.10179E-01  8160   0.687E-01    0.102E-01
DAV:   2    -0.191858567687E+03   -0.10872E-02   -0.50269E-03 12720   0.372E-01    0.300E-01
DAV:   3    -0.191857538082E+03    0.10296E-02   -0.20478E-03 10640   0.340E-01    0.688E-02
DAV:   4    -0.191857530466E+03    0.76160E-05   -0.22016E-04  7160   0.862E-02
  67 F= -.19185753E+03 E0= -.19174937E+03  d E =-.191332E-02
       N       E                     dE             d eps       ncg     rms          rms(c)
DAV:   1    -0.191857529565E+03    0.85178E-05   -0.13400E-04  7760   0.886E-02    0.392E-02
DAV:   2    -0.191857757256E+03   -0.22769E-03   -0.44237E-04  8160   0.194E-01    0.135E-01
DAV:   3    -0.191857508997E+03    0.24826E-03   -0.29682E-04  8680   0.154E-01    0.160E-02
DAV:   4    -0.191857517371E+03   -0.83740E-05   -0.20867E-05  5680   0.320E-02
  68 F= -.19185752E+03 E0= -.19174942E+03  d E =0.130953E-04
       N       E                     dE             d eps       ncg     rms          rms(c)
DAV:   1    -0.191861279918E+03   -0.37709E-02   -0.24744E-01  8160   0.107E+00    0.117E-01
DAV:   2    -0.191861715833E+03   -0.43591E-03   -0.70904E-03 11560   0.261E-01    0.126E-01
DAV:   3    -0.191861815644E+03   -0.99811E-04   -0.14626E-03 11280   0.270E-01    0.168E-01
DAV:   4    -0.191861526417E+03    0.28923E-03   -0.50774E-04  8520   0.187E-01    0.540E-02
DAV:   5    -0.191861508985E+03    0.17432E-04   -0.16304E-04  6600   0.780E-02
  69 F= -.19186151E+03 E0= -.19175406E+03  d E =-.399161E-02
       N       E                     dE             d eps       ncg     rms          rms(c)
DAV:   1    -0.191860770362E+03    0.75605E-03   -0.66231E-02  8160   0.544E-01    0.660E-02
DAV:   2    -0.191861028587E+03   -0.25822E-03   -0.19890E-03 11040   0.219E-01    0.133E-01
DAV:   3    -0.191860819309E+03    0.20928E-03   -0.48275E-04  8760   0.183E-01    0.470E-02
DAV:   4    -0.191860808353E+03    0.10956E-04   -0.11198E-04  5920   0.753E-02
  70 F= -.19186081E+03 E0= -.19175312E+03  d E =0.700632E-03
       N       E                     dE             d eps       ncg     rms          rms(c)
DAV:   1    -0.191861758262E+03   -0.93895E-03   -0.37368E-01  8160   0.132E+00    0.188E-01
DAV:   2    -0.191863602089E+03   -0.18438E-02   -0.13954E-02 12880   0.508E-01    0.384E-01
DAV:   3    -0.191862094727E+03    0.15074E-02   -0.51313E-03 11800   0.526E-01    0.188E-01
DAV:   4    -0.191861815978E+03    0.27875E-03   -0.11220E-03 10040   0.205E-01    0.105E-01
DAV:   5    -0.191861694037E+03    0.12194E-03   -0.58518E-04 10120   0.165E-01    0.836E-02
DAV:   6    -0.191861655741E+03    0.38295E-04   -0.32073E-04  8800   0.145E-01
  71 F= -.19186166E+03 E0= -.19175400E+03  d E =-.847388E-03
       N       E                     dE             d eps       ncg     rms          rms(c)
DAV:   1    -0.191864097758E+03   -0.24037E-02   -0.15853E-01  8160   0.859E-01    0.122E-01
DAV:   2    -0.191865038694E+03   -0.94094E-03   -0.63455E-03 12640   0.343E-01    0.271E-01
DAV:   3    -0.191864245734E+03    0.79296E-03   -0.23244E-03 11600   0.353E-01    0.113E-01
DAV:   4    -0.191864166080E+03    0.79654E-04   -0.41573E-04  8880   0.123E-01
  72 F= -.19186417E+03 E0= -.19175690E+03  d E =-.251034E-02
       N       E                     dE             d eps       ncg     rms          rms(c)
DAV:   1    -0.191864215037E+03    0.30697E-04   -0.76663E-01  8160   0.185E+00    0.193E-01
DAV:   2    -0.191866241267E+03   -0.20262E-02   -0.20274E-02 11880   0.454E-01    0.290E-01
DAV:   3    -0.191865490930E+03    0.75034E-03   -0.51187E-03 11360   0.485E-01    0.214E-01
DAV:   4    -0.191865130784E+03    0.36015E-03   -0.13896E-03 10000   0.252E-01    0.128E-01
DAV:   5    -0.191865006530E+03    0.12425E-03   -0.63272E-04  8680   0.203E-01    0.105E-01
DAV:   6    -0.191864931543E+03    0.74987E-04   -0.35523E-04  8640   0.145E-01
  73 F= -.19186493E+03 E0= -.19175791E+03  d E =-.765463E-03
       N       E                     dE             d eps       ncg     rms          rms(c)
DAV:   1    -0.191869593184E+03   -0.45867E-02   -0.44090E-01  8160   0.143E+00    0.208E-01
DAV:   2    -0.191873770244E+03   -0.41771E-02   -0.21633E-02 11600   0.788E-01    0.566E-01
DAV:   3    -0.191869995697E+03    0.37745E-02   -0.80357E-03 11720   0.660E-01    0.150E-01
DAV:   4    -0.191869960811E+03    0.34887E-04   -0.10311E-03  9840   0.219E-01    0.135E-01
DAV:   5    -0.191869773878E+03    0.18693E-03   -0.62878E-04 10240   0.200E-01    0.857E-02
DAV:   6    -0.191869714784E+03    0.59094E-04   -0.30882E-04  9000   0.128E-01
  74 F= -.19186971E+03 E0= -.19176377E+03  d E =-.478324E-02
       N       E                     dE             d eps       ncg     rms          rms(c)
DAV:   1    -0.191873018079E+03   -0.32442E-02   -0.42666E-01  8160   0.139E+00    0.132E-01
DAV:   2    -0.191873844843E+03   -0.82676E-03   -0.10489E-02 12400   0.325E-01    0.156E-01
DAV:   3    -0.191873838491E+03    0.63519E-05   -0.16690E-03 11240   0.309E-01    0.163E-01
DAV:   4    -0.191873580382E+03    0.25811E-03   -0.66523E-04  8680   0.195E-01    0.820E-02
DAV:   5    -0.191873564626E+03    0.15756E-04   -0.32027E-04  8080   0.144E-01
  75 F= -.19187356E+03 E0= -.19176821E+03  d E =-.384984E-02
       N       E                     dE             d eps       ncg     rms          rms(c)
DAV:   1    -0.191872979944E+03    0.60044E-03   -0.49282E-02  8160   0.471E-01    0.518E-02
DAV:   2    -0.191873117333E+03   -0.13739E-03   -0.13400E-03 11200   0.132E-01    0.766E-02
DAV:   3    -0.191873061134E+03    0.56199E-04   -0.31969E-04  9360   0.133E-01
  76 F= -.19187306E+03 E0= -.19176777E+03  d E =0.503492E-03
       N       E                     dE             d eps       ncg     rms          rms(c)
DAV:   1    -0.191878616060E+03   -0.54987E-02   -0.34358E-01  8160   0.127E+00    0.179E-01
DAV:   2    -0.191880716962E+03   -0.21009E-02   -0.14703E-02 11800   0.557E-01    0.404E-01
DAV:   3    -0.191879007475E+03    0.17095E-02   -0.47282E-03 12320   0.519E-01    0.155E-01
DAV:   4    -0.191878849816E+03    0.15766E-03   -0.87933E-04 10000   0.186E-01    0.942E-02
DAV:   5    -0.191878701347E+03    0.14847E-03   -0.38567E-04  9960   0.112E-01    0.578E-02
DAV:   6    -0.191878744619E+03   -0.43272E-04   -0.31949E-04  9280   0.137E-01
  77 F= -.19187874E+03 E0= -.19177438E+03  d E =-.568348E-02
       N       E                     dE             d eps       ncg     rms          rms(c)
DAV:   1    -0.191880413436E+03   -0.17121E-02   -0.33607E-02  8160   0.403E-01    0.577E-02
DAV:   2    -0.191880498663E+03   -0.85227E-04   -0.13072E-03 10640   0.120E-01    0.741E-02
DAV:   3    -0.191880485401E+03    0.13262E-04   -0.32723E-04  9680   0.137E-01
  78 F= -.19188049E+03 E0= -.19177647E+03  d E =-.174078E-02
       N       E                     dE             d eps       ncg     rms          rms(c)
DAV:   1    -0.191885128212E+03   -0.46295E-02   -0.23724E-01  8160   0.105E+00    0.146E-01
DAV:   2    -0.191885928256E+03   -0.80004E-03   -0.87653E-03 10640   0.362E-01    0.224E-01
DAV:   3    -0.191885459177E+03    0.46908E-03   -0.27033E-03 11120   0.348E-01    0.152E-01
DAV:   4    -0.191885332048E+03    0.12713E-03   -0.72268E-04  9960   0.202E-01    0.106E-01
DAV:   5    -0.191885225762E+03    0.10629E-03   -0.38680E-04  9040   0.154E-01    0.752E-02
DAV:   6    -0.191885186632E+03    0.39129E-04   -0.21139E-04  7800   0.118E-01
  79 F= -.19188519E+03 E0= -.19178201E+03  d E =-.470123E-02
       N       E                     dE             d eps       ncg     rms          rms(c)
DAV:   1    -0.191886923918E+03   -0.16982E-02   -0.32442E-02  8160   0.391E-01    0.571E-02
DAV:   2    -0.191887013627E+03   -0.89710E-04   -0.12869E-03 10080   0.125E-01    0.848E-02
DAV:   3    -0.191886974857E+03    0.38771E-04   -0.37304E-04  9600   0.143E-01
  80 F= -.19188697E+03 E0= -.19178412E+03  d E =-.178822E-02
       N       E                     dE             d eps       ncg     rms          rms(c)
DAV:   1    -0.191891930462E+03   -0.49168E-02   -0.27498E-01  8160   0.114E+00    0.166E-01
DAV:   2    -0.191892954000E+03   -0.10235E-02   -0.11139E-02 11160   0.397E-01    0.273E-01
DAV:   3    -0.191892284633E+03    0.66937E-03   -0.33675E-03 12240   0.415E-01    0.183E-01
DAV:   4    -0.191892033003E+03    0.25163E-03   -0.99410E-04 10000   0.227E-01    0.988E-02
DAV:   5    -0.191891859426E+03    0.17358E-03   -0.39038E-04  9360   0.986E-02    0.447E-02
DAV:   6    -0.191891945161E+03   -0.85735E-04   -0.28443E-04  8760   0.131E-01
  81 F= -.19189195E+03 E0= -.19178984E+03  d E =-.497030E-02
       N       E                     dE             d eps       ncg     rms          rms(c)
DAV:   1    -0.191894368346E+03   -0.25089E-02   -0.76234E-02  8160   0.603E-01    0.839E-02
DAV:   2    -0.191894640980E+03   -0.27263E-03   -0.33322E-03 11240   0.220E-01    0.126E-01
DAV:   3    -0.191894530562E+03    0.11042E-03   -0.87997E-04 10840   0.207E-01    0.938E-02
DAV:   4    -0.191894458965E+03    0.71597E-04   -0.24481E-04  7120   0.122E-01
  82 F= -.19189446E+03 E0= -.19179269E+03  d E =-.251380E-02
       N       E                     dE             d eps       ncg     rms          rms(c)
DAV:   1    -0.191898660452E+03   -0.41299E-02   -0.22361E-01  8160   0.102E+00    0.130E-01
DAV:   2    -0.191899146806E+03   -0.48635E-03   -0.74652E-03 10960   0.274E-01    0.149E-01
DAV:   3    -0.191899155962E+03   -0.91559E-05   -0.16832E-03 11880   0.293E-01    0.171E-01
DAV:   4    -0.191898891924E+03    0.26404E-03   -0.58924E-04  8800   0.199E-01    0.713E-02
DAV:   5    -0.191898810460E+03    0.81464E-04   -0.20351E-04  6520   0.739E-02
  83 F= -.19189881E+03 E0= -.19179780E+03  d E =-.435150E-02
       N       E                     dE             d eps       ncg     rms          rms(c)
DAV:   1    -0.191902333022E+03   -0.34411E-02   -0.16337E-01  8160   0.875E-01    0.132E-01
DAV:   2    -0.191904040338E+03   -0.17073E-02   -0.84410E-03 11400   0.466E-01    0.376E-01
DAV:   3    -0.191902521383E+03    0.15190E-02   -0.31205E-03 11480   0.431E-01    0.864E-02
DAV:   4    -0.191902487040E+03    0.34343E-04   -0.32983E-04  8720   0.948E-02
  84 F= -.19190249E+03 E0= -.19180188E+03  d E =-.367658E-02
       N       E                     dE             d eps       ncg     rms          rms(c)
DAV:   1    -0.191906936680E+03   -0.44153E-02   -0.29348E-01  8160   0.117E+00    0.160E-01
DAV:   2    -0.191907594110E+03   -0.65743E-03   -0.10332E-02 11000   0.325E-01    0.194E-01
DAV:   3    -0.191907555952E+03    0.38158E-04   -0.25796E-03 12240   0.364E-01    0.216E-01
DAV:   4    -0.191907154883E+03    0.40107E-03   -0.11805E-03 10160   0.252E-01    0.914E-02
DAV:   5    -0.191907001041E+03    0.15384E-03   -0.41862E-04  9240   0.878E-02    0.343E-02
DAV:   6    -0.191907016876E+03   -0.15835E-04   -0.11320E-04  6160   0.660E-02
  85 F= -.19190702E+03 E0= -.19180679E+03  d E =-.452984E-02
       N       E                     dE             d eps       ncg     rms          rms(c)
DAV:   1    -0.191913245225E+03   -0.62442E-02   -0.10271E+00  8160   0.217E+00    0.260E-01
DAV:   2    -0.191916601266E+03   -0.33560E-02   -0.40745E-02 10760   0.676E-01    0.331E-01
DAV:   3    -0.191915945851E+03    0.65541E-03   -0.82473E-03 11080   0.594E-01    0.286E-01
DAV:   4    -0.191915217203E+03    0.72865E-03   -0.22626E-03 11120   0.361E-01    0.164E-01
DAV:   5    -0.191914969752E+03    0.24745E-03   -0.91674E-04 10360   0.239E-01    0.120E-01
DAV:   6    -0.191914941267E+03    0.28485E-04   -0.62314E-04  9520   0.201E-01
  86 F= -.19191494E+03 E0= -.19181525E+03  d E =-.792439E-02
       N       E                     dE             d eps       ncg     rms          rms(c)
DAV:   1    -0.191914578259E+03    0.39149E-03   -0.92431E-03  8320   0.217E-01    0.516E-02
DAV:   2    -0.191914621698E+03   -0.43439E-04   -0.74762E-04 10160   0.141E-01
  87 F= -.19191462E+03 E0= -.19181499E+03  d E =0.319569E-03
       N       E                     dE             d eps       ncg     rms          rms(c)
DAV:   1    -0.191916966096E+03   -0.23878E-02   -0.15487E-01  8160   0.850E-01    0.115E-01
DAV:   2    -0.191917480492E+03   -0.51440E-03   -0.66583E-03 11560   0.275E-01    0.166E-01
DAV:   3    -0.191917335635E+03    0.14486E-03   -0.16398E-03 11600   0.291E-01    0.148E-01
DAV:   4    -0.191917137719E+03    0.19792E-03   -0.53272E-04  8480   0.170E-01    0.596E-02
DAV:   5    -0.191917071226E+03    0.66493E-04   -0.16622E-04  5920   0.640E-02
  88 F= -.19191707E+03 E0= -.19181738E+03  d E =-.244953E-02
       N       E                     dE             d eps       ncg     rms          rms(c)
DAV:   1    -0.191918784807E+03   -0.16471E-02   -0.70305E-02  8160   0.575E-01    0.981E-02
DAV:   2    -0.191919995898E+03   -0.12111E-02   -0.49344E-03 11600   0.401E-01    0.309E-01
DAV:   3    -0.191918857603E+03    0.11383E-02   -0.19463E-03 10480   0.342E-01    0.559E-02
DAV:   4    -0.191918885073E+03   -0.27470E-04   -0.16659E-04  7360   0.102E-01
  89 F= -.19191889E+03 E0= -.19181937E+03  d E =-.181385E-02
       N       E                     dE             d eps       ncg     rms          rms(c)
DAV:   1    -0.191921031877E+03   -0.21743E-02   -0.15116E-01  8160   0.834E-01    0.107E-01
DAV:   2    -0.191921471195E+03   -0.43932E-03   -0.56953E-03 11400   0.256E-01    0.130E-01
DAV:   3    -0.191921355578E+03    0.11562E-03   -0.12622E-03 10880   0.229E-01    0.111E-01
DAV:   4    -0.191921255833E+03    0.99745E-04   -0.38095E-04  8720   0.145E-01
  90 F= -.19192126E+03 E0= -.19182189E+03  d E =-.237076E-02
       N       E                     dE             d eps       ncg     rms          rms(c)
DAV:   1    -0.191925180152E+03   -0.38246E-02   -0.11275E+00  8160   0.227E+00    0.285E-01
DAV:   2    -0.191929804283E+03   -0.46241E-02   -0.46837E-02 11160   0.756E-01    0.451E-01
DAV:   3    -0.191927796535E+03    0.20077E-02   -0.11007E-02 11280   0.705E-01    0.286E-01
DAV:   4    -0.191927235549E+03    0.56099E-03   -0.23189E-03 11760   0.364E-01    0.189E-01
DAV:   5    -0.191926888399E+03    0.34715E-03   -0.12773E-03 10560   0.282E-01    0.134E-01
DAV:   6    -0.191926822371E+03    0.66027E-04   -0.77127E-04  9920   0.215E-01
  91 F= -.19192682E+03 E0= -.19182805E+03  d E =-.556654E-02
       N       E                     dE             d eps       ncg     rms          rms(c)
DAV:   1    -0.191925191683E+03    0.16967E-02   -0.11739E-01  8160   0.737E-01    0.103E-01
DAV:   2    -0.191925864040E+03   -0.67236E-03   -0.55407E-03 11120   0.340E-01    0.206E-01
DAV:   3    -0.191925338844E+03    0.52520E-03   -0.15370E-03 10880   0.288E-01    0.793E-02
DAV:   4    -0.191925305506E+03    0.33338E-04   -0.31297E-04  8320   0.125E-01
  92 F= -.19192531E+03 E0= -.19182631E+03  d E =0.151687E-02
       N       E                     dE             d eps       ncg     rms          rms(c)
DAV:   1    -0.191926021878E+03   -0.68303E-03   -0.44799E-02  8160   0.458E-01    0.661E-02
DAV:   2    -0.191926635012E+03   -0.61313E-03   -0.27407E-03 12600   0.273E-01    0.203E-01
DAV:   3    -0.191926119109E+03    0.51590E-03   -0.10010E-03 10040   0.239E-01    0.404E-02
DAV:   4    -0.191926138579E+03   -0.19470E-04   -0.85029E-05  5600   0.771E-02
  93 F= -.19192614E+03 E0= -.19182717E+03  d E =-.833074E-03
       N       E                     dE             d eps       ncg     rms          rms(c)
DAV:   1    -0.191925936278E+03    0.18283E-03   -0.18112E-03  8240   0.111E-01    0.147E-02
DAV:   2    -0.191925961139E+03   -0.24861E-04   -0.94062E-05  6840   0.587E-02
  94 F= -.19192596E+03 E0= -.19182704E+03  d E =0.177440E-03
       N       E                     dE             d eps       ncg     rms          rms(c)
DAV:   1    -0.191926120042E+03   -0.18376E-03   -0.24766E-03  8800   0.121E-01    0.172E-02
DAV:   2    -0.191926159218E+03   -0.39177E-04   -0.12034E-04  6960   0.729E-02
  95 F= -.19192616E+03 E0= -.19182728E+03  d E =-.198079E-03
       N       E                     dE             d eps       ncg     rms          rms(c)
DAV:   1    -0.191927381603E+03   -0.12616E-02   -0.84917E-02  8160   0.628E-01    0.882E-02
DAV:   2    -0.191927923948E+03   -0.54234E-03   -0.41545E-03 11520   0.318E-01    0.187E-01
DAV:   3    -0.191927483277E+03    0.44067E-03   -0.11807E-03 10880   0.245E-01    0.572E-02
DAV:   4    -0.191927480720E+03    0.25567E-05   -0.13773E-04  5800   0.954E-02
  96 F= -.19192748E+03 E0= -.19182875E+03  d E =-.132150E-02
       N       E                     dE             d eps       ncg     rms          rms(c)
DAV:   1    -0.191927867699E+03   -0.38442E-03   -0.82528E-03  8160   0.213E-01    0.453E-02
DAV:   2    -0.191928135688E+03   -0.26799E-03   -0.73430E-04 10840   0.189E-01    0.151E-01
DAV:   3    -0.191927862050E+03    0.27364E-03   -0.35282E-04  8600   0.165E-01    0.250E-02
DAV:   4    -0.191927873258E+03   -0.11209E-04   -0.40700E-05  5680   0.461E-02
  97 F= -.19192787E+03 E0= -.19182927E+03  d E =-.392538E-03
       N       E                     dE             d eps       ncg     rms          rms(c)
DAV:   1    -0.191928842343E+03   -0.98029E-03   -0.56328E-02  8160   0.509E-01    0.706E-02
DAV:   2    -0.191929244182E+03   -0.40184E-03   -0.25342E-03 13360   0.231E-01    0.169E-01
DAV:   3    -0.191928915713E+03    0.32847E-03   -0.82041E-04  9720   0.216E-01    0.584E-02
DAV:   4    -0.191928901414E+03    0.14298E-04   -0.12985E-04  5560   0.746E-02
  98 F= -.19192890E+03 E0= -.19183038E+03  d E =-.102816E-02
       N       E                     dE             d eps       ncg     rms          rms(c)
DAV:   1    -0.191928084424E+03    0.83129E-03   -0.43951E-02  8160   0.461E-01    0.658E-02
DAV:   2    -0.191928488219E+03   -0.40379E-03   -0.21782E-03 12960   0.239E-01    0.175E-01
DAV:   3    -0.191928115193E+03    0.37303E-03   -0.80324E-04  9520   0.216E-01    0.448E-02
DAV:   4    -0.191928126743E+03   -0.11551E-04   -0.10538E-04  5520   0.780E-02
  99 F= -.19192813E+03 E0= -.19182971E+03  d E =0.774671E-03
       N       E                     dE             d eps       ncg     rms          rms(c)
DAV:   1    -0.191929304319E+03   -0.11891E-02   -0.95187E-02  8160   0.656E-01    0.832E-02
DAV:   2    -0.191930008160E+03   -0.70384E-03   -0.45396E-03 12440   0.330E-01    0.201E-01
DAV:   3    -0.191929465734E+03    0.54243E-03   -0.12122E-03 10880   0.257E-01    0.429E-02
DAV:   4    -0.191929470221E+03   -0.44872E-05   -0.88176E-05  5520   0.722E-02
 100 F= -.19192947E+03 E0= -.19183120E+03  d E =-.134348E-02
