<?xml version="1.0" encoding="ISO-8859-1"?>
<modeling>
 <generator>
  <i name="program" type="string">vasp </i>
  <i name="version" type="string">5.4.1  </i>
  <i name="subversion" type="string">05Feb16 (build Jul 05 2020 17:13:04) complex                          parallel </i>
  <i name="platform" type="string">IFC91_ompi </i>
  <i name="date" type="string">2024 04 21 </i>
  <i name="time" type="string">13:40:21 </i>
 </generator>
 <incar>
  <i type="int" name="ISTART">     0</i>
  <i type="string" name="PREC">normal</i>
  <i type="string" name="ALGO"> Normal</i>
  <i type="int" name="ISPIN">     1</i>
  <i type="int" name="ICHARG">     2</i>
  <i type="int" name="IBRION">     1</i>
  <i type="int" name="NSW">   100</i>
  <i type="int" name="ISIF">     3</i>
  <i type="int" name="ISYM">     0</i>
  <i name="SYMPREC">      0.00000001</i>
  <i name="POTIM">      0.50000000</i>
  <i type="logical" name="LREAL"> F  </i>
  <i type="logical" name="LPLANE"> F  </i>
  <i type="int" name="ISMEAR">     0</i>
  <i type="logical" name="LWAVE"> F  </i>
  <i type="logical" name="LCHARG"> F  </i>
  <v type="int" name="KPOINT_BSE">    -1     0     0     0</v>
 </incar>
 <kpoints>
  <generation param="Gamma">
   <v type="int" name="divisions">       8        8        1 </v>
   <v name="usershift">      0.00000000       0.00000000       0.00000000 </v>
   <v name="genvec1">      0.12500000       0.00000000       0.00000000 </v>
   <v name="genvec2">     -0.00000000       0.12500000       0.00000000 </v>
   <v name="genvec3">      0.00000000       0.00000000       1.00000000 </v>
   <v name="shift">      0.00000000       0.00000000       0.00000000 </v>
  </generation>
  <varray name="kpointlist" >
   <v>       0.00000000       0.00000000       0.00000000 </v>
   <v>       0.12500000       0.00000000       0.00000000 </v>
   <v>       0.25000000       0.00000000       0.00000000 </v>
   <v>       0.37500000       0.00000000       0.00000000 </v>
   <v>       0.50000000       0.00000000       0.00000000 </v>
   <v>       0.00000000       0.12500000       0.00000000 </v>
   <v>       0.12500000       0.12500000       0.00000000 </v>
   <v>       0.25000000       0.12500000       0.00000000 </v>
   <v>       0.37500000       0.12500000       0.00000000 </v>
   <v>       0.50000000       0.12500000       0.00000000 </v>
   <v>      -0.37500000       0.12500000       0.00000000 </v>
   <v>      -0.25000000       0.12500000       0.00000000 </v>
   <v>      -0.12500000       0.12500000       0.00000000 </v>
   <v>       0.00000000       0.25000000       0.00000000 </v>
   <v>       0.12500000       0.25000000       0.00000000 </v>
   <v>       0.25000000       0.25000000       0.00000000 </v>
   <v>       0.37500000       0.25000000       0.00000000 </v>
   <v>       0.50000000       0.25000000       0.00000000 </v>
   <v>      -0.37500000       0.25000000       0.00000000 </v>
   <v>      -0.25000000       0.25000000       0.00000000 </v>
   <v>      -0.12500000       0.25000000       0.00000000 </v>
   <v>      -0.00000000       0.37500000       0.00000000 </v>
   <v>       0.12500000       0.37500000       0.00000000 </v>
   <v>       0.25000000       0.37500000       0.00000000 </v>
   <v>       0.37500000       0.37500000       0.00000000 </v>
   <v>       0.50000000       0.37500000       0.00000000 </v>
   <v>      -0.37500000       0.37500000       0.00000000 </v>
   <v>      -0.25000000       0.37500000       0.00000000 </v>
   <v>      -0.12500000       0.37500000       0.00000000 </v>
   <v>       0.00000000       0.50000000       0.00000000 </v>
   <v>       0.12500000       0.50000000       0.00000000 </v>
   <v>       0.25000000       0.50000000       0.00000000 </v>
   <v>       0.37500000       0.50000000       0.00000000 </v>
   <v>       0.50000000       0.50000000       0.00000000 </v>
  </varray>
  <varray name="weights" >
   <v>       0.01562500 </v>
   <v>       0.03125000 </v>
   <v>       0.03125000 </v>
   <v>       0.03125000 </v>
   <v>       0.01562500 </v>
   <v>       0.03125000 </v>
   <v>       0.03125000 </v>
   <v>       0.03125000 </v>
   <v>       0.03125000 </v>
   <v>       0.03125000 </v>
   <v>       0.03125000 </v>
   <v>       0.03125000 </v>
   <v>       0.03125000 </v>
   <v>       0.03125000 </v>
   <v>       0.03125000 </v>
   <v>       0.03125000 </v>
   <v>       0.03125000 </v>
   <v>       0.03125000 </v>
   <v>       0.03125000 </v>
   <v>       0.03125000 </v>
   <v>       0.03125000 </v>
   <v>       0.03125000 </v>
   <v>       0.03125000 </v>
   <v>       0.03125000 </v>
   <v>       0.03125000 </v>
   <v>       0.03125000 </v>
   <v>       0.03125000 </v>
   <v>       0.03125000 </v>
   <v>       0.03125000 </v>
   <v>       0.01562500 </v>
   <v>       0.03125000 </v>
   <v>       0.03125000 </v>
   <v>       0.03125000 </v>
   <v>       0.01562500 </v>
  </varray>
 </kpoints>
 <parameters>
  <separator name="general" >
   <i type="string" name="SYSTEM">unknown system</i>
   <i type="logical" name="LCOMPAT"> F  </i>
  </separator>
  <separator name="electronic" >
   <i type="string" name="PREC">normal</i>
   <i name="ENMAX">    280.00000000</i>
   <i name="ENAUG">    373.43800000</i>
   <i name="EDIFF">      0.00010000</i>
   <i type="int" name="IALGO">    38</i>
   <i type="int" name="IWAVPR">    11</i>
   <i type="int" name="NBANDS">   120</i>
   <i name="NELECT">    159.00000000</i>
   <i type="int" name="TURBO">     0</i>
   <i type="int" name="IRESTART">     0</i>
   <i type="int" name="NREBOOT">     0</i>
   <i type="int" name="NMIN">     0</i>
   <i name="EREF">      0.00000000</i>
   <separator name="electronic smearing" >
    <i type="int" name="ISMEAR">     0</i>
    <i name="SIGMA">      0.20000000</i>
    <i name="KSPACING">      0.50000000</i>
    <i type="logical" name="KGAMMA"> T  </i>
   </separator>
   <separator name="electronic projectors" >
    <i type="logical" name="LREAL"> F  </i>
    <v name="ROPT">      0.00000000      0.00000000      0.00000000      0.00000000</v>
    <i type="int" name="LMAXPAW">  -100</i>
    <i type="int" name="LMAXMIX">     2</i>
    <i type="logical" name="NLSPLINE"> F  </i>
   </separator>
   <separator name="electronic startup" >
    <i type="int" name="ISTART">     0</i>
    <i type="int" name="ICHARG">     2</i>
    <i type="int" name="INIWAV">     1</i>
   </separator>
   <separator name="electronic spin" >
    <i type="int" name="ISPIN">     1</i>
    <i type="logical" name="LNONCOLLINEAR"> F  </i>
    <v name="MAGMOM">      1.00000000      1.00000000      1.00000000      1.00000000      1.00000000      1.00000000      1.00000000      1.00000000      1.00000000      1.00000000      1.00000000      1.00000000      1.00000000      1.00000000      1.00000000      1.00000000      1.00000000      1.00000000      1.00000000      1.00000000
      1.00000000      1.00000000      1.00000000      1.00000000      1.00000000      1.00000000      1.00000000</v>
    <i name="NUPDOWN">     -1.00000000</i>
    <i type="logical" name="LSORBIT"> F  </i>
    <v name="SAXIS">      0.00000000      0.00000000      1.00000000</v>
    <i type="logical" name="LSPIRAL"> F  </i>
    <v name="QSPIRAL">      0.00000000      0.00000000      0.00000000</v>
    <i type="logical" name="LZEROZ"> F  </i>
   </separator>
   <separator name="electronic exchange-correlation" >
    <i type="logical" name="LASPH"> F  </i>
    <i type="logical" name="LMETAGGA"> F  </i>
   </separator>
   <separator name="electronic convergence" >
    <i type="int" name="NELM">    60</i>
    <i type="int" name="NELMDL">    -5</i>
    <i type="int" name="NELMIN">     2</i>
    <i name="ENINI">    280.00000000</i>
    <separator name="electronic convergence detail" >
     <i type="logical" name="LDIAG"> T  </i>
     <i type="logical" name="LSUBROT"> F  </i>
     <i name="WEIMIN">      0.00100000</i>
     <i name="EBREAK">      0.00000021</i>
     <i name="DEPER">      0.30000000</i>
     <i type="int" name="NRMM">     4</i>
     <i name="TIME">      0.40000000</i>
    </separator>
   </separator>
   <separator name="electronic mixer" >
    <i name="AMIX">      0.40000000</i>
    <i name="BMIX">      1.00000000</i>
    <i name="AMIN">      0.10000000</i>
    <i name="AMIX_MAG">      1.60000000</i>
    <i name="BMIX_MAG">      1.00000000</i>
    <separator name="electronic mixer details" >
     <i type="int" name="IMIX">     4</i>
     <i type="logical" name="MIXFIRST"> F  </i>
     <i type="int" name="MAXMIX">   -45</i>
     <i name="WC">    100.00000000</i>
     <i type="int" name="INIMIX">     1</i>
     <i type="int" name="MIXPRE">     1</i>
     <i type="int" name="MREMOVE">     5</i>
    </separator>
   </separator>
   <separator name="electronic dipolcorrection" >
    <i type="logical" name="LDIPOL"> F  </i>
    <i type="logical" name="LMONO"> F  </i>
    <i type="int" name="IDIPOL">     0</i>
    <i name="EPSILON">      1.00000000</i>
    <v name="DIPOL">   -100.00000000   -100.00000000   -100.00000000</v>
    <i name="EFIELD">      0.00000000</i>
   </separator>
  </separator>
  <separator name="grids" >
   <i type="int" name="NGX">    42</i>
   <i type="int" name="NGY">    42</i>
   <i type="int" name="NGZ">   126</i>
   <i type="int" name="NGXF">    84</i>
   <i type="int" name="NGYF">    84</i>
   <i type="int" name="NGZF">   252</i>
   <i type="logical" name="ADDGRID"> F  </i>
  </separator>
  <separator name="ionic" >
   <i type="int" name="NSW">   100</i>
   <i type="int" name="IBRION">     1</i>
   <i type="int" name="ISIF">     3</i>
   <i name="PSTRESS">      0.00000000</i>
   <i name="EDIFFG">      0.00100000</i>
   <i type="int" name="NFREE">     0</i>
   <i name="POTIM">      0.50000000</i>
   <i name="SMASS">     -3.00000000</i>
   <i name="SCALEE">      1.00000000</i>
  </separator>
  <separator name="ionic md" >
   <i name="TEBEG">      0.00010000</i>
   <i name="TEEND">      0.00010000</i>
   <i type="int" name="NBLOCK">     1</i>
   <i type="int" name="KBLOCK">   100</i>
   <i type="int" name="NPACO">   256</i>
   <i name="APACO">     16.00000000</i>
  </separator>
  <separator name="symmetry" >
   <i type="int" name="ISYM">     0</i>
   <i name="SYMPREC">      0.00000001</i>
  </separator>
  <separator name="dos" >
   <i type="logical" name="LORBIT"> F  </i>
   <v name="RWIGS">     -1.00000000     -1.00000000     -1.00000000     -1.00000000</v>
   <i type="int" name="NEDOS">   301</i>
   <i name="EMIN">     10.00000000</i>
   <i name="EMAX">    -10.00000000</i>
   <i name="EFERMI">      0.00000000</i>
  </separator>
  <separator name="writing" >
   <i type="int" name="NWRITE">     2</i>
   <i type="logical" name="LWAVE"> F  </i>
   <i type="logical" name="LCHARG"> F  </i>
   <i type="logical" name="LPARD"> F  </i>
   <i type="logical" name="LVTOT"> F  </i>
   <i type="logical" name="LVHAR"> F  </i>
   <i type="logical" name="LELF"> F  </i>
   <i type="logical" name="LOPTICS"> F  </i>
   <v name="STM">      0.00000000      0.00000000      0.00000000      0.00000000      0.00000000      0.00000000      0.00000000</v>
  </separator>
  <separator name="performance" >
   <i type="int" name="NPAR">    40</i>
   <i type="int" name="NSIM">     4</i>
   <i type="int" name="NBLK">    -1</i>
   <i type="logical" name="LPLANE"> F  </i>
   <i type="logical" name="LSCALAPACK"> T  </i>
   <i type="logical" name="LSCAAWARE"> F  </i>
   <i type="logical" name="LSCALU"> F  </i>
   <i type="logical" name="LASYNC"> F  </i>
   <i type="logical" name="LORBITALREAL"> F  </i>
  </separator>
  <separator name="miscellaneous" >
   <i type="int" name="IDIOT">     3</i>
   <i type="logical" name="LMUSIC"> F  </i>
   <v name="POMASS">     50.94100000     95.94000000    183.85000000     32.06600000</v>
   <v name="DARWINR">      0.00000000      0.00000000      0.00000000      0.00000000</v>
   <v name="DARWINV">      1.00000000      1.00000000      1.00000000      1.00000000</v>
   <i type="logical" name="LCORR"> T  </i>
  </separator>
  <i type="logical" name="GGA_COMPAT"> T  </i>
  <i type="logical" name="LBERRY"> F  </i>
  <i type="int" name="ICORELEVEL">     0</i>
  <i type="logical" name="LDAU"> F  </i>
  <i type="int" name="I_CONSTRAINED_M">     0</i>
  <separator name="electronic exchange-correlation" >
   <i type="string" name="GGA">--</i>
   <i type="int" name="VOSKOWN">     0</i>
   <i type="logical" name="LHFCALC"> F  </i>
   <i type="string" name="PRECFOCK"></i>
   <i type="logical" name="LSYMGRAD"> F  </i>
   <i type="logical" name="LHFONE"> F  </i>
   <i type="logical" name="LRHFCALC"> F  </i>
   <i type="logical" name="LTHOMAS"> F  </i>
   <i type="logical" name="LMODELHF"> F  </i>
   <i name="ENCUT4O">     -1.00000000</i>
   <i type="int" name="EXXOEP">     0</i>
   <i type="int" name="FOURORBIT">     0</i>
   <i name="AEXX">      0.00000000</i>
   <i name="HFALPHA">      0.00000000</i>
   <i name="MCALPHA">      0.00000000</i>
   <i name="ALDAX">      1.00000000</i>
   <i name="AGGAX">      1.00000000</i>
   <i name="ALDAC">      1.00000000</i>
   <i name="AGGAC">      1.00000000</i>
   <i type="int" name="NKREDX">     1</i>
   <i type="int" name="NKREDY">     1</i>
   <i type="int" name="NKREDZ">     1</i>
   <i type="logical" name="SHIFTRED"> F  </i>
   <i type="logical" name="ODDONLY"> F  </i>
   <i type="logical" name="EVENONLY"> F  </i>
   <i type="int" name="LMAXFOCK">     0</i>
   <i type="int" name="NMAXFOCKAE">     0</i>
   <i type="logical" name="LFOCKAEDFT"> F  </i>
   <i name="HFSCREEN">      0.00000000</i>
   <i name="HFSCREENC">      0.00000000</i>
   <i type="int" name="NBANDSGWLOW">     0</i>
  </separator>
  <separator name="vdW DFT" >
   <i type="logical" name="LUSE_VDW"> F  </i>
   <i name="Zab_VDW">     -0.84910000</i>
   <i name="PARAM1">      0.12340000</i>
   <i name="PARAM2">      1.00000000</i>
   <i name="PARAM3">      0.00000000</i>
  </separator>
  <separator name="model GW" >
   <i type="int" name="MODEL_GW">     0</i>
   <i name="MODEL_EPS0">     58.26239943</i>
   <i name="MODEL_ALPHA">      1.00000000</i>
  </separator>
  <separator name="linear response parameters" >
   <i type="logical" name="LEPSILON"> F  </i>
   <i type="logical" name="LRPA"> F  </i>
   <i type="logical" name="LNABLA"> F  </i>
   <i type="logical" name="LVEL"> F  </i>
   <i type="int" name="KINTER">     0</i>
   <i name="CSHIFT">      0.10000000</i>
   <i name="OMEGAMAX">     -1.00000000</i>
   <i name="DEG_THRESHOLD">      0.00200000</i>
  </separator>
  <separator name="orbital magnetization" >
   <i type="logical" name="NUCIND"> F  </i>
   <v name="MAGPOS">      0.00000000      0.00000000      0.00000000</v>
   <i type="logical" name="LNICSALL"> T  </i>
   <i type="logical" name="ORBITALMAG"> F  </i>
   <i type="logical" name="LMAGBLOCH"> F  </i>
   <i type="logical" name="LCHIMAG"> F  </i>
   <i type="logical" name="LGAUGE"> T  </i>
   <i type="int" name="MAGATOM">     0</i>
   <v name="MAGDIPOL">      0.00000000      0.00000000      0.00000000</v>
   <v name="AVECCONST">      0.00000000      0.00000000      0.00000000</v>
  </separator>
  <separator name="response functions" >
   <i type="logical" name="LADDER"> F  </i>
   <i type="logical" name="LFXC"> F  </i>
   <i type="logical" name="LHARTREE"> T  </i>
   <i type="int" name="IBSE">     0</i>
   <v type="int" name="KPOINT">    -1     0     0     0</v>
   <i type="logical" name="LTCTE"> F  </i>
   <i type="logical" name="LTETE"> F  </i>
   <i type="logical" name="LTRIPLET"> F  </i>
   <i type="logical" name="LFXCEPS"> F  </i>
   <i type="logical" name="LFXHEG"> F  </i>
   <i type="int" name="NATURALO">     0</i>
   <i type="logical" name="L2ORDER"> F  </i>
   <i type="logical" name="LUSEW"> F  </i>
   <i name="ENCUTGW">     -2.00000000</i>
   <i name="ENCUTGWSOFT">     -2.00000000</i>
   <i name="ENCUTLF">     -1.00000000</i>
   <i type="int" name="LMAXMP2">    -1</i>
   <i name="SCISSOR">      0.00000000</i>
   <i type="int" name="NOMEGA">     0</i>
   <i type="int" name="NOMEGAR">     0</i>
   <i type="int" name="NBANDSGW">    -1</i>
   <i type="int" name="NBANDSO">    -1</i>
   <i type="int" name="NBANDSV">    -1</i>
   <i type="int" name="NELM">     1</i>
   <i type="int" name="NELMHF">     1</i>
   <i type="int" name="DIM">     3</i>
   <i type="int" name="ANTIRES">     0</i>
   <i name="OMEGAMAX">    -30.00000000</i>
   <i name="OMEGAMIN">    -30.00000000</i>
   <i name="OMEGATL">   -200.00000000</i>
   <i type="int" name="OMEGAGRID">     0</i>
   <i name="CSHIFT">     -0.10000000</i>
   <i type="logical" name="SELFENERGY"> F  </i>
   <i type="logical" name="LSPECTRAL"> F  </i>
   <i type="logical" name="LSPECTRALGW"> F  </i>
   <i type="logical" name="LSINGLES"> F  </i>
   <i type="logical" name="LFERMIGW"> F  </i>
   <i type="logical" name="ODDONLYGW"> F  </i>
   <i type="logical" name="EVENONLYGW"> F  </i>
   <i type="int" name="NKREDLFX">     1</i>
   <i type="int" name="NKREDLFY">     1</i>
   <i type="int" name="NKREDLFZ">     1</i>
   <i type="int" name="MAXMEM">  1800</i>
   <i type="int" name="TELESCOPE">     0</i>
   <i type="int" name="TAUPAR">     1</i>
   <i type="int" name="OMEGAPAR">    -1</i>
   <i name="LAMBDA">      1.00000000</i>
  </separator>
  <separator name="External order field" >
   <i name="OFIELD_KAPPA">      0.00000000</i>
   <v name="OFIELD_K">      0.00000000      0.00000000      0.00000000</v>
   <i name="OFIELD_Q6_NEAR">      0.00000000</i>
   <i name="OFIELD_Q6_FAR">      0.00000000</i>
   <i name="OFIELD_A">      0.00000000</i>
  </separator>
 </parameters>
 <atominfo>
  <atoms>      27 </atoms>
  <types>       4 </types>
  <array name="atoms" >
   <dimension dim="1">ion</dimension>
   <field type="string">element</field>
   <field type="int">atomtype</field>
   <set>
    <rc><c>V </c><c>   1</c></rc>
    <rc><c>V </c><c>   1</c></rc>
    <rc><c>V </c><c>   1</c></rc>
    <rc><c>Mo</c><c>   2</c></rc>
    <rc><c>Mo</c><c>   2</c></rc>
    <rc><c>Mo</c><c>   2</c></rc>
    <rc><c>W </c><c>   3</c></rc>
    <rc><c>W </c><c>   3</c></rc>
    <rc><c>W </c><c>   3</c></rc>
    <rc><c>S </c><c>   4</c></rc>
    <rc><c>S </c><c>   4</c></rc>
    <rc><c>S </c><c>   4</c></rc>
    <rc><c>S </c><c>   4</c></rc>
    <rc><c>S </c><c>   4</c></rc>
    <rc><c>S </c><c>   4</c></rc>
    <rc><c>S </c><c>   4</c></rc>
    <rc><c>S </c><c>   4</c></rc>
    <rc><c>S </c><c>   4</c></rc>
    <rc><c>S </c><c>   4</c></rc>
    <rc><c>S </c><c>   4</c></rc>
    <rc><c>S </c><c>   4</c></rc>
    <rc><c>S </c><c>   4</c></rc>
    <rc><c>S </c><c>   4</c></rc>
    <rc><c>S </c><c>   4</c></rc>
    <rc><c>S </c><c>   4</c></rc>
    <rc><c>S </c><c>   4</c></rc>
    <rc><c>S </c><c>   4</c></rc>
   </set>
  </array>
  <array name="atomtypes" >
   <dimension dim="1">type</dimension>
   <field type="int">atomspertype</field>
   <field type="string">element</field>
   <field>mass</field>
   <field>valence</field>
   <field type="string">pseudopotential</field>
   <set>
    <rc><c>   3</c><c>V </c><c>     50.94100000</c><c>      5.00000000</c><c> PAW_PBE V 08Apr2002                    </c></rc>
    <rc><c>   3</c><c>Mo</c><c>     95.94000000</c><c>      6.00000000</c><c> PAW_PBE Mo 08Apr2002                   </c></rc>
    <rc><c>   3</c><c>W </c><c>    183.85000000</c><c>      6.00000000</c><c> PAW_PBE W 08Apr2002                    </c></rc>
    <rc><c>  18</c><c>S </c><c>     32.06600000</c><c>      6.00000000</c><c>  PAW_PBE S 17Jan2003                   </c></rc>
   </set>
  </array>
 </atominfo>
 <structure name="initialpos" >
  <crystal>
   <varray name="basis" >
    <v>       8.66999996       5.03999989       0.00000000 </v>
    <v>      -8.66999982       5.04000013       0.00000000 </v>
    <v>       0.00000000       0.00000000      30.00000000 </v>
   </varray>
   <i name="volume">   2621.80797419 </i>
   <varray name="rec_basis" >
    <v>       0.05767013       0.09920635       0.00000000 </v>
    <v>      -0.05767013       0.09920635       0.00000000 </v>
    <v>       0.00000000       0.00000000       0.03333333 </v>
   </varray>
  </crystal>
  <varray name="positions" >
   <v>       0.00000000       0.66666669       0.00000000 </v>
   <v>       1.00000000       0.33333334       0.00000000 </v>
   <v>       0.33333334       0.66666669       0.00000000 </v>
   <v>       0.33333334       0.00000000       0.00000000 </v>
   <v>       0.00000000       0.00000000       0.00000000 </v>
   <v>       0.33333334       0.33333334       0.00000000 </v>
   <v>       0.66666669       0.00000000       0.00000000 </v>
   <v>       0.66666669       0.33333334       0.00000000 </v>
   <v>       0.66666669       0.66666669       0.00000000 </v>
   <v>       0.11068511       0.22244981       0.95539999 </v>
   <v>       0.22244981       0.11068511       0.04460000 </v>
   <v>       0.11068511       0.55578315       0.95539999 </v>
   <v>       0.22244981       0.44401845       0.04460000 </v>
   <v>       0.11068511       0.88911647       0.95539999 </v>
   <v>       0.22244981       0.77735180       0.04460000 </v>
   <v>       0.44401845       0.22244981       0.95539999 </v>
   <v>       0.55578315       0.11068511       0.04460000 </v>
   <v>       0.44401845       0.55578315       0.95539999 </v>
   <v>       0.55578315       0.44401845       0.04460000 </v>
   <v>       0.44401845       0.88911647       0.95539999 </v>
   <v>       0.55578315       0.77735180       0.04460000 </v>
   <v>       0.77735180       0.22244981       0.95539999 </v>
   <v>       0.88911647       0.11068511       0.04460000 </v>
   <v>       0.77735180       0.55578315       0.95539999 </v>
   <v>       0.88911647       0.44401845       0.04460000 </v>
   <v>       0.77735180       0.88911647       0.95539999 </v>
   <v>       0.88911647       0.77735180       0.04460000 </v>
  </varray>
 </structure>
 <calculation>
  <scstep>
   <time name="dav">   22.82   22.88</time>
   <time name="total">   22.87   22.93</time>
   <energy>
    <i name="alphaZ">     81.65567618 </i>
    <i name="ewald">  41891.17178070 </i>
    <i name="hartreedc"> -47723.81755246 </i>
    <i name="XCdc">   -242.92457056 </i>
    <i name="pawpsdc">   3467.42045192 </i>
    <i name="pawaedc">  -2871.19716117 </i>
    <i name="eentropy">     -0.52357775 </i>
    <i name="bandstr">   -238.88261540 </i>
    <i name="atom">   6761.44252427 </i>
    <i name="e_fr_energy">   1124.34495573 </i>
    <i name="e_wo_entrp">   1124.86853347 </i>
    <i name="e_0_energy">   1124.60674460 </i>
   </energy>
  </scstep>
  <scstep>
   <time name="dav">   29.49   29.56</time>
   <time name="total">   29.49   29.57</time>
   <energy>
    <i name="e_fr_energy">     -3.19657757 </i>
    <i name="e_wo_entrp">     -3.00624273 </i>
    <i name="e_0_energy">     -3.10141015 </i>
   </energy>
  </scstep>
  <scstep>
   <time name="dav">   28.78   28.84</time>
   <time name="total">   28.78   28.85</time>
   <energy>
    <i name="e_fr_energy">   -199.77303080 </i>
    <i name="e_wo_entrp">   -199.50086362 </i>
    <i name="e_0_energy">   -199.63694721 </i>
   </energy>
  </scstep>
  <scstep>
   <time name="dav">   31.87   31.95</time>
   <time name="total">   31.88   31.96</time>
   <energy>
    <i name="e_fr_energy">   -208.96566683 </i>
    <i name="e_wo_entrp">   -208.66107242 </i>
    <i name="e_0_energy">   -208.81336962 </i>
   </energy>
  </scstep>
  <scstep>
   <time name="dav">   29.73   29.80</time>
   <time name="total">   30.19   30.27</time>
   <energy>
    <i name="e_fr_energy">   -209.27250612 </i>
    <i name="e_wo_entrp">   -208.97127298 </i>
    <i name="e_0_energy">   -209.12188955 </i>
   </energy>
  </scstep>
  <scstep>
   <time name="dav">   31.82   31.90</time>
   <time name="total">   32.33   32.41</time>
   <energy>
    <i name="e_fr_energy">   -237.51895321 </i>
    <i name="e_wo_entrp">   -237.26680929 </i>
    <i name="e_0_energy">   -237.39288125 </i>
   </energy>
  </scstep>
  <scstep>
   <time name="dav">   34.29   34.37</time>
   <time name="total">   34.88   34.98</time>
   <energy>
    <i name="e_fr_energy">   -196.66975561 </i>
    <i name="e_wo_entrp">   -196.31920088 </i>
    <i name="e_0_energy">   -196.49447825 </i>
   </energy>
  </scstep>
  <scstep>
   <time name="dav">   31.22   31.29</time>
   <time name="total">   31.81   31.90</time>
   <energy>
    <i name="e_fr_energy">   -189.67821163 </i>
    <i name="e_wo_entrp">   -189.36971247 </i>
    <i name="e_0_energy">   -189.52396205 </i>
   </energy>
  </scstep>
  <scstep>
   <time name="dav">   33.17   33.25</time>
   <time name="total">   33.78   33.87</time>
   <energy>
    <i name="e_fr_energy">   -188.19179426 </i>
    <i name="e_wo_entrp">   -187.85469449 </i>
    <i name="e_0_energy">   -188.02324437 </i>
   </energy>
  </scstep>
  <scstep>
   <time name="dav">   34.00   34.08</time>
   <time name="total">   34.62   34.71</time>
   <energy>
    <i name="e_fr_energy">   -186.92810188 </i>
    <i name="e_wo_entrp">   -186.57640527 </i>
    <i name="e_0_energy">   -186.75225358 </i>
   </energy>
  </scstep>
  <scstep>
   <time name="dav">   34.61   34.70</time>
   <time name="total">   35.23   35.32</time>
   <energy>
    <i name="e_fr_energy">   -187.01686547 </i>
    <i name="e_wo_entrp">   -186.67618975 </i>
    <i name="e_0_energy">   -186.84652761 </i>
   </energy>
  </scstep>
  <scstep>
   <time name="dav">   32.87   32.95</time>
   <time name="total">   33.48   33.57</time>
   <energy>
    <i name="e_fr_energy">   -186.95302834 </i>
    <i name="e_wo_entrp">   -186.61803113 </i>
    <i name="e_0_energy">   -186.78552973 </i>
   </energy>
  </scstep>
  <scstep>
   <time name="dav">   34.07   34.15</time>
   <time name="total">   34.69   34.78</time>
   <energy>
    <i name="e_fr_energy">   -186.85686304 </i>
    <i name="e_wo_entrp">   -186.52101207 </i>
    <i name="e_0_energy">   -186.68893755 </i>
   </energy>
  </scstep>
  <scstep>
   <time name="dav">   33.53   33.61</time>
   <time name="total">   34.15   34.23</time>
   <energy>
    <i name="e_fr_energy">   -186.82216675 </i>
    <i name="e_wo_entrp">   -186.47794263 </i>
    <i name="e_0_energy">   -186.65005469 </i>
   </energy>
  </scstep>
  <scstep>
   <time name="dav">   30.87   30.94</time>
   <time name="total">   31.48   31.56</time>
   <energy>
    <i name="e_fr_energy">   -186.81743240 </i>
    <i name="e_wo_entrp">   -186.47346428 </i>
    <i name="e_0_energy">   -186.64544834 </i>
   </energy>
  </scstep>
  <scstep>
   <time name="dav">   32.98   33.06</time>
   <time name="total">   33.59   33.68</time>
   <energy>
    <i name="e_fr_energy">   -186.81686888 </i>
    <i name="e_wo_entrp">   -186.47433049 </i>
    <i name="e_0_energy">   -186.64559969 </i>
   </energy>
  </scstep>
  <scstep>
   <time name="dav">   33.40   33.48</time>
   <time name="total">   34.01   34.10</time>
   <energy>
    <i name="e_fr_energy">   -186.81547842 </i>
    <i name="e_wo_entrp">   -186.47306677 </i>
    <i name="e_0_energy">   -186.64427260 </i>
   </energy>
  </scstep>
  <scstep>
   <time name="dav">   29.76   29.83</time>
   <time name="total">   30.37   30.46</time>
   <energy>
    <i name="e_fr_energy">   -186.81507229 </i>
    <i name="e_wo_entrp">   -186.47221227 </i>
    <i name="e_0_energy">   -186.64364228 </i>
   </energy>
  </scstep>
  <scstep>
   <time name="dav">   25.37   25.43</time>
   <time name="total">   25.41   25.48</time>
   <energy>
    <i name="alphaZ">     81.65567618 </i>
    <i name="ewald">  41891.17178070 </i>
    <i name="hartreedc"> -47818.59887356 </i>
    <i name="XCdc">   -231.69963706 </i>
    <i name="pawpsdc">   4194.27297428 </i>
    <i name="pawaedc">  -3612.28604422 </i>
    <i name="eentropy">     -0.34282965 </i>
    <i name="bandstr">  -1452.43066754 </i>
    <i name="atom">   6761.44252427 </i>
    <i name="e_fr_energy">   -186.81509660 </i>
    <i name="e_wo_entrp">   -186.47226695 </i>
    <i name="e_0_energy">   -186.64368178 </i>
   </energy>
  </scstep>
  <structure>
   <crystal>
    <varray name="basis" >
     <v>       8.66999996       5.03999989       0.00000000 </v>
     <v>      -8.66999982       5.04000013       0.00000000 </v>
     <v>       0.00000000       0.00000000      30.00000000 </v>
    </varray>
    <i name="volume">   2621.80797419 </i>
    <varray name="rec_basis" >
     <v>       0.05767013       0.09920635       0.00000000 </v>
     <v>      -0.05767013       0.09920635       0.00000000 </v>
     <v>       0.00000000       0.00000000       0.03333333 </v>
    </varray>
   </crystal>
   <varray name="positions" >
    <v>       0.00000000       0.66666669       0.00000000 </v>
    <v>       1.00000000       0.33333334       0.00000000 </v>
    <v>       0.33333334       0.66666669       0.00000000 </v>
    <v>       0.33333334       0.00000000       0.00000000 </v>
    <v>       0.00000000       0.00000000       0.00000000 </v>
    <v>       0.33333334       0.33333334       0.00000000 </v>
    <v>       0.66666669       0.00000000       0.00000000 </v>
    <v>       0.66666669       0.33333334       0.00000000 </v>
    <v>       0.66666669       0.66666669       0.00000000 </v>
    <v>       0.11068511       0.22244981       0.95539999 </v>
    <v>       0.22244981       0.11068511       0.04460000 </v>
    <v>       0.11068511       0.55578315       0.95539999 </v>
    <v>       0.22244981       0.44401845       0.04460000 </v>
    <v>       0.11068511       0.88911647       0.95539999 </v>
    <v>       0.22244981       0.77735180       0.04460000 </v>
    <v>       0.44401845       0.22244981       0.95539999 </v>
    <v>       0.55578315       0.11068511       0.04460000 </v>
    <v>       0.44401845       0.55578315       0.95539999 </v>
    <v>       0.55578315       0.44401845       0.04460000 </v>
    <v>       0.44401845       0.88911647       0.95539999 </v>
    <v>       0.55578315       0.77735180       0.04460000 </v>
    <v>       0.77735180       0.22244981       0.95539999 </v>
    <v>       0.88911647       0.11068511       0.04460000 </v>
    <v>       0.77735180       0.55578315       0.95539999 </v>
    <v>       0.88911647       0.44401845       0.04460000 </v>
    <v>       0.77735180       0.88911647       0.95539999 </v>
    <v>       0.88911647       0.77735180       0.04460000 </v>
   </varray>
  </structure>
  <varray name="forces" >
   <v>      -0.03908241       0.35003658       0.00957566 </v>
   <v>       0.34029504       0.14131319       0.01529741 </v>
   <v>      -0.08370100      -0.14394390      -0.02060372 </v>
   <v>      -0.50382006      -0.03461107      -0.10612332 </v>
   <v>       0.26032398       0.43030874       0.07668389 </v>
   <v>       0.21599746      -0.43245032      -0.09517806 </v>
   <v>      -0.00891123      -0.00581233       0.09597248 </v>
   <v>      -0.21171187      -0.36305017      -0.04546863 </v>
   <v>       0.00253024      -0.01777169       0.09685715 </v>
   <v>      -0.74706019       0.02987662      -2.12203053 </v>
   <v>      -0.13830682      -0.02489408       2.93002972 </v>
   <v>       0.07118736       0.01142365      -0.77784063 </v>
   <v>      -0.91260478      -0.00352550       1.44245995 </v>
   <v>       0.54913912      -0.68370042      -2.16104575 </v>
   <v>       0.32934470      -0.68154358       1.40186382 </v>
   <v>       0.20403413       0.16101334      -2.96130464 </v>
   <v>      -0.01562131       0.13383326       2.88242422 </v>
   <v>      -0.65360811       0.13691188      -2.07860970 </v>
   <v>      -0.07929026       0.16507418       2.88246598 </v>
   <v>       0.60213645      -0.54708328      -2.11487969 </v>
   <v>      -0.45540937      -0.54837484       2.19891703 </v>
   <v>       0.44984831       0.57728814      -2.16461354 </v>
   <v>      -0.60505468       0.52933700       2.15209219 </v>
   <v>       0.48203805       0.56087964      -2.16645092 </v>
   <v>       0.23928462       0.52592960       1.36347778 </v>
   <v>       0.06486452      -0.11744416      -2.84587494 </v>
   <v>       0.64315812      -0.14902050       2.11190678 </v>
  </varray>
  <varray name="stress" >
   <v>       7.53480618      -0.14844346      -1.64565998 </v>
   <v>      -0.14844354       4.42240579      -0.14835023 </v>
   <v>      -1.64565985      -0.14835023      31.13784298 </v>
  </varray>
  <energy>
   <i name="e_fr_energy">   -186.81509660 </i>
   <i name="e_wo_entrp">   -186.64368178 </i>
   <i name="e_0_energy">     -0.34282965 </i>
  </energy>
  <time name="totalsc">  646.74  648.47</time>
 </calculation>
 <calculation>
  <scstep>
   <time name="dav">   22.77   22.82</time>
   <time name="total">   23.39   23.44</time>
   <energy>
    <i name="alphaZ">     78.87562680 </i>
    <i name="ewald">  39354.66851777 </i>
    <i name="hartreedc"> -45302.51200181 </i>
    <i name="XCdc">   -239.17272807 </i>
    <i name="pawpsdc">   4193.11262185 </i>
    <i name="pawaedc">  -3611.10728873 </i>
    <i name="eentropy">     -0.28232348 </i>
    <i name="bandstr">  -1422.50659741 </i>
    <i name="atom">   6761.44252427 </i>
    <i name="e_fr_energy">   -187.48164880 </i>
    <i name="e_wo_entrp">   -187.19932533 </i>
    <i name="e_0_energy">   -187.34048706 </i>
   </energy>
  </scstep>
  <scstep>
   <time name="dav">   31.02   31.09</time>
   <time name="total">   31.63   31.72</time>
   <energy>
    <i name="e_fr_energy">   -189.42193149 </i>
    <i name="e_wo_entrp">   -189.09831628 </i>
    <i name="e_0_energy">   -189.26012388 </i>
   </energy>
  </scstep>
  <scstep>
   <time name="dav">   31.85   31.93</time>
   <time name="total">   32.48   32.57</time>
   <energy>
    <i name="e_fr_energy">   -189.31603311 </i>
    <i name="e_wo_entrp">   -189.04983446 </i>
    <i name="e_0_energy">   -189.18293379 </i>
   </energy>
  </scstep>
  <scstep>
   <time name="dav">   32.12   32.19</time>
   <time name="total">   32.74   32.82</time>
   <energy>
    <i name="e_fr_energy">   -188.72557668 </i>
    <i name="e_wo_entrp">   -188.44264978 </i>
    <i name="e_0_energy">   -188.58411323 </i>
   </energy>
  </scstep>
  <scstep>
   <time name="dav">   31.98   32.06</time>
   <time name="total">   32.60   32.69</time>
   <energy>
    <i name="e_fr_energy">   -188.75160588 </i>
    <i name="e_wo_entrp">   -188.46678055 </i>
    <i name="e_0_energy">   -188.60919322 </i>
   </energy>
  </scstep>
  <scstep>
   <time name="dav">   31.73   31.81</time>
   <time name="total">   32.36   32.44</time>
   <energy>
    <i name="e_fr_energy">   -188.72564751 </i>
    <i name="e_wo_entrp">   -188.44383879 </i>
    <i name="e_0_energy">   -188.58474315 </i>
   </energy>
  </scstep>
  <scstep>
   <time name="dav">   32.29   32.37</time>
   <time name="total">   32.91   33.00</time>
   <energy>
    <i name="e_fr_energy">   -188.66178237 </i>
    <i name="e_wo_entrp">   -188.37962688 </i>
    <i name="e_0_energy">   -188.52070462 </i>
   </energy>
  </scstep>
  <scstep>
   <time name="dav">   26.72   26.78</time>
   <time name="total">   27.34   27.42</time>
   <energy>
    <i name="e_fr_energy">   -188.64006699 </i>
    <i name="e_wo_entrp">   -188.35951371 </i>
    <i name="e_0_energy">   -188.49979035 </i>
   </energy>
  </scstep>
  <scstep>
   <time name="dav">   30.16   30.23</time>
   <time name="total">   30.79   30.87</time>
   <energy>
    <i name="e_fr_energy">   -188.63882136 </i>
    <i name="e_wo_entrp">   -188.35850691 </i>
    <i name="e_0_energy">   -188.49866413 </i>
   </energy>
  </scstep>
  <scstep>
   <time name="dav">   32.98   33.06</time>
   <time name="total">   33.61   33.70</time>
   <energy>
    <i name="e_fr_energy">   -188.63873956 </i>
    <i name="e_wo_entrp">   -188.35871632 </i>
    <i name="e_0_energy">   -188.49872794 </i>
   </energy>
  </scstep>
  <scstep>
   <time name="dav">   29.88   29.96</time>
   <time name="total">   30.51   30.59</time>
   <energy>
    <i name="e_fr_energy">   -188.63785321 </i>
    <i name="e_wo_entrp">   -188.35824698 </i>
    <i name="e_0_energy">   -188.49805010 </i>
   </energy>
  </scstep>
  <scstep>
   <time name="dav">   29.39   29.46</time>
   <time name="total">   30.02   30.10</time>
   <energy>
    <i name="e_fr_energy">   -188.63812497 </i>
    <i name="e_wo_entrp">   -188.35844310 </i>
    <i name="e_0_energy">   -188.49828403 </i>
   </energy>
  </scstep>
  <scstep>
   <time name="dav">   19.61   19.66</time>
   <time name="total">   19.65   19.71</time>
   <energy>
    <i name="alphaZ">     78.87562680 </i>
    <i name="ewald">  39354.66851777 </i>
    <i name="hartreedc"> -45319.76950929 </i>
    <i name="XCdc">   -238.02843887 </i>
    <i name="pawpsdc">   3949.47870400 </i>
    <i name="pawaedc">  -3363.96886387 </i>
    <i name="eentropy">     -0.27966937 </i>
    <i name="bandstr">  -1411.05701455 </i>
    <i name="atom">   6761.44252427 </i>
    <i name="e_fr_energy">   -188.63812310 </i>
    <i name="e_wo_entrp">   -188.35845373 </i>
    <i name="e_0_energy">   -188.49828842 </i>
   </energy>
  </scstep>
  <structure>
   <crystal>
    <varray name="basis" >
     <v>       8.85881928       5.10140673       0.00000000 </v>
     <v>      -8.86319416       5.10893304       0.00000000 </v>
     <v>       0.00000000       0.00000000      30.00000000 </v>
    </varray>
    <i name="volume">   2714.21618587 </i>
    <varray name="rec_basis" >
     <v>       0.05646860       0.09796413       0.00000000 </v>
     <v>      -0.05638541       0.09791577       0.00000000 </v>
     <v>       0.00000000       0.00000000       0.03333333 </v>
    </varray>
   </crystal>
   <varray name="positions" >
    <v>       0.00156653       0.66845069       0.00001540 </v>
    <v>       1.00162308       0.33306291       0.00002460 </v>
    <v>       0.33241156       0.66621064      -0.00003313 </v>
    <v>       0.33176599       0.00123606      -0.00017066 </v>
    <v>       0.00278371       0.00133519       0.00012331 </v>
    <v>       0.33186459       0.33066271      -0.00015305 </v>
    <v>       0.66661408      -0.00000303       0.00015433 </v>
    <v>       0.66434012       0.33218481      -0.00007312 </v>
    <v>       0.66658867       0.66657459       0.00015575 </v>
    <v>       0.10874966       0.22467124       0.95198758 </v>
    <v>       0.22194588       0.11095076       0.04931175 </v>
    <v>       0.11093784       0.55563977       0.95414915 </v>
    <v>       0.21989392       0.44654059       0.04691960 </v>
    <v>       0.10894073       0.88431650       0.95192484 </v>
    <v>       0.22010425       0.77317365       0.04685432 </v>
    <v>       0.44535672       0.22265276       0.95063795 </v>
    <v>       0.55638021       0.11136909       0.04923519 </v>
    <v>       0.44285527       0.55825685       0.95205740 </v>
    <v>       0.55635260       0.44502909       0.04923526 </v>
    <v>       0.44307537       0.88482290       0.95199908 </v>
    <v>       0.55189162       0.77599431       0.04813605 </v>
    <v>       0.78136623       0.22396115       0.95191910 </v>
    <v>       0.88996650       0.11490186       0.04806075 </v>
    <v>       0.78137726       0.55712640       0.95191615 </v>
    <v>       0.89229928       0.44586981       0.04679259 </v>
    <v>       0.77697017       0.88837392       0.95082357 </v>
    <v>       0.89019263       0.77484922       0.04799613 </v>
   </varray>
  </structure>
  <varray name="forces" >
   <v>      -0.10068522       0.27008523       0.08696227 </v>
   <v>       0.27865937       0.04308877       0.09138991 </v>
   <v>      -0.00794358      -0.01200558      -0.05801720 </v>
   <v>      -0.61910366       0.25051556      -0.02646777 </v>
   <v>       0.23794569       0.40831637       0.01421118 </v>
   <v>       0.52649119      -0.41024992      -0.03136721 </v>
   <v>       0.05850841      -0.02647102      -0.06645900 </v>
   <v>      -0.28560889      -0.49597277       0.05784950 </v>
   <v>      -0.05036178       0.03280966      -0.06717866 </v>
   <v>      -0.05191178       0.00977972      -0.16712820 </v>
   <v>       0.00551098      -0.00490888       0.34885200 </v>
   <v>       0.01849186       0.00599709       0.14248194 </v>
   <v>      -0.04085806      -0.00916385      -0.10697068 </v>
   <v>       0.03270728      -0.05998439      -0.15224148 </v>
   <v>      -0.00248264      -0.05161179      -0.09469056 </v>
   <v>       0.04430022       0.09214911      -0.32160341 </v>
   <v>       0.06606126       0.08637802      -0.01265917 </v>
   <v>       0.03203674       0.09780149       0.11725927 </v>
   <v>       0.06236271       0.09491455      -0.00679250 </v>
   <v>       0.06569237       0.05891601       0.13436522 </v>
   <v>       0.05220842       0.05647157      -0.01844782 </v>
   <v>      -0.06477679      -0.05685385       0.16082602 </v>
   <v>      -0.06917514      -0.04988212      -0.01431036 </v>
   <v>      -0.04526720      -0.06970119       0.16155392 </v>
   <v>      -0.06054744      -0.07155163      -0.32337058 </v>
   <v>      -0.06466433      -0.09162125       0.15108398 </v>
   <v>      -0.01758998      -0.09724493       0.00086938 </v>
  </varray>
  <varray name="stress" >
   <v>     -20.02702212       0.00572690       0.03141868 </v>
   <v>       0.00572686     -19.56999227      -0.01725801 </v>
   <v>       0.03141870      -0.01725798      -1.74622432 </v>
  </varray>
  <energy>
   <i name="e_fr_energy">   -188.63812310 </i>
   <i name="e_wo_entrp">   -188.49828842 </i>
   <i name="e_0_energy">     -0.27966937 </i>
  </energy>
  <time name="totalsc">  433.66  434.80</time>
 </calculation>
 <calculation>
  <scstep>
   <time name="dav">   24.86   24.92</time>
   <time name="total">   25.48   25.54</time>
   <energy>
    <i name="alphaZ">     82.33080846 </i>
    <i name="ewald">  41296.09726886 </i>
    <i name="hartreedc"> -47292.29432569 </i>
    <i name="XCdc">   -233.86270248 </i>
    <i name="pawpsdc">   3948.69820881 </i>
    <i name="pawaedc">  -3363.18140786 </i>
    <i name="eentropy">     -0.23555901 </i>
    <i name="bandstr">  -1389.59131442 </i>
    <i name="atom">   6761.44252427 </i>
    <i name="e_fr_energy">   -190.59649904 </i>
    <i name="e_wo_entrp">   -190.36094004 </i>
    <i name="e_0_energy">   -190.47871954 </i>
   </energy>
  </scstep>
  <scstep>
   <time name="dav">   31.85   31.92</time>
   <time name="total">   32.45   32.54</time>
   <energy>
    <i name="e_fr_energy">   -190.52442932 </i>
    <i name="e_wo_entrp">   -190.29948919 </i>
    <i name="e_0_energy">   -190.41195926 </i>
   </energy>
  </scstep>
  <scstep>
   <time name="dav">   31.58   31.65</time>
   <time name="total">   32.19   32.27</time>
   <energy>
    <i name="e_fr_energy">   -190.07176625 </i>
    <i name="e_wo_entrp">   -189.82120087 </i>
    <i name="e_0_energy">   -189.94648356 </i>
   </energy>
  </scstep>
  <scstep>
   <time name="dav">   33.50   33.58</time>
   <time name="total">   34.11   34.20</time>
   <energy>
    <i name="e_fr_energy">   -189.85573236 </i>
    <i name="e_wo_entrp">   -189.62629773 </i>
    <i name="e_0_energy">   -189.74101504 </i>
   </energy>
  </scstep>
  <scstep>
   <time name="dav">   31.64   31.72</time>
   <time name="total">   32.26   32.34</time>
   <energy>
    <i name="e_fr_energy">   -189.76512597 </i>
    <i name="e_wo_entrp">   -189.52858806 </i>
    <i name="e_0_energy">   -189.64685702 </i>
   </energy>
  </scstep>
  <scstep>
   <time name="dav">   30.32   30.39</time>
   <time name="total">   30.93   31.01</time>
   <energy>
    <i name="e_fr_energy">   -189.75381836 </i>
    <i name="e_wo_entrp">   -189.51692992 </i>
    <i name="e_0_energy">   -189.63537414 </i>
   </energy>
  </scstep>
  <scstep>
   <time name="dav">   29.78   29.86</time>
   <time name="total">   30.39   30.48</time>
   <energy>
    <i name="e_fr_energy">   -189.75026955 </i>
    <i name="e_wo_entrp">   -189.51347951 </i>
    <i name="e_0_energy">   -189.63187453 </i>
   </energy>
  </scstep>
  <scstep>
   <time name="dav">   30.30   30.37</time>
   <time name="total">   30.91   30.99</time>
   <energy>
    <i name="e_fr_energy">   -189.74975705 </i>
    <i name="e_wo_entrp">   -189.51307691 </i>
    <i name="e_0_energy">   -189.63141698 </i>
   </energy>
  </scstep>
  <scstep>
   <time name="dav">   30.26   30.33</time>
   <time name="total">   30.87   30.95</time>
   <energy>
    <i name="e_fr_energy">   -189.75015783 </i>
    <i name="e_wo_entrp">   -189.51355856 </i>
    <i name="e_0_energy">   -189.63185820 </i>
   </energy>
  </scstep>
  <scstep>
   <time name="dav">   26.71   26.78</time>
   <time name="total">   27.32   27.40</time>
   <energy>
    <i name="e_fr_energy">   -189.75032902 </i>
    <i name="e_wo_entrp">   -189.51356575 </i>
    <i name="e_0_energy">   -189.63194739 </i>
   </energy>
  </scstep>
  <scstep>
   <time name="dav">   24.06   24.12</time>
   <time name="total">   24.67   24.74</time>
   <energy>
    <i name="e_fr_energy">   -189.74988883 </i>
    <i name="e_wo_entrp">   -189.51305655 </i>
    <i name="e_0_energy">   -189.63147269 </i>
   </energy>
  </scstep>
  <scstep>
   <time name="dav">   18.10   18.14</time>
   <time name="total">   18.14   18.19</time>
   <energy>
    <i name="alphaZ">     82.33080846 </i>
    <i name="ewald">  41296.09726886 </i>
    <i name="hartreedc"> -47267.38295944 </i>
    <i name="XCdc">   -235.25744876 </i>
    <i name="pawpsdc">   4038.78011990 </i>
    <i name="pawaedc">  -3454.48070608 </i>
    <i name="eentropy">     -0.23682062 </i>
    <i name="bandstr">  -1411.04271738 </i>
    <i name="atom">   6761.44252427 </i>
    <i name="e_fr_energy">   -189.74993079 </i>
    <i name="e_wo_entrp">   -189.51311017 </i>
    <i name="e_0_energy">   -189.63152048 </i>
   </energy>
  </scstep>
  <structure>
   <crystal>
    <varray name="basis" >
     <v>       8.66880070       4.99451719       0.00000000 </v>
     <v>      -8.67301908       5.00177700       0.00000000 </v>
     <v>       0.00000000       0.00000000      30.00000000 </v>
    </varray>
    <i name="volume">   2600.30852299 </i>
    <varray name="rec_basis" >
     <v>       0.05770596       0.10006142       0.00000000 </v>
     <v>      -0.05762221       0.10001276       0.00000000 </v>
     <v>       0.00000000       0.00000000       0.03333333 </v>
    </varray>
   </crystal>
   <varray name="positions" >
    <v>       0.00192119       0.66899911       0.00006489 </v>
    <v>       1.00196379       0.33286669       0.00007661 </v>
    <v>       0.33238382       0.66619822      -0.00006615 </v>
    <v>       0.33158812       0.00225083      -0.00018572 </v>
    <v>       0.00369603       0.00178871       0.00013140 </v>
    <v>       0.33168601       0.32947006      -0.00017091 </v>
    <v>       0.66662621      -0.00010360       0.00011651 </v>
    <v>       0.66323524       0.33163064      -0.00004020 </v>
    <v>       0.66659499       0.66667792       0.00011752 </v>
    <v>       0.10871597       0.22473756       0.95189247 </v>
    <v>       0.22194298       0.11093725       0.04951028 </v>
    <v>       0.11096570       0.55563200       0.95423024 </v>
    <v>       0.21983921       0.44656461       0.04685873 </v>
    <v>       0.10887194       0.88418474       0.95183820 </v>
    <v>       0.22001553       0.77308977       0.04680043 </v>
    <v>       0.44555355       0.22276416       0.95045493 </v>
    <v>       0.55658837       0.11144990       0.04922799 </v>
    <v>       0.44304973       0.55838951       0.95212413 </v>
    <v>       0.55657147       0.44512773       0.04923139 </v>
    <v>       0.44323724       0.88485815       0.95207554 </v>
    <v>       0.55203640       0.77603845       0.04812555 </v>
    <v>       0.78120870       0.22392846       0.95201063 </v>
    <v>       0.88981638       0.11488507       0.04805261 </v>
    <v>       0.78121704       0.55705346       0.95200808 </v>
    <v>       0.89212124       0.44580849       0.04660856 </v>
    <v>       0.77675459       0.88828300       0.95090955 </v>
    <v>       0.89001302       0.77470359       0.04799663 </v>
   </varray>
  </structure>
  <varray name="forces" >
   <v>      -0.15784134       0.23738108       0.08967129 </v>
   <v>       0.27990042      -0.02209195       0.09339144 </v>
   <v>       0.03928465       0.06621836      -0.04882830 </v>
   <v>      -0.64819059       0.34706513      -0.00429523 </v>
   <v>       0.21771233       0.37437195      -0.00442066 </v>
   <v>       0.62626490      -0.38871123      -0.00889757 </v>
   <v>       0.08423180      -0.04211852      -0.08495777 </v>
   <v>      -0.31643531      -0.54882325       0.06894257 </v>
   <v>      -0.07469655       0.04538656      -0.08497973 </v>
   <v>      -0.12142929       0.01004625      -0.66602085 </v>
   <v>       0.00622820       0.00035733       0.91586593 </v>
   <v>       0.01559796      -0.00139412      -0.27495119 </v>
   <v>      -0.09020500      -0.00278298       0.32852871 </v>
   <v>       0.06912949      -0.11847976      -0.65463056 </v>
   <v>       0.02657869      -0.08714347       0.34204376 </v>
   <v>      -0.00081288       0.01245107      -0.92560252 </v>
   <v>       0.02184215      -0.00033022       0.54748100 </v>
   <v>      -0.07460508       0.00238855      -0.36468417 </v>
   <v>       0.00666165       0.01463253       0.55302732 </v>
   <v>       0.03622811      -0.07997850      -0.34782937 </v>
   <v>      -0.03155112      -0.08311791       0.51192280 </v>
   <v>       0.00243739       0.08322821      -0.34042368 </v>
   <v>      -0.05245755       0.08844061       0.48669680 </v>
   <v>       0.04493035       0.05605290      -0.34153680 </v>
   <v>       0.01260454       0.05200461       0.10908098 </v>
   <v>      -0.01271065      -0.00315812      -0.39687577 </v>
   <v>       0.09130271      -0.01189512       0.50228157 </v>
  </varray>
  <varray name="stress" >
   <v>     -10.21698821       0.03478297       0.03306722 </v>
   <v>       0.03478307      -9.82853742       0.01230521 </v>
   <v>       0.03306725       0.01230515       6.49561562 </v>
  </varray>
  <energy>
   <i name="e_fr_energy">   -189.74993079 </i>
   <i name="e_wo_entrp">   -189.63152048 </i>
   <i name="e_0_energy">     -0.23682062 </i>
  </energy>
  <time name="totalsc">  393.44  394.48</time>
 </calculation>
 <calculation>
  <scstep>
   <time name="dav">   22.76   22.82</time>
   <time name="total">   23.37   23.42</time>
   <energy>
    <i name="alphaZ">     85.81968666 </i>
    <i name="ewald">  42834.27089164 </i>
    <i name="hartreedc"> -48850.19350502 </i>
    <i name="XCdc">   -232.95681461 </i>
    <i name="pawpsdc">   4038.71626121 </i>
    <i name="pawaedc">  -3454.41273903 </i>
    <i name="eentropy">     -0.20272886 </i>
    <i name="bandstr">  -1373.83284788 </i>
    <i name="atom">   6761.44252427 </i>
    <i name="e_fr_energy">   -191.34927162 </i>
    <i name="e_wo_entrp">   -191.14654276 </i>
    <i name="e_0_energy">   -191.24790719 </i>
   </energy>
  </scstep>
  <scstep>
   <time name="dav">   33.21   33.29</time>
   <time name="total">   33.81   33.89</time>
   <energy>
    <i name="e_fr_energy">   -191.15307740 </i>
    <i name="e_wo_entrp">   -190.95779316 </i>
    <i name="e_0_energy">   -191.05543528 </i>
   </energy>
  </scstep>
  <scstep>
   <time name="dav">   31.79   31.87</time>
   <time name="total">   32.39   32.48</time>
   <energy>
    <i name="e_fr_energy">   -191.29900967 </i>
    <i name="e_wo_entrp">   -191.07353519 </i>
    <i name="e_0_energy">   -191.18627243 </i>
   </energy>
  </scstep>
  <scstep>
   <time name="dav">   33.14   33.22</time>
   <time name="total">   33.75   33.84</time>
   <energy>
    <i name="e_fr_energy">   -190.89956551 </i>
    <i name="e_wo_entrp">   -190.70084849 </i>
    <i name="e_0_energy">   -190.80020700 </i>
   </energy>
  </scstep>
  <scstep>
   <time name="dav">   31.36   31.43</time>
   <time name="total">   31.96   32.04</time>
   <energy>
    <i name="e_fr_energy">   -190.78060667 </i>
    <i name="e_wo_entrp">   -190.57676842 </i>
    <i name="e_0_energy">   -190.67868755 </i>
   </energy>
  </scstep>
  <scstep>
   <time name="dav">   28.38   28.45</time>
   <time name="total">   28.98   29.06</time>
   <energy>
    <i name="e_fr_energy">   -190.76493799 </i>
    <i name="e_wo_entrp">   -190.55750848 </i>
    <i name="e_0_energy">   -190.66122324 </i>
   </energy>
  </scstep>
  <scstep>
   <time name="dav">   30.93   31.00</time>
   <time name="total">   31.53   31.61</time>
   <energy>
    <i name="e_fr_energy">   -190.77058336 </i>
    <i name="e_wo_entrp">   -190.56291344 </i>
    <i name="e_0_energy">   -190.66674840 </i>
   </energy>
  </scstep>
  <scstep>
   <time name="dav">   30.51   30.59</time>
   <time name="total">   31.11   31.20</time>
   <energy>
    <i name="e_fr_energy">   -190.76150376 </i>
    <i name="e_wo_entrp">   -190.55480006 </i>
    <i name="e_0_energy">   -190.65815191 </i>
   </energy>
  </scstep>
  <scstep>
   <time name="dav">   30.52   30.59</time>
   <time name="total">   31.12   31.21</time>
   <energy>
    <i name="e_fr_energy">   -190.76194727 </i>
    <i name="e_wo_entrp">   -190.55515671 </i>
    <i name="e_0_energy">   -190.65855199 </i>
   </energy>
  </scstep>
  <scstep>
   <time name="dav">   30.88   30.96</time>
   <time name="total">   31.49   31.57</time>
   <energy>
    <i name="e_fr_energy">   -190.76204708 </i>
    <i name="e_wo_entrp">   -190.55532774 </i>
    <i name="e_0_energy">   -190.65868741 </i>
   </energy>
  </scstep>
  <scstep>
   <time name="dav">   27.34   27.40</time>
   <time name="total">   27.94   28.02</time>
   <energy>
    <i name="e_fr_energy">   -190.76161214 </i>
    <i name="e_wo_entrp">   -190.55483269 </i>
    <i name="e_0_energy">   -190.65822242 </i>
   </energy>
  </scstep>
  <scstep>
   <time name="dav">   18.90   18.95</time>
   <time name="total">   18.94   18.99</time>
   <energy>
    <i name="alphaZ">     85.81968666 </i>
    <i name="ewald">  42834.27089164 </i>
    <i name="hartreedc"> -48822.00293095 </i>
    <i name="XCdc">   -234.28604468 </i>
    <i name="pawpsdc">   4064.28305309 </i>
    <i name="pawaedc">  -3480.17354476 </i>
    <i name="eentropy">     -0.20688799 </i>
    <i name="bandstr">  -1399.90836009 </i>
    <i name="atom">   6761.44252427 </i>
    <i name="e_fr_energy">   -190.76161280 </i>
    <i name="e_wo_entrp">   -190.55472482 </i>
    <i name="e_0_energy">   -190.65816881 </i>
   </energy>
  </scstep>
  <structure>
   <crystal>
    <varray name="basis" >
     <v>       8.48606716       4.89665072       0.00000000 </v>
     <v>      -8.48846354       4.90076025       0.00000000 </v>
     <v>       0.00000000       0.00000000      30.00000000 </v>
    </varray>
    <i name="volume">   2494.59665118 </i>
    <varray name="rec_basis" >
     <v>       0.05893650       0.10208220       0.00000000 </v>
     <v>      -0.05888708       0.10205338       0.00000000 </v>
     <v>       0.00000000       0.00000000       0.03333333 </v>
    </varray>
   </crystal>
   <varray name="positions" >
    <v>       0.00267560       0.67105683       0.00025284 </v>
    <v>       1.00267742       0.33155425       0.00027167 </v>
    <v>       0.33320260       0.66659782      -0.00015949 </v>
    <v>       0.33161794       0.00704668      -0.00017589 </v>
    <v>       0.00671682       0.00329297       0.00010652 </v>
    <v>       0.33170995       0.32468436      -0.00017036 </v>
    <v>       0.66666472      -0.00074716      -0.00007501 </v>
    <v>       0.65847556       0.32924747       0.00011192 </v>
    <v>       0.66660581       0.66729793      -0.00007346 </v>
    <v>       0.10824112       0.22533887       0.95009226 </v>
    <v>       0.22198183       0.11092904       0.05188530 </v>
    <v>       0.11099088       0.55555275       0.95330852 </v>
    <v>       0.21944085       0.44695916       0.04790663 </v>
    <v>       0.10828615       0.88299572       0.95005862 </v>
    <v>       0.21951878       0.77231818       0.04787736 </v>
    <v>       0.44536638       0.22271188       0.94802851 </v>
    <v>       0.55638689       0.11121708       0.05083446 </v>
    <v>       0.44240568       0.55858951       0.95096216 </v>
    <v>       0.55640841       0.44507580       0.05084908 </v>
    <v>       0.44248011       0.88392386       0.95094826 </v>
    <v>       0.55093515       0.77540503       0.04963327 </v>
    <v>       0.78218293       0.22469254       0.95088258 </v>
    <v>       0.89054822       0.11594776       0.04948331 </v>
    <v>       0.78217190       0.55742549       0.95087618 </v>
    <v>       0.89290400       0.44629076       0.04719952 </v>
    <v>       0.77698264       0.88845430       0.94962519 </v>
    <v>       0.89063610       0.77435556       0.04945994 </v>
   </varray>
  </structure>
  <varray name="forces" >
   <v>      -0.16513207       0.21481532       0.06026712 </v>
   <v>       0.26896577      -0.03919333       0.06155773 </v>
   <v>       0.07371495       0.12455178      -0.00658751 </v>
   <v>      -0.62454828       0.40778119       0.02255324 </v>
   <v>       0.17102700       0.29902489      -0.03972635 </v>
   <v>       0.66823573      -0.33863144       0.02788181 </v>
   <v>       0.15340911      -0.06542768      -0.06054413 </v>
   <v>      -0.34616711      -0.60113158       0.03017238 </v>
   <v>      -0.13176286       0.09484861      -0.05958149 </v>
   <v>       0.01701468       0.03626473      -0.46184511 </v>
   <v>      -0.00966744      -0.00957497       0.70055048 </v>
   <v>       0.00971505      -0.00290785      -0.25356711 </v>
   <v>       0.06396096      -0.00598137       0.22515643 </v>
   <v>       0.03003096       0.02443970      -0.45657282 </v>
   <v>      -0.05069939       0.05443101       0.23108076 </v>
   <v>      -0.01942487      -0.03737299      -0.79272291 </v>
   <v>      -0.01869232      -0.07398175       0.35464457 </v>
   <v>       0.01878691      -0.09746301      -0.21277034 </v>
   <v>      -0.05639330      -0.05145795       0.35774260 </v>
   <v>      -0.08986130      -0.04129127      -0.20377397 </v>
   <v>      -0.03044991      -0.05135659       0.37553951 </v>
   <v>      -0.03235229       0.04768128      -0.17271840 </v>
   <v>       0.02487873       0.03369470       0.34649950 </v>
   <v>       0.05700842      -0.00439242      -0.17437278 </v>
   <v>      -0.03702396      -0.04417008       0.01961469 </v>
   <v>       0.05138838       0.08779175      -0.26976194 </v>
   <v>       0.00403844       0.03900933       0.35128403 </v>
  </varray>
  <varray name="stress" >
   <v>      -5.65190561      -0.12541526      -0.14555726 </v>
   <v>      -0.12541525      -5.82602069      -0.11939584 </v>
   <v>      -0.14555726      -0.11939556       4.53034631 </v>
  </varray>
  <energy>
   <i name="e_fr_energy">   -190.76161280 </i>
   <i name="e_wo_entrp">   -190.65816881 </i>
   <i name="e_0_energy">     -0.20688799 </i>
  </energy>
  <time name="totalsc">  400.00  401.06</time>
 </calculation>
 <calculation>
  <scstep>
   <time name="dav">   22.80   22.85</time>
   <time name="total">   23.40   23.45</time>
   <energy>
    <i name="alphaZ">     90.10435429 </i>
    <i name="ewald">  44642.21009262 </i>
    <i name="hartreedc"> -50684.08881299 </i>
    <i name="XCdc">   -231.85495256 </i>
    <i name="pawpsdc">   4064.24745536 </i>
    <i name="pawaedc">  -3480.13417362 </i>
    <i name="eentropy">     -0.19531962 </i>
    <i name="bandstr">  -1353.84255082 </i>
    <i name="atom">   6761.44252427 </i>
    <i name="e_fr_energy">   -192.11138309 </i>
    <i name="e_wo_entrp">   -191.91606347 </i>
    <i name="e_0_energy">   -192.01372328 </i>
   </energy>
  </scstep>
  <scstep>
   <time name="dav">   29.54   29.61</time>
   <time name="total">   30.13   30.21</time>
   <energy>
    <i name="e_fr_energy">   -191.84024834 </i>
    <i name="e_wo_entrp">   -191.64350954 </i>
    <i name="e_0_energy">   -191.74187894 </i>
   </energy>
  </scstep>
  <scstep>
   <time name="dav">   31.13   31.20</time>
   <time name="total">   31.72   31.81</time>
   <energy>
    <i name="e_fr_energy">   -191.96922359 </i>
    <i name="e_wo_entrp">   -191.75774683 </i>
    <i name="e_0_energy">   -191.86348521 </i>
   </energy>
  </scstep>
  <scstep>
   <time name="dav">   29.21   29.28</time>
   <time name="total">   29.81   29.89</time>
   <energy>
    <i name="e_fr_energy">   -191.77326124 </i>
    <i name="e_wo_entrp">   -191.57370248 </i>
    <i name="e_0_energy">   -191.67348186 </i>
   </energy>
  </scstep>
  <scstep>
   <time name="dav">   31.97   32.04</time>
   <time name="total">   32.56   32.64</time>
   <energy>
    <i name="e_fr_energy">   -191.57766974 </i>
    <i name="e_wo_entrp">   -191.39154737 </i>
    <i name="e_0_energy">   -191.48460856 </i>
   </energy>
  </scstep>
  <scstep>
   <time name="dav">   32.04   32.12</time>
   <time name="total">   32.63   32.72</time>
   <energy>
    <i name="e_fr_energy">   -191.44030175 </i>
    <i name="e_wo_entrp">   -191.23699748 </i>
    <i name="e_0_energy">   -191.33864962 </i>
   </energy>
  </scstep>
  <scstep>
   <time name="dav">   31.68   31.76</time>
   <time name="total">   32.27   32.36</time>
   <energy>
    <i name="e_fr_energy">   -191.42368581 </i>
    <i name="e_wo_entrp">   -191.22102052 </i>
    <i name="e_0_energy">   -191.32235316 </i>
   </energy>
  </scstep>
  <scstep>
   <time name="dav">   28.25   28.31</time>
   <time name="total">   28.84   28.92</time>
   <energy>
    <i name="e_fr_energy">   -191.41907263 </i>
    <i name="e_wo_entrp">   -191.21678768 </i>
    <i name="e_0_energy">   -191.31793016 </i>
   </energy>
  </scstep>
  <scstep>
   <time name="dav">   32.60   32.68</time>
   <time name="total">   33.19   33.28</time>
   <energy>
    <i name="e_fr_energy">   -191.42109989 </i>
    <i name="e_wo_entrp">   -191.21860991 </i>
    <i name="e_0_energy">   -191.31985490 </i>
   </energy>
  </scstep>
  <scstep>
   <time name="dav">   30.19   30.26</time>
   <time name="total">   30.78   30.87</time>
   <energy>
    <i name="e_fr_energy">   -191.41928922 </i>
    <i name="e_wo_entrp">   -191.21661688 </i>
    <i name="e_0_energy">   -191.31795305 </i>
   </energy>
  </scstep>
  <scstep>
   <time name="dav">   27.96   28.02</time>
   <time name="total">   28.55   28.63</time>
   <energy>
    <i name="e_fr_energy">   -191.41910518 </i>
    <i name="e_wo_entrp">   -191.21616370 </i>
    <i name="e_0_energy">   -191.31763444 </i>
   </energy>
  </scstep>
  <scstep>
   <time name="dav">   20.15   20.20</time>
   <time name="total">   20.18   20.24</time>
   <energy>
    <i name="alphaZ">     90.10435429 </i>
    <i name="ewald">  44642.21009262 </i>
    <i name="hartreedc"> -50651.31491013 </i>
    <i name="XCdc">   -233.34603467 </i>
    <i name="pawpsdc">   4087.69708231 </i>
    <i name="pawaedc">  -3503.71231671 </i>
    <i name="eentropy">     -0.20300710 </i>
    <i name="bandstr">  -1384.29687884 </i>
    <i name="atom">   6761.44252427 </i>
    <i name="e_fr_energy">   -191.41909397 </i>
    <i name="e_wo_entrp">   -191.21608687 </i>
    <i name="e_0_energy">   -191.31759042 </i>
   </energy>
  </scstep>
  <structure>
   <crystal>
    <varray name="basis" >
     <v>       8.28226994       4.77113099       0.00000000 </v>
     <v>      -8.29105047       4.78629757       0.00000000 </v>
     <v>       0.00000000       0.00000000      30.00000000 </v>
    </varray>
    <i name="volume">   2375.97288862 </i>
    <varray name="rec_basis" >
     <v>       0.06043374       0.10468618       0.00000000 </v>
     <v>      -0.06024224       0.10457531       0.00000000 </v>
     <v>       0.00000000       0.00000000       0.03333333 </v>
    </varray>
   </crystal>
   <varray name="positions" >
    <v>       0.00397394       0.67481535       0.00050670 </v>
    <v>       1.00393282       0.32905213       0.00053117 </v>
    <v>       0.33537863       0.66766334      -0.00019844 </v>
    <v>       0.33228709       0.01652018      -0.00008049 </v>
    <v>       0.01153907       0.00571802      -0.00004847 </v>
    <v>       0.33237648       0.31583606      -0.00005892 </v>
    <v>       0.66691402      -0.00258078      -0.00034226 </v>
    <v>       0.64875811       0.32438056       0.00026059 </v>
    <v>       0.66680109       0.66929361      -0.00033678 </v>
    <v>       0.10851458       0.22585455       0.94770738 </v>
    <v>       0.22184599       0.11089564       0.05527539 </v>
    <v>       0.11100618       0.55543153       0.95191076 </v>
    <v>       0.21961401       0.44668784       0.04925239 </v>
    <v>       0.10849128       0.88259541       0.94769427 </v>
    <v>       0.21961348       0.77288056       0.04925141 </v>
    <v>       0.44458678       0.22231147       0.94428498 </v>
    <v>       0.55521276       0.11036857       0.05285115 </v>
    <v>       0.44100349       0.55744029       0.94959614 </v>
    <v>       0.55525161       0.44476271       0.05287887 </v>
    <v>       0.44098282       0.88353437       0.94962130 </v>
    <v>       0.54953385       0.77469598       0.05167466 </v>
    <v>       0.78311627       0.22579567       0.94964716 </v>
    <v>       0.89155208       0.11669607       0.05138522 </v>
    <v>       0.78309296       0.55728978       0.94963282 </v>
    <v>       0.89277516       0.44635042       0.04772988 </v>
    <v>       0.77851742       0.88922860       0.94798648 </v>
    <v>       0.89154250       0.77469653       0.05138655 </v>
   </varray>
  </structure>
  <varray name="forces" >
   <v>      -0.10198224       0.22812204      -0.00859516 </v>
   <v>       0.24791059       0.02541654      -0.01604095 </v>
   <v>       0.04852811       0.08165919      -0.02234138 </v>
   <v>      -0.06808128       0.05064440       0.02077344 </v>
   <v>      -0.02358397      -0.03746062       0.03121797 </v>
   <v>       0.08350199      -0.03031011       0.01171850 </v>
   <v>       0.28003888      -0.07875442      -0.00234518 </v>
   <v>      -0.18522262      -0.31418533      -0.08728723 </v>
   <v>      -0.20724910       0.19947294      -0.00393855 </v>
   <v>       0.14700559       0.07967911      -0.08260035 </v>
   <v>      -0.02826189      -0.04988680       0.24547169 </v>
   <v>       0.00078232       0.00571546      -0.00209892 </v>
   <v>       0.25707485       0.01490163      -0.01481710 </v>
   <v>      -0.00445287       0.16707537      -0.08616550 </v>
   <v>      -0.11589835       0.23006320      -0.02065563 </v>
   <v>      -0.02398843      -0.04216519      -0.35472034 </v>
   <v>      -0.03062926      -0.12603708       0.04308175 </v>
   <v>       0.13999817      -0.17057981       0.09080884 </v>
   <v>      -0.09464606      -0.08911918       0.04509118 </v>
   <v>      -0.21635144       0.03761165       0.08727704 </v>
   <v>       0.01046356       0.02257733       0.12957892 </v>
   <v>      -0.09112366      -0.03366868       0.10192092 </v>
   <v>       0.09109153      -0.05512311       0.06702347 </v>
   <v>       0.01994502      -0.09628760       0.10242951 </v>
   <v>      -0.12522381      -0.21594050      -0.20057623 </v>
   <v>       0.08500083       0.14268447      -0.13351347 </v>
   <v>      -0.09464647       0.05389510       0.05930275 </v>
  </varray>
  <varray name="stress" >
   <v>       0.46901563      -0.27522909      -0.19921416 </v>
   <v>      -0.27522905       0.19824579      -0.32496373 </v>
   <v>      -0.19921391      -0.32496363      -0.41871583 </v>
  </varray>
  <energy>
   <i name="e_fr_energy">   -191.41909397 </i>
   <i name="e_wo_entrp">   -191.31759042 </i>
   <i name="e_0_energy">     -0.20300710 </i>
  </energy>
  <time name="totalsc">  397.92  398.98</time>
 </calculation>
 <calculation>
  <scstep>
   <time name="dav">   22.74   22.80</time>
   <time name="total">   23.34   23.40</time>
   <energy>
    <i name="alphaZ">     89.87545214 </i>
    <i name="ewald">  44520.03276699 </i>
    <i name="hartreedc"> -50527.56259703 </i>
    <i name="XCdc">   -233.58096075 </i>
    <i name="pawpsdc">   4087.48515816 </i>
    <i name="pawaedc">  -3503.49332603 </i>
    <i name="eentropy">     -0.20556223 </i>
    <i name="bandstr">  -1385.45367398 </i>
    <i name="atom">   6761.44252427 </i>
    <i name="e_fr_energy">   -191.46021844 </i>
    <i name="e_wo_entrp">   -191.25465621 </i>
    <i name="e_0_energy">   -191.35743733 </i>
   </energy>
  </scstep>
  <scstep>
   <time name="dav">   33.89   33.97</time>
   <time name="total">   34.48   34.57</time>
   <energy>
    <i name="e_fr_energy">   -191.49598583 </i>
    <i name="e_wo_entrp">   -191.28230955 </i>
    <i name="e_0_energy">   -191.38914769 </i>
   </energy>
  </scstep>
  <scstep>
   <time name="dav">   32.21   32.29</time>
   <time name="total">   32.81   32.90</time>
   <energy>
    <i name="e_fr_energy">   -191.46879983 </i>
    <i name="e_wo_entrp">   -191.26314162 </i>
    <i name="e_0_energy">   -191.36597073 </i>
   </energy>
  </scstep>
  <scstep>
   <time name="dav">   30.23   30.30</time>
   <time name="total">   30.82   30.90</time>
   <energy>
    <i name="e_fr_energy">   -191.47006888 </i>
    <i name="e_wo_entrp">   -191.26416394 </i>
    <i name="e_0_energy">   -191.36711641 </i>
   </energy>
  </scstep>
  <scstep>
   <time name="dav">   27.61   27.67</time>
   <time name="total">   28.20   28.28</time>
   <energy>
    <i name="e_fr_energy">   -191.46687196 </i>
    <i name="e_wo_entrp">   -191.25947401 </i>
    <i name="e_0_energy">   -191.36317298 </i>
   </energy>
  </scstep>
  <scstep>
   <time name="dav">   29.32   29.39</time>
   <time name="total">   29.91   29.99</time>
   <energy>
    <i name="e_fr_energy">   -191.46643088 </i>
    <i name="e_wo_entrp">   -191.26001230 </i>
    <i name="e_0_energy">   -191.36322159 </i>
   </energy>
  </scstep>
  <scstep>
   <time name="dav">   25.46   25.52</time>
   <time name="total">   26.06   26.13</time>
   <energy>
    <i name="e_fr_energy">   -191.46628235 </i>
    <i name="e_wo_entrp">   -191.25982260 </i>
    <i name="e_0_energy">   -191.36305248 </i>
   </energy>
  </scstep>
  <scstep>
   <time name="dav">   19.95   20.00</time>
   <time name="total">   19.99   20.05</time>
   <energy>
    <i name="alphaZ">     89.87545214 </i>
    <i name="ewald">  44520.03276699 </i>
    <i name="hartreedc"> -50530.20904100 </i>
    <i name="XCdc">   -233.48816969 </i>
    <i name="pawpsdc">   4082.47938113 </i>
    <i name="pawaedc">  -3498.42388218 </i>
    <i name="eentropy">     -0.20651336 </i>
    <i name="bandstr">  -1382.96878624 </i>
    <i name="atom">   6761.44252427 </i>
    <i name="e_fr_energy">   -191.46626793 </i>
    <i name="e_wo_entrp">   -191.25975457 </i>
    <i name="e_0_energy">   -191.36301125 </i>
   </energy>
  </scstep>
  <structure>
   <crystal>
    <varray name="basis" >
     <v>       8.29232650       4.77004766       0.00000000 </v>
     <v>      -8.30756435       4.79640173       0.00000000 </v>
     <v>       0.00000000       0.00000000      30.00000000 </v>
    </varray>
    <i name="volume">   2382.02421053 </i>
    <varray name="rec_basis" >
     <v>       0.06040747       0.10462821       0.00000000 </v>
     <v>      -0.06007556       0.10443630       0.00000000 </v>
     <v>       0.00000000       0.00000000       0.03333333 </v>
    </varray>
   </crystal>
   <varray name="positions" >
    <v>       0.00474665       0.67606967       0.00048537 </v>
    <v>       1.00470347       0.32857195       0.00049831 </v>
    <v>       0.33583251       0.66788537      -0.00023100 </v>
    <v>       0.33231847       0.01665128      -0.00005194 </v>
    <v>       0.01114449       0.00552844       0.00000388 </v>
    <v>       0.33243934       0.31573825      -0.00004456 </v>
    <v>       0.66730368      -0.00367203      -0.00033692 </v>
    <v>       0.64704562       0.32354029       0.00012233 </v>
    <v>       0.66717773       0.67075737      -0.00033400 </v>
    <v>       0.10929956       0.22581041       0.94766764 </v>
    <v>       0.22153239       0.11073570       0.05553072 </v>
    <v>       0.11103558       0.55546085       0.95195948 </v>
    <v>       0.22039443       0.44605429       0.04917822 </v>
    <v>       0.10927855       0.88342919       0.94764846 </v>
    <v>       0.22039579       0.77429164       0.04916737 </v>
    <v>       0.44434707       0.22219021       0.94387393 </v>
    <v>       0.55456467       0.10987859       0.05284094 </v>
    <v>       0.44062511       0.55627162       0.94978820 </v>
    <v>       0.55460263       0.44460886       0.05287130 </v>
    <v>       0.44061958       0.88433312       0.94980669 </v>
    <v>       0.54972648       0.77480355       0.05179672 </v>
    <v>       0.78266195       0.22584494       0.94985268 </v>
    <v>       0.89149970       0.11614745       0.05141683 </v>
    <v>       0.78264634       0.55677205       0.94983940 </v>
    <v>       0.89138567       0.44565396       0.04739810 </v>
    <v>       0.77938490       0.88965102       0.94784622 </v>
    <v>       0.89150209       0.77520640       0.05140550 </v>
   </varray>
  </structure>
  <varray name="forces" >
   <v>      -0.08054347       0.26181499       0.00378049 </v>
   <v>       0.26677758       0.06104783       0.00375207 </v>
   <v>       0.03071945       0.05192041      -0.04342666 </v>
   <v>      -0.23173515       0.10646977       0.01922966 </v>
   <v>      -0.02065845      -0.03340571       0.03733840 </v>
   <v>       0.21012925      -0.14469995       0.02341921 </v>
   <v>       0.31175971      -0.06480881      -0.00869109 </v>
   <v>      -0.20762151      -0.35317908       0.00458317 </v>
   <v>      -0.20968523       0.23157542      -0.00924286 </v>
   <v>       0.08212911       0.02763612      -0.07368416 </v>
   <v>      -0.01787428      -0.02711251       0.11568333 </v>
   <v>       0.00422286       0.00879317       0.04276815 </v>
   <v>       0.14229187       0.01613094      -0.00905416 </v>
   <v>      -0.01632833       0.08456019      -0.07243494 </v>
   <v>      -0.05787128       0.13215208      -0.00871956 </v>
   <v>      -0.03815326      -0.07168384      -0.22468763 </v>
   <v>       0.00307752      -0.06091029      -0.02620092 </v>
   <v>       0.07390278      -0.08224122       0.08805647 </v>
   <v>      -0.05659310      -0.02782202      -0.02446918 </v>
   <v>      -0.10603246       0.02383960       0.08886402 </v>
   <v>       0.00659455       0.01461521       0.11918616 </v>
   <v>      -0.04402130      -0.04012203       0.11667794 </v>
   <v>       0.04805509      -0.02871485       0.05821726 </v>
   <v>      -0.00939249      -0.05839433       0.11655389 </v>
   <v>      -0.07827883      -0.13383226      -0.24584779 </v>
   <v>       0.04680071       0.07719325      -0.14733418 </v>
   <v>      -0.05167136       0.02917793       0.05568291 </v>
  </varray>
  <varray name="stress" >
   <v>      -0.37202455       0.04130342      -0.05382104 </v>
   <v>       0.04130343      -0.33246543      -0.05023544 </v>
   <v>      -0.05382094      -0.05023525      -1.15726593 </v>
  </varray>
  <energy>
   <i name="e_fr_energy">   -191.46626793 </i>
   <i name="e_wo_entrp">   -191.36301125 </i>
   <i name="e_0_energy">     -0.20651336 </i>
  </energy>
  <time name="totalsc">  269.20  269.91</time>
 </calculation>
 <calculation>
  <scstep>
   <time name="dav">   22.80   22.86</time>
   <time name="total">   23.40   23.46</time>
   <energy>
    <i name="alphaZ">     90.13375782 </i>
    <i name="ewald">  44632.42666880 </i>
    <i name="hartreedc"> -50645.53954372 </i>
    <i name="XCdc">   -233.33219361 </i>
    <i name="pawpsdc">   4082.22603077 </i>
    <i name="pawaedc">  -3498.16765086 </i>
    <i name="eentropy">     -0.20807448 </i>
    <i name="bandstr">  -1380.50070031 </i>
    <i name="atom">   6761.44252427 </i>
    <i name="e_fr_energy">   -191.51918131 </i>
    <i name="e_wo_entrp">   -191.31110683 </i>
    <i name="e_0_energy">   -191.41514407 </i>
   </energy>
  </scstep>
  <scstep>
   <time name="dav">   34.43   34.52</time>
   <time name="total">   35.03   35.12</time>
   <energy>
    <i name="e_fr_energy">   -191.54084099 </i>
    <i name="e_wo_entrp">   -191.32477613 </i>
    <i name="e_0_energy">   -191.43280856 </i>
   </energy>
  </scstep>
  <scstep>
   <time name="dav">   31.68   31.76</time>
   <time name="total">   32.28   32.36</time>
   <energy>
    <i name="e_fr_energy">   -191.52908969 </i>
    <i name="e_wo_entrp">   -191.32218993 </i>
    <i name="e_0_energy">   -191.42563981 </i>
   </energy>
  </scstep>
  <scstep>
   <time name="dav">   30.51   30.59</time>
   <time name="total">   31.11   31.19</time>
   <energy>
    <i name="e_fr_energy">   -191.52665986 </i>
    <i name="e_wo_entrp">   -191.31866466 </i>
    <i name="e_0_energy">   -191.42266226 </i>
   </energy>
  </scstep>
  <scstep>
   <time name="dav">   28.36   28.43</time>
   <time name="total">   28.96   29.04</time>
   <energy>
    <i name="e_fr_energy">   -191.52415143 </i>
    <i name="e_wo_entrp">   -191.31396228 </i>
    <i name="e_0_energy">   -191.41905685 </i>
   </energy>
  </scstep>
  <scstep>
   <time name="dav">   27.40   27.46</time>
   <time name="total">   27.99   28.07</time>
   <energy>
    <i name="e_fr_energy">   -191.52311558 </i>
    <i name="e_wo_entrp">   -191.31392830 </i>
    <i name="e_0_energy">   -191.41852194 </i>
   </energy>
  </scstep>
  <scstep>
   <time name="dav">   30.96   31.04</time>
   <time name="total">   31.56   31.64</time>
   <energy>
    <i name="e_fr_energy">   -191.52300209 </i>
    <i name="e_wo_entrp">   -191.31328723 </i>
    <i name="e_0_energy">   -191.41814466 </i>
   </energy>
  </scstep>
  <scstep>
   <time name="dav">   23.78   23.83</time>
   <time name="total">   24.37   24.44</time>
   <energy>
    <i name="e_fr_energy">   -191.52286033 </i>
    <i name="e_wo_entrp">   -191.31317501 </i>
    <i name="e_0_energy">   -191.41801767 </i>
   </energy>
  </scstep>
  <scstep>
   <time name="dav">   18.21   18.25</time>
   <time name="total">   18.25   18.30</time>
   <energy>
    <i name="alphaZ">     90.13375782 </i>
    <i name="ewald">  44632.42666880 </i>
    <i name="hartreedc"> -50643.99685365 </i>
    <i name="XCdc">   -233.39881775 </i>
    <i name="pawpsdc">   4084.97358826 </i>
    <i name="pawaedc">  -3500.95130992 </i>
    <i name="eentropy">     -0.20954689 </i>
    <i name="bandstr">  -1381.94280853 </i>
    <i name="atom">   6761.44252427 </i>
    <i name="e_fr_energy">   -191.52279758 </i>
    <i name="e_wo_entrp">   -191.31325069 </i>
    <i name="e_0_energy">   -191.41802413 </i>
   </energy>
  </scstep>
  <structure>
   <crystal>
    <varray name="basis" >
     <v>       8.28050098       4.76370885       0.00000000 </v>
     <v>      -8.29524988       4.78921562       0.00000000 </v>
     <v>       0.00000000       0.00000000      30.00000000 </v>
    </varray>
    <i name="volume">   2375.19779614 </i>
    <varray name="rec_basis" >
     <v>       0.06049032       0.10477338       0.00000000 </v>
     <v>      -0.06016815       0.10458709       0.00000000 </v>
     <v>       0.00000000       0.00000000       0.03333333 </v>
    </varray>
   </crystal>
   <varray name="positions" >
    <v>       0.00597532       0.67791447       0.00050059 </v>
    <v>       1.00592902       0.32795454       0.00051295 </v>
    <v>       0.33631693       0.66812291      -0.00030770 </v>
    <v>       0.33220553       0.01829042      -0.00001400 </v>
    <v>       0.01106793       0.00549734       0.00006385 </v>
    <v>       0.33234902       0.31399272      -0.00000004 </v>
    <v>       0.66794342      -0.00509469      -0.00036225 </v>
    <v>       0.64406930       0.32206974       0.00012751 </v>
    <v>       0.66778992       0.67277638      -0.00036026 </v>
    <v>       0.10974845       0.22572990       0.94743412 </v>
    <v>       0.22131112       0.11063604       0.05588938 </v>
    <v>       0.11109667       0.55549097       0.95196944 </v>
    <v>       0.22096342       0.44566409       0.04922263 </v>
    <v>       0.10972492       0.88394814       0.94741742 </v>
    <v>       0.22096404       0.77526178       0.04921292 </v>
[...]
      <set comment="kpoint 31">
       <r>  -17.4803    1.0000 </r>
       <r>  -17.2839    1.0000 </r>
       <r>  -16.8994    1.0000 </r>
       <r>  -16.5497    1.0000 </r>
       <r>  -16.4748    1.0000 </r>
       <r>  -16.4461    1.0000 </r>
       <r>  -16.2398    1.0000 </r>
       <r>  -16.1712    1.0000 </r>
       <r>  -16.1217    1.0000 </r>
       <r>  -16.0518    1.0000 </r>
       <r>  -15.9881    1.0000 </r>
       <r>  -15.8868    1.0000 </r>
       <r>  -15.7384    1.0000 </r>
       <r>  -15.6982    1.0000 </r>
       <r>  -15.6316    1.0000 </r>
       <r>  -15.5339    1.0000 </r>
       <r>  -15.4035    1.0000 </r>
       <r>  -15.3729    1.0000 </r>
       <r>   -9.7278    1.0000 </r>
       <r>   -9.3820    1.0000 </r>
       <r>   -9.3363    1.0000 </r>
       <r>   -8.9353    1.0000 </r>
       <r>   -8.8128    1.0000 </r>
       <r>   -8.7583    1.0000 </r>
       <r>   -8.5717    1.0000 </r>
       <r>   -8.4971    1.0000 </r>
       <r>   -8.4097    1.0000 </r>
       <r>   -8.3557    1.0000 </r>
       <r>   -8.2740    1.0000 </r>
       <r>   -8.1927    1.0000 </r>
       <r>   -8.1025    1.0000 </r>
       <r>   -8.0702    1.0000 </r>
       <r>   -7.9894    1.0000 </r>
       <r>   -7.9111    1.0000 </r>
       <r>   -7.7865    1.0000 </r>
       <r>   -7.6846    1.0000 </r>
       <r>   -7.5521    1.0000 </r>
       <r>   -7.4348    1.0000 </r>
       <r>   -7.3160    1.0000 </r>
       <r>   -7.1820    1.0000 </r>
       <r>   -7.1561    1.0000 </r>
       <r>   -7.0680    1.0000 </r>
       <r>   -7.0166    1.0000 </r>
       <r>   -6.9405    1.0000 </r>
       <r>   -6.8741    1.0000 </r>
       <r>   -6.8082    1.0000 </r>
       <r>   -6.7288    1.0000 </r>
       <r>   -6.6223    1.0000 </r>
       <r>   -6.5334    1.0000 </r>
       <r>   -6.5235    1.0000 </r>
       <r>   -6.4404    1.0000 </r>
       <r>   -6.3409    1.0000 </r>
       <r>   -6.2678    1.0000 </r>
       <r>   -6.1525    1.0000 </r>
       <r>   -6.1026    1.0000 </r>
       <r>   -6.0620    1.0000 </r>
       <r>   -5.9906    1.0000 </r>
       <r>   -5.9238    1.0000 </r>
       <r>   -5.8679    1.0000 </r>
       <r>   -5.7756    1.0000 </r>
       <r>   -5.7018    1.0000 </r>
       <r>   -5.6457    1.0000 </r>
       <r>   -5.5051    1.0000 </r>
       <r>   -5.4747    1.0000 </r>
       <r>   -5.3596    1.0000 </r>
       <r>   -5.1840    1.0000 </r>
       <r>   -5.0877    1.0000 </r>
       <r>   -4.9054    1.0000 </r>
       <r>   -4.8504    1.0000 </r>
       <r>   -4.6896    1.0000 </r>
       <r>   -4.5318    1.0000 </r>
       <r>   -4.4409    1.0000 </r>
       <r>   -4.2871    1.0000 </r>
       <r>   -4.2262    1.0000 </r>
       <r>   -4.1106    1.0000 </r>
       <r>   -3.9667    1.0000 </r>
       <r>   -3.7610    0.9986 </r>
       <r>   -3.6622    0.9888 </r>
       <r>   -3.6007    0.9677 </r>
       <r>   -3.3085    0.4135 </r>
       <r>   -3.0052    0.0091 </r>
       <r>   -2.9444    0.0026 </r>
       <r>   -2.7603    0.0000 </r>
       <r>   -2.6018    0.0000 </r>
       <r>   -2.5241    0.0000 </r>
       <r>   -2.3233    0.0000 </r>
       <r>   -2.2826    0.0000 </r>
       <r>   -2.1874    0.0000 </r>
       <r>   -2.1377    0.0000 </r>
       <r>   -1.9716    0.0000 </r>
       <r>   -1.8941    0.0000 </r>
       <r>   -1.5286    0.0000 </r>
       <r>   -1.4614    0.0000 </r>
       <r>   -1.3871    0.0000 </r>
       <r>   -1.2692    0.0000 </r>
       <r>   -1.1851    0.0000 </r>
       <r>   -1.1030    0.0000 </r>
       <r>   -1.0477    0.0000 </r>
       <r>   -0.9757    0.0000 </r>
       <r>   -0.9017    0.0000 </r>
       <r>   -0.8345    0.0000 </r>
       <r>   -0.7755    0.0000 </r>
       <r>   -0.6387    0.0000 </r>
       <r>   -0.5227    0.0000 </r>
       <r>   -0.4373    0.0000 </r>
       <r>   -0.3721    0.0000 </r>
       <r>   -0.2440    0.0000 </r>
       <r>   -0.1564    0.0000 </r>
       <r>    0.0147    0.0000 </r>
       <r>    0.2638    0.0000 </r>
       <r>    0.4094    0.0000 </r>
       <r>    0.5346    0.0000 </r>
       <r>    0.7676    0.0000 </r>
       <r>    0.8289    0.0000 </r>
       <r>    1.0937    0.0000 </r>
       <r>    1.1893    0.0000 </r>
       <r>    1.3739    0.0000 </r>
       <r>    2.1284    0.0000 </r>
       <r>    2.2867    0.0000 </r>
       <r>    2.3887    0.0000 </r>
      </set>
      <set comment="kpoint 32">
       <r>  -17.4991    1.0000 </r>
       <r>  -17.2075    1.0000 </r>
       <r>  -17.0098    1.0000 </r>
       <r>  -16.5230    1.0000 </r>
       <r>  -16.4672    1.0000 </r>
       <r>  -16.3963    1.0000 </r>
       <r>  -16.2030    1.0000 </r>
       <r>  -16.1732    1.0000 </r>
       <r>  -16.1241    1.0000 </r>
       <r>  -16.0390    1.0000 </r>
       <r>  -16.0217    1.0000 </r>
       <r>  -15.9642    1.0000 </r>
       <r>  -15.7369    1.0000 </r>
       <r>  -15.6987    1.0000 </r>
       <r>  -15.6194    1.0000 </r>
       <r>  -15.5157    1.0000 </r>
       <r>  -15.4007    1.0000 </r>
       <r>  -15.3719    1.0000 </r>
       <r>   -9.6741    1.0000 </r>
       <r>   -9.4810    1.0000 </r>
       <r>   -9.4064    1.0000 </r>
       <r>   -8.9040    1.0000 </r>
       <r>   -8.7199    1.0000 </r>
       <r>   -8.5874    1.0000 </r>
       <r>   -8.5459    1.0000 </r>
       <r>   -8.4755    1.0000 </r>
       <r>   -8.4625    1.0000 </r>
       <r>   -8.3706    1.0000 </r>
       <r>   -8.2825    1.0000 </r>
       <r>   -8.2251    1.0000 </r>
       <r>   -8.1598    1.0000 </r>
       <r>   -8.0974    1.0000 </r>
       <r>   -8.0171    1.0000 </r>
       <r>   -7.9900    1.0000 </r>
       <r>   -7.8291    1.0000 </r>
       <r>   -7.6307    1.0000 </r>
       <r>   -7.4980    1.0000 </r>
       <r>   -7.3741    1.0000 </r>
       <r>   -7.3443    1.0000 </r>
       <r>   -7.2163    1.0000 </r>
       <r>   -7.1694    1.0000 </r>
       <r>   -7.0819    1.0000 </r>
       <r>   -7.0451    1.0000 </r>
       <r>   -6.9365    1.0000 </r>
       <r>   -6.8854    1.0000 </r>
       <r>   -6.7794    1.0000 </r>
       <r>   -6.7322    1.0000 </r>
       <r>   -6.6036    1.0000 </r>
       <r>   -6.5760    1.0000 </r>
       <r>   -6.5160    1.0000 </r>
       <r>   -6.4664    1.0000 </r>
       <r>   -6.3424    1.0000 </r>
       <r>   -6.2588    1.0000 </r>
       <r>   -6.1689    1.0000 </r>
       <r>   -6.1065    1.0000 </r>
       <r>   -6.0252    1.0000 </r>
       <r>   -5.9773    1.0000 </r>
       <r>   -5.8988    1.0000 </r>
       <r>   -5.8175    1.0000 </r>
       <r>   -5.7004    1.0000 </r>
       <r>   -5.6839    1.0000 </r>
       <r>   -5.5889    1.0000 </r>
       <r>   -5.4922    1.0000 </r>
       <r>   -5.4367    1.0000 </r>
       <r>   -5.3889    1.0000 </r>
       <r>   -5.3295    1.0000 </r>
       <r>   -5.0779    1.0000 </r>
       <r>   -4.9594    1.0000 </r>
       <r>   -4.8821    1.0000 </r>
       <r>   -4.7072    1.0000 </r>
       <r>   -4.5208    1.0000 </r>
       <r>   -4.4639    1.0000 </r>
       <r>   -4.2639    1.0000 </r>
       <r>   -4.2444    1.0000 </r>
       <r>   -4.1093    1.0000 </r>
       <r>   -3.9548    1.0000 </r>
       <r>   -3.7462    0.9980 </r>
       <r>   -3.6296    0.9799 </r>
       <r>   -3.6170    0.9752 </r>
       <r>   -3.2872    0.3560 </r>
       <r>   -2.9982    0.0079 </r>
       <r>   -2.9551    0.0033 </r>
       <r>   -2.7541    0.0000 </r>
       <r>   -2.6244    0.0000 </r>
       <r>   -2.4867    0.0000 </r>
       <r>   -2.3274    0.0000 </r>
       <r>   -2.3174    0.0000 </r>
       <r>   -2.1928    0.0000 </r>
       <r>   -2.1410    0.0000 </r>
       <r>   -1.9836    0.0000 </r>
       <r>   -1.8885    0.0000 </r>
       <r>   -1.5254    0.0000 </r>
       <r>   -1.4324    0.0000 </r>
       <r>   -1.3688    0.0000 </r>
       <r>   -1.3209    0.0000 </r>
       <r>   -1.2037    0.0000 </r>
       <r>   -1.0986    0.0000 </r>
       <r>   -1.0153    0.0000 </r>
       <r>   -0.9820    0.0000 </r>
       <r>   -0.8939    0.0000 </r>
       <r>   -0.8194    0.0000 </r>
       <r>   -0.7716    0.0000 </r>
       <r>   -0.6184    0.0000 </r>
       <r>   -0.5814    0.0000 </r>
       <r>   -0.4389    0.0000 </r>
       <r>   -0.3673    0.0000 </r>
       <r>   -0.2239    0.0000 </r>
       <r>   -0.1481    0.0000 </r>
       <r>    0.0732    0.0000 </r>
       <r>    0.2165    0.0000 </r>
       <r>    0.4462    0.0000 </r>
       <r>    0.5282    0.0000 </r>
       <r>    0.7406    0.0000 </r>
       <r>    0.7935    0.0000 </r>
       <r>    1.1043    0.0000 </r>
       <r>    1.1551    0.0000 </r>
       <r>    1.3797    0.0000 </r>
       <r>    2.0968    0.0000 </r>
       <r>    2.2550    0.0000 </r>
       <r>    2.5606    0.0000 </r>
      </set>
      <set comment="kpoint 33">
       <r>  -17.4788    1.0000 </r>
       <r>  -17.2864    1.0000 </r>
       <r>  -16.8981    1.0000 </r>
       <r>  -16.5456    1.0000 </r>
       <r>  -16.4803    1.0000 </r>
       <r>  -16.4471    1.0000 </r>
       <r>  -16.2339    1.0000 </r>
       <r>  -16.1758    1.0000 </r>
       <r>  -16.1191    1.0000 </r>
       <r>  -16.0530    1.0000 </r>
       <r>  -15.9933    1.0000 </r>
       <r>  -15.8841    1.0000 </r>
       <r>  -15.7374    1.0000 </r>
       <r>  -15.6984    1.0000 </r>
       <r>  -15.6296    1.0000 </r>
       <r>  -15.5330    1.0000 </r>
       <r>  -15.3981    1.0000 </r>
       <r>  -15.3800    1.0000 </r>
       <r>   -9.7290    1.0000 </r>
       <r>   -9.3834    1.0000 </r>
       <r>   -9.3370    1.0000 </r>
       <r>   -8.9275    1.0000 </r>
       <r>   -8.8078    1.0000 </r>
       <r>   -8.7589    1.0000 </r>
       <r>   -8.5811    1.0000 </r>
       <r>   -8.4985    1.0000 </r>
       <r>   -8.4082    1.0000 </r>
       <r>   -8.3538    1.0000 </r>
       <r>   -8.2772    1.0000 </r>
       <r>   -8.1902    1.0000 </r>
       <r>   -8.1063    1.0000 </r>
       <r>   -8.0685    1.0000 </r>
       <r>   -7.9854    1.0000 </r>
       <r>   -7.9160    1.0000 </r>
       <r>   -7.7858    1.0000 </r>
       <r>   -7.6817    1.0000 </r>
       <r>   -7.5478    1.0000 </r>
       <r>   -7.4403    1.0000 </r>
       <r>   -7.3287    1.0000 </r>
       <r>   -7.1831    1.0000 </r>
       <r>   -7.1469    1.0000 </r>
       <r>   -7.0660    1.0000 </r>
       <r>   -7.0199    1.0000 </r>
       <r>   -6.9343    1.0000 </r>
       <r>   -6.8722    1.0000 </r>
       <r>   -6.8139    1.0000 </r>
       <r>   -6.7309    1.0000 </r>
       <r>   -6.6258    1.0000 </r>
       <r>   -6.5304    1.0000 </r>
       <r>   -6.5181    1.0000 </r>
       <r>   -6.4414    1.0000 </r>
       <r>   -6.3441    1.0000 </r>
       <r>   -6.2646    1.0000 </r>
       <r>   -6.1482    1.0000 </r>
       <r>   -6.1071    1.0000 </r>
       <r>   -6.0597    1.0000 </r>
       <r>   -5.9858    1.0000 </r>
       <r>   -5.9227    1.0000 </r>
       <r>   -5.8665    1.0000 </r>
       <r>   -5.7756    1.0000 </r>
       <r>   -5.7000    1.0000 </r>
       <r>   -5.6441    1.0000 </r>
       <r>   -5.5129    1.0000 </r>
       <r>   -5.4695    1.0000 </r>
       <r>   -5.3709    1.0000 </r>
       <r>   -5.1849    1.0000 </r>
       <r>   -5.0906    1.0000 </r>
       <r>   -4.9057    1.0000 </r>
       <r>   -4.8490    1.0000 </r>
       <r>   -4.6908    1.0000 </r>
       <r>   -4.5329    1.0000 </r>
       <r>   -4.4460    1.0000 </r>
       <r>   -4.2771    1.0000 </r>
       <r>   -4.2267    1.0000 </r>
       <r>   -4.1018    1.0000 </r>
       <r>   -3.9712    1.0000 </r>
       <r>   -3.7519    0.9982 </r>
       <r>   -3.6623    0.9888 </r>
       <r>   -3.6053    0.9700 </r>
       <r>   -3.3059    0.4064 </r>
       <r>   -3.0029    0.0087 </r>
       <r>   -2.9536    0.0032 </r>
       <r>   -2.7612    0.0000 </r>
       <r>   -2.6065    0.0000 </r>
       <r>   -2.5268    0.0000 </r>
       <r>   -2.3165    0.0000 </r>
       <r>   -2.2934    0.0000 </r>
       <r>   -2.1833    0.0000 </r>
       <r>   -2.1352    0.0000 </r>
       <r>   -1.9667    0.0000 </r>
       <r>   -1.8932    0.0000 </r>
       <r>   -1.5260    0.0000 </r>
       <r>   -1.4591    0.0000 </r>
       <r>   -1.3955    0.0000 </r>
       <r>   -1.2673    0.0000 </r>
       <r>   -1.1902    0.0000 </r>
       <r>   -1.1075    0.0000 </r>
       <r>   -1.0467    0.0000 </r>
       <r>   -0.9729    0.0000 </r>
       <r>   -0.9023    0.0000 </r>
       <r>   -0.8286    0.0000 </r>
       <r>   -0.7746    0.0000 </r>
       <r>   -0.6411    0.0000 </r>
       <r>   -0.5205    0.0000 </r>
       <r>   -0.4337    0.0000 </r>
       <r>   -0.3728    0.0000 </r>
       <r>   -0.2375    0.0000 </r>
       <r>   -0.1612    0.0000 </r>
       <r>    0.0057    0.0000 </r>
       <r>    0.2626    0.0000 </r>
       <r>    0.4094    0.0000 </r>
       <r>    0.5297    0.0000 </r>
       <r>    0.7657    0.0000 </r>
       <r>    0.8346    0.0000 </r>
       <r>    1.0974    0.0000 </r>
       <r>    1.1907    0.0000 </r>
       <r>    1.3736    0.0000 </r>
       <r>    2.1287    0.0000 </r>
       <r>    2.2864    0.0000 </r>
       <r>    2.3890    0.0000 </r>
      </set>
      <set comment="kpoint 34">
       <r>  -17.4439    1.0000 </r>
       <r>  -17.3569    1.0000 </r>
       <r>  -16.7423    1.0000 </r>
       <r>  -16.6695    1.0000 </r>
       <r>  -16.4796    1.0000 </r>
       <r>  -16.4774    1.0000 </r>
       <r>  -16.2399    1.0000 </r>
       <r>  -16.1766    1.0000 </r>
       <r>  -16.1239    1.0000 </r>
       <r>  -16.0586    1.0000 </r>
       <r>  -15.9816    1.0000 </r>
       <r>  -15.7960    1.0000 </r>
       <r>  -15.7358    1.0000 </r>
       <r>  -15.6910    1.0000 </r>
       <r>  -15.6663    1.0000 </r>
       <r>  -15.5500    1.0000 </r>
       <r>  -15.3997    1.0000 </r>
       <r>  -15.3833    1.0000 </r>
       <r>   -9.7636    1.0000 </r>
       <r>   -9.2800    1.0000 </r>
       <r>   -9.2273    1.0000 </r>
       <r>   -9.0132    1.0000 </r>
       <r>   -8.9562    1.0000 </r>
       <r>   -8.8044    1.0000 </r>
       <r>   -8.6149    1.0000 </r>
       <r>   -8.4928    1.0000 </r>
       <r>   -8.4222    1.0000 </r>
       <r>   -8.3380    1.0000 </r>
       <r>   -8.2872    1.0000 </r>
       <r>   -8.1642    1.0000 </r>
       <r>   -8.0468    1.0000 </r>
       <r>   -8.0413    1.0000 </r>
       <r>   -7.9760    1.0000 </r>
       <r>   -7.8304    1.0000 </r>
       <r>   -7.7610    1.0000 </r>
       <r>   -7.6710    1.0000 </r>
       <r>   -7.5767    1.0000 </r>
       <r>   -7.5295    1.0000 </r>
       <r>   -7.2984    1.0000 </r>
       <r>   -7.2062    1.0000 </r>
       <r>   -7.1737    1.0000 </r>
       <r>   -7.0242    1.0000 </r>
       <r>   -7.0027    1.0000 </r>
       <r>   -6.9479    1.0000 </r>
       <r>   -6.8769    1.0000 </r>
       <r>   -6.7573    1.0000 </r>
       <r>   -6.7039    1.0000 </r>
       <r>   -6.6441    1.0000 </r>
       <r>   -6.5149    1.0000 </r>
       <r>   -6.4729    1.0000 </r>
       <r>   -6.4129    1.0000 </r>
       <r>   -6.3683    1.0000 </r>
       <r>   -6.2973    1.0000 </r>
       <r>   -6.2061    1.0000 </r>
       <r>   -6.1805    1.0000 </r>
       <r>   -6.0545    1.0000 </r>
       <r>   -5.9787    1.0000 </r>
       <r>   -5.9636    1.0000 </r>
       <r>   -5.8254    1.0000 </r>
       <r>   -5.7940    1.0000 </r>
       <r>   -5.7551    1.0000 </r>
       <r>   -5.5879    1.0000 </r>
       <r>   -5.5484    1.0000 </r>
       <r>   -5.5032    1.0000 </r>
       <r>   -5.4599    1.0000 </r>
       <r>   -5.0819    1.0000 </r>
       <r>   -5.0115    1.0000 </r>
       <r>   -4.8763    1.0000 </r>
       <r>   -4.8425    1.0000 </r>
       <r>   -4.7240    1.0000 </r>
       <r>   -4.4758    1.0000 </r>
       <r>   -4.4362    1.0000 </r>
       <r>   -4.2974    1.0000 </r>
       <r>   -4.2115    1.0000 </r>
       <r>   -4.1010    1.0000 </r>
       <r>   -3.9906    1.0000 </r>
       <r>   -3.7709    0.9989 </r>
       <r>   -3.6796    0.9919 </r>
       <r>   -3.5978    0.9662 </r>
       <r>   -3.3252    0.4600 </r>
       <r>   -3.0066    0.0093 </r>
       <r>   -2.9525    0.0031 </r>
       <r>   -2.7655    0.0000 </r>
       <r>   -2.5800    0.0000 </r>
       <r>   -2.5671    0.0000 </r>
       <r>   -2.3034    0.0000 </r>
       <r>   -2.2834    0.0000 </r>
       <r>   -2.1717    0.0000 </r>
       <r>   -2.1263    0.0000 </r>
       <r>   -1.9528    0.0000 </r>
       <r>   -1.8990    0.0000 </r>
       <r>   -1.5198    0.0000 </r>
       <r>   -1.4924    0.0000 </r>
       <r>   -1.4000    0.0000 </r>
       <r>   -1.2344    0.0000 </r>
       <r>   -1.1613    0.0000 </r>
       <r>   -1.1298    0.0000 </r>
       <r>   -1.0784    0.0000 </r>
       <r>   -0.9748    0.0000 </r>
       <r>   -0.8915    0.0000 </r>
       <r>   -0.8542    0.0000 </r>
       <r>   -0.7282    0.0000 </r>
       <r>   -0.6890    0.0000 </r>
       <r>   -0.5201    0.0000 </r>
       <r>   -0.3903    0.0000 </r>
       <r>   -0.3635    0.0000 </r>
       <r>   -0.2498    0.0000 </r>
       <r>   -0.1791    0.0000 </r>
       <r>   -0.0548    0.0000 </r>
       <r>    0.3129    0.0000 </r>
       <r>    0.3635    0.0000 </r>
       <r>    0.5300    0.0000 </r>
       <r>    0.7815    0.0000 </r>
       <r>    0.8801    0.0000 </r>
       <r>    1.0963    0.0000 </r>
       <r>    1.2198    0.0000 </r>
       <r>    1.3653    0.0000 </r>
       <r>    2.2147    0.0000 </r>
       <r>    2.2370    0.0000 </r>
       <r>    2.3674    0.0000 </r>
      </set>
     </set>
    </set>
   </array>
  </eigenvalues>
  <separator name="orbital magnetization" >
   <v name="MAGDIPOLOUT">      0.00000000      0.00000000      0.00000000</v>
  </separator>
 </calculation>
 <structure name="finalpos" >
  <crystal>
   <varray name="basis" >
    <v>       8.36379552       4.81164951       0.00000000 </v>
    <v>      -8.37894470       4.83785046       0.00000000 </v>
    <v>       0.00000000       0.00000000      30.00000000 </v>
   </varray>
   <i name="volume">   2423.38011346 </i>
   <varray name="rec_basis" >
    <v>       0.05988970       0.10372634       0.00000000 </v>
    <v>      -0.05956535       0.10353880       0.00000000 </v>
    <v>       0.00000000       0.00000000       0.03333333 </v>
   </varray>
  </crystal>
  <varray name="positions" >
   <v>       0.03354703       0.68523478      -0.00040068 </v>
   <v>       1.03389659       0.34847893      -0.00034663 </v>
   <v>       0.34883207       0.67469296       0.00032071 </v>
   <v>       0.32006566       0.01564294       0.00067240 </v>
   <v>       0.01635566       0.00830319       0.00062933 </v>
   <v>       0.32042499       0.30444920       0.00060256 </v>
   <v>       0.65654977      -0.02796973      -0.00067564 </v>
   <v>       0.62994762       0.31306462      -0.00076610 </v>
   <v>       0.65656859       0.68558513      -0.00070519 </v>
   <v>       0.10794581       0.22279216       0.94662653 </v>
   <v>       0.21585508       0.10808328       0.05776001 </v>
   <v>       0.12143425       0.56071206       0.95054138 </v>
   <v>       0.22683090       0.44766363       0.05093929 </v>
   <v>       0.10757422       0.88499960       0.94663329 </v>
   <v>       0.22618524       0.77872769       0.05100666 </v>
   <v>       0.43298622       0.21626465       0.94292091 </v>
   <v>       0.55049755       0.10598002       0.05139254 </v>
   <v>       0.43817149       0.55128486       0.95067341 </v>
   <v>       0.55165656       0.44463304       0.05090934 </v>
   <v>       0.43801266       0.88701671       0.95070631 </v>
   <v>       0.55018567       0.77523966       0.05609083 </v>
   <v>       0.78266211       0.22400093       0.95480647 </v>
   <v>       0.88991044       0.11908351       0.04813834 </v>
   <v>       0.78199888       0.55816692       0.95522177 </v>
   <v>       0.88822685       0.44383984       0.04199879 </v>
   <v>       0.78213546       0.89129716       0.94620114 </v>
   <v>       0.88975709       0.77094669       0.04810211 </v>
  </varray>
 </structure>
</modeling>
