   27   27  100    1
  0.9710400E+02  0.1002848E-08  0.1002848E-08  0.3000000E-08  0.5000000E-15
  1.000000000000000E-004
  CAR 
 unknown system                          
    159     34    120
 
  0.0000000E+00  0.0000000E+00  0.0000000E+00  0.1562500E-01
    1      -17.831985   1.000000
    2      -16.779187   1.000000
    3      -16.638168   1.000000
    4      -16.602875   1.000000
    5      -16.506718   1.000000
    6      -16.469460   1.000000
    7      -16.348369   1.000000
    8      -16.304143   1.000000
    9      -16.221955   1.000000
   10      -16.176028   1.000000
   11      -16.086821   1.000000
   12      -15.955997   1.000000
   13      -15.886113   1.000000
   14      -15.763466   1.000000
   15      -15.594515   1.000000
   16      -15.515162   1.000000
   17      -15.345339   1.000000
   18      -15.185315   1.000000
   19       -9.230888   1.000000
   20       -9.002141   1.000000
   21       -8.876603   1.000000
   22       -8.843991   1.000000
   23       -8.810571   1.000000
   24       -8.698216   1.000000
   25       -8.671165   1.000000
   26       -8.623665   1.000000
   27       -8.526306   1.000000
   28       -8.467381   1.000000
   29       -8.453614   1.000000
   30       -8.362002   1.000000
   31       -8.276879   1.000000
   32       -8.259033   1.000000
   33       -8.171374   1.000000
   34       -8.105141   1.000000
   35       -7.839644   1.000000
   36       -7.764447   1.000000
   37       -7.733242   1.000000
   38       -7.667019   1.000000
   39       -7.388903   1.000000
   40       -7.377706   1.000000
   41       -7.317324   1.000000
   42       -7.159887   1.000000
   43       -7.130319   1.000000
   44       -6.980940   1.000000
   45       -6.887107   1.000000
   46       -6.864207   1.000000
   47       -6.801251   1.000000
   48       -6.695590   1.000000
   49       -6.615578   1.000000
   50       -6.493151   1.000000
   51       -6.451266   1.000000
   52       -6.339482   1.000000
   53       -6.245682   1.000000
   54       -6.199799   1.000000
   55       -6.041079   1.000000
   56       -6.019263   1.000000
   57       -5.946016   1.000000
   58       -5.825355   1.000000
   59       -5.765590   1.000000
   60       -5.720172   1.000000
   61       -5.594127   1.000000
   62       -5.440572   1.000000
   63       -5.359727   1.000000
   64       -5.100124   1.000000
   65       -5.047554   1.000000
   66       -4.922488   1.000000
   67       -4.884806   1.000000
   68       -4.778367   1.000000
   69       -4.771704   1.000000
   70       -4.715440   1.000000
   71       -4.684544   1.000000
   72       -4.569108   1.000000
   73       -4.468912   1.000000
   74       -4.213384   1.000000
   75       -4.190580   1.000000
   76       -4.095276   1.000000
   77       -3.703904   0.999557
   78       -3.543686   0.985789
   79       -3.521726   0.979131
   80       -3.248270   0.540817
   81       -3.165494   0.314612
   82       -2.787542   0.000802
   83       -2.707672   0.000100
   84       -2.581870   0.000002
   85       -2.526777   0.000000
   86       -2.372713   0.000000
   87       -2.210637   0.000000
   88       -2.189726   0.000000
   89       -2.095921   0.000000
   90       -1.906529   0.000000
   91       -1.741900   0.000000
   92       -1.467291   0.000000
   93       -1.418510   0.000000
   94       -1.339471   0.000000
   95       -1.212539   0.000000
   96       -1.071259   0.000000
   97       -0.990664   0.000000
   98       -0.957185   0.000000
   99       -0.921801   0.000000
  100       -0.679708   0.000000
  101       -0.584194   0.000000
  102       -0.508358   0.000000
  103       -0.448752   0.000000
  104       -0.322502   0.000000
  105       -0.275167   0.000000
  106       -0.137572   0.000000
  107       -0.077087   0.000000
  108        0.019951   0.000000
  109        0.061505   0.000000
  110        0.161340   0.000000
  111        0.239287   0.000000
  112        0.448902   0.000000
  113        0.856452   0.000000
  114        0.972867   0.000000
  115        1.028001   0.000000
  116        1.154038   0.000000
  117        1.314215   0.000000
  118        1.653711   0.000000
  119        1.840157   0.000000
  120        2.176523   0.000000
 
  0.1250000E+00  0.2775558E-16  0.0000000E+00  0.3125000E-01
    1      -17.807184   1.000000
    2      -16.829114   1.000000
    3      -16.684055   1.000000
    4      -16.638346   1.000000
    5      -16.578161   1.000000
    6      -16.412081   1.000000
    7      -16.311218   1.000000
    8      -16.293844   1.000000
    9      -16.196903   1.000000
   10      -16.159962   1.000000
   11      -16.037000   1.000000
   12      -15.950958   1.000000
   13      -15.876126   1.000000
   14      -15.753027   1.000000
   15      -15.602613   1.000000
   16      -15.533687   1.000000
   17      -15.345905   1.000000
   18      -15.189596   1.000000
   19       -9.247762   1.000000
   20       -9.154885   1.000000
   21       -8.992739   1.000000
   22       -8.918229   1.000000
   23       -8.856156   1.000000
   24       -8.776536   1.000000
   25       -8.722845   1.000000
   26       -8.546375   1.000000
   27       -8.512539   1.000000
   28       -8.401819   1.000000
   29       -8.351659   1.000000
   30       -8.281648   1.000000
   31       -8.244253   1.000000
   32       -8.190589   1.000000
   33       -8.075595   1.000000
   34       -8.041875   1.000000
   35       -7.785154   1.000000
   36       -7.723750   1.000000
   37       -7.687940   1.000000
   38       -7.652406   1.000000
   39       -7.497218   1.000000
   40       -7.391445   1.000000
   41       -7.279312   1.000000
   42       -7.177030   1.000000
   43       -7.149396   1.000000
   44       -7.033227   1.000000
   45       -6.944174   1.000000
   46       -6.854303   1.000000
   47       -6.738383   1.000000
   48       -6.642192   1.000000
   49       -6.550170   1.000000
   50       -6.481315   1.000000
   51       -6.433238   1.000000
   52       -6.337195   1.000000
   53       -6.258167   1.000000
   54       -6.225269   1.000000
   55       -6.105038   1.000000
   56       -6.052262   1.000000
   57       -5.948007   1.000000
   58       -5.851129   1.000000
   59       -5.718858   1.000000
   60       -5.683425   1.000000
   61       -5.556834   1.000000
   62       -5.519139   1.000000
   63       -5.456346   1.000000
   64       -5.166401   1.000000
   65       -5.097589   1.000000
   66       -4.909693   1.000000
   67       -4.880632   1.000000
   68       -4.828188   1.000000
   69       -4.788465   1.000000
   70       -4.686404   1.000000
   71       -4.580723   1.000000
   72       -4.536285   1.000000
   73       -4.456379   1.000000
   74       -4.204091   1.000000
   75       -4.171297   1.000000
   76       -4.115854   1.000000
   77       -3.717617   0.999688
   78       -3.624948   0.997163
   79       -3.596047   0.994791
   80       -3.192987   0.386513
   81       -3.120392   0.211351
   82       -2.741240   0.000248
   83       -2.704419   0.000091
   84       -2.576530   0.000002
   85       -2.495583   0.000000
   86       -2.374831   0.000000
   87       -2.194559   0.000000
   88       -2.141166   0.000000
   89       -2.070340   0.000000
   90       -1.891718   0.000000
   91       -1.760688   0.000000
   92       -1.476332   0.000000
   93       -1.404265   0.000000
   94       -1.332063   0.000000
   95       -1.226375   0.000000
   96       -1.068861   0.000000
   97       -1.004157   0.000000
   98       -0.955635   0.000000
   99       -0.890654   0.000000
  100       -0.754054   0.000000
  101       -0.672966   0.000000
  102       -0.626708   0.000000
  103       -0.536121   0.000000
  104       -0.470482   0.000000
  105       -0.251932   0.000000
  106       -0.166973   0.000000
  107       -0.056935   0.000000
  108        0.032170   0.000000
  109        0.136094   0.000000
  110        0.223984   0.000000
  111        0.328355   0.000000
  112        0.526481   0.000000
  113        0.862192   0.000000
  114        0.963294   0.000000
  115        0.992422   0.000000
  116        1.119088   0.000000
  117        1.249293   0.000000
  118        1.696614   0.000000
  119        1.880238   0.000000
  120        2.211438   0.000000
 
  0.2500000E+00  0.5551115E-16  0.0000000E+00  0.3125000E-01
    1      -17.734362   1.000000
    2      -17.007181   1.000000
    3      -16.723265   1.000000
    4      -16.685204   1.000000
    5      -16.625351   1.000000
    6      -16.387097   1.000000
    7      -16.291821   1.000000
    8      -16.227800   1.000000
    9      -16.181083   1.000000
   10      -16.117340   1.000000
   11      -15.946638   1.000000
   12      -15.918233   1.000000
   13      -15.854073   1.000000
   14      -15.726294   1.000000
   15      -15.612880   1.000000
   16      -15.582000   1.000000
   17      -15.348623   1.000000
   18      -15.201692   1.000000
   19       -9.519457   1.000000
   20       -9.181661   1.000000
   21       -9.105116   1.000000
   22       -9.078105   1.000000
   23       -8.925938   1.000000
   24       -8.837965   1.000000
   25       -8.670674   1.000000
   26       -8.534912   1.000000
   27       -8.493064   1.000000
   28       -8.376486   1.000000
   29       -8.306045   1.000000
   30       -8.213270   1.000000
   31       -8.183150   1.000000
   32       -8.088621   1.000000
   33       -7.853265   1.000000
   34       -7.840228   1.000000
   35       -7.796725   1.000000
   36       -7.743374   1.000000
   37       -7.629631   1.000000
   38       -7.538538   1.000000
   39       -7.501224   1.000000
   40       -7.346829   1.000000
   41       -7.255311   1.000000
   42       -7.243247   1.000000
   43       -7.122857   1.000000
   44       -7.070940   1.000000
   45       -6.904804   1.000000
   46       -6.820791   1.000000
   47       -6.694460   1.000000
   48       -6.644742   1.000000
   49       -6.508835   1.000000
   50       -6.454253   1.000000
   51       -6.379263   1.000000
   52       -6.318921   1.000000
   53       -6.264346   1.000000
   54       -6.225544   1.000000
   55       -6.167997   1.000000
   56       -6.084150   1.000000
   57       -6.037307   1.000000
   58       -5.809068   1.000000
   59       -5.747080   1.000000
   60       -5.695512   1.000000
   61       -5.658226   1.000000
   62       -5.601865   1.000000
   63       -5.452410   1.000000
   64       -5.354101   1.000000
   65       -5.301404   1.000000
   66       -4.899211   1.000000
   67       -4.876111   1.000000
   68       -4.832136   1.000000
   69       -4.753466   1.000000
   70       -4.641663   1.000000
   71       -4.509654   1.000000
   72       -4.454626   1.000000
   73       -4.418546   1.000000
   74       -4.290309   1.000000
   75       -4.134683   1.000000
   76       -4.093965   1.000000
   77       -3.797721   0.999967
   78       -3.745476   0.999852
   79       -3.630545   0.997489
   80       -3.112628   0.195822
   81       -3.058198   0.107207
   82       -2.703743   0.000089
   83       -2.645618   0.000016
   84       -2.560042   0.000001
   85       -2.418543   0.000000
   86       -2.376986   0.000000
   87       -2.131411   0.000000
   88       -2.047074   0.000000
   89       -1.990467   0.000000
   90       -1.846593   0.000000
   91       -1.780125   0.000000
   92       -1.490250   0.000000
   93       -1.404360   0.000000
   94       -1.321276   0.000000
   95       -1.281793   0.000000
   96       -1.090370   0.000000
   97       -1.027527   0.000000
   98       -0.970664   0.000000
   99       -0.910383   0.000000
  100       -0.853677   0.000000
  101       -0.819976   0.000000
  102       -0.777651   0.000000
  103       -0.714577   0.000000
  104       -0.656332   0.000000
  105       -0.259562   0.000000
  106       -0.216285   0.000000
  107       -0.115102   0.000000
  108        0.052178   0.000000
  109        0.255683   0.000000
  110        0.316222   0.000000
  111        0.433768   0.000000
  112        0.650079   0.000000
  113        0.865123   0.000000
  114        0.894548   0.000000
  115        1.002417   0.000000
  116        1.093503   0.000000
  117        1.127115   0.000000
  118        1.816349   0.000000
  119        1.994861   0.000000
  120        2.314928   0.000000
 
  0.3750000E+00  0.0000000E+00  0.0000000E+00  0.3125000E-01
    1      -17.620913   1.000000
    2      -17.213238   1.000000
    3      -16.752395   1.000000
    4      -16.709878   1.000000
    5      -16.644211   1.000000
    6      -16.387373   1.000000
    7      -16.281632   1.000000
    8      -16.223830   1.000000
    9      -16.108026   1.000000
   10      -16.068972   1.000000
   11      -15.925023   1.000000
   12      -15.855308   1.000000
   13      -15.835065   1.000000
   14      -15.716385   1.000000
   15      -15.653056   1.000000
   16      -15.576144   1.000000
   17      -15.352852   1.000000
   18      -15.217207   1.000000
   19       -9.734119   1.000000
   20       -9.305046   1.000000
   21       -9.205792   1.000000
   22       -9.011043   1.000000
   23       -8.967848   1.000000
   24       -8.887428   1.000000
   25       -8.587988   1.000000
   26       -8.529389   1.000000
   27       -8.458904   1.000000
   28       -8.375032   1.000000
   29       -8.305354   1.000000
   30       -8.206230   1.000000
   31       -8.156982   1.000000
   32       -8.019250   1.000000
   33       -7.938218   1.000000
   34       -7.863086   1.000000
   35       -7.750420   1.000000
   36       -7.657417   1.000000
   37       -7.610930   1.000000
   38       -7.462420   1.000000
   39       -7.344680   1.000000
   40       -7.268851   1.000000
   41       -7.214682   1.000000
   42       -7.135041   1.000000
   43       -7.063238   1.000000
   44       -7.014452   1.000000
   45       -6.839918   1.000000
   46       -6.737452   1.000000
   47       -6.653152   1.000000
   48       -6.628299   1.000000
   49       -6.552062   1.000000
   50       -6.526275   1.000000
   51       -6.343028   1.000000
   52       -6.319527   1.000000
   53       -6.281117   1.000000
   54       -6.195451   1.000000
   55       -6.178902   1.000000
   56       -6.083347   1.000000
   57       -6.052157   1.000000
   58       -5.885878   1.000000
   59       -5.872444   1.000000
   60       -5.748388   1.000000
   61       -5.707163   1.000000
   62       -5.619723   1.000000
   63       -5.557743   1.000000
   64       -5.476038   1.000000
   65       -5.333427   1.000000
   66       -4.951964   1.000000
   67       -4.905155   1.000000
   68       -4.850265   1.000000
   69       -4.727185   1.000000
   70       -4.671534   1.000000
   71       -4.599540   1.000000
   72       -4.460286   1.000000
   73       -4.374835   1.000000
   74       -4.207053   1.000000
   75       -4.103241   1.000000
   76       -4.033736   1.000000
   77       -3.907014   0.999999
   78       -3.749379   0.999867
   79       -3.622556   0.997012
   80       -3.061417   0.111467
   81       -3.018648   0.064107
   82       -2.699166   0.000078
   83       -2.627641   0.000009
   84       -2.473535   0.000000
   85       -2.395302   0.000000
   86       -2.338799   0.000000
   87       -2.051101   0.000000
   88       -1.933002   0.000000
   89       -1.885606   0.000000
   90       -1.819893   0.000000
   91       -1.731481   0.000000
   92       -1.516755   0.000000
   93       -1.477500   0.000000
   94       -1.374790   0.000000
   95       -1.319961   0.000000
   96       -1.189924   0.000000
   97       -1.075035   0.000000
   98       -1.041125   0.000000
   99       -0.980049   0.000000
  100       -0.932273   0.000000
  101       -0.883646   0.000000
  102       -0.805243   0.000000
  103       -0.790697   0.000000
  104       -0.741205   0.000000
  105       -0.313361   0.000000
  106       -0.256016   0.000000
  107       -0.157869   0.000000
  108        0.015550   0.000000
  109        0.281625   0.000000
  110        0.372798   0.000000
  111        0.470697   0.000000
  112        0.729441   0.000000
  113        0.805399   0.000000
  114        0.860288   0.000000
  115        1.002005   0.000000
  116        1.100913   0.000000
  117        1.159341   0.000000
  118        1.995645   0.000000
  119        2.173345   0.000000
  120        2.449248   0.000000
 
  0.5000000E+00  0.1110223E-15  0.0000000E+00  0.1562500E-01
    1      -17.524935   1.000000
    2      -17.342798   1.000000
    3      -16.765153   1.000000
    4      -16.717508   1.000000
    5      -16.647700   1.000000
    6      -16.389852   1.000000
    7      -16.278826   1.000000
    8      -16.227677   1.000000
    9      -16.068243   1.000000
   10      -16.048855   1.000000
   11      -15.915392   1.000000
   12      -15.841227   1.000000
   13      -15.819118   1.000000
   14      -15.719398   1.000000
   15      -15.693042   1.000000
   16      -15.549253   1.000000
   17      -15.355017   1.000000
   18      -15.225153   1.000000
   19       -9.810928   1.000000
   20       -9.349431   1.000000
   21       -9.248452   1.000000
   22       -8.996975   1.000000
   23       -8.965648   1.000000
   24       -8.878465   1.000000
   25       -8.561383   1.000000
   26       -8.525049   1.000000
   27       -8.445551   1.000000
   28       -8.409765   1.000000
   29       -8.264061   1.000000
   30       -8.221616   1.000000
   31       -8.139438   1.000000
   32       -8.020418   1.000000
   33       -7.950252   1.000000
   34       -7.876959   1.000000
   35       -7.832024   1.000000
   36       -7.660976   1.000000
   37       -7.600096   1.000000
   38       -7.366267   1.000000
   39       -7.337709   1.000000
   40       -7.154727   1.000000
   41       -7.134717   1.000000
   42       -7.111307   1.000000
   43       -7.051512   1.000000
   44       -6.916631   1.000000
   45       -6.830659   1.000000
   46       -6.714963   1.000000
   47       -6.667248   1.000000
   48       -6.606848   1.000000
   49       -6.578965   1.000000
   50       -6.503264   1.000000
   51       -6.381535   1.000000
   52       -6.309558   1.000000
   53       -6.265961   1.000000
   54       -6.216641   1.000000
   55       -6.176032   1.000000
   56       -6.120587   1.000000
   57       -6.074942   1.000000
   58       -5.969801   1.000000
   59       -5.830585   1.000000
   60       -5.807424   1.000000
   61       -5.750232   1.000000
   62       -5.640687   1.000000
   63       -5.546672   1.000000
   64       -5.347223   1.000000
   65       -5.299548   1.000000
   66       -5.271099   1.000000
   67       -4.908570   1.000000
   68       -4.868667   1.000000
   69       -4.771751   1.000000
   70       -4.648290   1.000000
   71       -4.577663   1.000000
   72       -4.449370   1.000000
   73       -4.343369   1.000000
   74       -4.189926   1.000000
   75       -4.086784   1.000000
   76       -4.009028   1.000000
   77       -3.941432   1.000000
   78       -3.727565   0.999760
   79       -3.620978   0.996909
   80       -3.045805   0.091899
   81       -3.004395   0.052405
   82       -2.697387   0.000074
   83       -2.628524   0.000009
   84       -2.431170   0.000000
   85       -2.391247   0.000000
   86       -2.320588   0.000000
   87       -2.005466   0.000000
   88       -1.865086   0.000000
   89       -1.830446   0.000000
   90       -1.799112   0.000000
   91       -1.686720   0.000000
   92       -1.600283   0.000000
   93       -1.527972   0.000000
   94       -1.396514   0.000000
   95       -1.331340   0.000000
   96       -1.237468   0.000000
   97       -1.135051   0.000000
   98       -1.049960   0.000000
   99       -1.023676   0.000000
  100       -0.950850   0.000000
  101       -0.873988   0.000000
  102       -0.841294   0.000000
  103       -0.806760   0.000000
  104       -0.732216   0.000000
  105       -0.342776   0.000000
  106       -0.275886   0.000000
  107       -0.169983   0.000000
  108       -0.009991   0.000000
  109        0.275934   0.000000
  110        0.378880   0.000000
  111        0.477160   0.000000
  112        0.756559   0.000000
  113        0.811199   0.000000
  114        0.817159   0.000000
  115        0.983550   0.000000
  116        1.126609   0.000000
  117        1.200845   0.000000
  118        2.182319   0.000000
  119        2.279290   0.000000
  120        2.389535   0.000000
 
  0.0000000E+00  0.1250000E+00  0.0000000E+00  0.3125000E-01
    1      -17.806183   1.000000
    2      -16.801660   1.000000
    3      -16.772188   1.000000
    4      -16.567962   1.000000
    5      -16.524529   1.000000
    6      -16.457099   1.000000
    7      -16.375903   1.000000
    8      -16.283271   1.000000
    9      -16.215610   1.000000
   10      -16.094546   1.000000
   11      -16.043218   1.000000
   12      -15.970532   1.000000
   13      -15.858131   1.000000
   14      -15.760526   1.000000
   15      -15.592540   1.000000
   16      -15.524850   1.000000
   17      -15.358076   1.000000
   18      -15.193035   1.000000
   19       -9.208228   1.000000
   20       -9.144176   1.000000
   21       -9.062696   1.000000
   22       -8.934638   1.000000
   23       -8.772323   1.000000
   24       -8.738673   1.000000
   25       -8.696279   1.000000
   26       -8.607743   1.000000
   27       -8.538600   1.000000
   28       -8.450960   1.000000
   29       -8.393762   1.000000
   30       -8.359372   1.000000
   31       -8.273668   1.000000
   32       -8.070116   1.000000
   33       -8.031853   1.000000
   34       -7.974459   1.000000
   35       -7.850042   1.000000
   36       -7.773005   1.000000
   37       -7.725642   1.000000
   38       -7.570983   1.000000
   39       -7.434154   1.000000
   40       -7.376615   1.000000
   41       -7.294133   1.000000
   42       -7.217388   1.000000
   43       -7.120041   1.000000
   44       -7.003603   1.000000
   45       -6.955132   1.000000
   46       -6.858576   1.000000
   47       -6.759785   1.000000
   48       -6.687546   1.000000
   49       -6.598715   1.000000
   50       -6.542496   1.000000
   51       -6.457702   1.000000
   52       -6.355156   1.000000
   53       -6.248409   1.000000
   54       -6.186959   1.000000
   55       -6.077556   1.000000
   56       -6.025394   1.000000
   57       -5.903307   1.000000
   58       -5.827301   1.000000
   59       -5.734836   1.000000
   60       -5.662125   1.000000
   61       -5.553681   1.000000
   62       -5.447532   1.000000
   63       -5.360603   1.000000
   64       -5.171007   1.000000
   65       -5.113940   1.000000
   66       -5.041697   1.000000
   67       -4.962599   1.000000
   68       -4.912388   1.000000
   69       -4.829690   1.000000
   70       -4.696261   1.000000
   71       -4.531796   1.000000
   72       -4.481580   1.000000
   73       -4.364971   1.000000
   74       -4.191530   1.000000
   75       -4.176760   1.000000
   76       -3.972468   1.000000
   77       -3.796633   0.999966
   78       -3.672306   0.999035
   79       -3.478466   0.958205
   80       -3.413925   0.898642
   81       -2.981149   0.037022
   82       -2.776098   0.000606
   83       -2.747990   0.000296
   84       -2.577685   0.000002
   85       -2.501135   0.000000
   86       -2.378889   0.000000
   87       -2.203144   0.000000
   88       -2.152570   0.000000
   89       -2.080139   0.000000
   90       -1.894895   0.000000
   91       -1.713546   0.000000
   92       -1.495505   0.000000
   93       -1.406575   0.000000
   94       -1.341354   0.000000
   95       -1.214542   0.000000
   96       -1.073292   0.000000
   97       -0.996796   0.000000
   98       -0.959886   0.000000
   99       -0.898389   0.000000
  100       -0.752893   0.000000
  101       -0.654305   0.000000
  102       -0.542366   0.000000
  103       -0.500903   0.000000
  104       -0.409489   0.000000
  105       -0.342547   0.000000
  106       -0.185273   0.000000
  107       -0.120699   0.000000
  108       -0.034713   0.000000
  109        0.099850   0.000000
  110        0.243975   0.000000
  111        0.332881   0.000000
  112        0.509670   0.000000
  113        0.780390   0.000000
  114        0.915765   0.000000
  115        1.071707   0.000000
  116        1.210773   0.000000
  117        1.323381   0.000000
  118        1.699330   0.000000
  119        1.879082   0.000000
  120        2.211883   0.000000
 
  0.1250000E+00  0.1250000E+00  0.0000000E+00  0.3125000E-01
    1      -17.756540   1.000000
    2      -16.927060   1.000000
    3      -16.823195   1.000000
    4      -16.640489   1.000000
    5      -16.513701   1.000000
    6      -16.407821   1.000000
    7      -16.369174   1.000000
    8      -16.238803   1.000000
    9      -16.192011   1.000000
   10      -16.065413   1.000000
   11      -16.001782   1.000000
   12      -15.947545   1.000000
   13      -15.836042   1.000000
   14      -15.739789   1.000000
   15      -15.597758   1.000000
   16      -15.563371   1.000000
   17      -15.361658   1.000000
   18      -15.197187   1.000000
   19       -9.383107   1.000000
   20       -9.283695   1.000000
   21       -9.134235   1.000000
   22       -9.018419   1.000000
   23       -8.819642   1.000000
   24       -8.747241   1.000000
   25       -8.706647   1.000000
   26       -8.551705   1.000000
   27       -8.488545   1.000000
   28       -8.403582   1.000000
   29       -8.328830   1.000000
   30       -8.273148   1.000000
   31       -8.227558   1.000000
   32       -8.084879   1.000000
   33       -7.953317   1.000000
   34       -7.848043   1.000000
   35       -7.820096   1.000000
   36       -7.699187   1.000000
   37       -7.650991   1.000000
   38       -7.540558   1.000000
   39       -7.459930   1.000000
   40       -7.401220   1.000000
   41       -7.281754   1.000000
   42       -7.211221   1.000000
   43       -7.106436   1.000000
   44       -7.075911   1.000000
   45       -6.929937   1.000000
   46       -6.837197   1.000000
   47       -6.735859   1.000000
   48       -6.671563   1.000000
   49       -6.534125   1.000000
   50       -6.451081   1.000000
   51       -6.396855   1.000000
   52       -6.350521   1.000000
   53       -6.319189   1.000000
   54       -6.220422   1.000000
   55       -6.138088   1.000000
   56       -6.049662   1.000000
   57       -5.961716   1.000000
   58       -5.811174   1.000000
   59       -5.770619   1.000000
   60       -5.639434   1.000000
   61       -5.579274   1.000000
   62       -5.521084   1.000000
   63       -5.456293   1.000000
   64       -5.283085   1.000000
   65       -5.151440   1.000000
   66       -5.115648   1.000000
   67       -4.947669   1.000000
   68       -4.875012   1.000000
   69       -4.799474   1.000000
   70       -4.623619   1.000000
   71       -4.499275   1.000000
   72       -4.425737   1.000000
   73       -4.346937   1.000000
   74       -4.199063   1.000000
   75       -4.150596   1.000000
   76       -4.047485   1.000000
   77       -3.932637   1.000000
   78       -3.648147   0.998305
   79       -3.566269   0.990641
   80       -3.312072   0.710089
   81       -2.948178   0.021719
   82       -2.741874   0.000252
   83       -2.682937   0.000049
   84       -2.592594   0.000003
   85       -2.442372   0.000000
   86       -2.379501   0.000000
   87       -2.163693   0.000000
   88       -2.082667   0.000000
   89       -2.031769   0.000000
   90       -1.858549   0.000000
   91       -1.732654   0.000000
   92       -1.499402   0.000000
   93       -1.392151   0.000000
   94       -1.333870   0.000000
   95       -1.260523   0.000000
   96       -1.084771   0.000000
   97       -1.022002   0.000000
   98       -0.959122   0.000000
   99       -0.899988   0.000000
  100       -0.838455   0.000000
  101       -0.766792   0.000000
  102       -0.720076   0.000000
  103       -0.659759   0.000000
  104       -0.520921   0.000000
  105       -0.284416   0.000000
  106       -0.269369   0.000000
  107       -0.144776   0.000000
  108        0.004420   0.000000
  109        0.229360   0.000000
  110        0.302814   0.000000
  111        0.405299   0.000000
  112        0.652282   0.000000
  113        0.806963   0.000000
  114        0.896111   0.000000
  115        1.016037   0.000000
  116        1.133921   0.000000
  117        1.231385   0.000000
  118        1.780371   0.000000
  119        1.956085   0.000000
  120        2.281142   0.000000
 
  0.2500000E+00  0.1250000E+00  0.0000000E+00  0.3125000E-01
    1      -17.661609   1.000000
    2      -17.111348   1.000000
    3      -16.894719   1.000000
    4      -16.666429   1.000000
    5      -16.520212   1.000000
    6      -16.400690   1.000000
    7      -16.288244   1.000000
    8      -16.242855   1.000000
    9      -16.134529   1.000000
   10      -16.056826   1.000000
   11      -15.983196   1.000000
   12      -15.882266   1.000000
   13      -15.818320   1.000000
   14      -15.707860   1.000000
   15      -15.633926   1.000000
   16      -15.573695   1.000000
   17      -15.365664   1.000000
   18      -15.207434   1.000000
   19       -9.630078   1.000000
   20       -9.414545   1.000000
   21       -9.206173   1.000000
   22       -9.015370   1.000000
   23       -8.878539   1.000000
   24       -8.748269   1.000000
   25       -8.612294   1.000000
   26       -8.525631   1.000000
   27       -8.467917   1.000000
   28       -8.371978   1.000000
   29       -8.329223   1.000000
   30       -8.224566   1.000000
   31       -8.187511   1.000000
   32       -8.080762   1.000000
   33       -7.929008   1.000000
   34       -7.843638   1.000000
   35       -7.780998   1.000000
   36       -7.659580   1.000000
   37       -7.594554   1.000000
   38       -7.499181   1.000000
   39       -7.398403   1.000000
   40       -7.322950   1.000000
   41       -7.215255   1.000000
   42       -7.164016   1.000000
   43       -7.116395   1.000000
   44       -6.988135   1.000000
   45       -6.860943   1.000000
   46       -6.783609   1.000000
   47       -6.711504   1.000000