       N       E                     dE             d eps       ncg     rms          rms(c)
DAV:   1     0.112661841502E+04    0.11266E+04   -0.35975E+04  8160   0.577E+02
DAV:   2    -0.176300961658E+01   -0.11284E+04   -0.10861E+04 11360   0.173E+02
DAV:   3    -0.199741401582E+03   -0.19798E+03   -0.19036E+03 10880   0.822E+01
DAV:   4    -0.208910351795E+03   -0.91690E+01   -0.89008E+01 12080   0.263E+01
DAV:   5    -0.209247995756E+03   -0.33764E+00   -0.33674E+00 11320   0.364E+00    0.274E+01
DAV:   6    -0.236668614725E+03   -0.27421E+02   -0.10822E+02 12760   0.604E+01    0.592E+01
DAV:   7    -0.196775050610E+03    0.39894E+02   -0.17619E+02 13000   0.152E+02    0.205E+01
DAV:   8    -0.190260375855E+03    0.65147E+01   -0.21713E+01 11720   0.135E+01    0.140E+01
DAV:   9    -0.188310319202E+03    0.19501E+01   -0.36048E+00 11960   0.637E+00    0.940E+00
DAV:  10    -0.187167206623E+03    0.11431E+01   -0.17987E+00 13320   0.746E+00    0.376E+00
DAV:  11    -0.187002476248E+03    0.16473E+00   -0.72591E-01 12720   0.271E+00    0.226E+00
DAV:  12    -0.187089275731E+03   -0.86799E-01   -0.53479E-01 13200   0.378E+00    0.450E+00
DAV:  13    -0.186939217069E+03    0.15006E+00   -0.50084E-01 13200   0.380E+00    0.199E+00
DAV:  14    -0.186905722289E+03    0.33495E-01   -0.10750E-01 13280   0.174E+00    0.118E+00
DAV:  15    -0.186898412310E+03    0.73100E-02   -0.54665E-02 13040   0.137E+00    0.993E-01
DAV:  16    -0.186890845793E+03    0.75665E-02   -0.19580E-02 13040   0.728E-01    0.480E-01
DAV:  17    -0.186888656987E+03    0.21888E-02   -0.67148E-03 13160   0.283E-01    0.229E-01
DAV:  18    -0.186887644326E+03    0.10127E-02   -0.36677E-03 12840   0.269E-01    0.200E-01
DAV:  19    -0.186887331883E+03    0.31244E-03   -0.10219E-03 11440   0.157E-01    0.477E-02
DAV:  20    -0.186888092582E+03   -0.76070E-03   -0.70648E-04  9080   0.593E-02    0.537E-02
DAV:  21    -0.186888658612E+03   -0.56603E-03   -0.23948E-04  8360   0.461E-02    0.291E-02
DAV:  22    -0.186889792675E+03   -0.11341E-02   -0.17607E-04  7520   0.407E-02    0.355E-02
DAV:  23    -0.186891042824E+03   -0.12501E-02   -0.14029E-04  7440   0.444E-02    0.145E-02
DAV:  24    -0.186891612028E+03   -0.56920E-03   -0.25897E-05  6840   0.143E-02    0.604E-03
DAV:  25    -0.186891999932E+03   -0.38790E-03   -0.16313E-05  5440   0.956E-03    0.444E-03
DAV:  26    -0.186892242392E+03   -0.24246E-03   -0.90457E-06  6800   0.722E-03    0.153E-03
DAV:  27    -0.186892341872E+03   -0.99480E-04   -0.34694E-06  7240   0.414E-03
   1 F= -.18689234E+03 E0= -.18672149E+03  d E =-.186892E+03
       N       E                     dE             d eps       ncg     rms          rms(c)
DAV:   1    -0.187532379676E+03   -0.64014E+00   -0.27203E+02  8160   0.350E+01    0.466E+00
DAV:   2    -0.189535220792E+03   -0.20028E+01   -0.20341E+01 12320   0.157E+01    0.961E+00
DAV:   3    -0.189353657797E+03    0.18156E+00   -0.41878E+00 12400   0.123E+01    0.641E+00
DAV:   4    -0.188788440728E+03    0.56522E+00   -0.58127E-01 12640   0.442E+00    0.173E+00
DAV:   5    -0.188857911933E+03   -0.69471E-01   -0.40872E-01 11360   0.295E+00    0.428E+00
DAV:   6    -0.188772147825E+03    0.85764E-01   -0.60904E-01 12920   0.410E+00    0.256E+00
DAV:   7    -0.188728229994E+03    0.43918E-01   -0.17467E-01 12400   0.195E+00    0.132E+00
DAV:   8    -0.188711670057E+03    0.16560E-01   -0.69343E-02 12960   0.133E+00    0.121E+00
DAV:   9    -0.188701668430E+03    0.10002E-01   -0.25133E-02 11960   0.881E-01    0.372E-01
DAV:  10    -0.188700570300E+03    0.10981E-02   -0.38915E-03 11840   0.242E-01    0.183E-01
DAV:  11    -0.188700132073E+03    0.43823E-03   -0.23454E-03 12160   0.157E-01    0.101E-01
DAV:  12    -0.188700232429E+03   -0.10036E-03   -0.90138E-04 11520   0.939E-02    0.824E-02
DAV:  13    -0.188700180076E+03    0.52353E-04   -0.22369E-04  7680   0.540E-02
   2 F= -.18870018E+03 E0= -.18856118E+03  d E =-.180784E+01
       N       E                     dE             d eps       ncg     rms          rms(c)
DAV:   1    -0.190622928244E+03   -0.19227E+01   -0.31339E+01  8960   0.142E+01    0.443E+00
DAV:   2    -0.190571814871E+03    0.51113E-01   -0.27611E+00 11280   0.946E+00    0.720E+00
DAV:   3    -0.190106626700E+03    0.46519E+00   -0.13332E+00 12360   0.859E+00    0.420E+00
DAV:   4    -0.189898477353E+03    0.20815E+00   -0.72271E-01 12800   0.424E+00    0.253E+00
DAV:   5    -0.189876693708E+03    0.21784E-01   -0.38278E-01 12280   0.312E+00    0.282E+00
DAV:   6    -0.189800530712E+03    0.76163E-01   -0.14984E-01 12520   0.248E+00    0.744E-01
DAV:   7    -0.189793637792E+03    0.68929E-02   -0.14751E-02 11640   0.544E-01    0.206E-01
DAV:   8    -0.189793741427E+03   -0.10363E-03   -0.31089E-03 11200   0.186E-01    0.175E-01
DAV:   9    -0.189793927964E+03   -0.18654E-03   -0.14547E-03 10680   0.230E-01    0.215E-01
DAV:  10    -0.189794055051E+03   -0.12709E-03   -0.14998E-03  9960   0.248E-01    0.184E-01
DAV:  11    -0.189793687055E+03    0.36800E-03   -0.60958E-04  9360   0.129E-01    0.190E-02
DAV:  12    -0.189793715671E+03   -0.28616E-04   -0.85021E-05  6600   0.311E-02
   3 F= -.18979372E+03 E0= -.18967533E+03  d E =-.109354E+01
       N       E                     dE             d eps       ncg     rms          rms(c)
DAV:   1    -0.191366975282E+03   -0.15733E+01   -0.77750E+01  8160   0.201E+01    0.459E+00
DAV:   2    -0.191204163394E+03    0.16281E+00   -0.53933E+00 13200   0.783E+00    0.473E+00
DAV:   3    -0.191309671197E+03   -0.10551E+00   -0.15981E+00 12200   0.909E+00    0.648E+00
DAV:   4    -0.190936147747E+03    0.37352E+00   -0.13445E+00 12480   0.746E+00    0.296E+00
DAV:   5    -0.190886698659E+03    0.49449E-01   -0.43255E-01 12480   0.388E+00    0.284E+00
DAV:   6    -0.190805178155E+03    0.81521E-01   -0.20823E-01 12320   0.315E+00    0.127E+00
DAV:   7    -0.190790116867E+03    0.15061E-01   -0.47842E-02 12720   0.116E+00    0.407E-01
DAV:   8    -0.190787528139E+03    0.25887E-02   -0.65927E-03 10160   0.348E-01    0.199E-01
DAV:   9    -0.190787914413E+03   -0.38627E-03   -0.22634E-03 11680   0.314E-01    0.265E-01
DAV:  10    -0.190787648607E+03    0.26581E-03   -0.17746E-03 11000   0.238E-01    0.917E-02
DAV:  11    -0.190787543369E+03    0.10524E-03   -0.45391E-04  9160   0.823E-02    0.447E-02
DAV:  12    -0.190787540751E+03    0.26175E-05   -0.99072E-05  7280   0.385E-02
   4 F= -.19078754E+03 E0= -.19068266E+03  d E =-.993825E+00
       N       E                     dE             d eps       ncg     rms          rms(c)
DAV:   1    -0.192100737821E+03   -0.13132E+01   -0.16173E+02  8160   0.283E+01    0.559E+00
DAV:   2    -0.191864993398E+03    0.23574E+00   -0.92755E+00 11480   0.808E+00    0.389E+00
DAV:   3    -0.192062355356E+03   -0.19736E+00   -0.20644E+00 11200   0.870E+00    0.803E+00
DAV:   4    -0.191749900833E+03    0.31245E+00   -0.28821E+00 11440   0.108E+01    0.447E+00
DAV:   5    -0.191573041523E+03    0.17686E+00   -0.74862E-01 12360   0.550E+00    0.321E+00
DAV:   6    -0.191447383480E+03    0.12566E+00   -0.27453E-01 12280   0.376E+00    0.126E+00
DAV:   7    -0.191433144978E+03    0.14239E-01   -0.62152E-02 12280   0.132E+00    0.512E-01
DAV:   8    -0.191429015815E+03    0.41292E-02   -0.10598E-02 10720   0.491E-01    0.249E-01
DAV:   9    -0.191430231156E+03   -0.12153E-02   -0.51038E-03 12640   0.488E-01    0.408E-01
DAV:  10    -0.191428876929E+03    0.13542E-02   -0.35708E-03 11320   0.364E-01    0.623E-02
DAV:  11    -0.191428943842E+03   -0.66912E-04   -0.35633E-04  9080   0.709E-02
   5 F= -.19142894E+03 E0= -.19132369E+03  d E =-.641403E+00
       N       E                     dE             d eps       ncg     rms          rms(c)
DAV:   1    -0.191478049388E+03   -0.49172E-01   -0.39874E+00  8160   0.422E+00    0.591E-01
DAV:   2    -0.191530964458E+03   -0.52915E-01   -0.24654E-01 13040   0.270E+00    0.200E+00
DAV:   3    -0.191488787602E+03    0.42177E-01   -0.88039E-02 12440   0.209E+00    0.370E-01
DAV:   4    -0.191490382380E+03   -0.15948E-02   -0.11955E-02 11360   0.687E-01    0.585E-01
DAV:   5    -0.191487000879E+03    0.33815E-02   -0.74379E-03 10200   0.568E-01    0.179E-01
DAV:   6    -0.191486970648E+03    0.30231E-04   -0.17798E-03 10480   0.174E-01    0.126E-01
DAV:   7    -0.191486662007E+03    0.30864E-03   -0.91213E-04 10160   0.123E-01    0.650E-02
DAV:   8    -0.191486672813E+03   -0.10806E-04   -0.27331E-04  7640   0.108E-01
   6 F= -.19148667E+03 E0= -.19137910E+03  d E =-.577290E-01
       N       E                     dE             d eps       ncg     rms          rms(c)
DAV:   1    -0.191540037126E+03   -0.53375E-01   -0.46896E+00  8160   0.458E+00    0.572E-01
DAV:   2    -0.191574574073E+03   -0.34537E-01   -0.17486E-01 13600   0.202E+00    0.159E+00
DAV:   3    -0.191546781124E+03    0.27793E-01   -0.67204E-02 12440   0.185E+00    0.426E-01
DAV:   4    -0.191546377597E+03    0.40353E-03   -0.85018E-03 11160   0.528E-01    0.432E-01
DAV:   5    -0.191545118531E+03    0.12591E-02   -0.68841E-03 10640   0.541E-01    0.290E-01
DAV:   6    -0.191544474221E+03    0.64431E-03   -0.25213E-03 10000   0.273E-01    0.116E-01
DAV:   7    -0.191544308982E+03    0.16524E-03   -0.78204E-04 10440   0.118E-01    0.656E-02
DAV:   8    -0.191544317511E+03   -0.85296E-05   -0.30768E-04  8120   0.116E-01
   7 F= -.19154432E+03 E0= -.19143491E+03  d E =-.576447E-01
       N       E                     dE             d eps       ncg     rms          rms(c)
DAV:   1    -0.191546707456E+03   -0.23985E-02   -0.22019E-02  8160   0.336E-01    0.639E-02
DAV:   2    -0.191546813359E+03   -0.10590E-03   -0.13580E-03 11280   0.139E-01    0.107E-01
DAV:   3    -0.191546733508E+03    0.79851E-04   -0.45215E-04  9120   0.153E-01
   8 F= -.19154673E+03 E0= -.19143737E+03  d E =-.241600E-02
       N       E                     dE             d eps       ncg     rms          rms(c)
DAV:   1    -0.191527410106E+03    0.19403E-01   -0.12204E+00  8160   0.239E+00    0.460E-01
DAV:   2    -0.191552962309E+03   -0.25552E-01   -0.95305E-02 12760   0.192E+00    0.155E+00
DAV:   3    -0.191526759948E+03    0.26202E-01   -0.42468E-02 12120   0.152E+00    0.304E-01
DAV:   4    -0.191527822322E+03   -0.10624E-02   -0.81646E-03  9880   0.612E-01    0.474E-01
DAV:   5    -0.191525689450E+03    0.21329E-02   -0.61125E-03 10080   0.518E-01    0.203E-01
DAV:   6    -0.191525550561E+03    0.13889E-03   -0.24984E-03 11240   0.290E-01    0.206E-01
DAV:   7    -0.191525256508E+03    0.29405E-03   -0.16051E-03 10120   0.252E-01    0.110E-01
DAV:   8    -0.191525133310E+03    0.12320E-03   -0.33253E-04  7720   0.102E-01    0.248E-02
DAV:   9    -0.191525132196E+03    0.11138E-05   -0.38786E-05  6800   0.259E-02
   9 F= -.19152513E+03 E0= -.19141634E+03  d E =0.216013E-01
       N       E                     dE             d eps       ncg     rms          rms(c)
DAV:   1    -0.191573452713E+03   -0.48319E-01   -0.36753E+00  8160   0.408E+00    0.554E-01
DAV:   2    -0.191611113862E+03   -0.37661E-01   -0.16753E-01 13600   0.230E+00    0.175E+00
DAV:   3    -0.191578303921E+03    0.32810E-01   -0.69909E-02 12280   0.188E+00    0.331E-01
DAV:   4    -0.191579699913E+03   -0.13960E-02   -0.95738E-03 11480   0.629E-01    0.546E-01
DAV:   5    -0.191576794595E+03    0.29053E-02   -0.64241E-03 10760   0.564E-01    0.175E-01
DAV:   6    -0.191576740420E+03    0.54176E-04   -0.17759E-03 11280   0.201E-01    0.140E-01
DAV:   7    -0.191576850764E+03   -0.11034E-03   -0.18125E-03 10480   0.260E-01    0.216E-01
DAV:   8    -0.191576395095E+03    0.45567E-03   -0.92096E-04  8400   0.193E-01    0.316E-02
DAV:   9    -0.191576405668E+03   -0.10573E-04   -0.61044E-05  5680   0.330E-02
  10 F= -.19157641E+03 E0= -.19146665E+03  d E =-.512735E-01
       N       E                     dE             d eps       ncg     rms          rms(c)
DAV:   1    -0.191622140275E+03   -0.45745E-01   -0.27536E+00  8160   0.353E+00    0.478E-01
DAV:   2    -0.191647708406E+03   -0.25568E-01   -0.11437E-01 13600   0.190E+00    0.148E+00
DAV:   3    -0.191624839230E+03    0.22869E-01   -0.46094E-02 12160   0.158E+00    0.310E-01
DAV:   4    -0.191626182947E+03   -0.13437E-02   -0.85197E-03 11280   0.597E-01    0.516E-01
DAV:   5    -0.191623531275E+03    0.26517E-02   -0.59595E-03 10840   0.530E-01    0.161E-01
DAV:   6    -0.191623377770E+03    0.15350E-03   -0.16032E-03 10080   0.183E-01    0.101E-01
DAV:   7    -0.191623283033E+03    0.94737E-04   -0.70160E-04 10720   0.137E-01
  11 F= -.19162328E+03 E0= -.19151400E+03  d E =-.468774E-01
       N       E                     dE             d eps       ncg     rms          rms(c)
DAV:   1    -0.191639410130E+03   -0.16032E-01   -0.32319E-01  8160   0.121E+00    0.147E-01
DAV:   2    -0.191640902515E+03   -0.14924E-02   -0.10295E-02 13520   0.406E-01    0.323E-01
DAV:   3    -0.191639885683E+03    0.10168E-02   -0.35703E-03 11360   0.421E-01    0.157E-01
DAV:   4    -0.191639866709E+03    0.18974E-04   -0.96761E-04  8680   0.192E-01
  12 F= -.19163987E+03 E0= -.19153142E+03  d E =-.165837E-01
       N       E                     dE             d eps       ncg     rms          rms(c)
DAV:   1    -0.191553118857E+03    0.86767E-01   -0.84412E+00  8160   0.617E+00    0.701E-01
DAV:   2    -0.191596659355E+03   -0.43540E-01   -0.26506E-01 13600   0.215E+00    0.166E+00
DAV:   3    -0.191565023750E+03    0.31636E-01   -0.76471E-02 12080   0.201E+00    0.603E-01
DAV:   4    -0.191564448969E+03    0.57478E-03   -0.18205E-02 12080   0.772E-01    0.630E-01
DAV:   5    -0.191561411184E+03    0.30378E-02   -0.12933E-02 11040   0.721E-01    0.329E-01
DAV:   6    -0.191560473016E+03    0.93817E-03   -0.37296E-03 11520   0.328E-01    0.143E-01
DAV:   7    -0.191560527380E+03   -0.54365E-04   -0.18919E-03 12040   0.238E-01    0.197E-01
DAV:   8    -0.191560171278E+03    0.35610E-03   -0.11183E-03  8800   0.226E-01    0.790E-02
DAV:   9    -0.191560113136E+03    0.58142E-04   -0.16344E-04  6040   0.752E-02
  13 F= -.19156011E+03 E0= -.19144960E+03  d E =0.797536E-01
       N       E                     dE             d eps       ncg     rms          rms(c)
DAV:   1    -0.191450757338E+03    0.10941E+00   -0.16890E+01  8160   0.873E+00    0.972E-01
DAV:   2    -0.191521937109E+03   -0.71180E-01   -0.50461E-01 13600   0.269E+00    0.201E+00
DAV:   3    -0.191477627752E+03    0.44309E-01   -0.13252E-01 12000   0.260E+00    0.956E-01
DAV:   4    -0.191473268754E+03    0.43590E-02   -0.34936E-02 12240   0.109E+00    0.796E-01
DAV:   5    -0.191469355627E+03    0.39131E-02   -0.24767E-02 11280   0.998E-01    0.553E-01
DAV:   6    -0.191466649267E+03    0.27064E-02   -0.89967E-03 11920   0.561E-01    0.226E-01
DAV:   7    -0.191466564194E+03    0.85073E-04   -0.37482E-03 11960   0.319E-01    0.248E-01
DAV:   8    -0.191466046770E+03    0.51742E-03   -0.20538E-03 10160   0.303E-01    0.133E-01
DAV:   9    -0.191465866851E+03    0.17992E-03   -0.42520E-04  8800   0.121E-01    0.346E-02
DAV:  10    -0.191465852976E+03    0.13875E-04   -0.97630E-05  7520   0.359E-02
  14 F= -.19146585E+03 E0= -.19135688E+03  d E =0.942602E-01
       N       E                     dE             d eps       ncg     rms          rms(c)
DAV:   1    -0.191468637348E+03   -0.27705E-02   -0.17969E+00  8160   0.283E+00    0.331E-01
DAV:   2    -0.191476004186E+03   -0.73668E-02   -0.59193E-02 12320   0.949E-01    0.740E-01
DAV:   3    -0.191472048979E+03    0.39552E-02   -0.21067E-02 12200   0.915E-01    0.431E-01
DAV:   4    -0.191470412915E+03    0.16361E-02   -0.49436E-03 10920   0.384E-01    0.154E-01
DAV:   5    -0.191470304734E+03    0.10818E-03   -0.18156E-03 11240   0.247E-01    0.177E-01
DAV:   6    -0.191470145688E+03    0.15905E-03   -0.13771E-03 10000   0.264E-01    0.119E-01
DAV:   7    -0.191470001222E+03    0.14447E-03   -0.39174E-04  8320   0.124E-01    0.474E-02
DAV:   8    -0.191470004474E+03   -0.32524E-05   -0.14659E-04  6640   0.826E-02
  15 F= -.19147000E+03 E0= -.19136030E+03  d E =-.415150E-02
       N       E                     dE             d eps       ncg     rms          rms(c)
DAV:   1    -0.191446371020E+03    0.23630E-01   -0.91836E+00  8160   0.637E+00    0.670E-01
DAV:   2    -0.191478324193E+03   -0.31953E-01   -0.22978E-01 13400   0.181E+00    0.152E+00
DAV:   3    -0.191461162493E+03    0.17162E-01   -0.79916E-02 12440   0.188E+00    0.849E-01
DAV:   4    -0.191455995412E+03    0.51671E-02   -0.19501E-02 11960   0.793E-01    0.474E-01
DAV:   5    -0.191454484342E+03    0.15111E-02   -0.95637E-03 11560   0.684E-01    0.379E-01
DAV:   6    -0.191453500355E+03    0.98399E-03   -0.56225E-03 11680   0.492E-01    0.251E-01
DAV:   7    -0.191454136679E+03   -0.63632E-03   -0.49096E-03 11040   0.454E-01    0.363E-01
DAV:   8    -0.191452833136E+03    0.13035E-02   -0.24915E-03  9840   0.333E-01    0.573E-02
DAV:   9    -0.191452809895E+03    0.23241E-04   -0.13359E-04  5680   0.512E-02
  16 F= -.19145281E+03 E0= -.19134404E+03  d E =0.171946E-01
       N       E                     dE             d eps       ncg     rms          rms(c)
DAV:   1    -0.191479845020E+03   -0.27012E-01   -0.27269E+00  8160   0.352E+00    0.415E-01
DAV:   2    -0.191493058628E+03   -0.13214E-01   -0.91035E-02 13240   0.123E+00    0.957E-01
DAV:   3    -0.191484589904E+03    0.84687E-02   -0.32485E-02 12040   0.122E+00    0.454E-01
DAV:   4    -0.191484183028E+03    0.40688E-03   -0.85204E-03 11120   0.567E-01    0.431E-01
DAV:   5    -0.191482391165E+03    0.17919E-02   -0.46515E-03 10560   0.459E-01    0.180E-01
DAV:   6    -0.191482120485E+03    0.27068E-03   -0.13972E-03 10160   0.183E-01    0.102E-01
DAV:   7    -0.191482361558E+03   -0.24107E-03   -0.11974E-03 10840   0.218E-01    0.200E-01
DAV:   8    -0.191481970798E+03    0.39076E-03   -0.66827E-04  8640   0.178E-01    0.266E-02
DAV:   9    -0.191481982857E+03   -0.12059E-04   -0.40675E-05  5880   0.292E-02
  17 F= -.19148198E+03 E0= -.19137117E+03  d E =-.291730E-01
       N       E                     dE             d eps       ncg     rms          rms(c)
DAV:   1    -0.191495066733E+03   -0.13096E-01   -0.60804E-01  8160   0.167E+00    0.194E-01
DAV:   2    -0.191498370884E+03   -0.33042E-02   -0.21602E-02 13280   0.640E-01    0.513E-01
DAV:   3    -0.191496104685E+03    0.22662E-02   -0.77137E-03 11480   0.565E-01    0.204E-01
DAV:   4    -0.191496055994E+03    0.48691E-04   -0.17562E-03  9800   0.267E-01    0.194E-01
DAV:   5    -0.191495695918E+03    0.36008E-03   -0.10070E-03 10000   0.225E-01    0.888E-02
DAV:   6    -0.191495637841E+03    0.58076E-04   -0.34705E-04  7240   0.967E-02
  18 F= -.19149564E+03 E0= -.19138415E+03  d E =-.136550E-01
       N       E                     dE             d eps       ncg     rms          rms(c)
DAV:   1    -0.191474952733E+03    0.20743E-01   -0.10473E+00  8160   0.219E+00    0.247E-01
DAV:   2    -0.191480214314E+03   -0.52616E-02   -0.35156E-02 12840   0.765E-01    0.626E-01
DAV:   3    -0.191476760907E+03    0.34534E-02   -0.11079E-02 11680   0.712E-01    0.259E-01
DAV:   4    -0.191476360450E+03    0.40046E-03   -0.21965E-03 10960   0.281E-01    0.174E-01
DAV:   5    -0.191476106863E+03    0.25359E-03   -0.11263E-03 10280   0.243E-01    0.126E-01
DAV:   6    -0.191475970696E+03    0.13617E-03   -0.60915E-04  8520   0.155E-01    0.632E-02
DAV:   7    -0.191475970120E+03    0.57571E-06   -0.30050E-04  7600   0.963E-02
  19 F= -.19147597E+03 E0= -.19136523E+03  d E =0.196677E-01
       N       E                     dE             d eps       ncg     rms          rms(c)
DAV:   1    -0.191447966576E+03    0.28004E-01   -0.40679E+00  8160   0.430E+00    0.453E-01
DAV:   2    -0.191461000323E+03   -0.13034E-01   -0.11485E-01 13440   0.122E+00    0.919E-01
DAV:   3    -0.191455944621E+03    0.50557E-02   -0.33403E-02 12480   0.118E+00    0.618E-01
DAV:   4    -0.191452765186E+03    0.31794E-02   -0.89048E-03 11680   0.536E-01    0.222E-01
DAV:   5    -0.191452088722E+03    0.67646E-03   -0.26821E-03 10720   0.263E-01    0.176E-01
DAV:   6    -0.191452833547E+03   -0.74483E-03   -0.33892E-03 11600   0.395E-01    0.314E-01
DAV:   7    -0.191451860564E+03    0.97298E-03   -0.19599E-03  9880   0.293E-01    0.946E-02
DAV:   8    -0.191451806789E+03    0.53776E-04   -0.31780E-04  8080   0.123E-01
  20 F= -.19145181E+03 E0= -.19134193E+03  d E =0.241633E-01
       N       E                     dE             d eps       ncg     rms          rms(c)
DAV:   1    -0.191451732754E+03    0.12781E-03   -0.11464E-04  6960   0.551E-02    0.169E-02
DAV:   2    -0.191451745640E+03   -0.12886E-04   -0.58069E-05  7040   0.443E-02
  21 F= -.19145175E+03 E0= -.19134192E+03  d E =0.611487E-04
       N       E                     dE             d eps       ncg     rms          rms(c)
DAV:   1    -0.191479139921E+03   -0.27407E-01   -0.23781E+00  8160   0.333E+00    0.463E-01
DAV:   2    -0.191499922526E+03   -0.20783E-01   -0.10877E-01 12240   0.164E+00    0.137E+00
DAV:   3    -0.191482291668E+03    0.17631E-01   -0.49159E-02 12240   0.146E+00    0.417E-01
DAV:   4    -0.191483337123E+03   -0.10455E-02   -0.11566E-02 10880   0.688E-01    0.552E-01
DAV:   5    -0.191480207344E+03    0.31298E-02   -0.67810E-03 10160   0.547E-01    0.169E-01
DAV:   6    -0.191479958243E+03    0.24910E-03   -0.16550E-03 10560   0.185E-01    0.102E-01
DAV:   7    -0.191480121338E+03   -0.16310E-03   -0.12803E-03 10680   0.225E-01    0.190E-01
DAV:   8    -0.191479763178E+03    0.35816E-03   -0.69680E-04  8520   0.176E-01    0.347E-02
DAV:   9    -0.191479762347E+03    0.83073E-06   -0.52565E-05  5880   0.333E-02
  22 F= -.19147976E+03 E0= -.19136772E+03  d E =-.280167E-01
       N       E                     dE             d eps       ncg     rms          rms(c)
DAV:   1    -0.191484088062E+03   -0.43249E-02   -0.38637E-01  8160   0.133E+00    0.182E-01
DAV:   2    -0.191484590143E+03   -0.50208E-03   -0.10273E-02 13200   0.347E-01    0.269E-01
DAV:   3    -0.191484545364E+03    0.44779E-04   -0.51827E-03 11480   0.453E-01    0.299E-01
DAV:   4    -0.191483812707E+03    0.73266E-03   -0.21002E-03  9560   0.277E-01    0.133E-01
DAV:   5    -0.191483749775E+03    0.62932E-04   -0.87166E-04  8520   0.210E-01
  23 F= -.19148375E+03 E0= -.19137155E+03  d E =-.398743E-02
       N       E                     dE             d eps       ncg     rms          rms(c)
DAV:   1    -0.191507026616E+03   -0.23214E-01   -0.14998E+00  8160   0.262E+00    0.342E-01
DAV:   2    -0.191519232363E+03   -0.12206E-01   -0.60156E-02 13320   0.119E+00    0.102E+00
DAV:   3    -0.191509110795E+03    0.10122E-01   -0.27750E-02 12200   0.110E+00    0.318E-01
DAV:   4    -0.191509663601E+03   -0.55281E-03   -0.61851E-03 10040   0.487E-01    0.397E-01
DAV:   5    -0.191508054712E+03    0.16089E-02   -0.32765E-03 10040   0.381E-01    0.114E-01
DAV:   6    -0.191508003590E+03    0.51123E-04   -0.81296E-04 10200   0.138E-01
  24 F= -.19150800E+03 E0= -.19139430E+03  d E =-.242538E-01
       N       E                     dE             d eps       ncg     rms          rms(c)
DAV:   1    -0.191454234567E+03    0.53820E-01   -0.67408E+00  8160   0.556E+00    0.704E-01
DAV:   2    -0.191501794853E+03   -0.47560E-01   -0.25813E-01 13120   0.238E+00    0.186E+00
DAV:   3    -0.191462963433E+03    0.38831E-01   -0.81329E-02 11520   0.207E+00    0.610E-01
DAV:   4    -0.191464210717E+03   -0.12473E-02   -0.21702E-02 11320   0.930E-01    0.749E-01
DAV:   5    -0.191458814656E+03    0.53961E-02   -0.14283E-02 10800   0.799E-01    0.285E-01
DAV:   6    -0.191458503966E+03    0.31069E-03   -0.44607E-03 11320   0.369E-01    0.276E-01
DAV:   7    -0.191458760075E+03   -0.25611E-03   -0.48867E-03 11400   0.455E-01    0.324E-01
DAV:   8    -0.191457662944E+03    0.10971E-02   -0.18621E-03  9760   0.273E-01    0.380E-02
DAV:   9    -0.191457677962E+03   -0.15018E-04   -0.11678E-04  6240   0.412E-02
  25 F= -.19145768E+03 E0= -.19134739E+03  d E =0.503256E-01
       N       E                     dE             d eps       ncg     rms          rms(c)
DAV:   1    -0.191486553483E+03   -0.28891E-01   -0.24687E+00  8160   0.339E+00    0.524E-01
DAV:   2    -0.191518920985E+03   -0.32368E-01   -0.13492E-01 13160   0.207E+00    0.174E+00
DAV:   3    -0.191488662094E+03    0.30259E-01   -0.68886E-02 12200   0.178E+00    0.398E-01
DAV:   4    -0.191490546372E+03   -0.18843E-02   -0.13690E-02 10280   0.741E-01    0.612E-01
DAV:   5    -0.191486654678E+03    0.38917E-02   -0.82421E-03 10120   0.581E-01    0.170E-01
DAV:   6    -0.191486546967E+03    0.10771E-03   -0.20581E-03 10760   0.220E-01    0.168E-01
DAV:   7    -0.191486627281E+03   -0.80313E-04   -0.19874E-03 10320   0.293E-01    0.204E-01
DAV:   8    -0.191486191949E+03    0.43533E-03   -0.76043E-04  8160   0.178E-01    0.280E-02
DAV:   9    -0.191486195391E+03   -0.34414E-05   -0.61203E-05  6160   0.301E-02
  26 F= -.19148620E+03 E0= -.19137344E+03  d E =-.285174E-01
       N       E                     dE             d eps       ncg     rms          rms(c)
DAV:   1    -0.191495975205E+03   -0.97833E-02   -0.28935E-01  8160   0.115E+00    0.147E-01
DAV:   2    -0.191497332349E+03   -0.13571E-02   -0.10621E-02 12320   0.384E-01    0.333E-01
DAV:   3    -0.191496496831E+03    0.83552E-03   -0.44140E-03 11400   0.416E-01    0.192E-01
DAV:   4    -0.191496279996E+03    0.21684E-03   -0.98452E-04  8640   0.182E-01    0.124E-01
DAV:   5    -0.191496146927E+03    0.13307E-03   -0.45767E-04  8280   0.154E-01    0.685E-02
DAV:   6    -0.191496119777E+03    0.27150E-04   -0.19031E-04  6240   0.849E-02
  27 F= -.19149612E+03 E0= -.19138284E+03  d E =-.992439E-02
       N       E                     dE             d eps       ncg     rms          rms(c)
DAV:   1    -0.191517194696E+03   -0.21048E-01   -0.12347E+00  8160   0.237E+00    0.303E-01
DAV:   2    -0.191526417193E+03   -0.92225E-02   -0.47883E-02 13360   0.102E+00    0.897E-01
DAV:   3    -0.191519000740E+03    0.74165E-02   -0.22625E-02 11280   0.957E-01    0.302E-01
DAV:   4    -0.191519416632E+03   -0.41589E-03   -0.48961E-03 10840   0.449E-01    0.364E-01
DAV:   5    -0.191518034851E+03    0.13818E-02   -0.25927E-03  9840   0.349E-01    0.929E-02
DAV:   6    -0.191518007224E+03    0.27627E-04   -0.53026E-04 10160   0.968E-02
  28 F= -.19151801E+03 E0= -.19140342E+03  d E =-.218874E-01
       N       E                     dE             d eps       ncg     rms          rms(c)
DAV:   1    -0.191497050310E+03    0.20985E-01   -0.10554E+00  8160   0.220E+00    0.279E-01
DAV:   2    -0.191503765173E+03   -0.67149E-02   -0.38690E-02 13560   0.928E-01    0.728E-01
DAV:   3    -0.191498178681E+03    0.55865E-02   -0.13776E-02 11640   0.810E-01    0.235E-01
DAV:   4    -0.191498592229E+03   -0.41355E-03   -0.37838E-03 10440   0.387E-01    0.328E-01
DAV:   5    -0.191497548833E+03    0.10434E-02   -0.23082E-03  9600   0.329E-01    0.997E-02
DAV:   6    -0.191497475836E+03    0.72997E-04   -0.56889E-04 10000   0.113E-01
  29 F= -.19149748E+03 E0= -.19138420E+03  d E =0.205314E-01
       N       E                     dE             d eps       ncg     rms          rms(c)
DAV:   1    -0.191398210071E+03    0.99339E-01   -0.24775E+01  8160   0.107E+01    0.126E+00
DAV:   2    -0.191529165424E+03   -0.13096E+00   -0.85221E-01 13480   0.375E+00    0.290E+00
DAV:   3    -0.191438206496E+03    0.90959E-01   -0.23399E-01 12240   0.348E+00    0.125E+00
DAV:   4    -0.191439912930E+03   -0.17064E-02   -0.74370E-02 12440   0.172E+00    0.143E+00
DAV:   5    -0.191421460042E+03    0.18453E-01   -0.49026E-02 11040   0.148E+00    0.502E-01
DAV:   6    -0.191419273817E+03    0.21862E-02   -0.11497E-02 11160   0.561E-01    0.325E-01
DAV:   7    -0.191421834975E+03   -0.25612E-02   -0.11975E-02 12960   0.730E-01    0.656E-01
DAV:   8    -0.191417678820E+03    0.41562E-02   -0.66478E-03 11320   0.566E-01    0.744E-02
DAV:   9    -0.191417679313E+03   -0.49300E-06   -0.42527E-04  9840   0.785E-02
  30 F= -.19141768E+03 E0= -.19130937E+03  d E =0.797965E-01
       N       E                     dE             d eps       ncg     rms          rms(c)
DAV:   1    -0.191442565910E+03   -0.24887E-01   -0.23911E+00  8160   0.333E+00    0.524E-01
DAV:   2    -0.191480586764E+03   -0.38021E-01   -0.13958E-01 12480   0.215E+00    0.193E+00
DAV:   3    -0.191445254841E+03    0.35332E-01   -0.80806E-02 12080   0.188E+00    0.457E-01
DAV:   4    -0.191446024213E+03   -0.76937E-03   -0.12575E-02 11120   0.741E-01    0.540E-01
DAV:   5    -0.191442849942E+03    0.31743E-02   -0.60642E-03 10920   0.514E-01    0.147E-01
DAV:   6    -0.191442773327E+03    0.76615E-04   -0.16805E-03 10400   0.197E-01    0.148E-01
DAV:   7    -0.191442932900E+03   -0.15957E-03   -0.17595E-03 10520   0.284E-01    0.206E-01
DAV:   8    -0.191442483471E+03    0.44943E-03   -0.70218E-04  8280   0.176E-01    0.227E-02
DAV:   9    -0.191442494876E+03   -0.11405E-04   -0.51571E-05  6040   0.262E-02
  31 F= -.19144249E+03 E0= -.19133242E+03  d E =-.248156E-01
       N       E                     dE             d eps       ncg     rms          rms(c)
DAV:   1    -0.191443284614E+03   -0.80114E-03   -0.56797E-01  8160   0.159E+00    0.181E-01
DAV:   2    -0.191447176646E+03   -0.38920E-02   -0.18430E-02 13600   0.668E-01    0.605E-01
DAV:   3    -0.191443913072E+03    0.32636E-02   -0.77191E-03 11480   0.576E-01    0.152E-01
DAV:   4    -0.191443974779E+03   -0.61707E-04   -0.10070E-03  9520   0.211E-01    0.158E-01
DAV:   5    -0.191443736478E+03    0.23830E-03   -0.70183E-04  9040   0.202E-01    0.799E-02
DAV:   6    -0.191443717158E+03    0.19320E-04   -0.28169E-04  7560   0.960E-02
  32 F= -.19144372E+03 E0= -.19133383E+03  d E =-.122228E-02
       N       E                     dE             d eps       ncg     rms          rms(c)
DAV:   1    -0.191458902064E+03   -0.15166E-01   -0.11179E+00  8160   0.227E+00    0.300E-01
DAV:   2    -0.191468515548E+03   -0.96135E-02   -0.46591E-02 13440   0.106E+00    0.926E-01
DAV:   3    -0.191460459024E+03    0.80565E-02   -0.21527E-02 11680   0.967E-01    0.293E-01
DAV:   4    -0.191460653339E+03   -0.19431E-03   -0.44935E-03 11120   0.436E-01    0.333E-01
DAV:   5    -0.191459547607E+03    0.11057E-02   -0.24236E-03  9800   0.339E-01    0.109E-01
DAV:   6    -0.191459412365E+03    0.13524E-03   -0.59682E-04 10240   0.116E-01    0.575E-02
DAV:   7    -0.191459557711E+03   -0.14535E-03   -0.53621E-04  9320   0.151E-01    0.139E-01
DAV:   8    -0.191459358845E+03    0.19887E-03   -0.34826E-04  7280   0.129E-01    0.189E-02
DAV:   9    -0.191459368168E+03   -0.93225E-05   -0.25007E-05  5840   0.216E-02
  33 F= -.19145937E+03 E0= -.19134846E+03  d E =-.156510E-01
       N       E                     dE             d eps       ncg     rms          rms(c)
DAV:   1    -0.191466076578E+03   -0.67177E-02   -0.18314E-01  8160   0.915E-01    0.128E-01
DAV:   2    -0.191468246608E+03   -0.21700E-02   -0.89515E-03 13520   0.487E-01    0.449E-01
DAV:   3    -0.191466295600E+03    0.19510E-02   -0.46238E-03 11200   0.447E-01    0.113E-01
DAV:   4    -0.191466348429E+03   -0.52830E-04   -0.64993E-04  8280   0.166E-01
  34 F= -.19146635E+03 E0= -.19135509E+03  d E =-.698026E-02
       N       E                     dE             d eps       ncg     rms          rms(c)
DAV:   1    -0.191460792706E+03    0.55029E-02   -0.19891E-01  8160   0.990E-01    0.130E-01
DAV:   2    -0.191462282472E+03   -0.14898E-02   -0.81295E-03 12720   0.404E-01    0.374E-01
DAV:   3    -0.191460990275E+03    0.12922E-02   -0.35141E-03 11200   0.400E-01    0.132E-01
DAV:   4    -0.191461016119E+03   -0.25844E-04   -0.80851E-04  8480   0.171E-01
  35 F= -.19146102E+03 E0= -.19134963E+03  d E =0.533231E-02
       N       E                     dE             d eps       ncg     rms          rms(c)
DAV:   1    -0.191476077686E+03   -0.15087E-01   -0.95725E-01  8160   0.210E+00    0.337E-01
DAV:   2    -0.191491032102E+03   -0.14954E-01   -0.57768E-02 13120   0.132E+00    0.123E+00
DAV:   3    -0.191476785174E+03    0.14247E-01   -0.33184E-02 11800   0.119E+00    0.279E-01
DAV:   4    -0.191477223326E+03   -0.43815E-03   -0.49652E-03 11360   0.467E-01    0.350E-01
DAV:   5    -0.191475957917E+03    0.12654E-02   -0.28657E-03 10000   0.368E-01    0.125E-01
DAV:   6    -0.191475987050E+03   -0.29133E-04   -0.11146E-03 10040   0.194E-01    0.159E-01
DAV:   7    -0.191475817728E+03    0.16932E-03   -0.91367E-04  8240   0.201E-01    0.908E-02
DAV:   8    -0.191475731290E+03    0.86438E-04   -0.17487E-04  5560   0.829E-02
  36 F= -.19147573E+03 E0= -.19136352E+03  d E =-.147152E-01
       N       E                     dE             d eps       ncg     rms          rms(c)
DAV:   1    -0.191480804840E+03   -0.49871E-02   -0.94875E-02  8160   0.667E-01    0.991E-02
DAV:   2    -0.191481447569E+03   -0.64273E-03   -0.42951E-03 12640   0.278E-01    0.255E-01
DAV:   3    -0.191480905188E+03    0.54238E-03   -0.21085E-03  9800   0.290E-01    0.117E-01
DAV:   4    -0.191480787736E+03    0.11745E-03   -0.32372E-04  7640   0.998E-02    0.464E-02
DAV:   5    -0.191480820414E+03   -0.32678E-04   -0.19621E-04  6160   0.978E-02
  37 F= -.19148082E+03 E0= -.19136841E+03  d E =-.508912E-02
       N       E                     dE             d eps       ncg     rms          rms(c)
DAV:   1    -0.191500461905E+03   -0.19674E-01   -0.14875E+00  8160   0.261E+00    0.346E-01
DAV:   2    -0.191514316766E+03   -0.13855E-01   -0.64136E-02 13520   0.120E+00    0.115E+00
DAV:   3    -0.191502374748E+03    0.11942E-01   -0.33594E-02 12040   0.116E+00    0.316E-01
DAV:   4    -0.191501855193E+03    0.51955E-03   -0.35701E-03 11280   0.321E-01    0.236E-01
DAV:   5    -0.191501535665E+03    0.31953E-03   -0.23539E-03 10600   0.331E-01    0.204E-01
DAV:   6    -0.191501247078E+03    0.28859E-03   -0.14689E-03  9600   0.238E-01    0.129E-01
DAV:   7    -0.191501323464E+03   -0.76386E-04   -0.10839E-03  9680   0.219E-01    0.146E-01
DAV:   8    -0.191501085785E+03    0.23768E-03   -0.41575E-04  8200   0.142E-01    0.221E-02
DAV:   9    -0.191501090249E+03   -0.44632E-05   -0.36005E-05  6560   0.246E-02
  38 F= -.19150109E+03 E0= -.19138781E+03  d E =-.202698E-01
       N       E                     dE             d eps       ncg     rms          rms(c)
DAV:   1    -0.191502273642E+03   -0.11879E-02   -0.62128E-03  8160   0.169E-01    0.221E-02
DAV:   2    -0.191502342305E+03   -0.68662E-04   -0.27191E-04  8920   0.864E-02
  39 F= -.19150234E+03 E0= -.19138886E+03  d E =-.125206E-02
       N       E                     dE             d eps       ncg     rms          rms(c)
DAV:   1    -0.191522278748E+03   -0.20005E-01   -0.12491E+00  8160   0.242E+00    0.335E-01
DAV:   2    -0.191531451299E+03   -0.91726E-02   -0.52421E-02 13400   0.108E+00    0.934E-01
DAV:   3    -0.191523743259E+03    0.77080E-02   -0.25045E-02 12240   0.102E+00    0.337E-01
DAV:   4    -0.191523509370E+03    0.23389E-03   -0.50715E-03 11160   0.443E-01    0.317E-01
DAV:   5    -0.191522583206E+03    0.92616E-03   -0.30049E-03 10120   0.386E-01    0.170E-01
DAV:   6    -0.191522361825E+03    0.22138E-03   -0.12781E-03  9600   0.205E-01    0.123E-01
DAV:   7    -0.191522434163E+03   -0.72338E-04   -0.11420E-03  8520   0.218E-01    0.154E-01
DAV:   8    -0.191522191959E+03    0.24220E-03   -0.46799E-04  7640   0.140E-01    0.241E-02
DAV:   9    -0.191522192818E+03   -0.85954E-06   -0.43564E-05  6160   0.267E-02
  40 F= -.19152219E+03 E0= -.19140774E+03  d E =-.198505E-01
       N       E                     dE             d eps       ncg     rms          rms(c)
DAV:   1    -0.191525740386E+03   -0.35484E-02   -0.36834E-02  8160   0.412E-01    0.537E-02
DAV:   2    -0.191525968517E+03   -0.22813E-03   -0.14728E-03 12520   0.164E-01    0.143E-01
DAV:   3    -0.191525783052E+03    0.18546E-03   -0.61283E-04  8160   0.158E-01    0.541E-02
DAV:   4    -0.191525766658E+03    0.16394E-04   -0.80053E-05  5440   0.555E-02
  41 F= -.19152577E+03 E0= -.19141116E+03  d E =-.357384E-02
       N       E                     dE             d eps       ncg     rms          rms(c)
DAV:   1    -0.191545467239E+03   -0.19684E-01   -0.11169E+00  8160   0.227E+00    0.285E-01
DAV:   2    -0.191551129651E+03   -0.56624E-02   -0.39606E-02 12520   0.818E-01    0.697E-01
DAV:   3    -0.191547146535E+03    0.39831E-02   -0.17176E-02 12440   0.826E-01    0.333E-01
DAV:   4    -0.191546165046E+03    0.98149E-03   -0.28278E-03 10960   0.292E-01    0.129E-01
DAV:   5    -0.191546138350E+03    0.26696E-04   -0.13043E-03 10320   0.215E-01    0.184E-01
DAV:   6    -0.191545973024E+03    0.16533E-03   -0.13484E-03  9760   0.243E-01    0.123E-01
DAV:   7    -0.191545870632E+03    0.10239E-03   -0.42644E-04  7760   0.124E-01    0.610E-02
DAV:   8    -0.191545838556E+03    0.32077E-04   -0.12361E-04  6800   0.851E-02
  42 F= -.19154584E+03 E0= -.19143081E+03  d E =-.200719E-01
       N       E                     dE             d eps       ncg     rms          rms(c)
DAV:   1    -0.191549418646E+03   -0.35480E-02   -0.31251E-02  8160   0.382E-01    0.549E-02
DAV:   2    -0.191549513285E+03   -0.94639E-04   -0.11586E-03 11440   0.131E-01    0.944E-02
DAV:   3    -0.191549465847E+03    0.47438E-04   -0.44101E-04  8480   0.140E-01
  43 F= -.19154947E+03 E0= -.19143458E+03  d E =-.362729E-02
       N       E                     dE             d eps       ncg     rms          rms(c)
DAV:   1    -0.191578967908E+03   -0.29455E-01   -0.20332E+00  8160   0.308E+00    0.406E-01
DAV:   2    -0.191586966949E+03   -0.79990E-02   -0.69257E-02 13240   0.108E+00    0.843E-01
DAV:   3    -0.191581862230E+03    0.51047E-02   -0.28545E-02 12120   0.110E+00    0.488E-01
DAV:   4    -0.191580222228E+03    0.16400E-02   -0.80377E-03 10520   0.549E-01    0.320E-01
DAV:   5    -0.191579481700E+03    0.74053E-03   -0.44408E-03 10360   0.459E-01    0.244E-01
DAV:   6    -0.191578833689E+03    0.64801E-03   -0.21298E-03 11280   0.276E-01    0.836E-02
DAV:   7    -0.191578823395E+03    0.10294E-04   -0.59074E-04  9880   0.124E-01
  44 F= -.19157882E+03 E0= -.19146366E+03  d E =-.293575E-01
       N       E                     dE             d eps       ncg     rms          rms(c)
DAV:   1    -0.191587559912E+03   -0.87262E-02   -0.16874E-01  8160   0.890E-01    0.122E-01
DAV:   2    -0.191588770743E+03   -0.12108E-02   -0.72222E-03 11640   0.370E-01    0.326E-01
DAV:   3    -0.191587783337E+03    0.98741E-03   -0.30868E-03 11000   0.364E-01    0.127E-01
DAV:   4    -0.191587711531E+03    0.71806E-04   -0.58468E-04  8200   0.144E-01
  45 F= -.19158771E+03 E0= -.19147245E+03  d E =-.888814E-02
       N       E                     dE             d eps       ncg     rms          rms(c)
DAV:   1    -0.191604102669E+03   -0.16319E-01   -0.60902E-01  8160   0.169E+00    0.223E-01
DAV:   2    -0.191605125367E+03   -0.10227E-02   -0.19231E-02 11520   0.402E-01    0.244E-01
DAV:   3    -0.191605579982E+03   -0.45461E-03   -0.61295E-03 11880   0.494E-01    0.369E-01
DAV:   4    -0.191604359908E+03    0.12201E-02   -0.30391E-03 10160   0.364E-01    0.126E-01
DAV:   5    -0.191604261998E+03    0.97910E-04   -0.97343E-04  9840   0.186E-01
  46 F= -.19160426E+03 E0= -.19148946E+03  d E =-.165505E-01
       N       E                     dE             d eps       ncg     rms          rms(c)
DAV:   1    -0.191616513762E+03   -0.12154E-01   -0.30689E-01  8160   0.120E+00    0.184E-01
DAV:   2    -0.191618091672E+03   -0.15779E-02   -0.11289E-02 11880   0.524E-01    0.410E-01
DAV:   3    -0.191616488629E+03    0.16030E-02   -0.46880E-03 10640   0.485E-01    0.162E-01
DAV:   4    -0.191616635116E+03   -0.14649E-03   -0.16779E-03  9960   0.265E-01    0.214E-01
DAV:   5    -0.191616201239E+03    0.43388E-03   -0.11470E-03  9560   0.235E-01    0.788E-02
DAV:   6    -0.191616130984E+03    0.70255E-04   -0.28054E-04  6320   0.869E-02
  47 F= -.19161613E+03 E0= -.19150186E+03  d E =-.118690E-01
       N       E                     dE             d eps       ncg     rms          rms(c)
DAV:   1    -0.191652968248E+03   -0.36767E-01   -0.29985E+00  8160   0.373E+00    0.425E-01
DAV:   2    -0.191658022566E+03   -0.50543E-02   -0.87934E-02 12080   0.825E-01    0.412E-01
DAV:   3    -0.191659608790E+03   -0.15862E-02   -0.19410E-02 12200   0.905E-01    0.632E-01
DAV:   4    -0.191656238828E+03    0.33700E-02   -0.10913E-02 12160   0.721E-01    0.298E-01
DAV:   5    -0.191655526022E+03    0.71281E-03   -0.35207E-03 11200   0.407E-01    0.243E-01
DAV:   6    -0.191655199415E+03    0.32661E-03   -0.21142E-03 10640   0.332E-01    0.149E-01
DAV:   7    -0.191654942868E+03    0.25655E-03   -0.74302E-04  9920   0.153E-01    0.540E-02
DAV:   8    -0.191654936798E+03    0.60708E-05   -0.21453E-04  7160   0.929E-02
  48 F= -.19165494E+03 E0= -.19154252E+03  d E =-.388058E-01
       N       E                     dE             d eps       ncg     rms          rms(c)
DAV:   1    -0.191680165341E+03   -0.25222E-01   -0.14576E+00  8160   0.260E+00    0.309E-01
DAV:   2    -0.191682652098E+03   -0.24868E-02   -0.44070E-02 12200   0.600E-01    0.321E-01
DAV:   3    -0.191683492257E+03   -0.84016E-03   -0.11213E-02 12400   0.709E-01    0.475E-01
DAV:   4    -0.191681381292E+03    0.21110E-02   -0.52623E-03 11560   0.514E-01    0.185E-01
DAV:   5    -0.191681248182E+03    0.13311E-03   -0.19293E-03 10080   0.307E-01    0.193E-01
DAV:   6    -0.191680948940E+03    0.29924E-03   -0.10750E-03 10040   0.239E-01    0.880E-02
DAV:   7    -0.191680860281E+03    0.88659E-04   -0.28861E-04  7040   0.941E-02
  49 F= -.19168086E+03 E0= -.19156984E+03  d E =-.259235E-01
       N       E                     dE             d eps       ncg     rms          rms(c)
DAV:   1    -0.191702852179E+03   -0.21903E-01   -0.12358E+00  8160   0.238E+00    0.276E-01
DAV:   2    -0.191706778442E+03   -0.39263E-02   -0.41446E-02 11280   0.751E-01    0.456E-01
DAV:   3    -0.191705080459E+03    0.16980E-02   -0.99218E-03 12240   0.693E-01    0.284E-01
DAV:   4    -0.191704621501E+03    0.45896E-03   -0.34045E-03 11560   0.374E-01    0.223E-01
DAV:   5    -0.191704257440E+03    0.36406E-03   -0.17900E-03  9840   0.296E-01    0.154E-01
DAV:   6    -0.191704068576E+03    0.18886E-03   -0.82863E-04 10320   0.177E-01    0.682E-02
DAV:   7    -0.191704031203E+03    0.37373E-04   -0.24244E-04  6640   0.791E-02
  50 F= -.19170403E+03 E0= -.19159455E+03  d E =-.231709E-01
       N       E                     dE             d eps       ncg     rms          rms(c)
DAV:   1    -0.191719961472E+03   -0.15893E-01   -0.64312E-01  8160   0.173E+00    0.215E-01
DAV:   2    -0.191721321878E+03   -0.13604E-02   -0.21547E-02 11360   0.441E-01    0.256E-01
DAV:   3    -0.191721515971E+03   -0.19409E-03   -0.54553E-03 12280   0.522E-01    0.325E-01
DAV:   4    -0.191720522769E+03    0.99320E-03   -0.22230E-03 11360   0.343E-01    0.119E-01
DAV:   5    -0.191720420536E+03    0.10223E-03   -0.75786E-04  9320   0.193E-01    0.113E-01
DAV:   6    -0.191720352377E+03    0.68160E-04   -0.46740E-04  9000   0.169E-01
  51 F= -.19172035E+03 E0= -.19161173E+03  d E =-.163212E-01
       N       E                     dE             d eps       ncg     rms          rms(c)
DAV:   1    -0.191764042564E+03   -0.43622E-01   -0.72021E+00  8160   0.576E+00    0.646E-01
DAV:   2    -0.191778669964E+03   -0.14627E-01   -0.21966E-01 12200   0.132E+00    0.661E-01
DAV:   3    -0.191779029246E+03   -0.35928E-03   -0.39327E-02 12240   0.141E+00    0.798E-01
DAV:   4    -0.191772151450E+03    0.68778E-02   -0.15247E-02 12120   0.953E-01    0.313E-01
DAV:   5    -0.191771416208E+03    0.73524E-03   -0.53308E-03 12200   0.493E-01    0.326E-01
DAV:   6    -0.191771316634E+03    0.99574E-04   -0.48349E-03 12440   0.551E-01    0.296E-01
DAV:   7    -0.191770304562E+03    0.10121E-02   -0.18515E-03 11000   0.298E-01    0.589E-02
DAV:   8    -0.191770260990E+03    0.43571E-04   -0.17498E-04  6360   0.696E-02
  52 F= -.19177026E+03 E0= -.19166557E+03  d E =-.499086E-01
       N       E                     dE             d eps       ncg     rms          rms(c)
DAV:   1    -0.191775593938E+03   -0.52894E-02   -0.31065E-01  8160   0.125E+00    0.218E-01
DAV:   2    -0.191777330654E+03   -0.17367E-02   -0.16097E-02 12600   0.608E-01    0.448E-01
DAV:   3    -0.191775497471E+03    0.18332E-02   -0.60507E-03 11760   0.584E-01    0.203E-01
DAV:   4    -0.191775118904E+03    0.37857E-03   -0.15769E-03  9680   0.251E-01    0.127E-01
DAV:   5    -0.191775076351E+03    0.42553E-04   -0.11148E-03 10200   0.242E-01    0.136E-01
DAV:   6    -0.191774874557E+03    0.20179E-03   -0.57569E-04  9000   0.175E-01    0.504E-02
DAV:   7    -0.191774878293E+03   -0.37364E-05   -0.14947E-04  6360   0.851E-02
  53 F= -.19177488E+03 E0= -.19167129E+03  d E =-.461730E-02
       N       E                     dE             d eps       ncg     rms          rms(c)
DAV:   1    -0.191793554108E+03   -0.18680E-01   -0.12045E+00  8160   0.236E+00    0.279E-01
DAV:   2    -0.191795656508E+03   -0.21024E-02   -0.36005E-02 12240   0.559E-01    0.297E-01
DAV:   3    -0.191795781551E+03   -0.12504E-03   -0.76702E-03 12040   0.632E-01    0.363E-01
DAV:   4    -0.191794416100E+03    0.13655E-02   -0.32286E-03 11440   0.424E-01    0.154E-01
DAV:   5    -0.191794350436E+03    0.65665E-04   -0.13323E-03 10040   0.273E-01    0.170E-01
DAV:   6    -0.191794132917E+03    0.21752E-03   -0.93874E-04  9840   0.229E-01    0.860E-02
DAV:   7    -0.191794043924E+03    0.88994E-04   -0.27374E-04  7560   0.930E-02
  54 F= -.19179404E+03 E0= -.19169194E+03  d E =-.191656E-01
       N       E                     dE             d eps       ncg     rms          rms(c)
DAV:   1    -0.191819060420E+03   -0.24928E-01   -0.25071E+00  8160   0.339E+00    0.357E-01
DAV:   2    -0.191825162647E+03   -0.61022E-02   -0.79464E-02 12120   0.812E-01    0.377E-01
DAV:   3    -0.191824910191E+03    0.25246E-03   -0.12221E-02 12240   0.788E-01    0.417E-01
DAV:   4    -0.191822951524E+03    0.19587E-02   -0.37206E-03 12120   0.489E-01    0.149E-01
DAV:   5    -0.191822653137E+03    0.29839E-03   -0.10131E-03 10920   0.155E-01    0.933E-02
DAV:   6    -0.191822968925E+03   -0.31579E-03   -0.10541E-03 10640   0.238E-01    0.188E-01
DAV:   7    -0.191822582153E+03    0.38677E-03   -0.62427E-04  8640   0.211E-01    0.377E-02
DAV:   8    -0.191822569447E+03    0.12706E-04   -0.55375E-05  5640   0.396E-02
  55 F= -.19182257E+03 E0= -.19172340E+03  d E =-.285255E-01
       N       E                     dE             d eps       ncg     rms          rms(c)
DAV:   1    -0.191822284457E+03    0.29770E-03   -0.27512E-04 10120   0.426E-02    0.162E-02
DAV:   2    -0.191822340408E+03   -0.55951E-04   -0.12417E-04  7080   0.843E-02
  56 F= -.19182234E+03 E0= -.19172317E+03  d E =0.229040E-03
       N       E                     dE             d eps       ncg     rms          rms(c)
DAV:   1    -0.191825664489E+03   -0.33800E-02   -0.46274E-02  8160   0.469E-01    0.535E-02
DAV:   2    -0.191825794961E+03   -0.13047E-03   -0.15130E-03 12320   0.123E-01    0.817E-02
DAV:   3    -0.191825759307E+03    0.35654E-04   -0.41895E-04  8920   0.138E-01
  57 F= -.19182576E+03 E0= -.19172689E+03  d E =-.341890E-02
       N       E                     dE             d eps       ncg     rms          rms(c)
DAV:   1    -0.191816623519E+03    0.91714E-02   -0.81414E-01  8160   0.195E+00    0.266E-01
DAV:   2    -0.191820625507E+03   -0.40020E-02   -0.32546E-02 12600   0.826E-01    0.579E-01
DAV:   3    -0.191817381490E+03    0.32440E-02   -0.10761E-02 12200   0.761E-01    0.231E-01
DAV:   4    -0.191816919296E+03    0.46219E-03   -0.19510E-03 10640   0.303E-01    0.154E-01
DAV:   5    -0.191816834117E+03    0.85179E-04   -0.13265E-03 10240   0.287E-01    0.153E-01
DAV:   6    -0.191816583653E+03    0.25046E-03   -0.76709E-04  9720   0.191E-01    0.589E-02
DAV:   7    -0.191816609943E+03   -0.26290E-04   -0.28556E-04  7680   0.117E-01
  58 F= -.19181661E+03 E0= -.19171696E+03  d E =0.914936E-02
       N       E                     dE             d eps       ncg     rms          rms(c)
DAV:   1    -0.191814921450E+03    0.16622E-02   -0.12521E-01  8160   0.761E-01    0.939E-02
DAV:   2    -0.191815314498E+03   -0.39305E-03   -0.46113E-03 12240   0.229E-01    0.135E-01
DAV:   3    -0.191815236611E+03    0.77887E-04   -0.97939E-04 11080   0.243E-01
  59 F= -.19181524E+03 E0= -.19171537E+03  d E =0.137333E-02
       N       E                     dE             d eps       ncg     rms          rms(c)
DAV:   1    -0.191827187737E+03   -0.11873E-01   -0.12616E+00  8160   0.240E+00    0.271E-01
DAV:   2    -0.191831724526E+03   -0.45368E-02   -0.44372E-02 12240   0.808E-01    0.474E-01
DAV:   3    -0.191830207881E+03    0.15166E-02   -0.99677E-03 12240   0.756E-01    0.318E-01
DAV:   4    -0.191829080048E+03    0.11278E-02   -0.21797E-03 11240   0.333E-01    0.113E-01
DAV:   5    -0.191828998049E+03    0.81998E-04   -0.86307E-04 10240   0.175E-01
  60 F= -.19182900E+03 E0= -.19173090E+03  d E =-.137614E-01
       N       E                     dE             d eps       ncg     rms          rms(c)
DAV:   1    -0.191828622493E+03    0.45755E-03   -0.83823E-01  8160   0.195E+00    0.271E-01
DAV:   2    -0.191838239784E+03   -0.96173E-02   -0.44522E-02 12240   0.107E+00    0.893E-01
DAV:   3    -0.191829628354E+03    0.86114E-02   -0.19837E-02 11640   0.990E-01    0.183E-01
DAV:   4    -0.191829271909E+03    0.35645E-03   -0.14728E-03 11320   0.204E-01    0.977E-02
DAV:   5    -0.191829193358E+03    0.78551E-04   -0.65195E-04 11360   0.164E-01
  61 F= -.19182919E+03 E0= -.19173045E+03  d E =-.195309E-03
       N       E                     dE             d eps       ncg     rms          rms(c)
DAV:   1    -0.191849644250E+03   -0.20372E-01   -0.15673E+00  8160   0.269E+00    0.317E-01
DAV:   2    -0.191853967637E+03   -0.43234E-02   -0.49171E-02 12320   0.769E-01    0.481E-01
DAV:   3    -0.191852658875E+03    0.13088E-02   -0.11070E-02 12040   0.820E-01    0.394E-01
DAV:   4    -0.191851056488E+03    0.16024E-02   -0.34551E-03 11400   0.439E-01    0.143E-01
DAV:   5    -0.191850758473E+03    0.29802E-03   -0.11852E-03 10200   0.175E-01    0.103E-01
DAV:   6    -0.191851008565E+03   -0.25009E-03   -0.13548E-03 10320   0.256E-01    0.183E-01
DAV:   7    -0.191850646095E+03    0.36247E-03   -0.73310E-04  8560   0.191E-01    0.346E-02
DAV:   8    -0.191850640743E+03    0.53517E-05   -0.72189E-05  5800   0.544E-02
  62 F= -.19185064E+03 E0= -.19175435E+03  d E =-.214474E-01
       N       E                     dE             d eps       ncg     rms          rms(c)
DAV:   1    -0.191858443829E+03   -0.77977E-02   -0.21043E-01  8160   0.980E-01    0.120E-01
DAV:   2    -0.191859509391E+03   -0.10656E-02   -0.78444E-03 12480   0.439E-01    0.256E-01
DAV:   3    -0.191858749940E+03    0.75945E-03   -0.17481E-03 12200   0.337E-01    0.830E-02
DAV:   4    -0.191858720566E+03    0.29375E-04   -0.29343E-04  7440   0.118E-01
  63 F= -.19185872E+03 E0= -.19176335E+03  d E =-.807982E-02
       N       E                     dE             d eps       ncg     rms          rms(c)
DAV:   1    -0.191878265595E+03   -0.19516E-01   -0.14157E+00  8160   0.254E+00    0.274E-01
DAV:   2    -0.191882359262E+03   -0.40937E-02   -0.42496E-02 12400   0.743E-01    0.420E-01
DAV:   3    -0.191881039364E+03    0.13199E-02   -0.80875E-03 11040   0.686E-01    0.308E-01
DAV:   4    -0.191880260037E+03    0.77933E-03   -0.26354E-03 11360   0.379E-01    0.171E-01
DAV:   5    -0.191880105365E+03    0.15467E-03   -0.13162E-03 10040   0.280E-01    0.148E-01
DAV:   6    -0.191879968267E+03    0.13710E-03   -0.86101E-04 10560   0.216E-01    0.857E-02
DAV:   7    -0.191879923210E+03    0.45058E-04   -0.35065E-04  8480   0.116E-01
  64 F= -.19187992E+03 E0= -.19178678E+03  d E =-.212026E-01
       N       E                     dE             d eps       ncg     rms          rms(c)
DAV:   1    -0.191887618917E+03   -0.76506E-02   -0.18190E-01  8160   0.922E-01    0.110E-01
DAV:   2    -0.191887932265E+03   -0.31335E-03   -0.58802E-03 12080   0.208E-01    0.918E-02
DAV:   3    -0.191888031255E+03   -0.98989E-04   -0.93859E-04 11080   0.218E-01
  65 F= -.19188803E+03 E0= -.19179564E+03  d E =-.810804E-02
       N       E                     dE             d eps       ncg     rms          rms(c)
DAV:   1    -0.191872835947E+03    0.15096E-01   -0.73309E-01  8160   0.185E+00    0.221E-01
DAV:   2    -0.191878365365E+03   -0.55294E-02   -0.26679E-02 12920   0.885E-01    0.652E-01
DAV:   3    -0.191873627802E+03    0.47376E-02   -0.80124E-03 11360   0.752E-01    0.132E-01
DAV:   4    -0.191873428743E+03    0.19906E-03   -0.69358E-04  9640   0.147E-01    0.726E-02
DAV:   5    -0.191873418965E+03    0.97775E-05   -0.41127E-04  9280   0.141E-01
  66 F= -.19187342E+03 E0= -.19177994E+03  d E =0.146123E-01
       N       E                     dE             d eps       ncg     rms          rms(c)
DAV:   1    -0.191856542374E+03    0.16886E-01   -0.14859E+00  8160   0.266E+00    0.448E-01
DAV:   2    -0.191861163272E+03   -0.46209E-02   -0.59036E-02 12640   0.120E+00    0.775E-01
DAV:   3    -0.191855433651E+03    0.57296E-02   -0.17556E-02 11840   0.113E+00    0.395E-01
DAV:   4    -0.191854064779E+03    0.13689E-02   -0.62287E-03 11360   0.588E-01    0.307E-01
DAV:   5    -0.191853583919E+03    0.48086E-03   -0.40315E-03 10760   0.521E-01    0.254E-01
DAV:   6    -0.191852755369E+03    0.82855E-03   -0.19171E-03 11440   0.304E-01    0.701E-02
DAV:   7    -0.191852809692E+03   -0.54323E-04   -0.49302E-04  8760   0.144E-01
  67 F= -.19185281E+03 E0= -.19175853E+03  d E =0.206093E-01
       N       E                     dE             d eps       ncg     rms          rms(c)
DAV:   1    -0.191898730084E+03   -0.45975E-01   -0.66736E+00  8160   0.556E+00    0.680E-01
DAV:   2    -0.191920165676E+03   -0.21436E-01   -0.20405E-01 12800   0.190E+00    0.127E+00
DAV:   3    -0.191906385538E+03    0.13780E-01   -0.51102E-02 11880   0.185E+00    0.670E-01
DAV:   4    -0.191900690342E+03    0.56952E-02   -0.12146E-02 12240   0.734E-01    0.261E-01
DAV:   5    -0.191899425726E+03    0.12646E-02   -0.49303E-03 10560   0.263E-01    0.138E-01
DAV:   6    -0.191899393843E+03    0.31883E-04   -0.22637E-03 11400   0.253E-01    0.159E-01
DAV:   7    -0.191899140377E+03    0.25347E-03   -0.93450E-04 10120   0.236E-01    0.878E-02
DAV:   8    -0.191899051826E+03    0.88551E-04   -0.23433E-04  6320   0.108E-01
  68 F= -.19189905E+03 E0= -.19180796E+03  d E =-.462421E-01
       N       E                     dE             d eps       ncg     rms          rms(c)
DAV:   1    -0.191925904276E+03   -0.26764E-01   -0.25900E+00  8160   0.344E+00    0.349E-01
DAV:   2    -0.191930769504E+03   -0.48652E-02   -0.71200E-02 11920   0.743E-01    0.325E-01
DAV:   3    -0.191931921268E+03   -0.11518E-02   -0.11741E-02 12000   0.761E-01    0.500E-01
DAV:   4    -0.191929370408E+03    0.25509E-02   -0.56584E-03 11000   0.573E-01    0.181E-01
DAV:   5    -0.191929209498E+03    0.16091E-03   -0.17293E-03 10320   0.293E-01    0.166E-01
DAV:   6    -0.191929159855E+03    0.49644E-04   -0.14292E-03 10160   0.297E-01    0.140E-01
DAV:   7    -0.191928886869E+03    0.27299E-03   -0.46193E-04  8640   0.153E-01    0.280E-02
DAV:   8    -0.191928891517E+03   -0.46481E-05   -0.72401E-05  6560   0.516E-02
  69 F= -.19192889E+03 E0= -.19184012E+03  d E =-.298397E-01
       N       E                     dE             d eps       ncg     rms          rms(c)
DAV:   1    -0.191931014761E+03   -0.21279E-02   -0.12998E-02  8160   0.250E-01    0.335E-02
DAV:   2    -0.191931126312E+03   -0.11155E-03   -0.57490E-04 12120   0.118E-01    0.903E-02
DAV:   3    -0.191931031547E+03    0.94764E-04   -0.16565E-04  6400   0.110E-01
  70 F= -.19193103E+03 E0= -.19184235E+03  d E =-.214003E-02
       N       E                     dE             d eps       ncg     rms          rms(c)
DAV:   1    -0.191953208775E+03   -0.22082E-01   -0.16642E+00  8160   0.274E+00    0.275E-01
DAV:   2    -0.191957567667E+03   -0.43589E-02   -0.46655E-02 11720   0.749E-01    0.381E-01
DAV:   3    -0.191956490398E+03    0.10773E-02   -0.72610E-03 12200   0.671E-01    0.282E-01
DAV:   4    -0.191955631016E+03    0.85938E-03   -0.17309E-03 11080   0.316E-01    0.130E-01
DAV:   5    -0.191955692646E+03   -0.61630E-04   -0.97732E-04 10000   0.253E-01
  71 F= -.19195569E+03 E0= -.19186904E+03  d E =-.246611E-01
       N       E                     dE             d eps       ncg     rms          rms(c)
DAV:   1    -0.191918529492E+03    0.37102E-01   -0.31177E+00  8160   0.376E+00    0.389E-01
DAV:   2    -0.191932713576E+03   -0.14184E-01   -0.98167E-02 12040   0.127E+00    0.901E-01
DAV:   3    -0.191924586473E+03    0.81271E-02   -0.24066E-02 12080   0.122E+00    0.365E-01
DAV:   4    -0.191923231798E+03    0.13547E-02   -0.39138E-03 11040   0.396E-01    0.173E-01
DAV:   5    -0.191922961208E+03    0.27059E-03   -0.17561E-03 10760   0.262E-01    0.164E-01
DAV:   6    -0.191922988362E+03   -0.27154E-04   -0.16803E-03 11160   0.296E-01    0.163E-01
DAV:   7    -0.191922759489E+03    0.22887E-03   -0.79730E-04  9800   0.190E-01    0.794E-02
DAV:   8    -0.191922689307E+03    0.70182E-04   -0.15462E-04  6480   0.106E-01
  72 F= -.19192269E+03 E0= -.19183337E+03  d E =0.330033E-01
       N       E                     dE             d eps       ncg     rms          rms(c)
DAV:   1    -0.191936900868E+03   -0.14141E-01   -0.63716E-01  8160   0.173E+00    0.216E-01
DAV:   2    -0.191938293561E+03   -0.13927E-02   -0.23050E-02 12400   0.501E-01    0.254E-01
DAV:   3    -0.191938385093E+03   -0.91532E-04   -0.47738E-03 12240   0.517E-01    0.299E-01
DAV:   4    -0.191937377431E+03    0.10077E-02   -0.20471E-03 11160   0.346E-01    0.999E-02
DAV:   5    -0.191937250744E+03    0.12669E-03   -0.58087E-04  9600   0.117E-01    0.678E-02
DAV:   6    -0.191937297744E+03   -0.47000E-04   -0.47000E-04  9520   0.160E-01
  73 F= -.19193730E+03 E0= -.19184899E+03  d E =-.146084E-01
       N       E                     dE             d eps       ncg     rms          rms(c)
DAV:   1    -0.191953480194E+03   -0.16229E-01   -0.88578E-01  8160   0.200E+00    0.212E-01
DAV:   2    -0.191956118577E+03   -0.26384E-02   -0.27617E-02 11240   0.681E-01    0.336E-01
DAV:   3    -0.191955158357E+03    0.96022E-03   -0.45165E-03 12160   0.535E-01    0.206E-01
DAV:   4    -0.191954790165E+03    0.36819E-03   -0.12195E-03 10000   0.263E-01    0.135E-01
DAV:   5    -0.191954720402E+03    0.69763E-04   -0.72255E-04  8800   0.222E-01
  74 F= -.19195472E+03 E0= -.19186790E+03  d E =-.174227E-01
       N       E                     dE             d eps       ncg     rms          rms(c)
DAV:   1    -0.191975984262E+03   -0.21194E-01   -0.15865E+00  8160   0.268E+00    0.294E-01
DAV:   2    -0.191981383768E+03   -0.53995E-02   -0.48294E-02 11920   0.955E-01    0.517E-01
DAV:   3    -0.191978532873E+03    0.28509E-02   -0.84028E-03 12280   0.751E-01    0.222E-01
DAV:   4    -0.191977936945E+03    0.59593E-03   -0.12129E-03 10640   0.243E-01    0.121E-01
DAV:   5    -0.191978275902E+03   -0.33896E-03   -0.12387E-03 10360   0.301E-01    0.206E-01
DAV:   6    -0.191977845581E+03    0.43032E-03   -0.88019E-04  9880   0.235E-01    0.467E-02
DAV:   7    -0.191977811194E+03    0.34387E-04   -0.99577E-05  5640   0.517E-02
  75 F= -.19197781E+03 E0= -.19189281E+03  d E =-.230908E-01
       N       E                     dE             d eps       ncg     rms          rms(c)
DAV:   1    -0.191989208670E+03   -0.11363E-01   -0.38567E-01  8160   0.133E+00    0.144E-01
DAV:   2    -0.191989858966E+03   -0.65030E-03   -0.11616E-02 11680   0.288E-01    0.105E-01
DAV:   3    -0.191990120675E+03   -0.26171E-03   -0.16001E-03 11480   0.267E-01    0.201E-01
DAV:   4    -0.191989672629E+03    0.44805E-03   -0.92106E-04  9600   0.227E-01    0.614E-02
DAV:   5    -0.191989676890E+03   -0.42607E-05   -0.24211E-04  6000   0.108E-01
  76 F= -.19198968E+03 E0= -.19190536E+03  d E =-.118657E-01
       N       E                     dE             d eps       ncg     rms          rms(c)
DAV:   1    -0.192017167280E+03   -0.27495E-01   -0.27981E+00  8160   0.355E+00    0.349E-01
DAV:   2    -0.192023742566E+03   -0.65753E-02   -0.76139E-02 11320   0.841E-01    0.427E-01
DAV:   3    -0.192022987647E+03    0.75492E-03   -0.10677E-02 12360   0.830E-01    0.383E-01
DAV:   4    -0.192021075655E+03    0.19120E-02   -0.25948E-03 11160   0.397E-01    0.112E-01
DAV:   5    -0.192021758570E+03   -0.68291E-03   -0.18539E-03 10960   0.330E-01    0.259E-01
DAV:   6    -0.192021097520E+03    0.66105E-03   -0.14374E-03 10200   0.317E-01    0.871E-02
DAV:   7    -0.192020972431E+03    0.12509E-03   -0.16644E-04  5720   0.824E-02    0.162E-02
DAV:   8    -0.192020979465E+03   -0.70344E-05   -0.68783E-05  7480   0.349E-02
  77 F= -.19202098E+03 E0= -.19193847E+03  d E =-.313026E-01
       N       E                     dE             d eps       ncg     rms          rms(c)
DAV:   1    -0.192055795867E+03   -0.34823E-01   -0.54598E+00  8160   0.494E+00    0.477E-01
DAV:   2    -0.192068604900E+03   -0.12809E-01   -0.14670E-01 11320   0.128E+00    0.595E-01
DAV:   3    -0.192066708074E+03    0.18968E-02   -0.18821E-02 12240   0.112E+00    0.498E-01
DAV:   4    -0.192063600586E+03    0.31075E-02   -0.48582E-03 11480   0.554E-01    0.177E-01
DAV:   5    -0.192064081383E+03   -0.48080E-03   -0.30425E-03 12080   0.381E-01    0.271E-01
DAV:   6    -0.192063713680E+03    0.36770E-03   -0.31655E-03 10760   0.417E-01    0.184E-01
DAV:   7    -0.192063219092E+03    0.49459E-03   -0.82672E-04  9680   0.181E-01    0.237E-02
DAV:   8    -0.192063236251E+03   -0.17159E-04   -0.87610E-05  6600   0.467E-02
  78 F= -.19206324E+03 E0= -.19198324E+03  d E =-.422568E-01
       N       E                     dE             d eps       ncg     rms          rms(c)
DAV:   1    -0.192099823748E+03   -0.36605E-01   -0.30250E+01  8160   0.116E+01    0.111E+00
DAV:   2    -0.192167812828E+03   -0.67989E-01   -0.83619E-01 11040   0.267E+00    0.118E+00
DAV:   3    -0.192167251195E+03    0.56163E-03   -0.96092E-02 12520   0.250E+00    0.128E+00
DAV:   4    -0.192146427294E+03    0.20824E-01   -0.30553E-02 12320   0.145E+00    0.399E-01
DAV:   5    -0.192149370241E+03   -0.29429E-02   -0.15309E-02 12560   0.913E-01    0.671E-01
DAV:   6    -0.192146741039E+03    0.26292E-02   -0.13787E-02 11920   0.100E+00    0.428E-01
DAV:   7    -0.192144039110E+03    0.27019E-02   -0.34009E-03 11560   0.406E-01    0.607E-02
DAV:   8    -0.192144231065E+03   -0.19196E-03   -0.75034E-04 10840   0.171E-01    0.128E-01
DAV:   9    -0.192144036532E+03    0.19453E-03   -0.36881E-04  8840   0.149E-01    0.271E-02
DAV:  10    -0.192144041414E+03   -0.48821E-05   -0.63509E-05  6360   0.352E-02
  79 F= -.19214404E+03 E0= -.19206806E+03  d E =-.808052E-01
       N       E                     dE             d eps       ncg     rms          rms(c)
DAV:   1    -0.192145120021E+03   -0.10835E-02   -0.77348E-01  8160   0.187E+00    0.192E-01
DAV:   2    -0.192146597409E+03   -0.14774E-02   -0.19319E-02 12480   0.482E-01    0.252E-01
DAV:   3    -0.192146342883E+03    0.25453E-03   -0.32974E-03 12720   0.457E-01    0.235E-01
DAV:   4    -0.192145729536E+03    0.61335E-03   -0.12152E-03 10080   0.264E-01    0.842E-02
DAV:   5    -0.192145639732E+03    0.89804E-04   -0.54770E-04 10280   0.104E-01
  80 F= -.19214564E+03 E0= -.19206998E+03  d E =-.159832E-02
       N       E                     dE             d eps       ncg     rms          rms(c)
DAV:   1    -0.192164777082E+03   -0.19048E-01   -0.53614E+00  8160   0.487E+00    0.505E-01
DAV:   2    -0.192179386897E+03   -0.14610E-01   -0.16725E-01 11440   0.134E+00    0.634E-01
DAV:   3    -0.192177587991E+03    0.17989E-02   -0.20280E-02 12240   0.121E+00    0.574E-01
DAV:   4    -0.192174047929E+03    0.35401E-02   -0.71120E-03 12320   0.694E-01    0.254E-01
DAV:   5    -0.192173848319E+03    0.19961E-03   -0.38370E-03 11560   0.465E-01    0.254E-01
DAV:   6    -0.192173519851E+03    0.32847E-03   -0.23977E-03 11680   0.370E-01    0.153E-01
DAV:   7    -0.192173174568E+03    0.34528E-03   -0.72701E-04 10120   0.169E-01    0.670E-02
DAV:   8    -0.192173148057E+03    0.26510E-04   -0.15894E-04  7360   0.103E-01
  81 F= -.19217315E+03 E0= -.19209902E+03  d E =-.275083E-01
       N       E                     dE             d eps       ncg     rms          rms(c)
DAV:   1    -0.192185278299E+03   -0.12104E-01   -0.34090E+00  8160   0.389E+00    0.395E-01
DAV:   2    -0.192192809548E+03   -0.75312E-02   -0.10301E-01 12120   0.930E-01    0.347E-01
DAV:   3    -0.192193545032E+03   -0.73548E-03   -0.10344E-02 12240   0.805E-01    0.476E-01
DAV:   4    -0.192190976299E+03    0.25687E-02   -0.43846E-03 11040   0.592E-01    0.180E-01
DAV:   5    -0.192190910313E+03    0.65986E-04   -0.20619E-03 10960   0.310E-01    0.186E-01
DAV:   6    -0.192190844977E+03    0.65336E-04   -0.18596E-03 10800   0.329E-01    0.151E-01
DAV:   7    -0.192190538751E+03    0.30623E-03   -0.57872E-04  8960   0.175E-01    0.391E-02
DAV:   8    -0.192190542687E+03   -0.39367E-05   -0.10027E-04  6720   0.758E-02
  82 F= -.19219054E+03 E0= -.19211741E+03  d E =-.173946E-01
       N       E                     dE             d eps       ncg     rms          rms(c)
DAV:   1    -0.192195392333E+03   -0.48536E-02   -0.10949E+01  8160   0.697E+00    0.705E-01
DAV:   2    -0.192220800087E+03   -0.25408E-01   -0.32451E-01 11600   0.174E+00    0.742E-01
DAV:   3    -0.192219914429E+03    0.88566E-03   -0.39145E-02 12440   0.154E+00    0.787E-01
DAV:   4    -0.192212627913E+03    0.72865E-02   -0.13696E-02 12080   0.984E-01    0.327E-01
DAV:   5    -0.192212707043E+03   -0.79130E-04   -0.63190E-03 12600   0.629E-01    0.395E-01
DAV:   6    -0.192211801248E+03    0.90579E-03   -0.49775E-03 12240   0.592E-01    0.238E-01
DAV:   7    -0.192211013341E+03    0.78791E-03   -0.14032E-03 11720   0.242E-01    0.516E-02
DAV:   8    -0.192211009342E+03    0.39990E-05   -0.21477E-04  7600   0.863E-02
  83 F= -.19221101E+03 E0= -.19213971E+03  d E =-.204667E-01
       N       E                     dE             d eps       ncg     rms          rms(c)
DAV:   1    -0.192211954680E+03   -0.94134E-03   -0.16129E-01  8160   0.855E-01    0.871E-02
DAV:   2    -0.192212568748E+03   -0.61407E-03   -0.47094E-03 12560   0.266E-01    0.179E-01
DAV:   3    -0.192212212662E+03    0.35609E-03   -0.10029E-03 10480   0.259E-01    0.769E-02
DAV:   4    -0.192212156751E+03    0.55910E-04   -0.15395E-04  6000   0.876E-02
  84 F= -.19221216E+03 E0= -.19214107E+03  d E =-.114741E-02
       N       E                     dE             d eps       ncg     rms          rms(c)
DAV:   1    -0.192214226012E+03   -0.20133E-02   -0.11615E-01  8160   0.726E-01    0.101E-01
DAV:   2    -0.192214873488E+03   -0.64748E-03   -0.49680E-03 11760   0.323E-01    0.202E-01
DAV:   3    -0.192214378310E+03    0.49518E-03   -0.13269E-03 11160   0.280E-01    0.733E-02
DAV:   4    -0.192214369121E+03    0.91892E-05   -0.23189E-04  7760   0.119E-01
  85 F= -.19221437E+03 E0= -.19214372E+03  d E =-.221237E-02
       N       E                     dE             d eps       ncg     rms          rms(c)
DAV:   1    -0.192217436458E+03   -0.30581E-02   -0.35490E-01  8160   0.127E+00    0.153E-01
DAV:   2    -0.192218254831E+03   -0.81837E-03   -0.11828E-02 11320   0.337E-01    0.170E-01
DAV:   3    -0.192218299673E+03   -0.44842E-04   -0.22173E-03 12560   0.359E-01    0.206E-01
DAV:   4    -0.192217856183E+03    0.44349E-03   -0.86119E-04  9960   0.243E-01    0.696E-02
DAV:   5    -0.192217811291E+03    0.44892E-04   -0.25225E-04  7280   0.965E-02
  86 F= -.19221781E+03 E0= -.19214788E+03  d E =-.344217E-02
       N       E                     dE             d eps       ncg     rms          rms(c)
DAV:   1    -0.192220353104E+03   -0.24969E-02   -0.22911E-01  8160   0.102E+00    0.145E-01
DAV:   2    -0.192222403348E+03   -0.20502E-02   -0.11065E-02 12560   0.525E-01    0.375E-01
DAV:   3    -0.192220721226E+03    0.16821E-02   -0.33339E-03 11760   0.468E-01    0.873E-02
DAV:   4    -0.192220663529E+03    0.57696E-04   -0.18092E-04  6960   0.946E-02
  87 F= -.19222066E+03 E0= -.19215129E+03  d E =-.285224E-02
       N       E                     dE             d eps       ncg     rms          rms(c)
DAV:   1    -0.192224370790E+03   -0.36496E-02   -0.61420E-01  8160   0.167E+00    0.203E-01
DAV:   2    -0.192226373790E+03   -0.20030E-02   -0.20683E-02 12080   0.529E-01    0.313E-01
DAV:   3    -0.192225622351E+03    0.75144E-03   -0.38423E-03 11520   0.522E-01    0.212E-01
DAV:   4    -0.192225199201E+03    0.42315E-03   -0.11310E-03 10240   0.260E-01    0.112E-01
DAV:   5    -0.192225159487E+03    0.39714E-04   -0.64002E-04  9600   0.208E-01
  88 F= -.19222516E+03 E0= -.19215675E+03  d E =-.449596E-02
       N       E                     dE             d eps       ncg     rms          rms(c)
DAV:   1    -0.192227490610E+03   -0.22914E-02   -0.25434E-01  8160   0.108E+00    0.143E-01
DAV:   2    -0.192228875445E+03   -0.13848E-02   -0.95655E-03 13080   0.471E-01    0.307E-01
DAV:   3    -0.192227843645E+03    0.10318E-02   -0.24993E-03 12120   0.416E-01    0.104E-01
DAV:   4    -0.192227722890E+03    0.12075E-03   -0.25088E-04  7680   0.103E-01    0.450E-02
DAV:   5    -0.192227785350E+03   -0.62460E-04   -0.19744E-04  8040   0.112E-01
  89 F= -.19222779E+03 E0= -.19215992E+03  d E =-.262586E-02
       N       E                     dE             d eps       ncg     rms          rms(c)
DAV:   1    -0.192230444339E+03   -0.27214E-02   -0.32041E-01  8160   0.121E+00    0.149E-01
DAV:   2    -0.192231481679E+03   -0.10373E-02   -0.12055E-02 11520   0.403E-01    0.210E-01
DAV:   3    -0.192231180593E+03    0.30109E-03   -0.22782E-03 12200   0.371E-01    0.166E-01
DAV:   4    -0.192230924140E+03    0.25645E-03   -0.59697E-04  9600   0.202E-01    0.798E-02
DAV:   5    -0.192230884452E+03    0.39688E-04   -0.28572E-04  8520   0.127E-01
  90 F= -.19223088E+03 E0= -.19216394E+03  d E =-.309910E-02
       N       E                     dE             d eps       ncg     rms          rms(c)
DAV:   1    -0.192227771216E+03    0.31529E-02   -0.25395E-01  8160   0.108E+00    0.122E-01
DAV:   2    -0.192228643540E+03   -0.87232E-03   -0.94492E-03 11680   0.332E-01    0.173E-01
DAV:   3    -0.192228450465E+03    0.19308E-03   -0.17397E-03 11880   0.320E-01    0.155E-01
DAV:   4    -0.192228206018E+03    0.24445E-03   -0.49908E-04  8480   0.183E-01    0.569E-02
DAV:   5    -0.192228150092E+03    0.55926E-04   -0.11134E-04  6440   0.565E-02
  91 F= -.19222815E+03 E0= -.19216037E+03  d E =0.273436E-02
       N       E                     dE             d eps       ncg     rms          rms(c)
DAV:   1    -0.192226773904E+03    0.14321E-02   -0.81218E-02  8160   0.629E-01    0.102E-01
DAV:   2    -0.192227261860E+03   -0.48796E-03   -0.40839E-03 12560   0.302E-01    0.202E-01
DAV:   3    -0.192226847717E+03    0.41414E-03   -0.10236E-03 10480   0.278E-01    0.836E-02
DAV:   4    -0.192226763004E+03    0.84713E-04   -0.17708E-04  7320   0.100E-01
  92 F= -.19222676E+03 E0= -.19215853E+03  d E =0.138709E-02
       N       E                     dE             d eps       ncg     rms          rms(c)
DAV:   1    -0.192223555849E+03    0.32919E-02   -0.27777E-01  8160   0.113E+00    0.154E-01
DAV:   2    -0.192224638762E+03   -0.10829E-02   -0.10812E-02 12240   0.438E-01    0.270E-01
DAV:   3    -0.192223957417E+03    0.68134E-03   -0.28509E-03 11760   0.417E-01    0.148E-01
DAV:   4    -0.192223718464E+03    0.23895E-03   -0.56613E-04  9520   0.173E-01    0.675E-02
DAV:   5    -0.192223738990E+03   -0.20526E-04   -0.35830E-04  9120   0.146E-01
  93 F= -.19222374E+03 E0= -.19215456E+03  d E =0.302401E-02
       N       E                     dE             d eps       ncg     rms          rms(c)
DAV:   1    -0.192230069734E+03   -0.63513E-02   -0.18368E+00  8160   0.291E+00    0.373E-01
DAV:   2    -0.192234288440E+03   -0.42187E-02   -0.72474E-02 11600   0.887E-01    0.376E-01
DAV:   3    -0.192234175099E+03    0.11334E-03   -0.11384E-02 12320   0.791E-01    0.413E-01
DAV:   4    -0.192232241919E+03    0.19332E-02   -0.51107E-03 12400   0.578E-01    0.213E-01
DAV:   5    -0.192232112934E+03    0.12898E-03   -0.23531E-03 11840   0.378E-01    0.214E-01
DAV:   6    -0.192231700517E+03    0.41242E-03   -0.13427E-03 10720   0.304E-01    0.963E-02
DAV:   7    -0.192231584220E+03    0.11630E-03   -0.28971E-04  8960   0.109E-01    0.382E-02
DAV:   8    -0.192231582528E+03    0.16913E-05   -0.80854E-05  7560   0.735E-02
  94 F= -.19223158E+03 E0= -.19216492E+03  d E =-.784354E-02
       N       E                     dE             d eps       ncg     rms          rms(c)
DAV:   1    -0.192233167656E+03   -0.15834E-02   -0.10082E-01  8160   0.677E-01    0.776E-02
DAV:   2    -0.192233367165E+03   -0.19951E-03   -0.31575E-03 11560   0.180E-01    0.784E-02
DAV:   3    -0.192233399639E+03   -0.32473E-04   -0.46967E-04 10120   0.174E-01
  95 F= -.19223340E+03 E0= -.19216728E+03  d E =-.181711E-02
       N       E                     dE             d eps       ncg     rms          rms(c)
DAV:   1    -0.192234518760E+03   -0.11516E-02   -0.57705E-02  8160   0.523E-01    0.771E-02
DAV:   2    -0.192234609802E+03   -0.91042E-04   -0.18140E-03 13320   0.150E-01    0.797E-02
DAV:   3    -0.192234554152E+03    0.55650E-04   -0.43655E-04  9880   0.147E-01
  96 F= -.19223455E+03 E0= -.19216886E+03  d E =-.115451E-02
       N       E                     dE             d eps       ncg     rms          rms(c)
DAV:   1    -0.192235515054E+03   -0.90525E-03   -0.33945E-02  8160   0.413E-01    0.796E-02
DAV:   2    -0.192235717625E+03   -0.20257E-03   -0.15399E-03 13360   0.191E-01    0.140E-01
DAV:   3    -0.192235510037E+03    0.20759E-03   -0.55073E-04  9480   0.208E-01    0.815E-02
DAV:   4    -0.192235459899E+03    0.50138E-04   -0.19306E-04  6760   0.105E-01
  97 F= -.19223546E+03 E0= -.19217010E+03  d E =-.905747E-03
       N       E                     dE             d eps       ncg     rms          rms(c)
DAV:   1    -0.192237032099E+03   -0.15221E-02   -0.10331E-01  8160   0.688E-01    0.925E-02
DAV:   2    -0.192237604588E+03   -0.57249E-03   -0.40240E-03 12320   0.286E-01    0.195E-01
DAV:   3    -0.192237201458E+03    0.40313E-03   -0.10999E-03 10280   0.277E-01    0.837E-02
DAV:   4    -0.192237136732E+03    0.64726E-04   -0.16918E-04  6640   0.964E-02
  98 F= -.19223714E+03 E0= -.19217227E+03  d E =-.167683E-02
       N       E                     dE             d eps       ncg     rms          rms(c)
DAV:   1    -0.192241242265E+03   -0.40408E-02   -0.11381E+00  8160   0.227E+00    0.274E-01
DAV:   2    -0.192244127394E+03   -0.28851E-02   -0.39724E-02 11960   0.694E-01    0.327E-01
DAV:   3    -0.192243637436E+03    0.48996E-03   -0.70574E-03 12480   0.634E-01    0.296E-01
DAV:   4    -0.192242740614E+03    0.89682E-03   -0.25252E-03 11880   0.404E-01    0.159E-01
DAV:   5    -0.192242666179E+03    0.74435E-04   -0.12320E-03 10440   0.287E-01    0.156E-01
DAV:   6    -0.192242454071E+03    0.21211E-03   -0.70257E-04 10680   0.215E-01    0.678E-02
DAV:   7    -0.192242405467E+03    0.48603E-04   -0.14274E-04  6480   0.848E-02
  99 F= -.19224241E+03 E0= -.19217911E+03  d E =-.526874E-02
       N       E                     dE             d eps       ncg     rms          rms(c)
DAV:   1    -0.192242352030E+03    0.10204E-03   -0.12737E-02  8400   0.262E-01    0.692E-02
DAV:   2    -0.192242702433E+03   -0.35040E-03   -0.12504E-03 11000   0.276E-01    0.190E-01
DAV:   3    -0.192242256595E+03    0.44584E-03   -0.55501E-04  9080   0.225E-01    0.353E-02
DAV:   4    -0.192242258550E+03   -0.19543E-05   -0.97527E-05  6280   0.737E-02
 100 F= -.19224226E+03 E0= -.19217876E+03  d E =0.146918E-03
