<?xml version="1.0" encoding="ISO-8859-1"?>
<modeling>
 <generator>
  <i name="program" type="string">vasp </i>
  <i name="version" type="string">5.4.1  </i>
  <i name="subversion" type="string">05Feb16 (build Jul 05 2020 17:13:04) complex                          parallel </i>
  <i name="platform" type="string">IFC91_ompi </i>
  <i name="date" type="string">2024 04 25 </i>
  <i name="time" type="string">01:41:30 </i>
 </generator>
 <incar>
  <i type="int" name="ISTART">     0</i>
  <i type="string" name="PREC">normal</i>
  <i type="string" name="ALGO"> Normal</i>
  <i type="int" name="ISPIN">     1</i>
  <i type="int" name="ICHARG">     2</i>
  <i type="int" name="IBRION">     1</i>
  <i type="int" name="NSW">   100</i>
  <i type="int" name="ISIF">     3</i>
  <i type="int" name="ISYM">     0</i>
  <i name="SYMPREC">      0.00000001</i>
  <i name="POTIM">      0.50000000</i>
  <i type="logical" name="LREAL"> F  </i>
  <i type="logical" name="LPLANE"> F  </i>
  <i type="int" name="ISMEAR">     0</i>
  <i type="logical" name="LWAVE"> F  </i>
  <i type="logical" name="LCHARG"> F  </i>
  <v type="int" name="KPOINT_BSE">    -1     0     0     0</v>
 </incar>
 <kpoints>
  <generation param="Gamma">
   <v type="int" name="divisions">       8        8        1 </v>
   <v name="usershift">      0.00000000       0.00000000       0.00000000 </v>
   <v name="genvec1">      0.12500000       0.00000000       0.00000000 </v>
   <v name="genvec2">     -0.00000000       0.12500000       0.00000000 </v>
   <v name="genvec3">      0.00000000       0.00000000       1.00000000 </v>
   <v name="shift">      0.00000000       0.00000000       0.00000000 </v>
  </generation>
  <varray name="kpointlist" >
   <v>       0.00000000       0.00000000       0.00000000 </v>
   <v>       0.12500000       0.00000000       0.00000000 </v>
   <v>       0.25000000       0.00000000       0.00000000 </v>
   <v>       0.37500000       0.00000000       0.00000000 </v>
   <v>       0.50000000       0.00000000       0.00000000 </v>
   <v>       0.00000000       0.12500000       0.00000000 </v>
   <v>       0.12500000       0.12500000       0.00000000 </v>
   <v>       0.25000000       0.12500000       0.00000000 </v>
   <v>       0.37500000       0.12500000       0.00000000 </v>
   <v>       0.50000000       0.12500000       0.00000000 </v>
   <v>      -0.37500000       0.12500000       0.00000000 </v>
   <v>      -0.25000000       0.12500000       0.00000000 </v>
   <v>      -0.12500000       0.12500000       0.00000000 </v>
   <v>       0.00000000       0.25000000       0.00000000 </v>
   <v>       0.12500000       0.25000000       0.00000000 </v>
   <v>       0.25000000       0.25000000       0.00000000 </v>
   <v>       0.37500000       0.25000000       0.00000000 </v>
   <v>       0.50000000       0.25000000       0.00000000 </v>
   <v>      -0.37500000       0.25000000       0.00000000 </v>
   <v>      -0.25000000       0.25000000       0.00000000 </v>
   <v>      -0.12500000       0.25000000       0.00000000 </v>
   <v>      -0.00000000       0.37500000       0.00000000 </v>
   <v>       0.12500000       0.37500000       0.00000000 </v>
   <v>       0.25000000       0.37500000       0.00000000 </v>
   <v>       0.37500000       0.37500000       0.00000000 </v>
   <v>       0.50000000       0.37500000       0.00000000 </v>
   <v>      -0.37500000       0.37500000       0.00000000 </v>
   <v>      -0.25000000       0.37500000       0.00000000 </v>
   <v>      -0.12500000       0.37500000       0.00000000 </v>
   <v>       0.00000000       0.50000000       0.00000000 </v>
   <v>       0.12500000       0.50000000       0.00000000 </v>
   <v>       0.25000000       0.50000000       0.00000000 </v>
   <v>       0.37500000       0.50000000       0.00000000 </v>
   <v>       0.50000000       0.50000000       0.00000000 </v>
  </varray>
  <varray name="weights" >
   <v>       0.01562500 </v>
   <v>       0.03125000 </v>
   <v>       0.03125000 </v>
   <v>       0.03125000 </v>
   <v>       0.01562500 </v>
   <v>       0.03125000 </v>
   <v>       0.03125000 </v>
   <v>       0.03125000 </v>
   <v>       0.03125000 </v>
   <v>       0.03125000 </v>
   <v>       0.03125000 </v>
   <v>       0.03125000 </v>
   <v>       0.03125000 </v>
   <v>       0.03125000 </v>
   <v>       0.03125000 </v>
   <v>       0.03125000 </v>
   <v>       0.03125000 </v>
   <v>       0.03125000 </v>
   <v>       0.03125000 </v>
   <v>       0.03125000 </v>
   <v>       0.03125000 </v>
   <v>       0.03125000 </v>
   <v>       0.03125000 </v>
   <v>       0.03125000 </v>
   <v>       0.03125000 </v>
   <v>       0.03125000 </v>
   <v>       0.03125000 </v>
   <v>       0.03125000 </v>
   <v>       0.03125000 </v>
   <v>       0.01562500 </v>
   <v>       0.03125000 </v>
   <v>       0.03125000 </v>
   <v>       0.03125000 </v>
   <v>       0.01562500 </v>
  </varray>
 </kpoints>
 <parameters>
  <separator name="general" >
   <i type="string" name="SYSTEM">unknown system</i>
   <i type="logical" name="LCOMPAT"> F  </i>
  </separator>
  <separator name="electronic" >
   <i type="string" name="PREC">normal</i>
   <i name="ENMAX">    280.00000000</i>
   <i name="ENAUG">    373.43800000</i>
   <i name="EDIFF">      0.00010000</i>
   <i type="int" name="IALGO">    38</i>
   <i type="int" name="IWAVPR">    11</i>
   <i type="int" name="NBANDS">   120</i>
   <i name="NELECT">    159.00000000</i>
   <i type="int" name="TURBO">     0</i>
   <i type="int" name="IRESTART">     0</i>
   <i type="int" name="NREBOOT">     0</i>
   <i type="int" name="NMIN">     0</i>
   <i name="EREF">      0.00000000</i>
   <separator name="electronic smearing" >
    <i type="int" name="ISMEAR">     0</i>
    <i name="SIGMA">      0.20000000</i>
    <i name="KSPACING">      0.50000000</i>
    <i type="logical" name="KGAMMA"> T  </i>
   </separator>
   <separator name="electronic projectors" >
    <i type="logical" name="LREAL"> F  </i>
    <v name="ROPT">      0.00000000      0.00000000      0.00000000      0.00000000</v>
    <i type="int" name="LMAXPAW">  -100</i>
    <i type="int" name="LMAXMIX">     2</i>
    <i type="logical" name="NLSPLINE"> F  </i>
   </separator>
   <separator name="electronic startup" >
    <i type="int" name="ISTART">     0</i>
    <i type="int" name="ICHARG">     2</i>
    <i type="int" name="INIWAV">     1</i>
   </separator>
   <separator name="electronic spin" >
    <i type="int" name="ISPIN">     1</i>
    <i type="logical" name="LNONCOLLINEAR"> F  </i>
    <v name="MAGMOM">      1.00000000      1.00000000      1.00000000      1.00000000      1.00000000      1.00000000      1.00000000      1.00000000      1.00000000      1.00000000      1.00000000      1.00000000      1.00000000      1.00000000      1.00000000      1.00000000      1.00000000      1.00000000      1.00000000      1.00000000
      1.00000000      1.00000000      1.00000000      1.00000000      1.00000000      1.00000000      1.00000000</v>
    <i name="NUPDOWN">     -1.00000000</i>
    <i type="logical" name="LSORBIT"> F  </i>
    <v name="SAXIS">      0.00000000      0.00000000      1.00000000</v>
    <i type="logical" name="LSPIRAL"> F  </i>
    <v name="QSPIRAL">      0.00000000      0.00000000      0.00000000</v>
    <i type="logical" name="LZEROZ"> F  </i>
   </separator>
   <separator name="electronic exchange-correlation" >
    <i type="logical" name="LASPH"> F  </i>
    <i type="logical" name="LMETAGGA"> F  </i>
   </separator>
   <separator name="electronic convergence" >
    <i type="int" name="NELM">    60</i>
    <i type="int" name="NELMDL">    -5</i>
    <i type="int" name="NELMIN">     2</i>
    <i name="ENINI">    280.00000000</i>
    <separator name="electronic convergence detail" >
     <i type="logical" name="LDIAG"> T  </i>
     <i type="logical" name="LSUBROT"> F  </i>
     <i name="WEIMIN">      0.00100000</i>
     <i name="EBREAK">      0.00000021</i>
     <i name="DEPER">      0.30000000</i>
     <i type="int" name="NRMM">     4</i>
     <i name="TIME">      0.40000000</i>
    </separator>
   </separator>
   <separator name="electronic mixer" >
    <i name="AMIX">      0.40000000</i>
    <i name="BMIX">      1.00000000</i>
    <i name="AMIN">      0.10000000</i>
    <i name="AMIX_MAG">      1.60000000</i>
    <i name="BMIX_MAG">      1.00000000</i>
    <separator name="electronic mixer details" >
     <i type="int" name="IMIX">     4</i>
     <i type="logical" name="MIXFIRST"> F  </i>
     <i type="int" name="MAXMIX">   -45</i>
     <i name="WC">    100.00000000</i>
     <i type="int" name="INIMIX">     1</i>
     <i type="int" name="MIXPRE">     1</i>
     <i type="int" name="MREMOVE">     5</i>
    </separator>
   </separator>
   <separator name="electronic dipolcorrection" >
    <i type="logical" name="LDIPOL"> F  </i>
    <i type="logical" name="LMONO"> F  </i>
    <i type="int" name="IDIPOL">     0</i>
    <i name="EPSILON">      1.00000000</i>
    <v name="DIPOL">   -100.00000000   -100.00000000   -100.00000000</v>
    <i name="EFIELD">      0.00000000</i>
   </separator>
  </separator>
  <separator name="grids" >
   <i type="int" name="NGX">    42</i>
   <i type="int" name="NGY">    42</i>
   <i type="int" name="NGZ">   126</i>
   <i type="int" name="NGXF">    84</i>
   <i type="int" name="NGYF">    84</i>
   <i type="int" name="NGZF">   252</i>
   <i type="logical" name="ADDGRID"> F  </i>
  </separator>
  <separator name="ionic" >
   <i type="int" name="NSW">   100</i>
   <i type="int" name="IBRION">     1</i>
   <i type="int" name="ISIF">     3</i>
   <i name="PSTRESS">      0.00000000</i>
   <i name="EDIFFG">      0.00100000</i>
   <i type="int" name="NFREE">     0</i>
   <i name="POTIM">      0.50000000</i>
   <i name="SMASS">     -3.00000000</i>
   <i name="SCALEE">      1.00000000</i>
  </separator>
  <separator name="ionic md" >
   <i name="TEBEG">      0.00010000</i>
   <i name="TEEND">      0.00010000</i>
   <i type="int" name="NBLOCK">     1</i>
   <i type="int" name="KBLOCK">   100</i>
   <i type="int" name="NPACO">   256</i>
   <i name="APACO">     16.00000000</i>
  </separator>
  <separator name="symmetry" >
   <i type="int" name="ISYM">     0</i>
   <i name="SYMPREC">      0.00000001</i>
  </separator>
  <separator name="dos" >
   <i type="logical" name="LORBIT"> F  </i>
   <v name="RWIGS">     -1.00000000     -1.00000000     -1.00000000     -1.00000000</v>
   <i type="int" name="NEDOS">   301</i>
   <i name="EMIN">     10.00000000</i>
   <i name="EMAX">    -10.00000000</i>
   <i name="EFERMI">      0.00000000</i>
  </separator>
  <separator name="writing" >
   <i type="int" name="NWRITE">     2</i>
   <i type="logical" name="LWAVE"> F  </i>
   <i type="logical" name="LCHARG"> F  </i>
   <i type="logical" name="LPARD"> F  </i>
   <i type="logical" name="LVTOT"> F  </i>
   <i type="logical" name="LVHAR"> F  </i>
   <i type="logical" name="LELF"> F  </i>
   <i type="logical" name="LOPTICS"> F  </i>
   <v name="STM">      0.00000000      0.00000000      0.00000000      0.00000000      0.00000000      0.00000000      0.00000000</v>
  </separator>
  <separator name="performance" >
   <i type="int" name="NPAR">    40</i>
   <i type="int" name="NSIM">     4</i>
   <i type="int" name="NBLK">    -1</i>
   <i type="logical" name="LPLANE"> F  </i>
   <i type="logical" name="LSCALAPACK"> T  </i>
   <i type="logical" name="LSCAAWARE"> F  </i>
   <i type="logical" name="LSCALU"> F  </i>
   <i type="logical" name="LASYNC"> F  </i>
   <i type="logical" name="LORBITALREAL"> F  </i>
  </separator>
  <separator name="miscellaneous" >
   <i type="int" name="IDIOT">     3</i>
   <i type="logical" name="LMUSIC"> F  </i>
   <v name="POMASS">     50.94100000     95.94000000    183.85000000     32.06600000</v>
   <v name="DARWINR">      0.00000000      0.00000000      0.00000000      0.00000000</v>
   <v name="DARWINV">      1.00000000      1.00000000      1.00000000      1.00000000</v>
   <i type="logical" name="LCORR"> T  </i>
  </separator>
  <i type="logical" name="GGA_COMPAT"> T  </i>
  <i type="logical" name="LBERRY"> F  </i>
  <i type="int" name="ICORELEVEL">     0</i>
  <i type="logical" name="LDAU"> F  </i>
  <i type="int" name="I_CONSTRAINED_M">     0</i>
  <separator name="electronic exchange-correlation" >
   <i type="string" name="GGA">--</i>
   <i type="int" name="VOSKOWN">     0</i>
   <i type="logical" name="LHFCALC"> F  </i>
   <i type="string" name="PRECFOCK"></i>
   <i type="logical" name="LSYMGRAD"> F  </i>
   <i type="logical" name="LHFONE"> F  </i>
   <i type="logical" name="LRHFCALC"> F  </i>
   <i type="logical" name="LTHOMAS"> F  </i>
   <i type="logical" name="LMODELHF"> F  </i>
   <i name="ENCUT4O">     -1.00000000</i>
   <i type="int" name="EXXOEP">     0</i>
   <i type="int" name="FOURORBIT">     0</i>
   <i name="AEXX">      0.00000000</i>
   <i name="HFALPHA">      0.00000000</i>
   <i name="MCALPHA">      0.00000000</i>
   <i name="ALDAX">      1.00000000</i>
   <i name="AGGAX">      1.00000000</i>
   <i name="ALDAC">      1.00000000</i>
   <i name="AGGAC">      1.00000000</i>
   <i type="int" name="NKREDX">     1</i>
   <i type="int" name="NKREDY">     1</i>
   <i type="int" name="NKREDZ">     1</i>
   <i type="logical" name="SHIFTRED"> F  </i>
   <i type="logical" name="ODDONLY"> F  </i>
   <i type="logical" name="EVENONLY"> F  </i>
   <i type="int" name="LMAXFOCK">     0</i>
   <i type="int" name="NMAXFOCKAE">     0</i>
   <i type="logical" name="LFOCKAEDFT"> F  </i>
   <i name="HFSCREEN">      0.00000000</i>
   <i name="HFSCREENC">      0.00000000</i>
   <i type="int" name="NBANDSGWLOW">     0</i>
  </separator>
  <separator name="vdW DFT" >
   <i type="logical" name="LUSE_VDW"> F  </i>
   <i name="Zab_VDW">     -0.84910000</i>
   <i name="PARAM1">      0.12340000</i>
   <i name="PARAM2">      1.00000000</i>
   <i name="PARAM3">      0.00000000</i>
  </separator>
  <separator name="model GW" >
   <i type="int" name="MODEL_GW">     0</i>
   <i name="MODEL_EPS0">     58.26239943</i>
   <i name="MODEL_ALPHA">      1.00000000</i>
  </separator>
  <separator name="linear response parameters" >
   <i type="logical" name="LEPSILON"> F  </i>
   <i type="logical" name="LRPA"> F  </i>
   <i type="logical" name="LNABLA"> F  </i>
   <i type="logical" name="LVEL"> F  </i>
   <i type="int" name="KINTER">     0</i>
   <i name="CSHIFT">      0.10000000</i>
   <i name="OMEGAMAX">     -1.00000000</i>
   <i name="DEG_THRESHOLD">      0.00200000</i>
  </separator>
  <separator name="orbital magnetization" >
   <i type="logical" name="NUCIND"> F  </i>
   <v name="MAGPOS">      0.00000000      0.00000000      0.00000000</v>
   <i type="logical" name="LNICSALL"> T  </i>
   <i type="logical" name="ORBITALMAG"> F  </i>
   <i type="logical" name="LMAGBLOCH"> F  </i>
   <i type="logical" name="LCHIMAG"> F  </i>
   <i type="logical" name="LGAUGE"> T  </i>
   <i type="int" name="MAGATOM">     0</i>
   <v name="MAGDIPOL">      0.00000000      0.00000000      0.00000000</v>
   <v name="AVECCONST">      0.00000000      0.00000000      0.00000000</v>
  </separator>
  <separator name="response functions" >
   <i type="logical" name="LADDER"> F  </i>
   <i type="logical" name="LFXC"> F  </i>
   <i type="logical" name="LHARTREE"> T  </i>
   <i type="int" name="IBSE">     0</i>
   <v type="int" name="KPOINT">    -1     0     0     0</v>
   <i type="logical" name="LTCTE"> F  </i>
   <i type="logical" name="LTETE"> F  </i>
   <i type="logical" name="LTRIPLET"> F  </i>
   <i type="logical" name="LFXCEPS"> F  </i>
   <i type="logical" name="LFXHEG"> F  </i>
   <i type="int" name="NATURALO">     0</i>
   <i type="logical" name="L2ORDER"> F  </i>
   <i type="logical" name="LUSEW"> F  </i>
   <i name="ENCUTGW">     -2.00000000</i>
   <i name="ENCUTGWSOFT">     -2.00000000</i>
   <i name="ENCUTLF">     -1.00000000</i>
   <i type="int" name="LMAXMP2">    -1</i>
   <i name="SCISSOR">      0.00000000</i>
   <i type="int" name="NOMEGA">     0</i>
   <i type="int" name="NOMEGAR">     0</i>
   <i type="int" name="NBANDSGW">    -1</i>
   <i type="int" name="NBANDSO">    -1</i>
   <i type="int" name="NBANDSV">    -1</i>
   <i type="int" name="NELM">     1</i>
   <i type="int" name="NELMHF">     1</i>
   <i type="int" name="DIM">     3</i>
   <i type="int" name="ANTIRES">     0</i>
   <i name="OMEGAMAX">    -30.00000000</i>
   <i name="OMEGAMIN">    -30.00000000</i>
   <i name="OMEGATL">   -200.00000000</i>
   <i type="int" name="OMEGAGRID">     0</i>
   <i name="CSHIFT">     -0.10000000</i>
   <i type="logical" name="SELFENERGY"> F  </i>
   <i type="logical" name="LSPECTRAL"> F  </i>
   <i type="logical" name="LSPECTRALGW"> F  </i>
   <i type="logical" name="LSINGLES"> F  </i>
   <i type="logical" name="LFERMIGW"> F  </i>
   <i type="logical" name="ODDONLYGW"> F  </i>
   <i type="logical" name="EVENONLYGW"> F  </i>
   <i type="int" name="NKREDLFX">     1</i>
   <i type="int" name="NKREDLFY">     1</i>
   <i type="int" name="NKREDLFZ">     1</i>
   <i type="int" name="MAXMEM">  1800</i>
   <i type="int" name="TELESCOPE">     0</i>
   <i type="int" name="TAUPAR">     1</i>
   <i type="int" name="OMEGAPAR">    -1</i>
   <i name="LAMBDA">      1.00000000</i>
  </separator>
  <separator name="External order field" >
   <i name="OFIELD_KAPPA">      0.00000000</i>
   <v name="OFIELD_K">      0.00000000      0.00000000      0.00000000</v>
   <i name="OFIELD_Q6_NEAR">      0.00000000</i>
   <i name="OFIELD_Q6_FAR">      0.00000000</i>
   <i name="OFIELD_A">      0.00000000</i>
  </separator>
 </parameters>
 <atominfo>
  <atoms>      27 </atoms>
  <types>       4 </types>
  <array name="atoms" >
   <dimension dim="1">ion</dimension>
   <field type="string">element</field>
   <field type="int">atomtype</field>
   <set>
    <rc><c>V </c><c>   1</c></rc>
    <rc><c>V </c><c>   1</c></rc>
    <rc><c>V </c><c>   1</c></rc>
    <rc><c>Mo</c><c>   2</c></rc>
    <rc><c>Mo</c><c>   2</c></rc>
    <rc><c>Mo</c><c>   2</c></rc>
    <rc><c>W </c><c>   3</c></rc>
    <rc><c>W </c><c>   3</c></rc>
    <rc><c>W </c><c>   3</c></rc>
    <rc><c>S </c><c>   4</c></rc>
    <rc><c>S </c><c>   4</c></rc>
    <rc><c>S </c><c>   4</c></rc>
    <rc><c>S </c><c>   4</c></rc>
    <rc><c>S </c><c>   4</c></rc>
    <rc><c>S </c><c>   4</c></rc>
    <rc><c>S </c><c>   4</c></rc>
    <rc><c>S </c><c>   4</c></rc>
    <rc><c>S </c><c>   4</c></rc>
    <rc><c>S </c><c>   4</c></rc>
    <rc><c>S </c><c>   4</c></rc>
    <rc><c>S </c><c>   4</c></rc>
    <rc><c>S </c><c>   4</c></rc>
    <rc><c>S </c><c>   4</c></rc>
    <rc><c>S </c><c>   4</c></rc>
    <rc><c>S </c><c>   4</c></rc>
    <rc><c>S </c><c>   4</c></rc>
    <rc><c>S </c><c>   4</c></rc>
   </set>
  </array>
  <array name="atomtypes" >
   <dimension dim="1">type</dimension>
   <field type="int">atomspertype</field>
   <field type="string">element</field>
   <field>mass</field>
   <field>valence</field>
   <field type="string">pseudopotential</field>
   <set>
    <rc><c>   3</c><c>V </c><c>     50.94100000</c><c>      5.00000000</c><c> PAW_PBE V 08Apr2002                    </c></rc>
    <rc><c>   3</c><c>Mo</c><c>     95.94000000</c><c>      6.00000000</c><c> PAW_PBE Mo 08Apr2002                   </c></rc>
    <rc><c>   3</c><c>W </c><c>    183.85000000</c><c>      6.00000000</c><c> PAW_PBE W 08Apr2002                    </c></rc>
    <rc><c>  18</c><c>S </c><c>     32.06600000</c><c>      6.00000000</c><c>  PAW_PBE S 17Jan2003                   </c></rc>
   </set>
  </array>
 </atominfo>
 <structure name="initialpos" >
  <crystal>
   <varray name="basis" >
    <v>       8.66999996       5.03999989       0.00000000 </v>
    <v>      -8.66999982       5.04000013       0.00000000 </v>
    <v>       0.00000000       0.00000000      30.00000000 </v>
   </varray>
   <i name="volume">   2621.80797419 </i>
   <varray name="rec_basis" >
    <v>       0.05767013       0.09920635       0.00000000 </v>
    <v>      -0.05767013       0.09920635       0.00000000 </v>
    <v>       0.00000000       0.00000000       0.03333333 </v>
   </varray>
  </crystal>
  <varray name="positions" >
   <v>       0.00000000       0.00000000       0.00000000 </v>
   <v>       0.33333334       0.00000000       0.00000000 </v>
   <v>       0.66666669       0.33333334       0.00000000 </v>
   <v>       1.00000000       0.33333334       0.00000000 </v>
   <v>       0.33333334       0.66666669       0.00000000 </v>
   <v>       0.00000000       0.66666669       0.00000000 </v>
   <v>       0.33333334       0.33333334       0.00000000 </v>
   <v>       0.66666669       0.00000000       0.00000000 </v>
   <v>       0.66666669       0.66666669       0.00000000 </v>
   <v>       0.11068511       0.22244981       0.95539999 </v>
   <v>       0.22244981       0.11068511       0.04460000 </v>
   <v>       0.11068511       0.55578315       0.95539999 </v>
   <v>       0.22244981       0.44401845       0.04460000 </v>
   <v>       0.11068511       0.88911647       0.95539999 </v>
   <v>       0.22244981       0.77735180       0.04460000 </v>
   <v>       0.44401845       0.22244981       0.95539999 </v>
   <v>       0.55578315       0.11068511       0.04460000 </v>
   <v>       0.44401845       0.55578315       0.95539999 </v>
   <v>       0.55578315       0.44401845       0.04460000 </v>
   <v>       0.44401845       0.88911647       0.95539999 </v>
   <v>       0.55578315       0.77735180       0.04460000 </v>
   <v>       0.77735180       0.22244981       0.95539999 </v>
   <v>       0.88911647       0.11068511       0.04460000 </v>
   <v>       0.77735180       0.55578315       0.95539999 </v>
   <v>       0.88911647       0.44401845       0.04460000 </v>
   <v>       0.77735180       0.88911647       0.95539999 </v>
   <v>       0.88911647       0.77735180       0.04460000 </v>
  </varray>
 </structure>
 <calculation>
  <scstep>
   <time name="dav">   22.77   22.83</time>
   <time name="total">   22.82   22.88</time>
   <energy>
    <i name="alphaZ">     81.65567618 </i>
    <i name="ewald">  41890.23010356 </i>
    <i name="hartreedc"> -47722.85866334 </i>
    <i name="XCdc">   -242.92972253 </i>
    <i name="pawpsdc">   3467.42045192 </i>
    <i name="pawaedc">  -2871.19716117 </i>
    <i name="eentropy">     -0.53690180 </i>
    <i name="bandstr">   -236.60789208 </i>
    <i name="atom">   6761.44252427 </i>
    <i name="e_fr_energy">   1126.61841502 </i>
    <i name="e_wo_entrp">   1127.15531681 </i>
    <i name="e_0_energy">   1126.88686592 </i>
   </energy>
  </scstep>
  <scstep>
   <time name="dav">   29.87   29.94</time>
   <time name="total">   29.87   29.96</time>
   <energy>
    <i name="e_fr_energy">     -1.76300962 </i>
    <i name="e_wo_entrp">     -1.55869501 </i>
    <i name="e_0_energy">     -1.66085231 </i>
   </energy>
  </scstep>
  <scstep>
   <time name="dav">   28.80   28.87</time>
   <time name="total">   28.80   28.87</time>
   <energy>
    <i name="e_fr_energy">   -199.74140158 </i>
    <i name="e_wo_entrp">   -199.45488401 </i>
    <i name="e_0_energy">   -199.59814280 </i>
   </energy>
  </scstep>
  <scstep>
   <time name="dav">   31.37   31.45</time>
   <time name="total">   31.38   31.46</time>
   <energy>
    <i name="e_fr_energy">   -208.91035180 </i>
    <i name="e_wo_entrp">   -208.60143026 </i>
    <i name="e_0_energy">   -208.75589103 </i>
   </energy>
  </scstep>
  <scstep>
   <time name="dav">   29.66   29.73</time>
   <time name="total">   30.18   30.26</time>
   <energy>
    <i name="e_fr_energy">   -209.24799576 </i>
    <i name="e_wo_entrp">   -208.94278939 </i>
    <i name="e_0_energy">   -209.09539257 </i>
   </energy>
  </scstep>
  <scstep>
   <time name="dav">   32.77   32.85</time>
   <time name="total">   33.29   33.38</time>
   <energy>
    <i name="e_fr_energy">   -236.66861472 </i>
    <i name="e_wo_entrp">   -236.39381209 </i>
    <i name="e_0_energy">   -236.53121341 </i>
   </energy>
  </scstep>
  <scstep>
   <time name="dav">   33.25   33.33</time>
   <time name="total">   33.85   33.94</time>
   <energy>
    <i name="e_fr_energy">   -196.77505061 </i>
    <i name="e_wo_entrp">   -196.43401650 </i>
    <i name="e_0_energy">   -196.60453355 </i>
   </energy>
  </scstep>
  <scstep>
   <time name="dav">   30.52   30.60</time>
   <time name="total">   31.13   31.21</time>
   <energy>
    <i name="e_fr_energy">   -190.26037586 </i>
    <i name="e_wo_entrp">   -189.99310128 </i>
    <i name="e_0_energy">   -190.12673857 </i>
   </energy>
  </scstep>
  <scstep>
   <time name="dav">   31.05   31.13</time>
   <time name="total">   31.66   31.74</time>
   <energy>
    <i name="e_fr_energy">   -188.31031920 </i>
    <i name="e_wo_entrp">   -187.98123116 </i>
    <i name="e_0_energy">   -188.14577518 </i>
   </energy>
  </scstep>
  <scstep>
   <time name="dav">   34.01   34.09</time>
   <time name="total">   34.63   34.72</time>
   <energy>
    <i name="e_fr_energy">   -187.16720662 </i>
    <i name="e_wo_entrp">   -186.82516659 </i>
    <i name="e_0_energy">   -186.99618661 </i>
   </energy>
  </scstep>
  <scstep>
   <time name="dav">   32.70   32.78</time>
   <time name="total">   33.32   33.41</time>
   <energy>
    <i name="e_fr_energy">   -187.00247625 </i>
    <i name="e_wo_entrp">   -186.65360860 </i>
    <i name="e_0_energy">   -186.82804242 </i>
   </energy>
  </scstep>
  <scstep>
   <time name="dav">   33.71   33.79</time>
   <time name="total">   34.33   34.42</time>
   <energy>
    <i name="e_fr_energy">   -187.08927573 </i>
    <i name="e_wo_entrp">   -186.75604329 </i>
    <i name="e_0_energy">   -186.92265951 </i>
   </energy>
  </scstep>
  <scstep>
   <time name="dav">   33.72   33.81</time>
   <time name="total">   34.34   34.43</time>
   <energy>
    <i name="e_fr_energy">   -186.93921707 </i>
    <i name="e_wo_entrp">   -186.60345213 </i>
    <i name="e_0_energy">   -186.77133460 </i>
   </energy>
  </scstep>
  <scstep>
   <time name="dav">   33.91   33.99</time>
   <time name="total">   34.53   34.63</time>
   <energy>
    <i name="e_fr_energy">   -186.90572229 </i>
    <i name="e_wo_entrp">   -186.56508357 </i>
    <i name="e_0_energy">   -186.73540293 </i>
   </energy>
  </scstep>
  <scstep>
   <time name="dav">   33.42   33.50</time>
   <time name="total">   34.04   34.13</time>
   <energy>
    <i name="e_fr_energy">   -186.89841231 </i>
    <i name="e_wo_entrp">   -186.55536812 </i>
    <i name="e_0_energy">   -186.72689021 </i>
   </energy>
  </scstep>
  <scstep>
   <time name="dav">   33.41   33.49</time>
   <time name="total">   34.03   34.12</time>
   <energy>
    <i name="e_fr_energy">   -186.89084579 </i>
    <i name="e_wo_entrp">   -186.54732892 </i>
    <i name="e_0_energy">   -186.71908736 </i>
   </energy>
  </scstep>
  <scstep>
   <time name="dav">   33.61   33.70</time>
   <time name="total">   34.23   34.32</time>
   <energy>
    <i name="e_fr_energy">   -186.88865699 </i>
    <i name="e_wo_entrp">   -186.54621067 </i>
    <i name="e_0_energy">   -186.71743383 </i>
   </energy>
  </scstep>
  <scstep>
   <time name="dav">   32.93   33.00</time>
   <time name="total">   33.54   33.63</time>
   <energy>
    <i name="e_fr_energy">   -186.88764433 </i>
    <i name="e_wo_entrp">   -186.54625966 </i>
    <i name="e_0_energy">   -186.71695199 </i>
   </energy>
  </scstep>
  <scstep>
   <time name="dav">   29.87   29.94</time>
   <time name="total">   30.49   30.57</time>
   <energy>
    <i name="e_fr_energy">   -186.88733188 </i>
    <i name="e_wo_entrp">   -186.54535168 </i>
    <i name="e_0_energy">   -186.71634178 </i>
   </energy>
  </scstep>
  <scstep>
   <time name="dav">   24.74   24.80</time>
   <time name="total">   25.36   25.43</time>
   <energy>
    <i name="e_fr_energy">   -186.88809258 </i>
    <i name="e_wo_entrp">   -186.54644643 </i>
    <i name="e_0_energy">   -186.71726951 </i>
   </energy>
  </scstep>
  <scstep>
   <time name="dav">   23.29   23.35</time>
   <time name="total">   23.91   23.97</time>
   <energy>
    <i name="e_fr_energy">   -186.88865861 </i>
    <i name="e_wo_entrp">   -186.54695010 </i>
    <i name="e_0_energy">   -186.71780435 </i>
   </energy>
  </scstep>
  <scstep>
   <time name="dav">   21.46   21.51</time>
   <time name="total">   22.08   22.14</time>
   <energy>
    <i name="e_fr_energy">   -186.88979267 </i>
    <i name="e_wo_entrp">   -186.54803767 </i>
    <i name="e_0_energy">   -186.71891517 </i>
   </energy>
  </scstep>
  <scstep>
   <time name="dav">   21.29   21.34</time>
   <time name="total">   21.91   21.97</time>
   <energy>
    <i name="e_fr_energy">   -186.89104282 </i>
    <i name="e_wo_entrp">   -186.54940646 </i>
    <i name="e_0_energy">   -186.72022464 </i>
   </energy>
  </scstep>
  <scstep>
   <time name="dav">   20.09   20.14</time>
   <time name="total">   20.71   20.77</time>
   <energy>
    <i name="e_fr_energy">   -186.89161203 </i>
    <i name="e_wo_entrp">   -186.54993633 </i>
    <i name="e_0_energy">   -186.72077418 </i>
   </energy>
  </scstep>
  <scstep>
   <time name="dav">   17.07   17.11</time>
   <time name="total">   17.69   17.74</time>
   <energy>
    <i name="e_fr_energy">   -186.89199993 </i>
    <i name="e_wo_entrp">   -186.55028907 </i>
    <i name="e_0_energy">   -186.72114450 </i>
   </energy>
  </scstep>
  <scstep>
   <time name="dav">   20.01   20.06</time>
   <time name="total">   20.63   20.68</time>
   <energy>
    <i name="e_fr_energy">   -186.89224239 </i>
    <i name="e_wo_entrp">   -186.55054799 </i>
    <i name="e_0_energy">   -186.72139519 </i>
   </energy>
  </scstep>
  <scstep>
   <time name="dav">   21.01   21.06</time>
   <time name="total">   21.04   21.10</time>
   <energy>
    <i name="alphaZ">     81.65567618 </i>
    <i name="ewald">  41890.23010356 </i>
    <i name="hartreedc"> -47833.16481555 </i>
    <i name="XCdc">   -231.59853933 </i>
    <i name="pawpsdc">   4192.18472442 </i>
    <i name="pawaedc">  -3610.20932876 </i>
    <i name="eentropy">     -0.34169511 </i>
    <i name="bandstr">  -1437.09099155 </i>
    <i name="atom">   6761.44252427 </i>
    <i name="e_fr_energy">   -186.89234187 </i>
    <i name="e_wo_entrp">   -186.55064676 </i>
    <i name="e_0_energy">   -186.72149432 </i>
   </energy>
  </scstep>
  <structure>
   <crystal>
    <varray name="basis" >
     <v>       8.66999996       5.03999989       0.00000000 </v>
     <v>      -8.66999982       5.04000013       0.00000000 </v>
     <v>       0.00000000       0.00000000      30.00000000 </v>
    </varray>
    <i name="volume">   2621.80797419 </i>
    <varray name="rec_basis" >
     <v>       0.05767013       0.09920635       0.00000000 </v>
     <v>      -0.05767013       0.09920635       0.00000000 </v>
     <v>       0.00000000       0.00000000       0.03333333 </v>
    </varray>
   </crystal>
   <varray name="positions" >
    <v>       0.00000000       0.00000000       0.00000000 </v>
    <v>       0.33333334       0.00000000       0.00000000 </v>
    <v>       0.66666669       0.33333334       0.00000000 </v>
    <v>       1.00000000       0.33333334       0.00000000 </v>
    <v>       0.33333334       0.66666669       0.00000000 </v>
    <v>       0.00000000       0.66666669       0.00000000 </v>
    <v>       0.33333334       0.33333334       0.00000000 </v>
    <v>       0.66666669       0.00000000       0.00000000 </v>
    <v>       0.66666669       0.66666669       0.00000000 </v>
    <v>       0.11068511       0.22244981       0.95539999 </v>
    <v>       0.22244981       0.11068511       0.04460000 </v>
    <v>       0.11068511       0.55578315       0.95539999 </v>
    <v>       0.22244981       0.44401845       0.04460000 </v>
    <v>       0.11068511       0.88911647       0.95539999 </v>
    <v>       0.22244981       0.77735180       0.04460000 </v>
    <v>       0.44401845       0.22244981       0.95539999 </v>
    <v>       0.55578315       0.11068511       0.04460000 </v>
    <v>       0.44401845       0.55578315       0.95539999 </v>
    <v>       0.55578315       0.44401845       0.04460000 </v>
    <v>       0.44401845       0.88911647       0.95539999 </v>
    <v>       0.55578315       0.77735180       0.04460000 </v>
    <v>       0.77735180       0.22244981       0.95539999 </v>
    <v>       0.88911647       0.11068511       0.04460000 </v>
    <v>       0.77735180       0.55578315       0.95539999 </v>
    <v>       0.88911647       0.44401845       0.04460000 </v>
    <v>       0.77735180       0.88911647       0.95539999 </v>
    <v>       0.88911647       0.77735180       0.04460000 </v>
   </varray>
  </structure>
  <varray name="forces" >
   <v>       0.07042153       0.02794269      -0.09413302 </v>
   <v>       0.14142147      -0.32607605      -0.04169828 </v>
   <v>       0.20260772       0.28161230       0.06906522 </v>
   <v>      -0.27386598       0.43413978       0.14342476 </v>
   <v>      -0.26050544      -0.44302272       0.02714840 </v>
   <v>       0.50688394       0.04187523       0.00270464 </v>
   <v>      -0.39539387      -0.08272212      -0.06457751 </v>
   <v>      -0.10623544       0.03550238       0.05755365 </v>
   <v>       0.05400304       0.01024539      -0.09981772 </v>
   <v>       0.64697080      -0.56739936      -2.14581918 </v>
   <v>       0.24039610      -0.52588571       1.41197677 </v>
   <v>       0.11126555       0.02064936      -2.94262081 </v>
   <v>       0.03533159      -0.00533187       2.93897196 </v>
   <v>      -0.34475627       0.67649434      -1.42251677 </v>
   <v>      -0.52070068       0.69632018       2.17391953 </v>
   <v>       0.73878727       0.00465321      -1.40935842 </v>
   <v>      -0.73727047       0.01910011       1.48680733 </v>
   <v>       0.27091044       0.02922444      -2.90229407 </v>
   <v>       0.63680510      -0.00130333       2.13597727 </v>
   <v>      -0.64806324       0.14334586      -2.10474267 </v>
   <v>      -0.07614182       0.11257675       2.85778821 </v>
   <v>      -0.65080839      -0.15423303      -2.09157467 </v>
   <v>       0.64693715      -0.14167383       2.06717264 </v>
   <v>       0.34720592      -0.69719507      -2.13626069 </v>
   <v>      -0.51833767      -0.72231419       2.18969099 </v>
   <v>       0.49114374       0.58162003      -2.22108602 </v>
   <v>      -0.60901209       0.55185520       2.11429847 </v>
  </varray>
  <varray name="stress" >
   <v>       7.34137263      -0.09125823      -1.52161573 </v>
   <v>      -0.09125811       4.43523751      -0.04390164 </v>
   <v>      -1.52161569      -0.04390162      30.27609597 </v>
  </varray>
  <energy>
   <i name="e_fr_energy">   -186.89234187 </i>
   <i name="e_wo_entrp">   -186.72149432 </i>
   <i name="e_0_energy">     -0.34169511 </i>
  </energy>
  <time name="totalsc">  827.51  829.72</time>
 </calculation>
 <calculation>
  <scstep>
   <time name="dav">   22.79   22.85</time>
   <time name="total">   23.42   23.48</time>
   <energy>
    <i name="alphaZ">     78.91636746 </i>
    <i name="ewald">  39378.03746575 </i>
    <i name="hartreedc"> -45335.60542297 </i>
    <i name="XCdc">   -239.05555733 </i>
    <i name="pawpsdc">   4192.16321612 </i>
    <i name="pawaedc">  -3610.18811065 </i>
    <i name="eentropy">     -0.28017270 </i>
    <i name="bandstr">  -1412.96268962 </i>
    <i name="atom">   6761.44252427 </i>
    <i name="e_fr_energy">   -187.53237968 </i>
    <i name="e_wo_entrp">   -187.25220698 </i>
    <i name="e_0_energy">   -187.39229333 </i>
   </energy>
  </scstep>
  <scstep>
   <time name="dav">   31.87   31.95</time>
   <time name="total">   32.49   32.57</time>
   <energy>
    <i name="e_fr_energy">   -189.53522079 </i>
    <i name="e_wo_entrp">   -189.20302710 </i>
    <i name="e_0_energy">   -189.36912394 </i>
   </energy>
  </scstep>
  <scstep>
   <time name="dav">   31.93   32.01</time>
   <time name="total">   32.57   32.66</time>
   <energy>
    <i name="e_fr_energy">   -189.35365780 </i>
    <i name="e_wo_entrp">   -189.08252532 </i>
    <i name="e_0_energy">   -189.21809156 </i>
   </energy>
  </scstep>
  <scstep>
   <time name="dav">   32.45   32.53</time>
   <time name="total">   33.08   33.17</time>
   <energy>
    <i name="e_fr_energy">   -188.78844073 </i>
    <i name="e_wo_entrp">   -188.50796459 </i>
    <i name="e_0_energy">   -188.64820266 </i>
   </energy>
  </scstep>
  <scstep>
   <time name="dav">   29.72   29.79</time>
   <time name="total">   30.35   30.43</time>
   <energy>
    <i name="e_fr_energy">   -188.85791193 </i>
    <i name="e_wo_entrp">   -188.57252988 </i>
    <i name="e_0_energy">   -188.71522091 </i>
   </energy>
  </scstep>
  <scstep>
   <time name="dav">   33.10   33.18</time>
   <time name="total">   33.73   33.82</time>
   <energy>
    <i name="e_fr_energy">   -188.77214783 </i>
    <i name="e_wo_entrp">   -188.49264940 </i>
    <i name="e_0_energy">   -188.63239861 </i>
   </energy>
  </scstep>
  <scstep>
   <time name="dav">   31.94   32.01</time>
   <time name="total">   32.56   32.65</time>
   <energy>
    <i name="e_fr_energy">   -188.72822999 </i>
    <i name="e_wo_entrp">   -188.44787007 </i>
    <i name="e_0_energy">   -188.58805003 </i>
   </energy>
  </scstep>
  <scstep>
   <time name="dav">   33.20   33.28</time>
   <time name="total">   33.82   33.91</time>
   <energy>
    <i name="e_fr_energy">   -188.71167006 </i>
    <i name="e_wo_entrp">   -188.43201714 </i>
    <i name="e_0_energy">   -188.57184360 </i>
   </energy>
  </scstep>
  <scstep>
   <time name="dav">   31.04   31.11</time>
   <time name="total">   31.67   31.76</time>
   <energy>
    <i name="e_fr_energy">   -188.70166843 </i>
    <i name="e_wo_entrp">   -188.42300594 </i>
    <i name="e_0_energy">   -188.56233718 </i>
   </energy>
  </scstep>
  <scstep>
   <time name="dav">   30.75   30.82</time>
   <time name="total">   31.38   31.46</time>
   <energy>
    <i name="e_fr_energy">   -188.70057030 </i>
    <i name="e_wo_entrp">   -188.42231009 </i>
    <i name="e_0_energy">   -188.56144020 </i>
   </energy>
  </scstep>
  <scstep>
   <time name="dav">   31.48   31.55</time>
   <time name="total">   32.11   32.20</time>
   <energy>
    <i name="e_fr_energy">   -188.70013207 </i>
    <i name="e_wo_entrp">   -188.42210262 </i>
    <i name="e_0_energy">   -188.56111735 </i>
   </energy>
  </scstep>
  <scstep>
   <time name="dav">   30.11   30.18</time>
   <time name="total">   30.74   30.82</time>
   <energy>
    <i name="e_fr_energy">   -188.70023243 </i>
    <i name="e_wo_entrp">   -188.42233960 </i>
    <i name="e_0_energy">   -188.56128601 </i>
   </energy>
  </scstep>
  <scstep>
   <time name="dav">   22.00   22.05</time>
   <time name="total">   22.04   22.10</time>
   <energy>
    <i name="alphaZ">     78.91636746 </i>
    <i name="ewald">  39378.03746575 </i>
    <i name="hartreedc"> -45346.33260393 </i>
    <i name="XCdc">   -237.96916334 </i>
    <i name="pawpsdc">   3950.51447435 </i>
    <i name="pawaedc">  -3365.03457315 </i>
    <i name="eentropy">     -0.27799471 </i>
    <i name="bandstr">  -1407.99667678 </i>
    <i name="atom">   6761.44252427 </i>
    <i name="e_fr_energy">   -188.70018008 </i>
    <i name="e_wo_entrp">   -188.42218537 </i>
    <i name="e_0_energy">   -188.56118272 </i>
   </energy>
  </scstep>
  <structure>
   <crystal>
    <varray name="basis" >
     <v>       8.85475846       5.10304546       0.00000000 </v>
     <v>      -8.85744793       5.10767248       0.00000000 </v>
     <v>       0.00000000       0.00000000      30.00000000 </v>
    </varray>
    <i name="volume">   2712.81496889 </i>
    <varray name="rec_basis" >
     <v>       0.05648383       0.09795118       0.00000000 </v>
     <v>      -0.05643266       0.09792144       0.00000000 </v>
     <v>       0.00000000       0.00000000       0.03333333 </v>
    </varray>
   </crystal>
   <varray name="positions" >
    <v>       0.00032966      -0.00006219      -0.00015137 </v>
    <v>       0.33216621      -0.00195405      -0.00006705 </v>
    <v>       0.66857816       0.33411745       0.00011106 </v>
    <v>       1.00131584       0.33617307       0.00023064 </v>
    <v>       0.33048828       0.66527116       0.00004366 </v>
    <v>       0.00161065       0.66545687       0.00000435 </v>
    <v>       0.33183739       0.33403749      -0.00010385 </v>
    <v>       0.66654104       0.00046548       0.00009255 </v>
    <v>       0.66686597       0.66656548      -0.00016052 </v>
    <v>       0.10976953       0.21793427       0.95194932 </v>
    <v>       0.22060175       0.10749941       0.04687058 </v>
    <v>       0.11109350       0.55557242       0.95066800 </v>
    <v>       0.22252259       0.44389464       0.04932613 </v>
    <v>       0.11296363       0.89331332       0.95311246 </v>
    <v>       0.22433371       0.78213304       0.04809585 </v>
    <v>       0.44609615       0.22041666       0.95313362 </v>
    <v>       0.55382336       0.11282773       0.04699092 </v>
    <v>       0.44491204       0.55516930       0.95073284 </v>
    <v>       0.55754861       0.44224052       0.04803484 </v>
    <v>       0.44290149       0.89160553       0.95201538 </v>
    <v>       0.55611010       0.77810243       0.04919558 </v>
    <v>       0.77480299       0.22352231       0.95203655 </v>
    <v>       0.89023830       0.10820718       0.04792420 </v>
    <v>       0.77498102       0.55148041       0.95196469 </v>
    <v>       0.88421739       0.44200357       0.04812122 </v>
    <v>       0.78150186       0.89053365       0.95182829 </v>
    <v>       0.89006326       0.78168733       0.04799998 </v>
   </varray>
  </structure>
  <varray name="forces" >
   <v>       0.00837062      -0.06685834       0.03410620 </v>
   <v>       0.14818802      -0.25596224      -0.09582150 </v>
   <v>       0.17189888       0.25332908      -0.05357343 </v>
   <v>      -0.23067280       0.61952831       0.03610157 </v>
   <v>      -0.09395584      -0.56887437       0.00238343 </v>
   <v>       0.59339576      -0.03047959       0.00568924 </v>
   <v>      -0.52241007       0.08998312      -0.10027707 </v>
   <v>       0.07965588      -0.04271689       0.08485921 </v>
   <v>      -0.09865391       0.00383045       0.05776612 </v>
   <v>       0.06278541       0.05296340       0.02756070 </v>
   <v>      -0.05653288       0.08023035      -0.16316183 </v>
   <v>      -0.00775536      -0.00694919      -0.34929949 </v>
   <v>       0.12504811      -0.00424553       0.26882674 </v>
   <v>       0.01472895       0.04172950       0.05106002 </v>
   <v>      -0.03944927       0.06651513       0.15519873 </v>
   <v>      -0.11178651      -0.00203697       0.33599738 </v>
   <v>       0.09824046       0.00135854      -0.13077383 </v>
   <v>       0.08300975       0.00413706      -0.03701944 </v>
   <v>      -0.07933635      -0.01401370      -0.12380617 </v>
   <v>       0.02090325       0.10227026       0.03733210 </v>
   <v>       0.06835356       0.08501371      -0.10841034 </v>
   <v>       0.02745290      -0.10108436       0.06395934 </v>
   <v>      -0.02898873      -0.09843951      -0.11041775 </v>
   <v>      -0.09777238      -0.05202500       0.04902873 </v>
   <v>      -0.02332324      -0.06122254       0.20466821 </v>
   <v>      -0.04433009      -0.04443606       0.01954567 </v>
   <v>      -0.06706412      -0.05154461      -0.16152252 </v>
  </varray>
  <varray name="stress" >
   <v>     -19.90053122       0.01645911       0.04263466 </v>
   <v>       0.01645895     -19.46628064       0.01597079 </v>
   <v>       0.04263473       0.01597074      -1.75463168 </v>
  </varray>
  <energy>
   <i name="e_fr_energy">   -188.70018008 </i>
   <i name="e_wo_entrp">   -188.56118272 </i>
   <i name="e_0_energy">     -0.27799471 </i>
  </energy>
  <time name="totalsc">  443.74  444.91</time>
 </calculation>
 <calculation>
  <scstep>
   <time name="dav">   24.48   24.54</time>
   <time name="total">   25.10   25.16</time>
   <energy>
    <i name="alphaZ">     82.33633167 </i>
    <i name="ewald">  41299.01250815 </i>
    <i name="hartreedc"> -47297.74747636 </i>
    <i name="XCdc">   -233.85170223 </i>
    <i name="pawpsdc">   3949.79375036 </i>
    <i name="pawaedc">  -3364.30752356 </i>
    <i name="eentropy">     -0.23491958 </i>
    <i name="bandstr">  -1387.06642098 </i>
    <i name="atom">   6761.44252427 </i>
    <i name="e_fr_energy">   -190.62292824 </i>
    <i name="e_wo_entrp">   -190.38800867 </i>
    <i name="e_0_energy">   -190.50546846 </i>
   </energy>
  </scstep>
  <scstep>
   <time name="dav">   29.53   29.60</time>
   <time name="total">   30.14   30.22</time>
   <energy>
    <i name="e_fr_energy">   -190.57181487 </i>
    <i name="e_wo_entrp">   -190.33769699 </i>
    <i name="e_0_energy">   -190.45475593 </i>
   </energy>
  </scstep>
  <scstep>
   <time name="dav">   31.80   31.88</time>
   <time name="total">   32.42   32.50</time>
   <energy>
    <i name="e_fr_energy">   -190.10662670 </i>
    <i name="e_wo_entrp">   -189.85628719 </i>
    <i name="e_0_energy">   -189.98145695 </i>
   </energy>
  </scstep>
  <scstep>
   <time name="dav">   32.85   32.93</time>
   <time name="total">   33.47   33.56</time>
   <energy>
    <i name="e_fr_energy">   -189.89847735 </i>
    <i name="e_wo_entrp">   -189.66496952 </i>
    <i name="e_0_energy">   -189.78172344 </i>
   </energy>
  </scstep>
  <scstep>
   <time name="dav">   31.64   31.71</time>
   <time name="total">   32.25   32.34</time>
   <energy>
    <i name="e_fr_energy">   -189.87669371 </i>
    <i name="e_wo_entrp">   -189.63810396 </i>
    <i name="e_0_energy">   -189.75739883 </i>
   </energy>
  </scstep>
  <scstep>
   <time name="dav">   32.21   32.28</time>
   <time name="total">   32.82   32.91</time>
   <energy>
    <i name="e_fr_energy">   -189.80053071 </i>
    <i name="e_wo_entrp">   -189.56321047 </i>
    <i name="e_0_energy">   -189.68187059 </i>
   </energy>
  </scstep>
  <scstep>
   <time name="dav">   30.27   30.35</time>
   <time name="total">   30.89   30.97</time>
   <energy>
    <i name="e_fr_energy">   -189.79363779 </i>
    <i name="e_wo_entrp">   -189.55705036 </i>
    <i name="e_0_energy">   -189.67534408 </i>
   </energy>
  </scstep>
  <scstep>
   <time name="dav">   29.32   29.39</time>
   <time name="total">   29.94   30.02</time>
   <energy>
    <i name="e_fr_energy">   -189.79374143 </i>
    <i name="e_wo_entrp">   -189.55703277 </i>
    <i name="e_0_energy">   -189.67538710 </i>
   </energy>
  </scstep>
  <scstep>
   <time name="dav">   28.24   28.31</time>
   <time name="total">   28.86   28.94</time>
   <energy>
    <i name="e_fr_energy">   -189.79392796 </i>
    <i name="e_wo_entrp">   -189.55723571 </i>
    <i name="e_0_energy">   -189.67558184 </i>
   </energy>
  </scstep>
  <scstep>
   <time name="dav">   26.65   26.71</time>
   <time name="total">   27.27   27.34</time>
   <energy>
    <i name="e_fr_energy">   -189.79405505 </i>
    <i name="e_wo_entrp">   -189.55738895 </i>
    <i name="e_0_energy">   -189.67572200 </i>
   </energy>
  </scstep>
  <scstep>
   <time name="dav">   25.45   25.51</time>
   <time name="total">   26.06   26.13</time>
   <energy>
    <i name="e_fr_energy">   -189.79368705 </i>
    <i name="e_wo_entrp">   -189.55690290 </i>
    <i name="e_0_energy">   -189.67529498 </i>
   </energy>
  </scstep>
  <scstep>
   <time name="dav">   19.65   19.70</time>
   <time name="total">   19.69   19.74</time>
   <energy>
    <i name="alphaZ">     82.33633167 </i>
    <i name="ewald">  41299.01250815 </i>
    <i name="hartreedc"> -47271.30272689 </i>
    <i name="XCdc">   -235.24072196 </i>
    <i name="pawpsdc">   4038.90508669 </i>
    <i name="pawaedc">  -3454.62006640 </i>
    <i name="eentropy">     -0.23677844 </i>
    <i name="bandstr">  -1410.08987278 </i>
    <i name="atom">   6761.44252427 </i>
    <i name="e_fr_energy">   -189.79371567 </i>
    <i name="e_wo_entrp">   -189.55693723 </i>
    <i name="e_0_energy">   -189.67532645 </i>
   </energy>
  </scstep>
  <structure>
   <crystal>
    <varray name="basis" >
     <v>       8.66694996       4.99727712       0.00000000 </v>
     <v>      -8.66940316       5.00149724       0.00000000 </v>
     <v>       0.00000000       0.00000000      30.00000000 </v>
    </varray>
    <i name="volume">   2600.13409135 </i>
    <varray name="rec_basis" >
     <v>       0.05770661       0.10002642       0.00000000 </v>
     <v>      -0.05765792       0.09999811       0.00000000 </v>
     <v>       0.00000000       0.00000000       0.03333333 </v>
    </varray>
   </crystal>
   <varray name="positions" >
    <v>       0.00022634      -0.00018154      -0.00013204 </v>
    <v>       0.33188222      -0.00252242      -0.00012136 </v>
    <v>       0.66916518       0.33437429       0.00008070 </v>
    <v>       1.00212613       0.33742592       0.00025110 </v>
    <v>       0.32945058       0.66441414       0.00004501 </v>
    <v>       0.00212979       0.66483673       0.00000757 </v>
    <v>       0.33148552       0.33468858      -0.00016068 </v>
    <v>       0.66654639       0.00031792       0.00014065 </v>
    <v>       0.66677760       0.66666652      -0.00012778 </v>
    <v>       0.10991804       0.21796221       0.95196494 </v>
    <v>       0.22068108       0.10768724       0.04677811 </v>
    <v>       0.11107447       0.55556829       0.95047002 </v>
    <v>       0.22263562       0.44376758       0.04947849 </v>
    <v>       0.11304728       0.89336867       0.95314140 </v>
    <v>       0.22440660       0.78228164       0.04818382 </v>
    <v>       0.44598539       0.22052053       0.95332405 </v>
    <v>       0.55391998       0.11273572       0.04691680 </v>
    <v>       0.44499865       0.55509654       0.95071186 </v>
    <v>       0.55744907       0.44229332       0.04796467 </v>
    <v>       0.44309189       0.89175575       0.95203654 </v>
    <v>       0.55631734       0.77817838       0.04913413 </v>
    <v>       0.77466100       0.22332766       0.95207280 </v>
    <v>       0.89004651       0.10807109       0.04786161 </v>
    <v>       0.77480047       0.55148761       0.95199248 </v>
    <v>       0.88409302       0.44192402       0.04823722 </v>
    <v>       0.78138527       0.89050220       0.95183937 </v>
    <v>       0.88991301       0.78166586       0.04790843 </v>
   </varray>
  </structure>
  <varray name="forces" >
   <v>      -0.03003032      -0.11548806       0.05509314 </v>
   <v>       0.16280569      -0.24153037      -0.08627928 </v>
   <v>       0.16120488       0.26473130      -0.07194505 </v>
   <v>      -0.21474168       0.65775757       0.00158228 </v>
   <v>      -0.03010425      -0.59470217      -0.00329202 </v>
   <v>       0.59992292      -0.06236835       0.01004472 </v>
   <v>      -0.56288161       0.14932774      -0.08273151 </v>
   <v>       0.14725528      -0.06497690       0.06234788 </v>
   <v>      -0.15169536      -0.00346888       0.07738084 </v>
   <v>       0.03349486      -0.08514829      -0.47059397 </v>
   <v>       0.01815203      -0.03515719       0.27997667 </v>
   <v>      -0.00635801      -0.01033097      -0.91660374 </v>
   <v>       0.04296484      -0.00284346       0.85492974 </v>
   <v>      -0.01387965       0.08518915      -0.39543680 </v>
   <v>      -0.07492985       0.12748241       0.65507111 </v>
   <v>       0.03370860      -0.00043156      -0.09720079 </v>
   <v>      -0.07330437      -0.00307663       0.33025146 </v>
   <v>      -0.00554155       0.01421002      -0.60236742 </v>
   <v>       0.06088785      -0.02758634       0.37051155 </v>
   <v>      -0.07505725       0.02391657      -0.44842598 </v>
   <v>       0.01974522       0.00231126       0.43368792 </v>
   <v>      -0.06565241      -0.02038574      -0.41355600 </v>
   <v>       0.07359329      -0.00633509       0.36815040 </v>
   <v>       0.02519693      -0.09585676      -0.43901463 </v>
   <v>      -0.06296923      -0.11553976       0.71819783 </v>
   <v>       0.02567361       0.08268323      -0.50362856 </v>
   <v>      -0.03746046       0.07761727       0.31385020 </v>
  </varray>
  <varray name="stress" >
   <v>     -10.14857540       0.01589059       0.01869956 </v>
   <v>       0.01589064      -9.81656630       0.02802567 </v>
   <v>       0.01869980       0.02802570       6.47765748 </v>
  </varray>
  <energy>
   <i name="e_fr_energy">   -189.79371567 </i>
   <i name="e_wo_entrp">   -189.67532645 </i>
   <i name="e_0_energy">     -0.23677844 </i>
  </energy>
  <time name="totalsc">  392.57  393.60</time>
 </calculation>
 <calculation>
  <scstep>
   <time name="dav">   22.77   22.82</time>
   <time name="total">   23.37   23.43</time>
   <energy>
    <i name="alphaZ">     85.80731572 </i>
    <i name="ewald">  42827.97552095 </i>
    <i name="hartreedc"> -48844.59730064 </i>
    <i name="XCdc">   -232.95580053 </i>
    <i name="pawpsdc">   4038.94996822 </i>
    <i name="pawaedc">  -3454.66296935 </i>
    <i name="eentropy">     -0.20509654 </i>
    <i name="bandstr">  -1373.12113739 </i>
    <i name="atom">   6761.44252427 </i>
    <i name="e_fr_energy">   -191.36697528 </i>
    <i name="e_wo_entrp">   -191.16187875 </i>
    <i name="e_0_energy">   -191.26442701 </i>
   </energy>
  </scstep>
  <scstep>
   <time name="dav">   33.77   33.85</time>
   <time name="total">   34.38   34.47</time>
   <energy>
    <i name="e_fr_energy">   -191.20416339 </i>
    <i name="e_wo_entrp">   -190.99907309 </i>
    <i name="e_0_energy">   -191.10161824 </i>
   </energy>
  </scstep>
  <scstep>
   <time name="dav">   31.48   31.56</time>
   <time name="total">   32.09   32.17</time>
   <energy>
    <i name="e_fr_energy">   -191.30967120 </i>
    <i name="e_wo_entrp">   -191.08148981 </i>
    <i name="e_0_energy">   -191.19558050 </i>
   </energy>
  </scstep>
  <scstep>
   <time name="dav">   32.15   32.22</time>
   <time name="total">   32.75   32.84</time>
   <energy>
    <i name="e_fr_energy">   -190.93614775 </i>
    <i name="e_wo_entrp">   -190.72793046 </i>
    <i name="e_0_energy">   -190.83203910 </i>
   </energy>
  </scstep>
  <scstep>
   <time name="dav">   32.13   32.21</time>
   <time name="total">   32.74   32.82</time>
   <energy>
    <i name="e_fr_energy">   -190.88669866 </i>
    <i name="e_wo_entrp">   -190.67961993 </i>
    <i name="e_0_energy">   -190.78315929 </i>
   </energy>
  </scstep>
  <scstep>
   <time name="dav">   31.82   31.90</time>
   <time name="total">   32.43   32.52</time>
   <energy>
    <i name="e_fr_energy">   -190.80517816 </i>
    <i name="e_wo_entrp">   -190.59441326 </i>
    <i name="e_0_energy">   -190.69979571 </i>
   </energy>
  </scstep>
  <scstep>
   <time name="dav">   32.68   32.75</time>
   <time name="total">   33.28   33.37</time>
   <energy>
    <i name="e_fr_energy">   -190.79011687 </i>
    <i name="e_wo_entrp">   -190.58025926 </i>
    <i name="e_0_energy">   -190.68518807 </i>
   </energy>
  </scstep>
  <scstep>
   <time name="dav">   27.12   27.18</time>
   <time name="total">   27.72   27.80</time>
   <energy>
    <i name="e_fr_energy">   -190.78752814 </i>
    <i name="e_wo_entrp">   -190.57782494 </i>
    <i name="e_0_energy">   -190.68267654 </i>
   </energy>
  </scstep>
  <scstep>
   <time name="dav">   30.44   30.51</time>
   <time name="total">   31.04   31.13</time>
   <energy>
    <i name="e_fr_energy">   -190.78791441 </i>
    <i name="e_wo_entrp">   -190.57819283 </i>
    <i name="e_0_energy">   -190.68305362 </i>
   </energy>
  </scstep>
  <scstep>
   <time name="dav">   28.97   29.04</time>
   <time name="total">   29.57   29.65</time>
   <energy>
    <i name="e_fr_energy">   -190.78764861 </i>
    <i name="e_wo_entrp">   -190.57792218 </i>
    <i name="e_0_energy">   -190.68278539 </i>
   </energy>
  </scstep>
  <scstep>
   <time name="dav">   24.97   25.03</time>
   <time name="total">   25.57   25.64</time>
   <energy>
    <i name="e_fr_energy">   -190.78754337 </i>
    <i name="e_wo_entrp">   -190.57781579 </i>
    <i name="e_0_energy">   -190.68267958 </i>
   </energy>
  </scstep>
  <scstep>
   <time name="dav">   21.13   21.18</time>
   <time name="total">   21.16   21.22</time>
   <energy>
    <i name="alphaZ">     85.80731572 </i>
    <i name="ewald">  42827.97552095 </i>
    <i name="hartreedc"> -48816.09803164 </i>
    <i name="XCdc">   -234.28221406 </i>
    <i name="pawpsdc">   4064.14602855 </i>
    <i name="pawaedc">  -3480.04242000 </i>
    <i name="eentropy">     -0.20976914 </i>
    <i name="bandstr">  -1399.52649542 </i>
    <i name="atom">   6761.44252427 </i>
    <i name="e_fr_energy">   -190.78754075 </i>
    <i name="e_wo_entrp">   -190.57777162 </i>
    <i name="e_0_energy">   -190.68265618 </i>
   </energy>
  </scstep>
  <structure>
   <crystal>
    <varray name="basis" >
     <v>       8.48569219       4.89820805       0.00000000 </v>
     <v>      -8.48753190       4.90136951       0.00000000 </v>
     <v>       0.00000000       0.00000000      30.00000000 </v>
    </varray>
    <i name="volume">   2494.95629980 </i>
    <varray name="rec_basis" >
     <v>       0.05893533       0.10205628       0.00000000 </v>
     <v>      -0.05889732       0.10203416       0.00000000 </v>
     <v>       0.00000000       0.00000000       0.03333333 </v>
    </varray>
   </crystal>
   <varray name="positions" >
    <v>      -0.00078230      -0.00086249      -0.00000018 </v>
    <v>       0.33101462      -0.00460826      -0.00029188 </v>
    <v>       0.67141953       0.33549390      -0.00008384 </v>
    <v>       1.00558896       0.34239372       0.00022507 </v>
    <v>       0.32564338       0.66064193       0.00003337 </v>
    <v>       0.00383761       0.66219025       0.00003207 </v>
    <v>       0.33047606       0.33786318      -0.00031705 </v>
    <v>       0.66671336      -0.00077361       0.00025061 </v>
    <v>       0.66611297       0.66725075       0.00004907 </v>
    <v>       0.10911900       0.21700559       0.95056784 </v>
    <v>       0.22034603       0.10700638       0.04773390 </v>
    <v>       0.11098034       0.55551611       0.94809090 </v>
    <v>       0.22265854       0.44371605       0.05174590 </v>
    <v>       0.11359807       0.89410186       0.95194373 </v>
    <v>       0.22503546       0.78355379       0.04996428 </v>
    <v>       0.44631785       0.22019096       0.95275507 </v>
    <v>       0.55337787       0.11321672       0.04799185 </v>
    <v>       0.44496539       0.55535795       0.94898492 </v>
    <v>       0.55766421       0.44166522       0.04915133 </v>
    <v>       0.44263689       0.89211917       0.95069585 </v>
    <v>       0.55612696       0.77798515       0.05049214 </v>
    <v>       0.77436333       0.22377218       0.95081130 </v>
    <v>       0.89065019       0.10784786       0.04903002 </v>
    <v>       0.77435857       0.55051017       0.95066933 </v>
    <v>       0.88294900       0.44134933       0.05015996 </v>
    <v>       0.78241391       0.89114374       0.95035263 </v>
    <v>       0.89062865       0.78256687       0.04896171 </v>
   </varray>
  </structure>
  <varray name="forces" >
   <v>      -0.05159642      -0.18360308       0.06162405 </v>
   <v>       0.15931716      -0.20083800      -0.03768988 </v>
   <v>       0.17193843       0.25692612      -0.07273382 </v>
   <v>      -0.18634863       0.64395326      -0.03094166 </v>
   <v>       0.04944115      -0.57598380      -0.00548984 </v>
   <v>       0.56345547      -0.07336007       0.02774122 </v>
   <v>      -0.57617242       0.16279132      -0.02860683 </v>
   <v>       0.19430833      -0.07057104       0.01254441 </v>
   <v>      -0.20877673       0.00200454       0.05006251 </v>
   <v>      -0.06429066      -0.00833166      -0.30137118 </v>
   <v>      -0.02185649       0.02575265       0.14034047 </v>
   <v>      -0.00113706       0.00560004      -0.71393850 </v>
   <v>      -0.04869211      -0.01248864       0.68145275 </v>
   <v>       0.04745973      -0.03172373      -0.30828563 </v>
   <v>       0.00613254      -0.00137015       0.46022940 </v>
   <v>      -0.04072690       0.00456082      -0.02277527 </v>
   <v>      -0.03875770      -0.00954743       0.23343558 </v>
   <v>      -0.07900338       0.02568280      -0.46034770 </v>
   <v>       0.00663968      -0.04122890       0.21040051 </v>
   <v>       0.01801750      -0.05666672      -0.27456453 </v>
   <v>      -0.06618821      -0.09116685       0.30133878 </v>
   <v>       0.03418522       0.05193333      -0.21499746 </v>
   <v>      -0.03430109       0.08858615       0.21221057 </v>
   <v>       0.03237870       0.02418999      -0.26306207 </v>
   <v>       0.01295322       0.00148057       0.55752880 </v>
   <v>       0.03343014       0.04120916      -0.39331084 </v>
   <v>       0.08819055       0.02220931       0.17920616 </v>
  </varray>
  <varray name="stress" >
   <v>      -5.71983239      -0.07328921      -0.07237159 </v>
   <v>      -0.07328910      -5.65950239      -0.07628740 </v>
   <v>      -0.07237177      -0.07628726       4.48063846 </v>
  </varray>
  <energy>
   <i name="e_fr_energy">   -190.78754075 </i>
   <i name="e_wo_entrp">   -190.68265618 </i>
   <i name="e_0_energy">     -0.20976914 </i>
  </energy>
  <time name="totalsc">  400.15  401.21</time>
 </calculation>
 <calculation>
  <scstep>
   <time name="dav">   22.80   22.86</time>
   <time name="total">   23.40   23.46</time>
   <energy>
    <i name="alphaZ">     90.07667442 </i>
    <i name="ewald">  44620.43530712 </i>
    <i name="hartreedc"> -50662.91507870 </i>
    <i name="XCdc">   -231.89100365 </i>
    <i name="pawpsdc">   4064.09150678 </i>
    <i name="pawaedc">  -3479.98399680 </i>
    <i name="eentropy">     -0.20286863 </i>
    <i name="bandstr">  -1353.15380263 </i>
    <i name="atom">   6761.44252427 </i>
    <i name="e_fr_energy">   -192.10073782 </i>
    <i name="e_wo_entrp">   -191.89786919 </i>
    <i name="e_0_energy">   -191.99930351 </i>
   </energy>
  </scstep>
  <scstep>
   <time name="dav">   29.96   30.03</time>
   <time name="total">   30.56   30.64</time>
   <energy>
    <i name="e_fr_energy">   -191.86499340 </i>
    <i name="e_wo_entrp">   -191.65638411 </i>
    <i name="e_0_energy">   -191.76068875 </i>
   </energy>
  </scstep>
  <scstep>
   <time name="dav">   29.33   29.40</time>
   <time name="total">   29.92   30.01</time>
   <energy>
    <i name="e_fr_energy">   -192.06235536 </i>
    <i name="e_wo_entrp">   -191.84242736 </i>
    <i name="e_0_energy">   -191.95239136 </i>
   </energy>
  </scstep>
  <scstep>
   <time name="dav">   29.85   29.93</time>
   <time name="total">   30.45   30.54</time>
   <energy>
    <i name="e_fr_energy">   -191.74990083 </i>
    <i name="e_wo_entrp">   -191.53510314 </i>
    <i name="e_0_energy">   -191.64250199 </i>
   </energy>
  </scstep>
  <scstep>
   <time name="dav">   31.81   31.89</time>
   <time name="total">   32.41   32.50</time>
   <energy>
    <i name="e_fr_energy">   -191.57304152 </i>
    <i name="e_wo_entrp">   -191.37343156 </i>
    <i name="e_0_energy">   -191.47323654 </i>
   </energy>
  </scstep>
  <scstep>
   <time name="dav">   31.68   31.75</time>
   <time name="total">   32.27   32.36</time>
   <energy>
    <i name="e_fr_energy">   -191.44738348 </i>
    <i name="e_wo_entrp">   -191.23496791 </i>
    <i name="e_0_energy">   -191.34117569 </i>
   </energy>
  </scstep>
  <scstep>
   <time name="dav">   31.66   31.74</time>
   <time name="total">   32.26   32.35</time>
   <energy>
    <i name="e_fr_energy">   -191.43314498 </i>
    <i name="e_wo_entrp">   -191.22258618 </i>
    <i name="e_0_energy">   -191.32786558 </i>
   </energy>
  </scstep>
  <scstep>
   <time name="dav">   28.36   28.43</time>
   <time name="total">   28.96   29.04</time>
   <energy>
    <i name="e_fr_energy">   -191.42901581 </i>
    <i name="e_wo_entrp">   -191.21865030 </i>
    <i name="e_0_energy">   -191.32383306 </i>
   </energy>
  </scstep>
  <scstep>
   <time name="dav">   32.47   32.55</time>
   <time name="total">   33.07   33.15</time>
   <energy>
    <i name="e_fr_energy">   -191.43023116 </i>
    <i name="e_wo_entrp">   -191.22008613 </i>
    <i name="e_0_energy">   -191.32515865 </i>
   </energy>
  </scstep>
  <scstep>
   <time name="dav">   29.65   29.72</time>
   <time name="total">   30.24   30.32</time>
   <energy>
    <i name="e_fr_energy">   -191.42887693 </i>
    <i name="e_wo_entrp">   -191.21831235 </i>
    <i name="e_0_energy">   -191.32359464 </i>
   </energy>
  </scstep>
  <scstep>
   <time name="dav">   24.85   24.91</time>
   <time name="total">   24.89   24.96</time>
   <energy>
    <i name="alphaZ">     90.07667442 </i>
    <i name="ewald">  44620.43530712 </i>
    <i name="hartreedc"> -50629.68739434 </i>
    <i name="XCdc">   -233.38240933 </i>
    <i name="pawpsdc">   4085.23392859 </i>
    <i name="pawaedc">  -3501.22111350 </i>
    <i name="eentropy">     -0.21051717 </i>
    <i name="bandstr">  -1384.11594390 </i>
    <i name="atom">   6761.44252427 </i>
    <i name="e_fr_energy">   -191.42894384 </i>
    <i name="e_wo_entrp">   -191.21842667 </i>
    <i name="e_0_energy">   -191.32368526 </i>
   </energy>
  </scstep>
  <structure>
   <crystal>
    <varray name="basis" >
     <v>       8.27828521       4.77813861       0.00000000 </v>
     <v>      -8.28425061       4.78844772       0.00000000 </v>
     <v>       0.00000000       0.00000000      30.00000000 </v>
    </varray>
    <i name="volume">   2376.70300669 </i>
    <varray name="rec_basis" >
     <v>       0.06044231       0.10456818       0.00000000 </v>
     <v>      -0.06031219       0.10449289       0.00000000 </v>
     <v>       0.00000000       0.00000000       0.03333333 </v>
    </varray>
   </crystal>
   <varray name="positions" >
    <v>      -0.00345279      -0.00272112       0.00026151 </v>
    <v>       0.32968944      -0.00822972      -0.00045798 </v>
    <v>       0.67577930       0.33748863      -0.00039014 </v>
    <v>       1.01225776       0.35168494       0.00008586 </v>
    <v>       0.31889528       0.65314081       0.00000723 </v>
    <v>       0.00688220       0.65721446       0.00013714 </v>
    <v>       0.32849773       0.34410100      -0.00044224 </v>
    <v>       0.66723306      -0.00312108       0.00030489 </v>
    <v>       0.66460503       0.66874698       0.00028136 </v>
    <v>       0.10808983       0.21679205       0.94879848 </v>
    <v>       0.22023791       0.10688473       0.04879466 </v>
    <v>       0.11100212       0.55555920       0.94459805 </v>
    <v>       0.22213554       0.44397402       0.05511253 </v>
    <v>       0.11375622       0.89380242       0.95024030 </v>
    <v>       0.22531220       0.78401446       0.05237984 </v>
    <v>       0.44639280       0.22022001       0.95220535 </v>
    <v>       0.55267206       0.11368534       0.04941715 </v>
    <v>       0.44465642       0.55631221       0.94653328 </v>
    <v>       0.55747398       0.44081821       0.05055081 </v>
    <v>       0.44173623       0.89145687       0.94904254 </v>
    <v>       0.55446949       0.77725606       0.05228452 </v>
    <v>       0.77510034       0.22452311       0.94938956 </v>
    <v>       0.89186588       0.10900439       0.05041922 </v>
    <v>       0.77475435       0.55006007       0.94905840 </v>
    <v>       0.88257394       0.44106632       0.05295722 </v>
    <v>       0.78368953       0.89173345       0.94822489 </v>
    <v>       0.89190860       0.78274665       0.05020547 </v>
   </varray>
  </structure>
  <varray name="forces" >
   <v>      -0.01340133      -0.25931626      -0.01429146 </v>
   <v>       0.14873555      -0.17033005      -0.00305534 </v>
   <v>       0.21076982       0.22576481       0.02391720 </v>
   <v>      -0.05835120       0.08372633       0.02555327 </v>
   <v>       0.12593126      -0.00018420      -0.05147775 </v>
   <v>       0.15943275      -0.00677172      -0.03663061 </v>
   <v>      -0.35594807       0.13443696       0.06454726 </v>
   <v>       0.20072609      -0.11799327       0.00863741 </v>
   <v>      -0.32404582       0.00057116      -0.02600288 </v>
   <v>      -0.15840468       0.08826678       0.03002276 </v>
   <v>      -0.07564456       0.09165220      -0.13264194 </v>
   <v>       0.00102230       0.06120868      -0.24936564 </v>
   <v>      -0.08214529      -0.03579150       0.25466558 </v>
   <v>       0.06702595      -0.14228518       0.00880046 </v>
   <v>       0.12865202      -0.11871050       0.08494714 </v>
   <v>      -0.17821742       0.02768323       0.19611244 </v>
   <v>       0.04139088       0.00230539      -0.03597710 </v>
   <v>      -0.11996932       0.04568151      -0.17420118 </v>
   <v>      -0.07735319      -0.03167162      -0.07066856 </v>
   <v>       0.13687023      -0.11462728       0.02028846 </v>
   <v>      -0.12512257      -0.16186633       0.07908599 </v>
   <v>       0.17176269       0.12250332       0.06842388 </v>
   <v>      -0.15132353       0.16472566      -0.09429662 </v>
   <v>      -0.01342470       0.14803428       0.07994282 </v>
   <v>       0.10339619       0.07979931       0.14460232 </v>
   <v>       0.03347640      -0.02395020      -0.14329186 </v>
   <v>       0.20415951      -0.09286152      -0.05764605 </v>
  </varray>
  <varray name="stress" >
   <v>       0.01938698      -0.24360645       0.02298624 </v>
   <v>      -0.24360665       0.27479407      -0.34832538 </v>
   <v>       0.02298608      -0.34832543      -0.71648122 </v>
  </varray>
  <energy>
   <i name="e_fr_energy">   -191.42894384 </i>
   <i name="e_wo_entrp">   -191.32368526 </i>
   <i name="e_0_energy">     -0.21051717 </i>
  </energy>
  <time name="totalsc">  372.29  373.27</time>
 </calculation>
 <calculation>
  <scstep>
   <time name="dav">   22.77   22.82</time>
   <time name="total">   23.37   23.42</time>
   <energy>
    <i name="alphaZ">     89.98681853 </i>
    <i name="ewald">  44566.62351214 </i>
    <i name="hartreedc"> -50575.47984078 </i>
    <i name="XCdc">   -233.50023737 </i>
    <i name="pawpsdc">   4085.39410714 </i>
    <i name="pawaedc">  -3501.37859399 </i>
    <i name="eentropy">     -0.21356530 </i>
    <i name="bandstr">  -1384.35277404 </i>
    <i name="atom">   6761.44252427 </i>
    <i name="e_fr_energy">   -191.47804939 </i>
    <i name="e_wo_entrp">   -191.26448409 </i>
    <i name="e_0_energy">   -191.37126674 </i>
   </energy>
  </scstep>
  <scstep>
   <time name="dav">   33.39   33.47</time>
   <time name="total">   33.98   34.07</time>
   <energy>
    <i name="e_fr_energy">   -191.53096446 </i>
    <i name="e_wo_entrp">   -191.30756060 </i>
    <i name="e_0_energy">   -191.41926253 </i>
   </energy>
  </scstep>
  <scstep>
   <time name="dav">   32.04   32.11</time>
   <time name="total">   32.63   32.72</time>
   <energy>
    <i name="e_fr_energy">   -191.48878760 </i>
    <i name="e_wo_entrp">   -191.27472371 </i>
    <i name="e_0_energy">   -191.38175566 </i>
   </energy>
  </scstep>
  <scstep>
   <time name="dav">   29.72   29.79</time>
   <time name="total">   30.32   30.40</time>
   <energy>
    <i name="e_fr_energy">   -191.49038238 </i>
    <i name="e_wo_entrp">   -191.27484407 </i>
    <i name="e_0_energy">   -191.38261322 </i>
   </energy>
  </scstep>
  <scstep>
   <time name="dav">   27.21   27.28</time>
   <time name="total">   27.81   27.89</time>
   <energy>
    <i name="e_fr_energy">   -191.48700088 </i>
    <i name="e_wo_entrp">   -191.27182334 </i>
    <i name="e_0_energy">   -191.37941211 </i>
   </energy>
  </scstep>
  <scstep>
   <time name="dav">   27.82   27.89</time>
   <time name="total">   28.42   28.50</time>
   <energy>
    <i name="e_fr_energy">   -191.48697065 </i>
    <i name="e_wo_entrp">   -191.27165329 </i>
    <i name="e_0_energy">   -191.37931197 </i>
   </energy>
  </scstep>
  <scstep>
   <time name="dav">   27.14   27.21</time>
   <time name="total">   27.74   27.81</time>
   <energy>
    <i name="e_fr_energy">   -191.48666201 </i>
    <i name="e_wo_entrp">   -191.27160739 </i>
    <i name="e_0_energy">   -191.37913470 </i>
   </energy>
  </scstep>
  <scstep>
   <time name="dav">   21.85   21.90</time>
   <time name="total">   21.89   21.95</time>
   <energy>
    <i name="alphaZ">     89.98681853 </i>
    <i name="ewald">  44566.62351214 </i>
    <i name="hartreedc"> -50577.09669627 </i>
    <i name="XCdc">   -233.45705145 </i>
    <i name="pawpsdc">   4082.50368288 </i>
    <i name="pawaedc">  -3498.44449092 </i>
    <i name="eentropy">     -0.21513793 </i>
    <i name="bandstr">  -1382.82983406 </i>
    <i name="atom">   6761.44252427 </i>
    <i name="e_fr_energy">   -191.48667281 </i>
    <i name="e_wo_entrp">   -191.27153488 </i>
    <i name="e_0_energy">   -191.37910385 </i>
   </energy>
  </scstep>
  <structure>
   <crystal>
    <varray name="basis" >
     <v>       8.27664325       4.77686587       0.00000000 </v>
     <v>      -8.28867136       4.79767814       0.00000000 </v>
     <v>       0.00000000       0.00000000      30.00000000 </v>
    </varray>
    <i name="volume">   2379.07625170 </i>
    <varray name="rec_basis" >
     <v>       0.06049842       0.10451962       0.00000000 </v>
     <v>      -0.06023597       0.10436794       0.00000000 </v>
     <v>       0.00000000       0.00000000       0.03333333 </v>
    </varray>
   </crystal>
   <varray name="positions" >
    <v>      -0.00475922      -0.00395675       0.00023661 </v>
    <v>       0.32928059      -0.00947338      -0.00046137 </v>
    <v>       0.67747284       0.33798948      -0.00034961 </v>
    <v>       1.01245112       0.35219175       0.00012762 </v>
    <v>       0.31931224       0.65284075      -0.00007418 </v>
    <v>       0.00728221       0.65676472       0.00007822 </v>
    <v>       0.32815865       0.34573856      -0.00033878 </v>
    <v>       0.66721893      -0.00426380       0.00031812 </v>
    <v>       0.66368869       0.66966742       0.00023803 </v>
    <v>       0.10808452       0.21769033       0.94886376 </v>
    <v>       0.22047875       0.10756174       0.04857281 </v>
    <v>       0.11130962       0.55586041       0.94423480 </v>
    <v>       0.22172568       0.44402931       0.05548520 </v>
    <v>       0.11323860       0.89290280       0.95027086 </v>
    <v>       0.22508790       0.78304842       0.05249153 </v>
    <v>       0.44601570       0.22087056       0.95252344 </v>
    <v>       0.55281011       0.11357245       0.04934566 </v>
    <v>       0.44454159       0.55687529       0.94628054 </v>
    <v>       0.55709404       0.44089132       0.05042414 </v>
    <v>       0.44156879       0.89049878       0.94909138 </v>
    <v>       0.55331837       0.77681680       0.05239196 </v>
    <v>       0.77619850       0.22463112       0.94951287 </v>
    <v>       0.89223820       0.11024903       0.05025525 </v>
    <v>       0.77544972       0.55084113       0.94920152 </v>
    <v>       0.88327407       0.44116984       0.05316042 </v>
    <v>       0.78365320       0.89151168       0.94801820 </v>
    <v>       0.89202106       0.78169470       0.05010091 </v>
   </varray>
  </structure>
  <varray name="forces" >
   <v>       0.01342054      -0.24975782       0.01987364 </v>
   <v>       0.16040322      -0.20059234       0.01110280 </v>
   <v>       0.25830488       0.22156862      -0.00445103 </v>
   <v>      -0.12889440       0.18621259      -0.03886142 </v>
   <v>       0.12224845      -0.04369447      -0.01992173 </v>
   <v>       0.24329106       0.01846282      -0.03385601 </v>
   <v>      -0.36534389       0.14462451       0.02507418 </v>
   <v>       0.19449770      -0.14473668       0.02725313 </v>
   <v>      -0.38945814      -0.01686060      -0.00077137 </v>
   <v>      -0.08981531       0.05034358       0.05461058 </v>
   <v>      -0.06041895       0.05328099      -0.16919336 </v>
   <v>       0.01956461       0.03380819      -0.12065222 </v>
   <v>      -0.08261747      -0.00826011       0.17626923 </v>
   <v>       0.03550436      -0.08823310       0.00994875 </v>
   <v>       0.07886053      -0.06837204       0.05526382 </v>
   <v>      -0.11427352       0.02201453       0.24691848 </v>
   <v>       0.03450592       0.00040951      -0.06145152 </v>
   <v>      -0.05275341       0.02978488      -0.16305450 </v>
   <v>      -0.06755676       0.00480891      -0.08453615 </v>
   <v>       0.08073801      -0.04790969      -0.01786521 </v>
   <v>      -0.08482234      -0.07978116       0.11383341 </v>
   <v>       0.12497167       0.05209997       0.05969429 </v>
   <v>      -0.07714506       0.08178713      -0.09492645 </v>
   <v>      -0.02640078       0.09083912       0.10474166 </v>
   <v>       0.04439118       0.05833942       0.13271091 </v>
   <v>       0.01954538      -0.01896083      -0.14492542 </v>
   <v>       0.10925251      -0.08122591      -0.08282849 </v>
  </varray>
  <varray name="stress" >
   <v>      -0.06247498      -0.01575698      -0.12086257 </v>
   <v>      -0.01575695      -0.19331169      -0.17036072 </v>
   <v>      -0.12086259      -0.17036078      -1.23008049 </v>
  </varray>
  <energy>
   <i name="e_fr_energy">   -191.48667281 </i>
   <i name="e_wo_entrp">   -191.37910385 </i>
   <i name="e_0_energy">     -0.21513793 </i>
  </energy>
  <time name="totalsc">  270.00  270.71</time>
 </calculation>
 <calculation>
  <scstep>
   <time name="dav">   22.83   22.88</time>
   <time name="total">   23.43   23.49</time>
   <energy>
    <i name="alphaZ">     90.07228378 </i>
    <i name="ewald">  44607.02040183 </i>
    <i name="hartreedc"> -50618.32553835 </i>
    <i name="XCdc">   -233.39609824 </i>
    <i name="pawpsdc">   4082.41163238 </i>
    <i name="pawaedc">  -3498.35126315 </i>
    <i name="eentropy">     -0.21677870 </i>
    <i name="bandstr">  -1382.19720096 </i>
    <i name="atom">   6761.44252427 </i>
    <i name="e_fr_energy">   -191.54003713 </i>
    <i name="e_wo_entrp">   -191.32325843 </i>
    <i name="e_0_energy">   -191.43164778 </i>
   </energy>
  </scstep>
  <scstep>
   <time name="dav">   34.67   34.76</time>
   <time name="total">   35.27   35.36</time>
   <energy>
    <i name="e_fr_energy">   -191.57457407 </i>
    <i name="e_wo_entrp">   -191.34658889 </i>
    <i name="e_0_energy">   -191.46058148 </i>
   </energy>
  </scstep>
  <scstep>
   <time name="dav">   32.08   32.15</time>
   <time name="total">   32.67   32.76</time>
   <energy>
    <i name="e_fr_energy">   -191.54678112 </i>
    <i name="e_wo_entrp">   -191.32994895 </i>
    <i name="e_0_energy">   -191.43836504 </i>
   </energy>
  </scstep>
  <scstep>
   <time name="dav">   29.30   29.37</time>
   <time name="total">   29.90   29.98</time>
   <energy>
    <i name="e_fr_energy">   -191.54637760 </i>
    <i name="e_wo_entrp">   -191.32741366 </i>
    <i name="e_0_energy">   -191.43689563 </i>
   </energy>
  </scstep>
  <scstep>
   <time name="dav">   28.20   28.27</time>
   <time name="total">   28.80   28.88</time>
   <energy>
    <i name="e_fr_energy">   -191.54511853 </i>
    <i name="e_wo_entrp">   -191.32689949 </i>
    <i name="e_0_energy">   -191.43600901 </i>
   </energy>
  </scstep>
  <scstep>
   <time name="dav">   26.78   26.85</time>
   <time name="total">   27.38   27.45</time>
   <energy>
    <i name="e_fr_energy">   -191.54447422 </i>
    <i name="e_wo_entrp">   -191.32558231 </i>
    <i name="e_0_energy">   -191.43502827 </i>
   </energy>
  </scstep>
  <scstep>
   <time name="dav">   27.75   27.81</time>
   <time name="total">   28.35   28.42</time>
   <energy>
    <i name="e_fr_energy">   -191.54430898 </i>
    <i name="e_wo_entrp">   -191.32538894 </i>
    <i name="e_0_energy">   -191.43484896 </i>
   </energy>
  </scstep>
  <scstep>
   <time name="dav">   22.86   22.92</time>
   <time name="total">   22.90   22.96</time>
   <energy>
    <i name="alphaZ">     90.07228378 </i>
    <i name="ewald">  44607.02040183 </i>
    <i name="hartreedc"> -50618.16675060 </i>
    <i name="XCdc">   -233.41131989 </i>
    <i name="pawpsdc">   4084.49802586 </i>
    <i name="pawaedc">  -3500.46462266 </i>
    <i name="eentropy">     -0.21880913 </i>
    <i name="bandstr">  -1382.31605097 </i>
    <i name="atom">   6761.44252427 </i>
    <i name="e_fr_energy">   -191.54431751 </i>
    <i name="e_wo_entrp">   -191.32550839 </i>
[...]
      <set comment="kpoint 31">
       <r>  -17.5122    1.0000 </r>
       <r>  -17.3255    1.0000 </r>
       <r>  -16.9200    1.0000 </r>
       <r>  -16.6445    1.0000 </r>
       <r>  -16.5706    1.0000 </r>
       <r>  -16.4460    1.0000 </r>
       <r>  -16.2574    1.0000 </r>
       <r>  -16.1755    1.0000 </r>
       <r>  -16.1110    1.0000 </r>
       <r>  -16.0453    1.0000 </r>
       <r>  -15.9750    1.0000 </r>
       <r>  -15.8579    1.0000 </r>
       <r>  -15.8095    1.0000 </r>
       <r>  -15.7188    1.0000 </r>
       <r>  -15.6149    1.0000 </r>
       <r>  -15.4906    1.0000 </r>
       <r>  -15.3836    1.0000 </r>
       <r>  -15.2705    1.0000 </r>
       <r>   -9.7475    1.0000 </r>
       <r>   -9.4174    1.0000 </r>
       <r>   -9.3656    1.0000 </r>
       <r>   -8.9130    1.0000 </r>
       <r>   -8.8520    1.0000 </r>
       <r>   -8.7563    1.0000 </r>
       <r>   -8.6242    1.0000 </r>
       <r>   -8.6070    1.0000 </r>
       <r>   -8.4125    1.0000 </r>
       <r>   -8.3453    1.0000 </r>
       <r>   -8.2871    1.0000 </r>
       <r>   -8.1831    1.0000 </r>
       <r>   -8.1137    1.0000 </r>
       <r>   -8.0672    1.0000 </r>
       <r>   -8.0378    1.0000 </r>
       <r>   -7.9518    1.0000 </r>
       <r>   -7.8375    1.0000 </r>
       <r>   -7.6854    1.0000 </r>
       <r>   -7.5590    1.0000 </r>
       <r>   -7.4518    1.0000 </r>
       <r>   -7.3567    1.0000 </r>
       <r>   -7.3286    1.0000 </r>
       <r>   -7.1401    1.0000 </r>
       <r>   -7.0762    1.0000 </r>
       <r>   -6.9668    1.0000 </r>
       <r>   -6.9375    1.0000 </r>
       <r>   -6.8970    1.0000 </r>
       <r>   -6.8246    1.0000 </r>
       <r>   -6.6904    1.0000 </r>
       <r>   -6.5428    1.0000 </r>
       <r>   -6.4898    1.0000 </r>
       <r>   -6.4619    1.0000 </r>
       <r>   -6.4033    1.0000 </r>
       <r>   -6.3247    1.0000 </r>
       <r>   -6.2715    1.0000 </r>
       <r>   -6.2358    1.0000 </r>
       <r>   -6.1461    1.0000 </r>
       <r>   -6.0905    1.0000 </r>
       <r>   -6.0256    1.0000 </r>
       <r>   -5.8894    1.0000 </r>
       <r>   -5.8230    1.0000 </r>
       <r>   -5.7259    1.0000 </r>
       <r>   -5.6165    1.0000 </r>
       <r>   -5.5486    1.0000 </r>
       <r>   -5.4929    1.0000 </r>
       <r>   -5.4345    1.0000 </r>
       <r>   -5.2790    1.0000 </r>
       <r>   -5.1390    1.0000 </r>
       <r>   -5.0665    1.0000 </r>
       <r>   -4.9401    1.0000 </r>
       <r>   -4.8562    1.0000 </r>
       <r>   -4.7134    1.0000 </r>
       <r>   -4.6079    1.0000 </r>
       <r>   -4.5132    1.0000 </r>
       <r>   -4.2861    1.0000 </r>
       <r>   -4.1034    1.0000 </r>
       <r>   -4.0756    1.0000 </r>
       <r>   -3.8372    1.0000 </r>
       <r>   -3.8030    1.0000 </r>
       <r>   -3.6945    0.9994 </r>
       <r>   -3.5623    0.9899 </r>
       <r>   -3.2104    0.4343 </r>
       <r>   -2.9977    0.0475 </r>
       <r>   -2.8468    0.0031 </r>
       <r>   -2.6926    0.0001 </r>
       <r>   -2.5684    0.0000 </r>
       <r>   -2.4043    0.0000 </r>
       <r>   -2.2895    0.0000 </r>
       <r>   -2.2442    0.0000 </r>
       <r>   -2.0555    0.0000 </r>
       <r>   -1.8725    0.0000 </r>
       <r>   -1.7584    0.0000 </r>
       <r>   -1.5894    0.0000 </r>
       <r>   -1.5169    0.0000 </r>
       <r>   -1.4774    0.0000 </r>
       <r>   -1.3659    0.0000 </r>
       <r>   -1.2500    0.0000 </r>
       <r>   -1.1595    0.0000 </r>
       <r>   -1.1207    0.0000 </r>
       <r>   -1.0575    0.0000 </r>
       <r>   -0.9673    0.0000 </r>
       <r>   -0.8820    0.0000 </r>
       <r>   -0.8488    0.0000 </r>
       <r>   -0.7882    0.0000 </r>
       <r>   -0.7176    0.0000 </r>
       <r>   -0.6168    0.0000 </r>
       <r>   -0.5333    0.0000 </r>
       <r>   -0.4800    0.0000 </r>
       <r>   -0.3129    0.0000 </r>
       <r>   -0.1555    0.0000 </r>
       <r>    0.1052    0.0000 </r>
       <r>    0.2271    0.0000 </r>
       <r>    0.4790    0.0000 </r>
       <r>    0.5762    0.0000 </r>
       <r>    0.8148    0.0000 </r>
       <r>    0.9657    0.0000 </r>
       <r>    1.1146    0.0000 </r>
       <r>    1.3206    0.0000 </r>
       <r>    1.5737    0.0000 </r>
       <r>    2.1530    0.0000 </r>
       <r>    2.2975    0.0000 </r>
       <r>    2.4075    0.0000 </r>
      </set>
      <set comment="kpoint 32">
       <r>  -17.5423    1.0000 </r>
       <r>  -17.2257    1.0000 </r>
       <r>  -17.0391    1.0000 </r>
       <r>  -16.6396    1.0000 </r>
       <r>  -16.5701    1.0000 </r>
       <r>  -16.3120    1.0000 </r>
       <r>  -16.2552    1.0000 </r>
       <r>  -16.2126    1.0000 </r>
       <r>  -16.1100    1.0000 </r>
       <r>  -16.0690    1.0000 </r>
       <r>  -16.0245    1.0000 </r>
       <r>  -15.8726    1.0000 </r>
       <r>  -15.8136    1.0000 </r>
       <r>  -15.7216    1.0000 </r>
       <r>  -15.5862    1.0000 </r>
       <r>  -15.4680    1.0000 </r>
       <r>  -15.3900    1.0000 </r>
       <r>  -15.2768    1.0000 </r>
       <r>   -9.6447    1.0000 </r>
       <r>   -9.5806    1.0000 </r>
       <r>   -9.4029    1.0000 </r>
       <r>   -8.8818    1.0000 </r>
       <r>   -8.7614    1.0000 </r>
       <r>   -8.6858    1.0000 </r>
       <r>   -8.5744    1.0000 </r>
       <r>   -8.5051    1.0000 </r>
       <r>   -8.4029    1.0000 </r>
       <r>   -8.3862    1.0000 </r>
       <r>   -8.3230    1.0000 </r>
       <r>   -8.2811    1.0000 </r>
       <r>   -8.1742    1.0000 </r>
       <r>   -8.1098    1.0000 </r>
       <r>   -8.0540    1.0000 </r>
       <r>   -7.9908    1.0000 </r>
       <r>   -7.8510    1.0000 </r>
       <r>   -7.6554    1.0000 </r>
       <r>   -7.5627    1.0000 </r>
       <r>   -7.4465    1.0000 </r>
       <r>   -7.3063    1.0000 </r>
       <r>   -7.2461    1.0000 </r>
       <r>   -7.2210    1.0000 </r>
       <r>   -7.1242    1.0000 </r>
       <r>   -7.0214    1.0000 </r>
       <r>   -6.9191    1.0000 </r>
       <r>   -6.8747    1.0000 </r>
       <r>   -6.8271    1.0000 </r>
       <r>   -6.6389    1.0000 </r>
       <r>   -6.5803    1.0000 </r>
       <r>   -6.5432    1.0000 </r>
       <r>   -6.4651    1.0000 </r>
       <r>   -6.4240    1.0000 </r>
       <r>   -6.3301    1.0000 </r>
       <r>   -6.2735    1.0000 </r>
       <r>   -6.1939    1.0000 </r>
       <r>   -6.1245    1.0000 </r>
       <r>   -6.0357    1.0000 </r>
       <r>   -5.9276    1.0000 </r>
       <r>   -5.8862    1.0000 </r>
       <r>   -5.7913    1.0000 </r>
       <r>   -5.7240    1.0000 </r>
       <r>   -5.6327    1.0000 </r>
       <r>   -5.5813    1.0000 </r>
       <r>   -5.4968    1.0000 </r>
       <r>   -5.4213    1.0000 </r>
       <r>   -5.2578    1.0000 </r>
       <r>   -5.1031    1.0000 </r>
       <r>   -5.0648    1.0000 </r>
       <r>   -4.9468    1.0000 </r>
       <r>   -4.8493    1.0000 </r>
       <r>   -4.8122    1.0000 </r>
       <r>   -4.7090    1.0000 </r>
       <r>   -4.5020    1.0000 </r>
       <r>   -4.2797    1.0000 </r>
       <r>   -4.1069    1.0000 </r>
       <r>   -4.0725    1.0000 </r>
       <r>   -3.8513    1.0000 </r>
       <r>   -3.7767    0.9999 </r>
       <r>   -3.6603    0.9987 </r>
       <r>   -3.5471    0.9866 </r>
       <r>   -3.1945    0.3907 </r>
       <r>   -3.0062    0.0538 </r>
       <r>   -2.8485    0.0032 </r>
       <r>   -2.6860    0.0001 </r>
       <r>   -2.5470    0.0000 </r>
       <r>   -2.4187    0.0000 </r>
       <r>   -2.3010    0.0000 </r>
       <r>   -2.2448    0.0000 </r>
       <r>   -2.0725    0.0000 </r>
       <r>   -1.8876    0.0000 </r>
       <r>   -1.7788    0.0000 </r>
       <r>   -1.5815    0.0000 </r>
       <r>   -1.5430    0.0000 </r>
       <r>   -1.4872    0.0000 </r>
       <r>   -1.3609    0.0000 </r>
       <r>   -1.2375    0.0000 </r>
       <r>   -1.1378    0.0000 </r>
       <r>   -1.0703    0.0000 </r>
       <r>   -1.0337    0.0000 </r>
       <r>   -0.9539    0.0000 </r>
       <r>   -0.9165    0.0000 </r>
       <r>   -0.8522    0.0000 </r>
       <r>   -0.7955    0.0000 </r>
       <r>   -0.7092    0.0000 </r>
       <r>   -0.6535    0.0000 </r>
       <r>   -0.5463    0.0000 </r>
       <r>   -0.4486    0.0000 </r>
       <r>   -0.2746    0.0000 </r>
       <r>   -0.1425    0.0000 </r>
       <r>    0.0760    0.0000 </r>
       <r>    0.1983    0.0000 </r>
       <r>    0.4510    0.0000 </r>
       <r>    0.5727    0.0000 </r>
       <r>    0.7277    0.0000 </r>
       <r>    0.9588    0.0000 </r>
       <r>    1.1673    0.0000 </r>
       <r>    1.3449    0.0000 </r>
       <r>    1.5959    0.0000 </r>
       <r>    2.1215    0.0000 </r>
       <r>    2.2644    0.0000 </r>
       <r>    2.5901    0.0000 </r>
      </set>
      <set comment="kpoint 33">
       <r>  -17.5381    1.0000 </r>
       <r>  -17.2777    1.0000 </r>
       <r>  -16.9356    1.0000 </r>
       <r>  -16.6472    1.0000 </r>
       <r>  -16.5834    1.0000 </r>
       <r>  -16.4536    1.0000 </r>
       <r>  -16.2646    1.0000 </r>
       <r>  -16.1508    1.0000 </r>
       <r>  -16.0782    1.0000 </r>
       <r>  -16.0380    1.0000 </r>
       <r>  -16.0039    1.0000 </r>
       <r>  -15.8851    1.0000 </r>
       <r>  -15.8040    1.0000 </r>
       <r>  -15.7274    1.0000 </r>
       <r>  -15.6098    1.0000 </r>
       <r>  -15.4530    1.0000 </r>
       <r>  -15.3961    1.0000 </r>
       <r>  -15.2830    1.0000 </r>
       <r>   -9.7252    1.0000 </r>
       <r>   -9.4479    1.0000 </r>
       <r>   -9.3277    1.0000 </r>
       <r>   -8.9187    1.0000 </r>
       <r>   -8.8848    1.0000 </r>
       <r>   -8.7921    1.0000 </r>
       <r>   -8.6107    1.0000 </r>
       <r>   -8.5572    1.0000 </r>
       <r>   -8.3958    1.0000 </r>
       <r>   -8.3279    1.0000 </r>
       <r>   -8.2617    1.0000 </r>
       <r>   -8.2077    1.0000 </r>
       <r>   -8.1641    1.0000 </r>
       <r>   -8.1038    1.0000 </r>
       <r>   -7.9916    1.0000 </r>
       <r>   -7.9290    1.0000 </r>
       <r>   -7.8122    1.0000 </r>
       <r>   -7.7031    1.0000 </r>
       <r>   -7.6168    1.0000 </r>
       <r>   -7.4651    1.0000 </r>
       <r>   -7.4094    1.0000 </r>
       <r>   -7.2918    1.0000 </r>
       <r>   -7.1906    1.0000 </r>
       <r>   -7.0855    1.0000 </r>
       <r>   -6.9770    1.0000 </r>
       <r>   -6.9326    1.0000 </r>
       <r>   -6.8901    1.0000 </r>
       <r>   -6.8076    1.0000 </r>
       <r>   -6.6522    1.0000 </r>
       <r>   -6.5931    1.0000 </r>
       <r>   -6.4858    1.0000 </r>
       <r>   -6.4595    1.0000 </r>
       <r>   -6.3683    1.0000 </r>
       <r>   -6.3442    1.0000 </r>
       <r>   -6.2787    1.0000 </r>
       <r>   -6.1677    1.0000 </r>
       <r>   -6.1129    1.0000 </r>
       <r>   -6.0850    1.0000 </r>
       <r>   -5.9955    1.0000 </r>
       <r>   -5.8820    1.0000 </r>
       <r>   -5.8446    1.0000 </r>
       <r>   -5.7310    1.0000 </r>
       <r>   -5.6157    1.0000 </r>
       <r>   -5.5231    1.0000 </r>
       <r>   -5.4725    1.0000 </r>
       <r>   -5.4574    1.0000 </r>
       <r>   -5.2694    1.0000 </r>
       <r>   -5.1455    1.0000 </r>
       <r>   -5.0822    1.0000 </r>
       <r>   -4.9410    1.0000 </r>
       <r>   -4.8444    1.0000 </r>
       <r>   -4.7235    1.0000 </r>
       <r>   -4.6473    1.0000 </r>
       <r>   -4.5007    1.0000 </r>
       <r>   -4.3145    1.0000 </r>
       <r>   -4.1107    1.0000 </r>
       <r>   -4.0591    1.0000 </r>
       <r>   -3.8908    1.0000 </r>
       <r>   -3.7835    0.9999 </r>
       <r>   -3.7253    0.9997 </r>
       <r>   -3.4820    0.9604 </r>
       <r>   -3.1709    0.3283 </r>
       <r>   -3.0186    0.0641 </r>
       <r>   -2.8969    0.0086 </r>
       <r>   -2.6692    0.0000 </r>
       <r>   -2.5636    0.0000 </r>
       <r>   -2.4128    0.0000 </r>
       <r>   -2.2708    0.0000 </r>
       <r>   -2.2173    0.0000 </r>
       <r>   -2.0685    0.0000 </r>
       <r>   -1.8967    0.0000 </r>
       <r>   -1.7796    0.0000 </r>
       <r>   -1.6465    0.0000 </r>
       <r>   -1.5067    0.0000 </r>
       <r>   -1.4640    0.0000 </r>
       <r>   -1.3683    0.0000 </r>
       <r>   -1.2138    0.0000 </r>
       <r>   -1.1263    0.0000 </r>
       <r>   -1.0715    0.0000 </r>
       <r>   -1.0208    0.0000 </r>
       <r>   -1.0087    0.0000 </r>
       <r>   -0.9247    0.0000 </r>
       <r>   -0.8678    0.0000 </r>
       <r>   -0.8035    0.0000 </r>
       <r>   -0.6883    0.0000 </r>
       <r>   -0.6244    0.0000 </r>
       <r>   -0.5543    0.0000 </r>
       <r>   -0.4641    0.0000 </r>
       <r>   -0.2568    0.0000 </r>
       <r>   -0.1173    0.0000 </r>
       <r>    0.0334    0.0000 </r>
       <r>    0.0997    0.0000 </r>
       <r>    0.4260    0.0000 </r>
       <r>    0.5901    0.0000 </r>
       <r>    0.7439    0.0000 </r>
       <r>    0.9828    0.0000 </r>
       <r>    1.2078    0.0000 </r>
       <r>    1.3657    0.0000 </r>
       <r>    1.6197    0.0000 </r>
       <r>    2.1535    0.0000 </r>
       <r>    2.2983    0.0000 </r>
       <r>    2.4118    0.0000 </r>
      </set>
      <set comment="kpoint 34">
       <r>  -17.5258    1.0000 </r>
       <r>  -17.3254    1.0000 </r>
       <r>  -16.7675    1.0000 </r>
       <r>  -16.7312    1.0000 </r>
       <r>  -16.6109    1.0000 </r>
       <r>  -16.5278    1.0000 </r>
       <r>  -16.2615    1.0000 </r>
       <r>  -16.1494    1.0000 </r>
       <r>  -16.0669    1.0000 </r>
       <r>  -16.0382    1.0000 </r>
       <r>  -15.9457    1.0000 </r>
       <r>  -15.8845    1.0000 </r>
       <r>  -15.7752    1.0000 </r>
       <r>  -15.7428    1.0000 </r>
       <r>  -15.6453    1.0000 </r>
       <r>  -15.4476    1.0000 </r>
       <r>  -15.3992    1.0000 </r>
       <r>  -15.2854    1.0000 </r>
       <r>   -9.7669    1.0000 </r>
       <r>   -9.2953    1.0000 </r>
       <r>   -9.2316    1.0000 </r>
       <r>   -9.0964    1.0000 </r>
       <r>   -8.9685    1.0000 </r>
       <r>   -8.8400    1.0000 </r>
       <r>   -8.6314    1.0000 </r>
       <r>   -8.5775    1.0000 </r>
       <r>   -8.3673    1.0000 </r>
       <r>   -8.3486    1.0000 </r>
       <r>   -8.2337    1.0000 </r>
       <r>   -8.2023    1.0000 </r>
       <r>   -8.1314    1.0000 </r>
       <r>   -8.0713    1.0000 </r>
       <r>   -7.8928    1.0000 </r>
       <r>   -7.8481    1.0000 </r>
       <r>   -7.8014    1.0000 </r>
       <r>   -7.7064    1.0000 </r>
       <r>   -7.6172    1.0000 </r>
       <r>   -7.5848    1.0000 </r>
       <r>   -7.4444    1.0000 </r>
       <r>   -7.3300    1.0000 </r>
       <r>   -7.2643    1.0000 </r>
       <r>   -7.0279    1.0000 </r>
       <r>   -6.9646    1.0000 </r>
       <r>   -6.9290    1.0000 </r>
       <r>   -6.8096    1.0000 </r>
       <r>   -6.7199    1.0000 </r>
       <r>   -6.6704    1.0000 </r>
       <r>   -6.6062    1.0000 </r>
       <r>   -6.5491    1.0000 </r>
       <r>   -6.4673    1.0000 </r>
       <r>   -6.4037    1.0000 </r>
       <r>   -6.3244    1.0000 </r>
       <r>   -6.2448    1.0000 </r>
       <r>   -6.1708    1.0000 </r>
       <r>   -6.1436    1.0000 </r>
       <r>   -6.0864    1.0000 </r>
       <r>   -6.0154    1.0000 </r>
       <r>   -5.8616    1.0000 </r>
       <r>   -5.8334    1.0000 </r>
       <r>   -5.7373    1.0000 </r>
       <r>   -5.6425    1.0000 </r>
       <r>   -5.5670    1.0000 </r>
       <r>   -5.5290    1.0000 </r>
       <r>   -5.4198    1.0000 </r>
       <r>   -5.2676    1.0000 </r>
       <r>   -5.1152    1.0000 </r>
       <r>   -5.0364    1.0000 </r>
       <r>   -5.0212    1.0000 </r>
       <r>   -4.8396    1.0000 </r>
       <r>   -4.6654    1.0000 </r>
       <r>   -4.5301    1.0000 </r>
       <r>   -4.4842    1.0000 </r>
       <r>   -4.3771    1.0000 </r>
       <r>   -4.1178    1.0000 </r>
       <r>   -4.0563    1.0000 </r>
       <r>   -3.9172    1.0000 </r>
       <r>   -3.8108    1.0000 </r>
       <r>   -3.7404    0.9998 </r>
       <r>   -3.4600    0.9451 </r>
       <r>   -3.1570    0.2937 </r>
       <r>   -3.0273    0.0722 </r>
       <r>   -2.9272    0.0151 </r>
       <r>   -2.6631    0.0000 </r>
       <r>   -2.5797    0.0000 </r>
       <r>   -2.4029    0.0000 </r>
       <r>   -2.2520    0.0000 </r>
       <r>   -2.1918    0.0000 </r>
       <r>   -2.0615    0.0000 </r>
       <r>   -1.8958    0.0000 </r>
       <r>   -1.7800    0.0000 </r>
       <r>   -1.6774    0.0000 </r>
       <r>   -1.4828    0.0000 </r>
       <r>   -1.4557    0.0000 </r>
       <r>   -1.3729    0.0000 </r>
       <r>   -1.1912    0.0000 </r>
       <r>   -1.1361    0.0000 </r>
       <r>   -1.0737    0.0000 </r>
       <r>   -1.0554    0.0000 </r>
       <r>   -1.0129    0.0000 </r>
       <r>   -0.9337    0.0000 </r>
       <r>   -0.8605    0.0000 </r>
       <r>   -0.7822    0.0000 </r>
       <r>   -0.7097    0.0000 </r>
       <r>   -0.6490    0.0000 </r>
       <r>   -0.5524    0.0000 </r>
       <r>   -0.4118    0.0000 </r>
       <r>   -0.2787    0.0000 </r>
       <r>   -0.1005    0.0000 </r>
       <r>    0.0048    0.0000 </r>
       <r>    0.0458    0.0000 </r>
       <r>    0.4251    0.0000 </r>
       <r>    0.5867    0.0000 </r>
       <r>    0.7824    0.0000 </r>
       <r>    0.9991    0.0000 </r>
       <r>    1.2232    0.0000 </r>
       <r>    1.3721    0.0000 </r>
       <r>    1.6325    0.0000 </r>
       <r>    2.2457    0.0000 </r>
       <r>    2.2559    0.0000 </r>
       <r>    2.3939    0.0000 </r>
      </set>
     </set>
    </set>
   </array>
  </eigenvalues>
  <separator name="orbital magnetization" >
   <v name="MAGDIPOLOUT">      0.00000000      0.00000000      0.00000000</v>
  </separator>
 </calculation>
 <structure name="finalpos" >
  <crystal>
   <varray name="basis" >
    <v>       8.32160222       4.82749574       0.00000000 </v>
    <v>      -8.31043614       4.80859864       0.00000000 </v>
    <v>       0.00000000       0.00000000      30.00000000 </v>
   </varray>
   <i name="volume">   2404.01520624 </i>
   <varray name="rec_basis" >
    <v>       0.06000709       0.10370695       0.00000000 </v>
    <v>      -0.06024291       0.10384629       0.00000000 </v>
    <v>       0.00000000       0.00000000       0.03333333 </v>
   </varray>
  </crystal>
  <varray name="positions" >
   <v>      -0.00460901      -0.01042252       0.00019850 </v>
   <v>       0.30140409      -0.02757029       0.00094812 </v>
   <v>       0.69980046       0.35210819      -0.00099493 </v>
   <v>       1.00296263       0.35011933       0.00008354 </v>
   <v>       0.29245600       0.64454829       0.00166156 </v>
   <v>       0.00102105       0.65704703       0.00009543 </v>
   <v>       0.29378897       0.32292057       0.00181015 </v>
   <v>       0.70426161       0.01963593      -0.00175329 </v>
   <v>       0.70738363       0.68730824      -0.00203328 </v>
   <v>       0.09904903       0.21508621       0.94794659 </v>
   <v>       0.21973365       0.10451249       0.05181615 </v>
   <v>       0.10514327       0.55393510       0.94336637 </v>
   <v>       0.21290417       0.44293849       0.05778566 </v>
   <v>       0.11001954       0.88900439       0.94839160 </v>
   <v>       0.21986135       0.77837159       0.05550590 </v>
   <v>       0.44366804       0.22078954       0.95908611 </v>
   <v>       0.55680525       0.11306286       0.04334444 </v>
   <v>       0.44615519       0.55699960       0.95491282 </v>
   <v>       0.55690598       0.44572211       0.04403273 </v>
   <v>       0.44394519       0.88774347       0.95505519 </v>
   <v>       0.55475749       0.77704701       0.04326697 </v>
   <v>       0.77587607       0.22792864       0.94553291 </v>
   <v>       0.90091628       0.11338272       0.05202060 </v>
   <v>       0.77812814       0.55125357       0.94497475 </v>
   <v>       0.88515988       0.44414599       0.05520150 </v>
   <v>       0.79072315       0.89487554       0.94409423 </v>
   <v>       0.89999334       0.78572035       0.05364959 </v>
  </varray>
 </structure>
</modeling>
