unknown system                          
           1
     8.854758    5.103045    0.000000
    -8.857448    5.107672    0.000000
     0.000000    0.000000   30.000000
   V    Mo   W    S 
   3   3   3  18
Direct configuration=     1
   0.00000000  0.00000000  0.00000000
   0.33333334  0.00000000  0.00000000
   0.66666669  0.33333334  0.00000000
   1.00000000  0.33333334  0.00000000
   0.33333334  0.66666669  0.00000000
   0.00000000  0.66666669  0.00000000
   0.33333334  0.33333334  0.00000000
   0.66666669  0.00000000  0.00000000
   0.66666669  0.66666669  0.00000000
   0.11068511  0.22244981  0.95539999
   0.22244981  0.11068511  0.04460000
   0.11068511  0.55578315  0.95539999
   0.22244981  0.44401845  0.04460000
   0.11068511  0.88911647  0.95539999
   0.22244981  0.77735180  0.04460000
   0.44401845  0.22244981  0.95539999
   0.55578315  0.11068511  0.04460000
   0.44401845  0.55578315  0.95539999
   0.55578315  0.44401845  0.04460000
   0.44401845  0.88911647  0.95539999
   0.55578315  0.77735180  0.04460000
   0.77735180  0.22244981  0.95539999
   0.88911647  0.11068511  0.04460000
   0.77735180  0.55578315  0.95539999
   0.88911647  0.44401845  0.04460000
   0.77735180  0.88911647  0.95539999
   0.88911647  0.77735180  0.04460000
unknown system                          
           1
     8.666950    4.997277    0.000000
    -8.669403    5.001497    0.000000
     0.000000    0.000000   30.000000
   V    Mo   W    S 
   3   3   3  18
Direct configuration=     2
   0.00032966 -0.00006219 -0.00015137
   0.33216621 -0.00195405 -0.00006705
   0.66857816  0.33411745  0.00011106
   1.00131584  0.33617307  0.00023064
   0.33048828  0.66527116  0.00004366
   0.00161065  0.66545687  0.00000435
   0.33183739  0.33403749 -0.00010385
   0.66654104  0.00046548  0.00009255
   0.66686597  0.66656548 -0.00016052
   0.10976953  0.21793427  0.95194932
   0.22060175  0.10749941  0.04687058
   0.11109350  0.55557242  0.95066800
   0.22252259  0.44389464  0.04932613
   0.11296363  0.89331332  0.95311246
   0.22433371  0.78213304  0.04809585
   0.44609615  0.22041666  0.95313362
   0.55382336  0.11282773  0.04699092
   0.44491204  0.55516930  0.95073284
   0.55754861  0.44224052  0.04803484
   0.44290149  0.89160553  0.95201538
   0.55611010  0.77810243  0.04919558
   0.77480299  0.22352231  0.95203655
   0.89023830  0.10820718  0.04792420
   0.77498102  0.55148041  0.95196469
   0.88421739  0.44200357  0.04812122
   0.78150186  0.89053365  0.95182829
   0.89006326  0.78168733  0.04799998
unknown system                          
           1
     8.485692    4.898208    0.000000
    -8.487532    4.901370    0.000000
     0.000000    0.000000   30.000000
   V    Mo   W    S 
   3   3   3  18
Direct configuration=     3
   0.00022634 -0.00018154 -0.00013204
   0.33188222 -0.00252242 -0.00012136
   0.66916518  0.33437429  0.00008070
   1.00212613  0.33742592  0.00025110
   0.32945058  0.66441414  0.00004501
   0.00212979  0.66483673  0.00000757
   0.33148552  0.33468858 -0.00016068
   0.66654639  0.00031792  0.00014065
   0.66677760  0.66666652 -0.00012778
   0.10991804  0.21796221  0.95196494
   0.22068108  0.10768724  0.04677811
   0.11107447  0.55556829  0.95047002
   0.22263562  0.44376758  0.04947849
   0.11304728  0.89336867  0.95314140
   0.22440660  0.78228164  0.04818382
   0.44598539  0.22052053  0.95332405
   0.55391998  0.11273572  0.04691680
   0.44499865  0.55509654  0.95071186
   0.55744907  0.44229332  0.04796467
   0.44309189  0.89175575  0.95203654
   0.55631734  0.77817838  0.04913413
   0.77466100  0.22332766  0.95207280
   0.89004651  0.10807109  0.04786161
   0.77480047  0.55148761  0.95199248
   0.88409302  0.44192402  0.04823722
   0.78138527  0.89050220  0.95183937
   0.88991301  0.78166586  0.04790843
unknown system                          
           1
     8.278285    4.778139    0.000000
    -8.284251    4.788448    0.000000
     0.000000    0.000000   30.000000
   V    Mo   W    S 
   3   3   3  18
Direct configuration=     4
  -0.00078230 -0.00086249 -0.00000018
   0.33101462 -0.00460826 -0.00029188
   0.67141953  0.33549390 -0.00008384
   1.00558896  0.34239372  0.00022507
   0.32564338  0.66064193  0.00003337
   0.00383761  0.66219025  0.00003207
   0.33047606  0.33786318 -0.00031705
   0.66671336 -0.00077361  0.00025061
   0.66611297  0.66725075  0.00004907
   0.10911900  0.21700559  0.95056784
   0.22034603  0.10700638  0.04773390
   0.11098034  0.55551611  0.94809090
   0.22265854  0.44371605  0.05174590
   0.11359807  0.89410186  0.95194373
   0.22503546  0.78355379  0.04996428
   0.44631785  0.22019096  0.95275507
   0.55337787  0.11321672  0.04799185
   0.44496539  0.55535795  0.94898492
   0.55766421  0.44166522  0.04915133
   0.44263689  0.89211917  0.95069585
   0.55612696  0.77798515  0.05049214
   0.77436333  0.22377218  0.95081130
   0.89065019  0.10784786  0.04903002
   0.77435857  0.55051017  0.95066933
   0.88294900  0.44134933  0.05015996
   0.78241391  0.89114374  0.95035263
   0.89062865  0.78256687  0.04896171
unknown system                          
           1
     8.276643    4.776866    0.000000
    -8.288671    4.797678    0.000000
     0.000000    0.000000   30.000000
   V    Mo   W    S 
   3   3   3  18
Direct configuration=     5
  -0.00345279 -0.00272112  0.00026151
   0.32968944 -0.00822972 -0.00045798
   0.67577930  0.33748863 -0.00039014
   1.01225776  0.35168494  0.00008586
   0.31889528  0.65314081  0.00000723
   0.00688220  0.65721446  0.00013714
   0.32849773  0.34410100 -0.00044224
   0.66723306 -0.00312108  0.00030489
   0.66460503  0.66874698  0.00028136
   0.10808983  0.21679205  0.94879848
   0.22023791  0.10688473  0.04879466
   0.11100212  0.55555920  0.94459805
   0.22213554  0.44397402  0.05511253
   0.11375622  0.89380242  0.95024030
   0.22531220  0.78401446  0.05237984
   0.44639280  0.22022001  0.95220535
   0.55267206  0.11368534  0.04941715
   0.44465642  0.55631221  0.94653328
   0.55747398  0.44081821  0.05055081
   0.44173623  0.89145687  0.94904254
   0.55446949  0.77725606  0.05228452
   0.77510034  0.22452311  0.94938956
   0.89186588  0.10900439  0.05041922
   0.77475435  0.55006007  0.94905840
   0.88257394  0.44106632  0.05295722
   0.78368953  0.89173345  0.94822489
   0.89190860  0.78274665  0.05020547
unknown system                          
           1
     8.273797    4.773349    0.000000
    -8.286364    4.795088    0.000000
     0.000000    0.000000   30.000000
   V    Mo   W    S 
   3   3   3  18
Direct configuration=     6
  -0.00475922 -0.00395675  0.00023661
   0.32928059 -0.00947338 -0.00046137
   0.67747284  0.33798948 -0.00034961
   1.01245112  0.35219175  0.00012762
   0.31931224  0.65284075 -0.00007418
   0.00728221  0.65676472  0.00007822
   0.32815865  0.34573856 -0.00033878
   0.66721893 -0.00426380  0.00031812
   0.66368869  0.66966742  0.00023803
   0.10808452  0.21769033  0.94886376
   0.22047875  0.10756174  0.04857281
   0.11130962  0.55586041  0.94423480
   0.22172568  0.44402931  0.05548520
   0.11323860  0.89290280  0.95027086
   0.22508790  0.78304842  0.05249153
   0.44601570  0.22087056  0.95252344
   0.55281011  0.11357245  0.04934566
   0.44454159  0.55687529  0.94628054
   0.55709404  0.44089132  0.05042414
   0.44156879  0.89049878  0.94909138
   0.55331837  0.77681680  0.05239196
   0.77619850  0.22463112  0.94951287
   0.89223820  0.11024903  0.05025525
   0.77544972  0.55084113  0.94920152
   0.88327407  0.44116984  0.05316042
   0.78365320  0.89151168  0.94801820
   0.89202106  0.78169470  0.05010091
unknown system                          
           1
     8.275731    4.774298    0.000000
    -8.288470    4.796334    0.000000
     0.000000    0.000000   30.000000
   V    Mo   W    S 
   3   3   3  18
Direct configuration=     7
  -0.00601753 -0.00528011  0.00027064
   0.32872218 -0.01099354 -0.00044564
   0.67939907  0.33838080 -0.00035932
   1.01308228  0.35359713  0.00006498
   0.31938283  0.65218654 -0.00010760
   0.00811538  0.65609627  0.00002441
   0.32779917  0.34760458 -0.00029848
   0.66706392 -0.00558910  0.00036229
   0.66244812  0.67073463  0.00023872
   0.10806197  0.21820866  0.94892901
   0.22057124  0.10800709  0.04831464
   0.11154004  0.55597806  0.94399502
   0.22143310  0.44422976  0.05581227
   0.11289516  0.89234544  0.95026584
   0.22497533  0.78247291  0.05261103
   0.44579198  0.22131809  0.95291260
   0.55290446  0.11348052  0.04926526
   0.44453209  0.55719580  0.94598650
   0.55691622  0.44109961  0.05030626
   0.44154805  0.89000544  0.94904238
   0.55263737  0.77664727  0.05259802
   0.77684515  0.22454381  0.94959093
   0.89244545  0.11091093  0.05011996
   0.77584201  0.55137462  0.94934957
   0.88369802  0.44133007  0.05340868
   0.78363173  0.89136573  0.94775763
   0.89194965  0.78096345  0.04998427
unknown system                          
           1
     8.262220    4.769368    0.000000
    -8.273996    4.789747    0.000000
     0.000000    0.000000   30.000000
   V    Mo   W    S 
   3   3   3  18
Direct configuration=     8
  -0.00605816 -0.00534769  0.00027168
   0.32870485 -0.01105243 -0.00044563
   0.67948916  0.33836915 -0.00035926
   1.01301107  0.35357256  0.00007022
   0.31950600  0.65227018 -0.00010891
   0.00812942  0.65610572  0.00002309
   0.32781982  0.34763947 -0.00029676
   0.66703377 -0.00565073  0.00036400
   0.66236375  0.67079275  0.00023597
   0.10807148  0.21821830  0.94895442
   0.22057085  0.10802189  0.04828476
   0.11156574  0.55599283  0.94401993
   0.22141989  0.44423505  0.05578729
   0.11288409  0.89233866  0.95028294
   0.22497147  0.78245464  0.05259371
   0.44579509  0.22133694  0.95294942
   0.55291881  0.11347575  0.04924326
   0.44454505  0.55719528  0.94599508
   0.55691671  0.44112190  0.05027910
   0.44156890  0.89001904  0.94905275
   0.55264023  0.77665694  0.05259937
   0.77684751  0.22452426  0.94960976
   0.89243252  0.11090386  0.05009327
   0.77583964  0.55139765  0.94938409
   0.88370717  0.44134001  0.05338837
   0.78361036  0.89135666  0.94776772
   0.89190926  0.78092586  0.04996026
unknown system                          
           1
     8.267153    4.770135    0.000000
    -8.281732    4.795362    0.000000
     0.000000    0.000000   30.000000
   V    Mo   W    S 
   3   3   3  18
Direct configuration=     9
  -0.00579810 -0.00482112  0.00025738
   0.32910751 -0.01021569 -0.00044690
   0.67935005  0.33875716 -0.00035558
   1.01268886  0.35334878  0.00008452
   0.31900848  0.65195247 -0.00011062
   0.00718611  0.65556767  0.00004002
   0.32794381  0.34726054 -0.00029964
   0.66741723 -0.00476512  0.00034973
   0.66309072  0.67009474  0.00025581
   0.10804966  0.21814614  0.94881144
   0.22047881  0.10794213  0.04847353
   0.11141268  0.55592745  0.94389416
   0.22148894  0.44416501  0.05589672
   0.11285191  0.89235038  0.95020197
   0.22494785  0.78242784  0.05267137
   0.44603453  0.22144912  0.95277053
   0.55301230  0.11372684  0.04931539
   0.44449063  0.55724308  0.94598915
   0.55698056  0.44088968  0.05038484
   0.44148856  0.88980774  0.94901196
   0.55259024  0.77654235  0.05252536
   0.77674050  0.22479486  0.94958880
   0.89249787  0.11094084  0.05023311
   0.77579014  0.55101658  0.94923343
   0.88346795  0.44114866  0.05339253
   0.78372884  0.89137427  0.94774651
   0.89216784  0.78114204  0.05008437
unknown system                          
           1
     8.276176    4.771158    0.000000
    -8.292831    4.799961    0.000000
     0.000000    0.000000   30.000000
   V    Mo   W    S 
   3   3   3  18
Direct configuration=    10
  -0.00694248 -0.00606890  0.00028457
   0.32865990 -0.01156913 -0.00045713
   0.68132277  0.33913599 -0.00036550
   1.01286755  0.35439724  0.00009606
   0.31943895  0.65168559 -0.00014324
   0.00774579  0.65488906  0.00000699
   0.32778099  0.34888693 -0.00026869
   0.66724309 -0.00593716  0.00038485
   0.66186260  0.67106259  0.00025160
   0.10801416  0.21849100  0.94886101
   0.22050039  0.10826082  0.04824974
   0.11170790  0.55611427  0.94363688
   0.22116866  0.44429139  0.05617409
   0.11258325  0.89196226  0.95018224
   0.22485586  0.78198730  0.05280666
   0.44599475  0.22186822  0.95315396
   0.55312640  0.11373870  0.04925038
   0.44455627  0.55752431  0.94569346
   0.55687796  0.44102772  0.05027237
   0.44152745  0.88952563  0.94892732
   0.55207225  0.77642248  0.05276918
   0.77718901  0.22473811  0.94962293
   0.89265345  0.11138622  0.05011725
   0.77602509  0.55138003  0.94937766
   0.88368582  0.44122559  0.05362064
   0.78369329  0.89127542  0.94750851
   0.89200335  0.78051277  0.04998612
unknown system                          
           1
     8.275118    4.769857    0.000000
    -8.292306    4.799580    0.000000
     0.000000    0.000000   30.000000
   V    Mo   W    S 
   3   3   3  18
Direct configuration=    11
  -0.00779224 -0.00715434  0.00029016
   0.32808810 -0.01297797 -0.00046416
   0.68257665  0.33915020 -0.00034791
   1.01318863  0.35509496  0.00005407
   0.31999719  0.65179563 -0.00015147
   0.00875921  0.65493170 -0.00004251
   0.32757396  0.35005482 -0.00025918
   0.66689258 -0.00720900  0.00042710
   0.66069803  0.67208337  0.00023698
   0.10804701  0.21877141  0.94903589
   0.22056249  0.10849474  0.04796899
   0.11195180  0.55622776  0.94365261
   0.22091884  0.44439174  0.05619384
   0.11245539  0.89172521  0.95027319
   0.22476196  0.78175773  0.05276845
   0.44585880  0.22204462  0.95351255
   0.55314600  0.11359473  0.04914572
   0.44467624  0.55762123  0.94556448
   0.55678363  0.44126744  0.05012922
   0.44164571  0.88957382  0.94893417
   0.55189984  0.77649333  0.05290564
   0.77750551  0.22449626  0.94962852
   0.89268413  0.11155986  0.04995650
   0.77615897  0.55182569  0.94953241
   0.88392016  0.44138837  0.05379138
   0.78355038  0.89117869  0.94742652
   0.89170550  0.78003246  0.04983675
unknown system                          
           1
     8.278404    4.778951    0.000000
    -8.290922    4.800622    0.000000
     0.000000    0.000000   30.000000
   V    Mo   W    S 
   3   3   3  18
Direct configuration=    12
  -0.00811303 -0.00753473  0.00029951
   0.32794013 -0.01340868 -0.00046693
   0.68314274  0.33921625 -0.00035276
   1.01322241  0.35539814  0.00004676
   0.32017497  0.65178542 -0.00016004
   0.00897402  0.65476771 -0.00005415
   0.32753957  0.35049951 -0.00025453
   0.66680326 -0.00758429  0.00044095
   0.66030110  0.67240113  0.00023493
   0.10804761  0.21886131  0.94907309
   0.22056856  0.10858088  0.04788778
   0.11204317  0.55627574  0.94361377
   0.22084012  0.44442959  0.05624259
   0.11239044  0.89163232  0.95027899
   0.22473697  0.78165753  0.05279264
   0.44585450  0.22214499  0.95363628
   0.55317810  0.11359049  0.04911503
   0.44470121  0.55767480  0.94549635
   0.55675810  0.44132491  0.05007957
   0.44167756  0.88954685  0.94891426
   0.55179947  0.77649050  0.05297270
   0.77760859  0.22445945  0.94964493
   0.89270668  0.11164270  0.04990717
   0.77620567  0.55192924  0.94959552
   0.88397464  0.44142390  0.05384609
   0.78351554  0.89115011  0.94737613
   0.89162236  0.77985865  0.04979328
unknown system                          
           1
     8.281134    4.784911    0.000000
    -8.291713    4.803251    0.000000
     0.000000    0.000000   30.000000
   V    Mo   W    S 
   3   3   3  18
Direct configuration=    13
  -0.00633468 -0.00552275  0.00027656
   0.32872080 -0.01103803 -0.00046668
   0.68074556  0.33908886 -0.00037980
   1.01292126  0.35410790  0.00006808
   0.31888083  0.65123965 -0.00015257
   0.00755114  0.65513230 -0.00000153
   0.32756439  0.34840775 -0.00029339
   0.66752345 -0.00519722  0.00036147
   0.66227340  0.67051218  0.00028159
   0.10822152  0.21860549  0.94899841
   0.22048401  0.10824552  0.04820293
   0.11148034  0.55597457  0.94390478
   0.22126479  0.44414863  0.05594477
   0.11266532  0.89206496  0.95035675
   0.22479653  0.78203122  0.05256130
   0.44594730  0.22187488  0.95317115
   0.55315719  0.11364203  0.04914524
   0.44447534  0.55725952  0.94592088
   0.55676104  0.44097228  0.05021151
   0.44157560  0.88962157  0.94914406
   0.55238119  0.77651511  0.05253470
   0.77706767  0.22473439  0.94972922
   0.89251430  0.11119608  0.05003903
   0.77607825  0.55132005  0.94939453
   0.88368878  0.44123608  0.05346017
   0.78368292  0.89126311  0.94770769
   0.89212623  0.78077830  0.04987902
unknown system                          
           1
     8.274518    4.778516    0.000000
    -8.287365    4.800773    0.000000
     0.000000    0.000000   30.000000
   V    Mo   W    S 
   3   3   3  18
Direct configuration=    14
  -0.00408297 -0.00278180  0.00016108
   0.32965306 -0.00761566 -0.00048595
   0.67731852  0.33922240 -0.00031367
   1.01291216  0.35242130  0.00012680
   0.31664214  0.64993797 -0.00009049
   0.00573217  0.65572030  0.00007696
   0.32734739  0.34567767 -0.00033971
   0.66896918 -0.00183426  0.00026965
   0.66528953  0.66793317  0.00035242
   0.10835396  0.21831485  0.94882382
   0.22032981  0.10778897  0.04873064
   0.11059947  0.55552737  0.94414673
   0.22163115  0.44370362  0.05567232
   0.11296776  0.89258430  0.95047026
   0.22479556  0.78232835  0.05221007
   0.44610785  0.22165773  0.95246634
   0.55314921  0.11379843  0.04923059
   0.44428249  0.55687837  0.94647065
   0.55673261  0.44034698  0.05047470
   0.44133652  0.88938087  0.94952500
   0.55301703  0.77644327  0.05173533
   0.77654670  0.22516794  0.94969044
   0.89238742  0.11074689  0.05032422
   0.77596243  0.55054796  0.94890444
   0.88321676  0.44088266  0.05309325
   0.78405433  0.89134703  0.94821039
   0.89296223  0.78208776  0.05006366
unknown system                          
           1
     8.278796    4.785466    0.000000
    -8.290069    4.805023    0.000000
     0.000000    0.000000   30.000000
   V    Mo   W    S 
   3   3   3  18
Direct configuration=    15
  -0.00447164 -0.00283599  0.00015881
   0.32947399 -0.00752600 -0.00052338
   0.67740184  0.33985950 -0.00024350
   1.01350117  0.35253326  0.00013143
   0.31509491  0.64881086 -0.00014610
   0.00548548  0.65540310  0.00006607
   0.32700415  0.34606051 -0.00030087
   0.67003766 -0.00096988  0.00026248
   0.66642226  0.66754870  0.00031467
   0.10826809  0.21856315  0.94873936
   0.22046158  0.10804250  0.04870881
   0.11048811  0.55542292  0.94401255
   0.22131486  0.44360718  0.05593809
   0.11288807  0.89240353  0.95049145
   0.22478597  0.78202216  0.05215357
   0.44592973  0.22191285  0.95253751
   0.55320943  0.11388695  0.04919003
   0.44451072  0.55720351  0.94651130
   0.55661211  0.44032598  0.05051889
   0.44128985  0.88888362  0.94977327
   0.55256545  0.77620766  0.05141582
   0.77683575  0.22525589  0.94960047
   0.89265662  0.11105077  0.05041639
   0.77586078  0.55054989  0.94870788
   0.88340089  0.44088197  0.05323767
   0.78412771  0.89112773  0.94820946
   0.89305890  0.78198212  0.05011778
unknown system                          
           1
     8.276178    4.781580    0.000000
    -8.288931    4.803685    0.000000
     0.000000    0.000000   30.000000
   V    Mo   W    S 
   3   3   3  18
Direct configuration=    16
  -0.00404041 -0.00174101  0.00009911
   0.32963610 -0.00605455 -0.00056903
   0.67601073  0.34063146 -0.00015820
   1.01384869  0.35162693  0.00015922
   0.31230432  0.64702927 -0.00012505
   0.00413261  0.65536812  0.00007775
   0.32651454  0.34525977 -0.00028595
   0.67215854  0.00188320  0.00023232
   0.66931154  0.66593396  0.00034692
   0.10826539  0.21859607  0.94856402
   0.22047606  0.10802858  0.04894865
   0.10979047  0.55502054  0.94393762
   0.22126780  0.44339088  0.05607139
   0.11289482  0.89248591  0.95052892
   0.22477957  0.78190431  0.05199676
   0.44583263  0.22207447  0.95228814
   0.55333962  0.11411263  0.04918996
   0.44454679  0.55735130  0.94680705
   0.55654541  0.44002290  0.05072676
   0.44114146  0.88827289  0.95015950
   0.55244306  0.77593555  0.05068469
   0.77676124  0.22560762  0.94949453
   0.89295118  0.11108079  0.05071138
   0.77572544  0.55003749  0.94822366
   0.88337276  0.44070471  0.05318906
   0.78449698  0.89107258  0.94836520
   0.89370711  0.78257809  0.05033554
unknown system                          
           1
     8.277757    4.783108    0.000000
    -8.290712    4.805567    0.000000
     0.000000    0.000000   30.000000
   V    Mo   W    S 
   3   3   3  18
Direct configuration=    17
  -0.00547972 -0.00322717  0.00012506
   0.32896715 -0.00799098 -0.00059685
   0.67781254  0.34084596 -0.00014192
   1.01399158  0.35228999  0.00014977
   0.31241127  0.64711565 -0.00013415
   0.00468204  0.65496872  0.00003865
   0.32633016  0.34683766 -0.00027059
   0.67237882  0.00131405  0.00030761
   0.66879661  0.66694346  0.00032840
   0.10825680  0.21876652  0.94867150
   0.22053878  0.10830512  0.04864191
   0.10998589  0.55508151  0.94376739
   0.22098764  0.44361334  0.05624720
   0.11268290  0.89220332  0.95051279
   0.22468088  0.78163603  0.05214398
   0.44571920  0.22231576  0.95273239
   0.55348329  0.11414455  0.04908744
   0.44469893  0.55768790  0.94664827
   0.55656060  0.44036142  0.05058286
   0.44132580  0.88820868  0.95011461
   0.55205816  0.77589696  0.05078141
   0.77700210  0.22543298  0.94947249
   0.89311779  0.11130214  0.05062827
   0.77576300  0.55032163  0.94836414
   0.88363512  0.44085694  0.05335100
   0.78441762  0.89102183  0.94815799
   0.89340951  0.78196049  0.05028824
unknown system                          
           1
     8.276884    4.782337    0.000000
    -8.289456    4.804133    0.000000
     0.000000    0.000000   30.000000
   V    Mo   W    S 
   3   3   3  18
Direct configuration=    18
  -0.00615562 -0.00381884  0.00012465
   0.32858523 -0.00881198 -0.00062627
   0.67851033  0.34116795 -0.00012036
   1.01396104  0.35232680  0.00013605
   0.31174518  0.64676099 -0.00015631
   0.00458250  0.65484315  0.00000600
   0.32615081  0.34744198 -0.00025978
   0.67312736  0.00187617  0.00033770
   0.66932433  0.66706007  0.00032856
   0.10826457  0.21884082  0.94869763
   0.22056828  0.10842684  0.04853132
   0.10988322  0.55499952  0.94368890
   0.22084500  0.44368697  0.05635812
   0.11257217  0.89207584  0.95050538
   0.22460705  0.78149461  0.05219647
   0.44564933  0.22247739  0.95293398
   0.55359839  0.11422099  0.04903042
   0.44475392  0.55793032  0.94665326
   0.55654702  0.44043144  0.05054698
   0.44141037  0.88803485  0.95018167
   0.55187612  0.77585836  0.05063597
   0.77707436  0.22545833  0.94942631
   0.89330602  0.11138554  0.05068013
   0.77576057  0.55029945  0.94831279
   0.88375202  0.44089133  0.05342458
   0.78445137  0.89101173  0.94808747
   0.89346355  0.78184385  0.05033828
unknown system                          
           1
     8.274468    4.781234    0.000000
    -8.286418    4.801954    0.000000
     0.000000    0.000000   30.000000
   V    Mo   W    S 
   3   3   3  18
Direct configuration=    19
  -0.00522084 -0.00289244  0.00011864
   0.32917176 -0.00745627 -0.00059197
   0.67740901  0.34080016 -0.00014998
   1.01412827  0.35230628  0.00014184
   0.31240568  0.64707769 -0.00014456
   0.00463991  0.65489958  0.00003834
   0.32633320  0.34655971 -0.00026989
   0.67220753  0.00120096  0.00028054
   0.66881060  0.66681913  0.00032246
   0.10824232  0.21875014  0.94863304
   0.22052050  0.10826725  0.04871237
   0.11000066  0.55508677  0.94378494
   0.22104294  0.44355568  0.05625584
   0.11271922  0.89225505  0.95052735
   0.22472042  0.78167016  0.05211878
   0.44572830  0.22228951  0.95261683
   0.55343205  0.11413762  0.04912082
   0.44469420  0.55760311  0.94665686
   0.55654317  0.44031628  0.05062620
   0.44125666  0.88820840  0.95012025
   0.55206945  0.77584704  0.05080948
   0.77701031  0.22545525  0.94949630
   0.89308305  0.11131557  0.05063177
   0.77576273  0.55029760  0.94835067
   0.88360724  0.44081404  0.05333054
   0.78444293  0.89100971  0.94817959
   0.89345318  0.78202048  0.05028283
unknown system                          
           1
     8.274454    4.781234    0.000000
    -8.286399    4.801943    0.000000
     0.000000    0.000000   30.000000
   V    Mo   W    S 
   3   3   3  18
Direct configuration=    20
  -0.00386757 -0.00142165  0.00012932
   0.33039977 -0.00502515 -0.00052326
   0.67575596  0.34022836 -0.00021122
   1.01476908  0.35285316  0.00017608
   0.31382517  0.64765962 -0.00008857
   0.00510218  0.65451058  0.00010136
   0.32665545  0.34549349 -0.00024712
   0.67000789 -0.00098310  0.00018757
   0.66732714  0.66678297  0.00032289
   0.10820240  0.21872617  0.94848795
   0.22046008  0.10810143  0.04898076
   0.11040413  0.55530191  0.94383199
   0.22134425  0.44340156  0.05615536
   0.11296745  0.89247068  0.95061328
   0.22493685  0.78186546  0.05195900
   0.44582082  0.22210796  0.95211538
   0.55310465  0.11395691  0.04925417
   0.44464328  0.55704384  0.94655814
   0.55650582  0.44021963  0.05073779
   0.44091569  0.88847845  0.94998668
   0.55218550  0.77571157  0.05125654
   0.77708920  0.22538096  0.94972581
   0.89265286  0.11143356  0.05047484
   0.77582315  0.55038932  0.94850193
   0.88348509  0.44063507  0.05318329
   0.78432958  0.89091321  0.94822414
   0.89336862  0.78197851  0.05010578
unknown system                          
           1
     8.281717    4.784982    0.000000
    -8.294690    4.807469    0.000000
     0.000000    0.000000   30.000000
   V    Mo   W    S 
   3   3   3  18
Direct configuration=    21
  -0.00386558 -0.00142165  0.00012922
   0.33039782 -0.00502824 -0.00052329
   0.67575563  0.34022835 -0.00021098
   1.01476617  0.35284974  0.00017631
   0.31382009  0.64765851 -0.00008835
   0.00509942  0.65451314  0.00010160
   0.32665506  0.34549221 -0.00024715
   0.67001335 -0.00097197  0.00018774
   0.66733285  0.66677845  0.00032293
   0.10820212  0.21872512  0.94848780
   0.22046044  0.10810064  0.04898108
   0.11040212  0.55530125  0.94383251
   0.22134430  0.44340116  0.05615474
   0.11296795  0.89247127  0.95061281
   0.22493666  0.78186608  0.05195895
   0.44582101  0.22210677  0.95211524
   0.55310459  0.11395728  0.04925422
   0.44464348  0.55704427  0.94655887
   0.55650624  0.44021889  0.05073785
   0.44091621  0.88847849  0.94998707
   0.55218666  0.77571215  0.05125499
   0.77708807  0.22538190  0.94972478
   0.89265357  0.11143275  0.05047557
   0.77582254  0.55038828  0.94850117
   0.88348478  0.44063571  0.05318286
   0.78432982  0.89091358  0.94822470
   0.89336909  0.78198031  0.05010666
unknown system                          
           1
     8.276250    4.781182    0.000000
    -8.289723    4.804532    0.000000
     0.000000    0.000000   30.000000
   V    Mo   W    S 
   3   3   3  18
Direct configuration=    22
  -0.00543095 -0.00295985  0.00014153
   0.32945530 -0.00716108 -0.00057866
   0.67755755  0.34076003 -0.00018374
   1.01454164  0.35296736  0.00013702
   0.31320558  0.64737008 -0.00014230
   0.00521594  0.65448769  0.00002448
   0.32638317  0.34687841 -0.00024111
   0.67117315 -0.00055121  0.00026742
   0.66780465  0.66749998  0.00031938
   0.10824081  0.21889575  0.94861017
   0.22050857  0.10835410  0.04867861
   0.11035725  0.55522106  0.94367597
   0.22103918  0.44362347  0.05634827
   0.11274189  0.89219856  0.95060710
   0.22478528  0.78161059  0.05209167
   0.44567310  0.22240720  0.95261422
   0.55330970  0.11401869  0.04911833
   0.44471871  0.55751636  0.94649852
   0.55648169  0.44043981  0.05062172
   0.44112282  0.88827451  0.95004161
   0.55185099  0.77572552  0.05111842
   0.77725012  0.22531664  0.94967408
   0.89296444  0.11156771  0.05049965
   0.77586055  0.55047882  0.94850084
   0.88372766  0.44073764  0.05336373
   0.78432092  0.89090920  0.94805756
   0.89335476  0.78162741  0.05013540
unknown system                          
           1
     8.277576    4.781211    0.000000
    -8.291909    4.806045    0.000000
     0.000000    0.000000   30.000000
   V    Mo   W    S 
   3   3   3  18
Direct configuration=    23
  -0.00562925 -0.00296790  0.00014949
   0.32963251 -0.00691648 -0.00057105
   0.67761744  0.34077889 -0.00019631
   1.01478955  0.35328622  0.00012603
   0.31354526  0.64736396 -0.00015519
   0.00538977  0.65420157  0.00001066
   0.32644142  0.34702861 -0.00023743
   0.67079689 -0.00137253  0.00025757
   0.66733210  0.66782682  0.00032141
   0.10827670  0.21897706  0.94864047
   0.22047224  0.10844025  0.04863998
   0.11047855  0.55526237  0.94365652
   0.22103331  0.44365919  0.05636614
   0.11264726  0.89211582  0.95062453
   0.22477314  0.78153140  0.05210570
   0.44569123  0.22253222  0.95265397
   0.55338723  0.11402883  0.04910297
   0.44468811  0.55749320  0.94646777
   0.55646071  0.44049397  0.05058983
   0.44112767  0.88824083  0.95001480
   0.55179510  0.77570150  0.05119657
   0.77729416  0.22525068  0.94973292
   0.89291088  0.11157489  0.05045268
   0.77590263  0.55054947  0.94855536
   0.88373173  0.44070978  0.05338940
   0.78432187  0.89090004  0.94802362
   0.89330622  0.78152380  0.05008147
unknown system                          
           1
     8.271169    4.778872    0.000000
    -8.284313    4.801655    0.000000
     0.000000    0.000000   30.000000
   V    Mo   W    S 
   3   3   3  18
Direct configuration=    24
  -0.00691246 -0.00419536  0.00016805
   0.32898836 -0.00847290 -0.00058428
   0.67911475  0.34118633 -0.00017394
   1.01459620  0.35358870  0.00012886
   0.31341050  0.64726723 -0.00017835
   0.00563797  0.65404841 -0.00002389
   0.32631404  0.34815291 -0.00019912
   0.67139586 -0.00162685  0.00030942
   0.66729270  0.66864800  0.00031438
   0.10827809  0.21906104  0.94874052
   0.22045223  0.10862213  0.04839958
   0.11052963  0.55525067  0.94354793
   0.22081975  0.44383844  0.05646211
   0.11243091  0.89189856  0.95061403
   0.22465584  0.78132703  0.05219057
   0.44565285  0.22278426  0.95303193
   0.55356268  0.11404968  0.04898741
   0.44475022  0.55780233  0.94637917
   0.55645971  0.44068146  0.05047292
   0.44129796  0.88814425  0.95000451