   27   27  100    1
  0.9710400E+02  0.1002848E-08  0.1002848E-08  0.3000000E-08  0.5000000E-15
  1.000000000000000E-004
  CAR 
 unknown system                          
    159     34    120
 
  0.0000000E+00  0.0000000E+00  0.0000000E+00  0.1562500E-01
    1      -17.789848   1.000000
    2      -16.661598   1.000000
    3      -16.628663   1.000000
    4      -16.558111   1.000000
    5      -16.524247   1.000000
    6      -16.493007   1.000000
    7      -16.379938   1.000000
    8      -16.300674   1.000000
    9      -16.127662   1.000000
   10      -16.100693   1.000000
   11      -16.012117   1.000000
   12      -15.961999   1.000000
   13      -15.910709   1.000000
   14      -15.685955   1.000000
   15      -15.607901   1.000000
   16      -15.552514   1.000000
   17      -15.491050   1.000000
   18      -15.314510   1.000000
   19       -9.265353   1.000000
   20       -8.942423   1.000000
   21       -8.933460   1.000000
   22       -8.820430   1.000000
   23       -8.794278   1.000000
   24       -8.671179   1.000000
   25       -8.619252   1.000000
   26       -8.547377   1.000000
   27       -8.487071   1.000000
   28       -8.473884   1.000000
   29       -8.414195   1.000000
   30       -8.377206   1.000000
   31       -8.244690   1.000000
   32       -8.116082   1.000000
   33       -8.099171   1.000000
   34       -7.944248   1.000000
   35       -7.805761   1.000000
   36       -7.786794   1.000000
   37       -7.762644   1.000000
   38       -7.520818   1.000000
   39       -7.494115   1.000000
   40       -7.397374   1.000000
   41       -7.375454   1.000000
   42       -7.337207   1.000000
   43       -7.124514   1.000000
   44       -6.907634   1.000000
   45       -6.806415   1.000000
   46       -6.754338   1.000000
   47       -6.740420   1.000000
   48       -6.564427   1.000000
   49       -6.539899   1.000000
   50       -6.417043   1.000000
   51       -6.403606   1.000000
   52       -6.362344   1.000000
   53       -6.319975   1.000000
   54       -6.313717   1.000000
   55       -6.295357   1.000000
   56       -6.220047   1.000000
   57       -6.152639   1.000000
   58       -5.820422   1.000000
   59       -5.731198   1.000000
   60       -5.660525   1.000000
   61       -5.419649   1.000000
   62       -5.388133   1.000000
   63       -5.259923   1.000000
   64       -5.171379   1.000000
   65       -5.077048   1.000000
   66       -5.041606   1.000000
   67       -4.947984   1.000000
   68       -4.878418   1.000000
   69       -4.767018   1.000000
   70       -4.752515   1.000000
   71       -4.706950   1.000000
   72       -4.682639   1.000000
   73       -4.489666   1.000000
   74       -4.336331   1.000000
   75       -3.973487   0.999999
   76       -3.936469   0.999997
   77       -3.766656   0.999577
   78       -3.700363   0.997938
   79       -3.508510   0.934725
   80       -3.396866   0.765004
   81       -3.378719   0.723801
   82       -2.755249   0.000068
   83       -2.695423   0.000011
   84       -2.563788   0.000000
   85       -2.501206   0.000000
   86       -2.370202   0.000000
   87       -2.346777   0.000000
   88       -2.316994   0.000000
   89       -2.120710   0.000000
   90       -2.093483   0.000000
   91       -2.034664   0.000000
   92       -1.926045   0.000000
   93       -1.435987   0.000000
   94       -1.349446   0.000000
   95       -1.131214   0.000000
   96       -1.007142   0.000000
   97       -0.979931   0.000000
   98       -0.878627   0.000000
   99       -0.715267   0.000000
  100       -0.572412   0.000000
  101       -0.532918   0.000000
  102       -0.517118   0.000000
  103       -0.465248   0.000000
  104       -0.442578   0.000000
  105       -0.271802   0.000000
  106       -0.115379   0.000000
  107       -0.058428   0.000000
  108        0.028287   0.000000
  109        0.092038   0.000000
  110        0.254208   0.000000
  111        0.303973   0.000000
  112        0.437583   0.000000
  113        0.684774   0.000000
  114        0.957997   0.000000
  115        0.998767   0.000000
  116        1.025042   0.000000
  117        1.140535   0.000000
  118        1.644673   0.000000
  119        1.831847   0.000000
  120        2.141612   0.000000
 
  0.1250000E+00  0.2775558E-16  0.0000000E+00  0.3125000E-01
    1      -17.764463   1.000000
    2      -16.761200   1.000000
    3      -16.656149   1.000000
    4      -16.608197   1.000000
    5      -16.534103   1.000000
    6      -16.424034   1.000000
    7      -16.371567   1.000000
    8      -16.263288   1.000000
    9      -16.129760   1.000000
   10      -16.085127   1.000000
   11      -16.025670   1.000000
   12      -15.909736   1.000000
   13      -15.883853   1.000000
   14      -15.674529   1.000000
   15      -15.629508   1.000000
   16      -15.538421   1.000000
   17      -15.496104   1.000000
   18      -15.333292   1.000000
   19       -9.250431   1.000000
   20       -9.154083   1.000000
   21       -9.018600   1.000000
   22       -8.914986   1.000000
   23       -8.788688   1.000000
   24       -8.689424   1.000000
   25       -8.634487   1.000000
   26       -8.563388   1.000000
   27       -8.512229   1.000000
   28       -8.411374   1.000000
   29       -8.357535   1.000000
   30       -8.282543   1.000000
   31       -8.217425   1.000000
   32       -8.022790   1.000000
   33       -7.988695   1.000000
   34       -7.889645   1.000000
   35       -7.816173   1.000000
   36       -7.758258   1.000000
   37       -7.680515   1.000000
   38       -7.519445   1.000000
   39       -7.486786   1.000000
   40       -7.434933   1.000000
   41       -7.345267   1.000000
   42       -7.287444   1.000000
   43       -7.115071   1.000000
   44       -6.940119   1.000000
   45       -6.860524   1.000000
   46       -6.829908   1.000000
   47       -6.743660   1.000000
   48       -6.631313   1.000000
   49       -6.470553   1.000000
   50       -6.454556   1.000000
   51       -6.411091   1.000000
   52       -6.364578   1.000000
   53       -6.327769   1.000000
   54       -6.300900   1.000000
   55       -6.250554   1.000000
   56       -6.167586   1.000000
   57       -6.130325   1.000000
   58       -5.835582   1.000000
   59       -5.673154   1.000000
   60       -5.651568   1.000000
   61       -5.498860   1.000000
   62       -5.454535   1.000000
   63       -5.286514   1.000000
   64       -5.189741   1.000000
   65       -5.129376   1.000000
   66       -5.062165   1.000000
   67       -4.936306   1.000000
   68       -4.884192   1.000000
   69       -4.839805   1.000000
   70       -4.745118   1.000000
   71       -4.629890   1.000000
   72       -4.582316   1.000000
   73       -4.547497   1.000000
   74       -4.308551   1.000000
   75       -3.986189   0.999999
   76       -3.893340   0.999988
   77       -3.795963   0.999803
   78       -3.706919   0.998221
   79       -3.660969   0.995201
   80       -3.339567   0.624503
   81       -3.275339   0.445580
   82       -2.784371   0.000154
   83       -2.660715   0.000004
   84       -2.559228   0.000000
   85       -2.521115   0.000000
   86       -2.369559   0.000000
   87       -2.328505   0.000000
   88       -2.269738   0.000000
   89       -2.153506   0.000000
   90       -2.068321   0.000000
   91       -2.039640   0.000000
   92       -1.903344   0.000000
   93       -1.447080   0.000000
   94       -1.326118   0.000000
   95       -1.134383   0.000000
   96       -1.021523   0.000000
   97       -0.969280   0.000000
   98       -0.861166   0.000000
   99       -0.743119   0.000000
  100       -0.683926   0.000000
  101       -0.588364   0.000000
  102       -0.559219   0.000000
  103       -0.500735   0.000000
  104       -0.375451   0.000000
  105       -0.340138   0.000000
  106       -0.211851   0.000000
  107       -0.097373   0.000000
  108        0.025657   0.000000
  109        0.090849   0.000000
  110        0.266448   0.000000
  111        0.364380   0.000000
  112        0.434426   0.000000
  113        0.687299   0.000000
  114        0.962822   0.000000
  115        1.012305   0.000000
  116        1.094833   0.000000
  117        1.119184   0.000000
  118        1.689137   0.000000
  119        1.870218   0.000000
  120        2.176922   0.000000
 
  0.2500000E+00  0.5551115E-16  0.0000000E+00  0.3125000E-01
    1      -17.689521   1.000000
    2      -16.970495   1.000000
    3      -16.697557   1.000000
    4      -16.633939   1.000000
    5      -16.568307   1.000000
    6      -16.396964   1.000000
    7      -16.319068   1.000000
    8      -16.198913   1.000000
    9      -16.159627   1.000000
   10      -16.044735   1.000000
   11      -15.973876   1.000000
   12      -15.887022   1.000000
   13      -15.808946   1.000000
   14      -15.675420   1.000000
   15      -15.631393   1.000000
   16      -15.527527   1.000000
   17      -15.495542   1.000000
   18      -15.380341   1.000000
   19       -9.482600   1.000000
   20       -9.223133   1.000000
   21       -9.118362   1.000000
   22       -9.041033   1.000000
   23       -8.850629   1.000000
   24       -8.772710   1.000000
   25       -8.673722   1.000000
   26       -8.515357   1.000000
   27       -8.491491   1.000000
   28       -8.388910   1.000000
   29       -8.247672   1.000000
   30       -8.132053   1.000000
   31       -8.081981   1.000000
   32       -8.014510   1.000000
   33       -7.919622   1.000000
   34       -7.895509   1.000000
   35       -7.769803   1.000000
   36       -7.633208   1.000000
   37       -7.575580   1.000000
   38       -7.536093   1.000000
   39       -7.413293   1.000000
   40       -7.362883   1.000000
   41       -7.283325   1.000000
   42       -7.187119   1.000000
   43       -7.111615   1.000000
   44       -6.967223   1.000000
   45       -6.878250   1.000000
   46       -6.832351   1.000000
   47       -6.790585   1.000000
   48       -6.661182   1.000000
   49       -6.555792   1.000000
   50       -6.531316   1.000000
   51       -6.363820   1.000000
   52       -6.344663   1.000000
   53       -6.312729   1.000000
   54       -6.267959   1.000000
   55       -6.170953   1.000000
   56       -6.149758   1.000000
   57       -6.011707   1.000000
   58       -5.899867   1.000000
   59       -5.762767   1.000000
   60       -5.646099   1.000000
   61       -5.584109   1.000000
   62       -5.510114   1.000000
   63       -5.468647   1.000000
   64       -5.346673   1.000000
   65       -5.142192   1.000000
   66       -5.080844   1.000000
   67       -4.956607   1.000000
   68       -4.904569   1.000000
   69       -4.743948   1.000000
   70       -4.697051   1.000000
   71       -4.625703   1.000000
   72       -4.528212   1.000000
   73       -4.416802   1.000000
   74       -4.318437   1.000000
   75       -4.196130   1.000000
   76       -4.057434   1.000000
   77       -3.789334   0.999765
   78       -3.627852   0.990759
   79       -3.559717   0.969536
   80       -3.258366   0.398646
   81       -3.186682   0.222513
   82       -2.850646   0.000845
   83       -2.655198   0.000003
   84       -2.584160   0.000000
   85       -2.485561   0.000000
   86       -2.353257   0.000000
   87       -2.325394   0.000000
   88       -2.211320   0.000000
   89       -2.150611   0.000000
   90       -2.041724   0.000000
   91       -2.009479   0.000000
   92       -1.866448   0.000000
   93       -1.452844   0.000000
   94       -1.280870   0.000000
   95       -1.169487   0.000000
   96       -1.054639   0.000000
   97       -0.970210   0.000000
   98       -0.873375   0.000000
   99       -0.822227   0.000000
  100       -0.796008   0.000000
  101       -0.679576   0.000000
  102       -0.628809   0.000000
  103       -0.553179   0.000000
  104       -0.458657   0.000000
  105       -0.403726   0.000000
  106       -0.293539   0.000000
  107       -0.167134   0.000000
  108       -0.056928   0.000000
  109        0.074062   0.000000
  110        0.134150   0.000000
  111        0.404396   0.000000
  112        0.548991   0.000000
  113        0.754139   0.000000
  114        0.964187   0.000000
  115        1.079097   0.000000
  116        1.094599   0.000000
  117        1.215073   0.000000
  118        1.813317   0.000000
  119        1.980467   0.000000
  120        2.281764   0.000000
 
  0.3750000E+00  0.0000000E+00  0.0000000E+00  0.3125000E-01
    1      -17.570017   1.000000
    2      -17.185454   1.000000
    3      -16.741024   1.000000
    4      -16.638797   1.000000
    5      -16.591267   1.000000
    6      -16.404393   1.000000
    7      -16.261938   1.000000
    8      -16.205083   1.000000
    9      -16.128305   1.000000
   10      -16.025374   1.000000
   11      -15.876999   1.000000
   12      -15.863788   1.000000
   13      -15.782859   1.000000
   14      -15.705083   1.000000
   15      -15.606685   1.000000
   16      -15.557291   1.000000
   17      -15.480788   1.000000
   18      -15.403388   1.000000
   19       -9.702599   1.000000
   20       -9.327818   1.000000
   21       -9.149266   1.000000
   22       -9.057570   1.000000
   23       -8.880047   1.000000
   24       -8.830012   1.000000
   25       -8.668858   1.000000
   26       -8.522604   1.000000
   27       -8.431907   1.000000
   28       -8.273547   1.000000
   29       -8.225708   1.000000
   30       -8.194591   1.000000
   31       -8.016720   1.000000
   32       -7.979412   1.000000
   33       -7.919335   1.000000
   34       -7.858055   1.000000
   35       -7.769753   1.000000
   36       -7.702418   1.000000
   37       -7.511657   1.000000
   38       -7.416194   1.000000
   39       -7.357295   1.000000
   40       -7.323089   1.000000
   41       -7.220066   1.000000
   42       -7.100217   1.000000
   43       -7.033062   1.000000
   44       -6.928884   1.000000
   45       -6.861528   1.000000
   46       -6.800163   1.000000
   47       -6.716211   1.000000
   48       -6.611873   1.000000
   49       -6.573367   1.000000
   50       -6.434972   1.000000
   51       -6.397255   1.000000
   52       -6.352931   1.000000
   53       -6.288044   1.000000
   54       -6.200276   1.000000
   55       -6.180426   1.000000
   56       -6.106451   1.000000
   57       -6.034333   1.000000
   58       -5.937323   1.000000
   59       -5.910832   1.000000
   60       -5.790273   1.000000
   61       -5.677022   1.000000
   62       -5.668622   1.000000
   63       -5.514933   1.000000
   64       -5.376054   1.000000
   65       -5.162710   1.000000
   66       -5.110474   1.000000
   67       -4.941187   1.000000
   68       -4.891228   1.000000
   69       -4.837134   1.000000
   70       -4.680723   1.000000
   71       -4.575715   1.000000
   72       -4.528873   1.000000
   73       -4.422316   1.000000
   74       -4.324743   1.000000
   75       -4.272757   1.000000
   76       -4.092802   1.000000
   77       -3.816800   0.999889
   78       -3.533690   0.954485
   79       -3.372830   0.709708
   80       -3.208560   0.271252
   81       -3.116161   0.103404
   82       -2.938950   0.005944
   83       -2.677708   0.000006
   84       -2.635748   0.000002
   85       -2.426355   0.000000
   86       -2.377904   0.000000
   87       -2.307449   0.000000
   88       -2.199013   0.000000
   89       -2.128078   0.000000
   90       -1.989742   0.000000
   91       -1.941647   0.000000
   92       -1.836319   0.000000
   93       -1.430063   0.000000
   94       -1.267810   0.000000
   95       -1.235771   0.000000
   96       -1.095639   0.000000
   97       -1.023290   0.000000
   98       -0.945272   0.000000
   99       -0.879366   0.000000
  100       -0.838592   0.000000
  101       -0.720731   0.000000
  102       -0.637325   0.000000
  103       -0.612675   0.000000
  104       -0.530655   0.000000
  105       -0.453716   0.000000
  106       -0.400445   0.000000
  107       -0.213513   0.000000
  108       -0.140528   0.000000
  109       -0.082241   0.000000
  110        0.138425   0.000000
  111        0.464269   0.000000
  112        0.544732   0.000000
  113        0.828744   0.000000
  114        0.957896   0.000000
  115        1.133999   0.000000
  116        1.167533   0.000000
  117        1.293606   0.000000
  118        1.999429   0.000000
  119        2.153874   0.000000
  120        2.453509   0.000000
 
  0.5000000E+00  0.1110223E-15  0.0000000E+00  0.1562500E-01
    1      -17.453397   1.000000
    2      -17.335827   1.000000
    3      -16.756369   1.000000
    4      -16.645685   1.000000
    5      -16.592818   1.000000
    6      -16.408974   1.000000
    7      -16.254603   1.000000
    8      -16.196792   1.000000
    9      -16.111013   1.000000
   10      -16.023206   1.000000
   11      -15.863713   1.000000
   12      -15.804324   1.000000
   13      -15.761989   1.000000
   14      -15.737476   1.000000
   15      -15.626011   1.000000
   16      -15.555580   1.000000
   17      -15.501282   1.000000
   18      -15.386550   1.000000
   19       -9.781927   1.000000
   20       -9.368643   1.000000
   21       -9.187035   1.000000
   22       -9.052362   1.000000
   23       -8.876543   1.000000
   24       -8.781958   1.000000
   25       -8.661692   1.000000
   26       -8.624296   1.000000
   27       -8.358417   1.000000
   28       -8.290128   1.000000
   29       -8.177715   1.000000
   30       -8.134357   1.000000
   31       -8.062485   1.000000
   32       -7.993926   1.000000
   33       -7.913197   1.000000
   34       -7.877002   1.000000
   35       -7.780368   1.000000
   36       -7.694795   1.000000
   37       -7.538198   1.000000
   38       -7.435050   1.000000
   39       -7.365513   1.000000
   40       -7.302289   1.000000
   41       -7.078989   1.000000
   42       -7.035864   1.000000
   43       -6.992583   1.000000
   44       -6.859743   1.000000
   45       -6.808963   1.000000
   46       -6.730425   1.000000
   47       -6.715415   1.000000
   48       -6.631848   1.000000
   49       -6.587628   1.000000
   50       -6.530375   1.000000
   51       -6.443174   1.000000
   52       -6.343849   1.000000
   53       -6.256640   1.000000
   54       -6.152788   1.000000
   55       -6.097519   1.000000
   56       -6.070840   1.000000
   57       -6.058387   1.000000
   58       -5.987841   1.000000
   59       -5.885329   1.000000
   60       -5.840773   1.000000
   61       -5.779867   1.000000
   62       -5.684527   1.000000
   63       -5.504778   1.000000
   64       -5.385957   1.000000
   65       -5.283413   1.000000
   66       -5.162666   1.000000
   67       -5.046084   1.000000
   68       -4.887801   1.000000
   69       -4.849889   1.000000
   70       -4.617412   1.000000
   71       -4.534682   1.000000
   72       -4.502122   1.000000
   73       -4.437554   1.000000
   74       -4.367901   1.000000
   75       -4.293555   1.000000
   76       -4.021454   1.000000
   77       -3.846440   0.999952
   78       -3.511700   0.937546
   79       -3.222228   0.304190
   80       -3.191427   0.232639
   81       -3.153721   0.159430
   82       -2.969926   0.010826
   83       -2.685365   0.000008
   84       -2.660208   0.000004
   85       -2.441404   0.000000
   86       -2.369544   0.000000
   87       -2.285104   0.000000
   88       -2.199958   0.000000
   89       -2.121704   0.000000
   90       -1.971257   0.000000
   91       -1.903633   0.000000
   92       -1.820138   0.000000
   93       -1.410413   0.000000
   94       -1.289884   0.000000
   95       -1.260864   0.000000
   96       -1.108054   0.000000
   97       -1.071410   0.000000
   98       -0.947826   0.000000
   99       -0.890516   0.000000
  100       -0.874465   0.000000
  101       -0.724299   0.000000
  102       -0.664105   0.000000
  103       -0.604396   0.000000
  104       -0.565531   0.000000
  105       -0.482398   0.000000
  106       -0.440488   0.000000
  107       -0.231980   0.000000
  108       -0.177486   0.000000
  109       -0.133246   0.000000
  110        0.140455   0.000000
  111        0.493254   0.000000
  112        0.525281   0.000000
  113        0.850016   0.000000
  114        0.955106   0.000000
  115        1.161282   0.000000
  116        1.207454   0.000000
  117        1.318317   0.000000
  118        2.215853   0.000000
  119        2.258039   0.000000
  120        2.364522   0.000000
 
  0.0000000E+00  0.1250000E+00  0.0000000E+00  0.3125000E-01
    1      -17.765879   1.000000
    2      -16.740487   1.000000
    3      -16.665564   1.000000
    4      -16.618521   1.000000
    5      -16.553995   1.000000
    6      -16.415003   1.000000
    7      -16.359121   1.000000
    8      -16.265353   1.000000
    9      -16.114970   1.000000
   10      -16.075392   1.000000
   11      -16.016169   1.000000
   12      -15.939066   1.000000
   13      -15.880072   1.000000
   14      -15.688147   1.000000
   15      -15.619547   1.000000
   16      -15.549773   1.000000
   17      -15.500898   1.000000
   18      -15.322453   1.000000
   19       -9.272337   1.000000
   20       -9.091329   1.000000
   21       -8.983727   1.000000
   22       -8.924947   1.000000
   23       -8.810236   1.000000
   24       -8.689928   1.000000
   25       -8.656832   1.000000
   26       -8.595073   1.000000
   27       -8.506286   1.000000
   28       -8.477136   1.000000
   29       -8.341421   1.000000
   30       -8.222814   1.000000
   31       -8.164099   1.000000
   32       -8.081788   1.000000
   33       -7.995413   1.000000
   34       -7.884430   1.000000
   35       -7.779123   1.000000
   36       -7.734117   1.000000
   37       -7.672383   1.000000
   38       -7.591269   1.000000
   39       -7.503574   1.000000
   40       -7.450666   1.000000
   41       -7.338290   1.000000
   42       -7.258782   1.000000
   43       -7.166556   1.000000
   44       -6.960472   1.000000
   45       -6.841130   1.000000
   46       -6.782385   1.000000
   47       -6.705249   1.000000
   48       -6.610305   1.000000
   49       -6.501909   1.000000
   50       -6.459161   1.000000
   51       -6.399834   1.000000
   52       -6.349251   1.000000
   53       -6.316611   1.000000
   54       -6.299017   1.000000
   55       -6.270005   1.000000
   56       -6.177447   1.000000
   57       -6.159264   1.000000
   58       -5.869851   1.000000
   59       -5.716205   1.000000
   60       -5.596632   1.000000
   61       -5.477528   1.000000
   62       -5.431775   1.000000
   63       -5.329342   1.000000
   64       -5.247902   1.000000
   65       -5.083900   1.000000
   66       -5.022559   1.000000
   67       -4.949170   1.000000
   68       -4.917225   1.000000
   69       -4.847736   1.000000
   70       -4.723322   1.000000
   71       -4.677771   1.000000
   72       -4.582369   1.000000
   73       -4.475429   1.000000
   74       -4.245359   1.000000
   75       -4.026654   1.000000
   76       -3.903234   0.999992
   77       -3.783923   0.999729
   78       -3.692792   0.997561
   79       -3.646815   0.993611
   80       -3.469129   0.891300
   81       -3.180054   0.208797
   82       -2.762977   0.000085
   83       -2.684666   0.000008
   84       -2.554582   0.000000
   85       -2.493178   0.000000
   86       -2.372100   0.000000
   87       -2.332983   0.000000
   88       -2.296588   0.000000
   89       -2.148305   0.000000
   90       -2.090790   0.000000
   91       -2.012662   0.000000
   92       -1.910381   0.000000
   93       -1.434076   0.000000
   94       -1.341262   0.000000
   95       -1.132668   0.000000
   96       -1.009853   0.000000
   97       -0.976310   0.000000
   98       -0.884797   0.000000
   99       -0.773089   0.000000
  100       -0.634893   0.000000
  101       -0.601784   0.000000
  102       -0.556856   0.000000
  103       -0.514408   0.000000
  104       -0.436352   0.000000
  105       -0.317504   0.000000
  106       -0.213021   0.000000
  107       -0.131321   0.000000
  108        0.078781   0.000000
  109        0.156013   0.000000
  110        0.276068   0.000000
  111        0.351001   0.000000
  112        0.394673   0.000000
  113        0.619598   0.000000
  114        0.927124   0.000000
  115        1.074885   0.000000
  116        1.109868   0.000000
  117        1.160765   0.000000
  118        1.688089   0.000000
  119        1.871803   0.000000
  120        2.176409   0.000000
 
  0.1250000E+00  0.1250000E+00  0.0000000E+00  0.3125000E-01
    1      -17.716822   1.000000
    2      -16.862073   1.000000
    3      -16.782095   1.000000
    4      -16.626417   1.000000
    5      -16.490615   1.000000
    6      -16.405509   1.000000
    7      -16.352400   1.000000
    8      -16.214112   1.000000
    9      -16.127665   1.000000
   10      -16.060339   1.000000
   11      -16.003748   1.000000
   12      -15.900400   1.000000
   13      -15.816571   1.000000
   14      -15.679385   1.000000
   15      -15.638512   1.000000
   16      -15.532521   1.000000
   17      -15.501515   1.000000
   18      -15.358851   1.000000
   19       -9.345527   1.000000
   20       -9.263382   1.000000
   21       -9.124463   1.000000
   22       -8.996128   1.000000
   23       -8.835595   1.000000
   24       -8.748589   1.000000
   25       -8.612463   1.000000
   26       -8.526917   1.000000
   27       -8.479158   1.000000
   28       -8.423265   1.000000
   29       -8.320242   1.000000
   30       -8.230272   1.000000
   31       -8.091956   1.000000
   32       -8.056286   1.000000
   33       -7.930725   1.000000
   34       -7.816762   1.000000
   35       -7.736674   1.000000
   36       -7.680425   1.000000
   37       -7.591024   1.000000
   38       -7.525681   1.000000
   39       -7.437469   1.000000
   40       -7.383390   1.000000
   41       -7.285163   1.000000
   42       -7.259559   1.000000
   43       -7.149365   1.000000
   44       -6.999124   1.000000
   45       -6.875704   1.000000
   46       -6.809039   1.000000
   47       -6.786427   1.000000
   48       -6.630254   1.000000
   49       -6.551029   1.000000
   50       -6.481189   1.000000
   51       -6.390372   1.000000
   52       -6.357267   1.000000
   53       -6.310450   1.000000
   54       -6.291466   1.000000
   55       -6.187938   1.000000
   56       -6.140044   1.000000
   57       -6.065494   1.000000
   58       -5.880835   1.000000
   59       -5.685728   1.000000
   60       -5.631919   1.000000
   61       -5.582087   1.000000
   62       -5.520060   1.000000
   63       -5.432658   1.000000
   64       -5.249896   1.000000
   65       -5.190810   1.000000
   66       -5.094931   1.000000
   67       -5.001194   1.000000
   68       -4.832897   1.000000
   69       -4.776090   1.000000
   70       -4.682420   1.000000
   71       -4.643959   1.000000
   72       -4.546397   1.000000
   73       -4.453314   1.000000
   74       -4.219862   1.000000
   75       -4.142940   1.000000
   76       -4.042075   1.000000
   77       -3.777128   0.999677
   78       -3.717237   0.998595
   79       -3.546959   0.962772
   80       -3.372469   0.708833
   81       -3.140917   0.138443
   82       -2.805898   0.000274
   83       -2.656137   0.000003
   84       -2.577114   0.000000
   85       -2.487239   0.000000
   86       -2.358756   0.000000
   87       -2.305075   0.000000
   88       -2.221685   0.000000
   89       -2.184438   0.000000
   90       -2.067379   0.000000
   91       -2.012270   0.000000
   92       -1.881700   0.000000
   93       -1.449513   0.000000
   94       -1.306296   0.000000
   95       -1.143309   0.000000
   96       -1.029132   0.000000
   97       -0.993208   0.000000
   98       -0.868652   0.000000
   99       -0.834690   0.000000
  100       -0.740547   0.000000
  101       -0.658223   0.000000
  102       -0.643309   0.000000
  103       -0.525230   0.000000
  104       -0.466043   0.000000
  105       -0.406488   0.000000
  106       -0.246220   0.000000
  107       -0.173985   0.000000
  108        0.020983   0.000000
  109        0.083969   0.000000
  110        0.254291   0.000000
  111        0.360677   0.000000
  112        0.496537   0.000000
  113        0.635523   0.000000
  114        0.935421   0.000000
  115        1.093066   0.000000
  116        1.162107   0.000000
  117        1.210431   0.000000
  118        1.772737   0.000000
  119        1.945762   0.000000
  120        2.246390   0.000000
 
  0.2500000E+00  0.1250000E+00  0.0000000E+00  0.3125000E-01
    1      -17.620636   1.000000
    2      -17.060895   1.000000
    3      -16.873289   1.000000
    4      -16.611661   1.000000
    5      -16.462051   1.000000
    6      -16.402422   1.000000
    7      -16.315361   1.000000
    8      -16.195724   1.000000
    9      -16.130670   1.000000
   10      -16.040473   1.000000
   11      -15.940251   1.000000
   12      -15.871941   1.000000
   13      -15.776722   1.000000
   14      -15.702676   1.000000
   15      -15.610998   1.000000
   16      -15.542618   1.000000
   17      -15.481752   1.000000
   18      -15.398902   1.000000
   19       -9.578776   1.000000
   20       -9.398782   1.000000
   21       -9.196027   1.000000
   22       -9.034374   1.000000
   23       -8.820085   1.000000
   24       -8.753951   1.000000
   25       -8.617622   1.000000
   26       -8.477512   1.000000
   27       -8.441468   1.000000
   28       -8.352036   1.000000
   29       -8.234584   1.000000
   30       -8.209053   1.000000
   31       -8.096767   1.000000
   32       -8.018087   1.000000
   33       -7.943428   1.000000
   34       -7.900011   1.000000
   35       -7.761493   1.000000
   36       -7.645711   1.000000
   37       -7.501945   1.000000
   38       -7.428187   1.000000
   39       -7.340297   1.000000
   40       -7.297580   1.000000
   41       -7.258211   1.000000
   42       -7.182709   1.000000
   43       -7.068320   1.000000
   44       -6.942190   1.000000
   45       -6.844416   1.000000
   46       -6.817948   1.000000
   47       -6.709752   1.000000