       N       E                     dE             d eps       ncg     rms          rms(c)
DAV:   1     0.112443063556E+04    0.11244E+04   -0.35861E+04  8160   0.577E+02
DAV:   2    -0.111710804517E+01   -0.11255E+04   -0.10828E+04 11080   0.173E+02
DAV:   3    -0.199701969251E+03   -0.19858E+03   -0.19054E+03 10920   0.822E+01
DAV:   4    -0.208952983029E+03   -0.92510E+01   -0.89556E+01 12040   0.261E+01
DAV:   5    -0.209288539334E+03   -0.33556E+00   -0.33461E+00 11520   0.369E+00    0.275E+01
DAV:   6    -0.236790239760E+03   -0.27502E+02   -0.11075E+02 12760   0.604E+01    0.594E+01
DAV:   7    -0.196668686692E+03    0.40122E+02   -0.17918E+02 13280   0.152E+02    0.203E+01
DAV:   8    -0.190028032863E+03    0.66407E+01   -0.20807E+01 11640   0.134E+01    0.136E+01
DAV:   9    -0.188240633478E+03    0.17874E+01   -0.30917E+00 11880   0.626E+00    0.919E+00
DAV:  10    -0.187056414198E+03    0.11842E+01   -0.18276E+00 13200   0.773E+00    0.300E+00
DAV:  11    -0.186996055626E+03    0.60359E-01   -0.62115E-01 12480   0.238E+00    0.248E+00
DAV:  12    -0.187073678987E+03   -0.77623E-01   -0.59630E-01 12480   0.414E+00    0.453E+00
DAV:  13    -0.186905898485E+03    0.16778E+00   -0.42252E-01 12920   0.363E+00    0.185E+00
DAV:  14    -0.186894048906E+03    0.11850E-01   -0.11955E-01 12880   0.209E+00    0.178E+00
DAV:  15    -0.186870066178E+03    0.23983E-01   -0.58326E-02 12840   0.147E+00    0.735E-01
DAV:  16    -0.186865572715E+03    0.44935E-02   -0.88446E-03 12520   0.371E-01    0.413E-01
DAV:  17    -0.186863623155E+03    0.19496E-02   -0.74535E-03 12760   0.367E-01    0.222E-01
DAV:  18    -0.186862979426E+03    0.64373E-03   -0.17449E-03 11560   0.126E-01    0.131E-01
DAV:  19    -0.186862857870E+03    0.12156E-03   -0.59359E-04  9920   0.998E-02    0.449E-02
DAV:  20    -0.186863705593E+03   -0.84772E-03   -0.76653E-04  9080   0.508E-02    0.375E-02
DAV:  21    -0.186864387386E+03   -0.68179E-03   -0.19165E-04  8240   0.394E-02    0.339E-02
DAV:  22    -0.186865418289E+03   -0.10309E-02   -0.16116E-04  7520   0.460E-02    0.404E-02
DAV:  23    -0.186866565641E+03   -0.11474E-02   -0.13663E-04  7440   0.486E-02    0.162E-02
DAV:  24    -0.186867141345E+03   -0.57570E-03   -0.28911E-05  6760   0.170E-02    0.452E-03
DAV:  25    -0.186867505446E+03   -0.36410E-03   -0.16844E-05  5560   0.962E-03    0.437E-03
DAV:  26    -0.186867749182E+03   -0.24374E-03   -0.93674E-06  6800   0.722E-03    0.158E-03
DAV:  27    -0.186867839797E+03   -0.90615E-04   -0.32703E-06  7280   0.416E-03
   1 F= -.18686784E+03 E0= -.18669574E+03  d E =-.186868E+03
       N       E                     dE             d eps       ncg     rms          rms(c)
DAV:   1    -0.187506837824E+03   -0.63909E+00   -0.27185E+02  8160   0.350E+01    0.467E+00
DAV:   2    -0.189513996889E+03   -0.20072E+01   -0.20435E+01 12240   0.156E+01    0.986E+00
DAV:   3    -0.189363200020E+03    0.15080E+00   -0.50266E+00 12440   0.126E+01    0.648E+00
DAV:   4    -0.188791550690E+03    0.57165E+00   -0.60331E-01 12440   0.458E+00    0.230E+00
DAV:   5    -0.188886419270E+03   -0.94869E-01   -0.45010E-01 11240   0.375E+00    0.524E+00
DAV:   6    -0.188758650572E+03    0.12777E+00   -0.73499E-01 12640   0.410E+00    0.223E+00
DAV:   7    -0.188704693823E+03    0.53957E-01   -0.19648E-01 10560   0.140E+00    0.136E+00
DAV:   8    -0.188696140540E+03    0.85533E-02   -0.91318E-02 12920   0.147E+00    0.150E+00
DAV:   9    -0.188681088030E+03    0.15053E-01   -0.32713E-02 11960   0.106E+00    0.624E-01
DAV:  10    -0.188677441262E+03    0.36468E-02   -0.71342E-03 12440   0.380E-01    0.330E-01
DAV:  11    -0.188676740043E+03    0.70122E-03   -0.37502E-03 12880   0.280E-01    0.128E-01
DAV:  12    -0.188676837432E+03   -0.97390E-04   -0.95320E-04 12000   0.988E-02
   2 F= -.18867684E+03 E0= -.18853551E+03  d E =-.180900E+01
       N       E                     dE             d eps       ncg     rms          rms(c)
DAV:   1    -0.190607401290E+03   -0.19307E+01   -0.31416E+01  9120   0.143E+01    0.446E+00
DAV:   2    -0.190567000018E+03    0.40401E-01   -0.28186E+00 11160   0.953E+00    0.734E+00
DAV:   3    -0.190088002464E+03    0.47900E+00   -0.14096E+00 12320   0.862E+00    0.425E+00
DAV:   4    -0.189880733786E+03    0.20727E+00   -0.76867E-01 12680   0.423E+00    0.265E+00
DAV:   5    -0.189920098990E+03   -0.39365E-01   -0.47532E-01 12240   0.405E+00    0.375E+00
DAV:   6    -0.189775657016E+03    0.14444E+00   -0.21615E-01 12280   0.316E+00    0.655E-01
DAV:   7    -0.189769471662E+03    0.61854E-02   -0.16163E-02 12520   0.511E-01    0.266E-01
DAV:   8    -0.189770499555E+03   -0.10279E-02   -0.51854E-03 11640   0.419E-01    0.412E-01
DAV:   9    -0.189769284306E+03    0.12152E-02   -0.27010E-03 11120   0.331E-01    0.133E-01
DAV:  10    -0.189769571668E+03   -0.28736E-03   -0.90007E-04 10200   0.115E-01    0.129E-01
DAV:  11    -0.189769355772E+03    0.21590E-03   -0.46670E-04  8880   0.742E-02    0.198E-02
DAV:  12    -0.189769378071E+03   -0.22298E-04   -0.68094E-05  7000   0.269E-02
   3 F= -.18976938E+03 E0= -.18964926E+03  d E =-.109254E+01
       N       E                     dE             d eps       ncg     rms          rms(c)
DAV:   1    -0.191314318320E+03   -0.15450E+01   -0.75287E+01  8160   0.198E+01    0.456E+00
DAV:   2    -0.191164833582E+03    0.14948E+00   -0.53461E+00 13160   0.782E+00    0.478E+00
DAV:   3    -0.191269146817E+03   -0.10431E+00   -0.15782E+00 12240   0.905E+00    0.643E+00
DAV:   4    -0.190873257285E+03    0.39589E+00   -0.12258E+00 12960   0.722E+00    0.263E+00
DAV:   5    -0.190789653957E+03    0.83603E-01   -0.31511E-01 12280   0.272E+00    0.182E+00
DAV:   6    -0.190772170194E+03    0.17484E-01   -0.15923E-01 12640   0.258E+00    0.166E+00
DAV:   7    -0.190751091027E+03    0.21079E-01   -0.64250E-02 11800   0.154E+00    0.494E-01
DAV:   8    -0.190748000770E+03    0.30903E-02   -0.89860E-03 11560   0.474E-01    0.320E-01
DAV:   9    -0.190747403026E+03    0.59774E-03   -0.28298E-03 11480   0.364E-01    0.211E-01
DAV:  10    -0.190747517918E+03   -0.11489E-03   -0.14941E-03 11160   0.206E-01    0.138E-01
DAV:  11    -0.190747304026E+03    0.21389E-03   -0.92643E-04 10040   0.111E-01    0.463E-02
DAV:  12    -0.190747299345E+03    0.46816E-05   -0.14093E-04  7320   0.441E-02
   4 F= -.19074730E+03 E0= -.19064226E+03  d E =-.977921E+00
       N       E                     dE             d eps       ncg     rms          rms(c)
DAV:   1    -0.192157221002E+03   -0.14099E+01   -0.16448E+02  8160   0.287E+01    0.576E+00
DAV:   2    -0.191865814172E+03    0.29141E+00   -0.95593E+00 11320   0.819E+00    0.388E+00
DAV:   3    -0.192011212793E+03   -0.14540E+00   -0.20522E+00 12080   0.868E+00    0.742E+00
DAV:   4    -0.191753035037E+03    0.25818E+00   -0.25204E+00 11480   0.108E+01    0.452E+00
DAV:   5    -0.191587097477E+03    0.16594E+00   -0.77202E-01 12240   0.583E+00    0.347E+00
DAV:   6    -0.191436110490E+03    0.15099E+00   -0.28089E-01 12240   0.382E+00    0.122E+00
DAV:   7    -0.191427879871E+03    0.82306E-02   -0.72392E-02 12320   0.143E+00    0.833E-01
DAV:   8    -0.191426054246E+03    0.18256E-02   -0.34070E-02 12040   0.122E+00    0.775E-01
DAV:   9    -0.191419491176E+03    0.65631E-02   -0.10699E-02 12440   0.701E-01    0.186E-01
DAV:  10    -0.191419781995E+03   -0.29082E-03   -0.23750E-03 11240   0.183E-01    0.109E-01
DAV:  11    -0.191419636790E+03    0.14521E-03   -0.64252E-04 11200   0.971E-02    0.554E-02
DAV:  12    -0.191419618324E+03    0.18466E-04   -0.10718E-04  7040   0.461E-02
   5 F= -.19141962E+03 E0= -.19131715E+03  d E =-.672319E+00
       N       E                     dE             d eps       ncg     rms          rms(c)
DAV:   1    -0.191483866123E+03   -0.64229E-01   -0.46198E+00  8160   0.456E+00    0.674E-01
DAV:   2    -0.191546677479E+03   -0.62811E-01   -0.28234E-01 12960   0.300E+00    0.231E+00
DAV:   3    -0.191493421860E+03    0.53256E-01   -0.10860E-01 12400   0.232E+00    0.455E-01
DAV:   4    -0.191495949211E+03   -0.25274E-02   -0.18474E-02 11160   0.880E-01    0.737E-01
DAV:   5    -0.191490738453E+03    0.52108E-02   -0.12123E-02 11280   0.734E-01    0.255E-01
DAV:   6    -0.191490448663E+03    0.28979E-03   -0.35479E-03 10960   0.283E-01    0.209E-01
DAV:   7    -0.191490828502E+03   -0.37984E-03   -0.37328E-03 11480   0.403E-01    0.317E-01
DAV:   8    -0.191489851441E+03    0.97706E-03   -0.18898E-03  9720   0.284E-01    0.474E-02
DAV:   9    -0.191489839804E+03    0.11637E-04   -0.10581E-04  5720   0.444E-02
   6 F= -.19148984E+03 E0= -.19138499E+03  d E =-.702215E-01
       N       E                     dE             d eps       ncg     rms          rms(c)
DAV:   1    -0.191535838281E+03   -0.45987E-01   -0.22490E+00  8160   0.316E+00    0.366E-01
DAV:   2    -0.191549588367E+03   -0.13750E-01   -0.72924E-02 13400   0.118E+00    0.103E+00
DAV:   3    -0.191538958150E+03    0.10630E-01   -0.28782E-02 12160   0.116E+00    0.346E-01
DAV:   4    -0.191539281222E+03   -0.32307E-03   -0.63587E-03 11080   0.492E-01    0.400E-01
DAV:   5    -0.191537747542E+03    0.15337E-02   -0.38345E-03 11040   0.417E-01    0.139E-01
DAV:   6    -0.191537656835E+03    0.90707E-04   -0.91109E-04  9960   0.137E-01
   7 F= -.19153766E+03 E0= -.19143193E+03  d E =-.478170E-01
       N       E                     dE             d eps       ncg     rms          rms(c)
DAV:   1    -0.191594403829E+03   -0.56656E-01   -0.33646E+00  8160   0.386E+00    0.447E-01
DAV:   2    -0.191620782570E+03   -0.26379E-01   -0.11839E-01 13600   0.164E+00    0.151E+00
DAV:   3    -0.191598996146E+03    0.21786E-01   -0.56667E-02 12200   0.154E+00    0.404E-01
DAV:   4    -0.191599683275E+03   -0.68713E-03   -0.10370E-02 11360   0.640E-01    0.478E-01
DAV:   5    -0.191597341924E+03    0.23414E-02   -0.49663E-03 11240   0.476E-01    0.145E-01
DAV:   6    -0.191597381823E+03   -0.39899E-04   -0.13671E-03 10400   0.178E-01    0.149E-01
DAV:   7    -0.191597627119E+03   -0.24530E-03   -0.17465E-03 10240   0.283E-01    0.235E-01
DAV:   8    -0.191597085067E+03    0.54205E-03   -0.88634E-04  8320   0.198E-01    0.274E-02
DAV:   9    -0.191597104146E+03   -0.19079E-04   -0.60332E-05  5640   0.308E-02
   8 F= -.19159710E+03 E0= -.19149088E+03  d E =-.594473E-01
       N       E                     dE             d eps       ncg     rms          rms(c)
DAV:   1    -0.191625543397E+03   -0.28458E-01   -0.77069E-01  8160   0.185E+00    0.218E-01
DAV:   2    -0.191631758113E+03   -0.62147E-02   -0.29240E-02 13480   0.898E-01    0.709E-01
DAV:   3    -0.191626649417E+03    0.51087E-02   -0.11518E-02 11320   0.728E-01    0.178E-01
DAV:   4    -0.191626949296E+03   -0.29988E-03   -0.23152E-03  9760   0.304E-01    0.246E-01
DAV:   5    -0.191626345713E+03    0.60358E-03   -0.12729E-03  9400   0.238E-01    0.634E-02
DAV:   6    -0.191626363367E+03   -0.17653E-04   -0.23325E-04  6680   0.640E-02
   9 F= -.19162636E+03 E0= -.19152014E+03  d E =-.292592E-01
       N       E                     dE             d eps       ncg     rms          rms(c)
DAV:   1    -0.191606473231E+03    0.19872E-01   -0.33295E-01  8160   0.122E+00    0.140E-01
DAV:   2    -0.191609197436E+03   -0.27242E-02   -0.12593E-02 12760   0.564E-01    0.466E-01
DAV:   3    -0.191606895390E+03    0.23020E-02   -0.47783E-03 11400   0.467E-01    0.109E-01
DAV:   4    -0.191607027878E+03   -0.13249E-03   -0.90558E-04  8720   0.190E-01    0.151E-01
DAV:   5    -0.191606785228E+03    0.24265E-03   -0.48655E-04  8560   0.152E-01    0.386E-02
DAV:   6    -0.191606793243E+03   -0.80142E-05   -0.10189E-04  6200   0.488E-02
  10 F= -.19160679E+03 E0= -.19150048E+03  d E =0.195701E-01
       N       E                     dE             d eps       ncg     rms          rms(c)
DAV:   1    -0.191568085452E+03    0.38700E-01   -0.17649E+00  8160   0.287E+00    0.406E-01
DAV:   2    -0.191581302780E+03   -0.13217E-01   -0.81716E-02 11400   0.135E+00    0.105E+00
DAV:   3    -0.191570397396E+03    0.10905E-01   -0.28249E-02 11920   0.113E+00    0.376E-01
DAV:   4    -0.191570566945E+03   -0.16955E-03   -0.80007E-03 11280   0.546E-01    0.407E-01
DAV:   5    -0.191569070567E+03    0.14964E-02   -0.52493E-03 10760   0.491E-01    0.208E-01
DAV:   6    -0.191568674387E+03    0.39618E-03   -0.17999E-03 11640   0.237E-01    0.896E-02
DAV:   7    -0.191568551813E+03    0.12257E-03   -0.60115E-04 11360   0.940E-02    0.448E-02
DAV:   8    -0.191568559118E+03   -0.73046E-05   -0.14673E-04  6520   0.812E-02
  11 F= -.19156856E+03 E0= -.19146227E+03  d E =0.382341E-01
       N       E                     dE             d eps       ncg     rms          rms(c)
DAV:   1    -0.191350387058E+03    0.21816E+00   -0.44040E+01  8160   0.142E+01    0.157E+00
DAV:   2    -0.191578802654E+03   -0.22842E+00   -0.14243E+00 12560   0.528E+00    0.361E+00
DAV:   3    -0.191413850583E+03    0.16495E+00   -0.28213E-01 11760   0.413E+00    0.115E+00
DAV:   4    -0.191414391341E+03   -0.54076E-03   -0.70963E-02 12400   0.165E+00    0.136E+00
DAV:   5    -0.191399083193E+03    0.15308E-01   -0.53093E-02 11560   0.160E+00    0.636E-01
DAV:   6    -0.191396835154E+03    0.22480E-02   -0.15912E-02 11480   0.670E-01    0.369E-01
DAV:   7    -0.191396431269E+03    0.40389E-03   -0.10897E-02 12200   0.661E-01    0.510E-01
DAV:   8    -0.191393996393E+03    0.24349E-02   -0.48973E-03 11320   0.468E-01    0.957E-02
DAV:   9    -0.191393963614E+03    0.32780E-04   -0.50425E-04  9960   0.977E-02
  12 F= -.19139396E+03 E0= -.19129299E+03  d E =0.174596E+00
       N       E                     dE             d eps       ncg     rms          rms(c)
DAV:   1    -0.191432634598E+03   -0.38638E-01   -0.24554E+00  8160   0.333E+00    0.441E-01
DAV:   2    -0.191454802613E+03   -0.22168E-01   -0.13596E-01 13400   0.175E+00    0.119E+00
DAV:   3    -0.191439914877E+03    0.14888E-01   -0.35535E-02 12320   0.135E+00    0.336E-01
DAV:   4    -0.191440144910E+03   -0.23003E-03   -0.67162E-03 11440   0.519E-01    0.421E-01
DAV:   5    -0.191438615373E+03    0.15295E-02   -0.48008E-03 11480   0.481E-01    0.200E-01
DAV:   6    -0.191438271347E+03    0.34403E-03   -0.15482E-03 11320   0.201E-01    0.887E-02
DAV:   7    -0.191438303232E+03   -0.31885E-04   -0.85495E-04 10840   0.151E-01
  13 F= -.19143830E+03 E0= -.19133566E+03  d E =-.443396E-01
       N       E                     dE             d eps       ncg     rms          rms(c)
DAV:   1    -0.191437301036E+03    0.97031E-03   -0.88348E+00  8160   0.643E+00    0.695E-01
DAV:   2    -0.191465111030E+03   -0.27810E-01   -0.22047E-01 13440   0.192E+00    0.151E+00
DAV:   3    -0.191448560145E+03    0.16551E-01   -0.69304E-02 11960   0.181E+00    0.736E-01
DAV:   4    -0.191444059661E+03    0.45005E-02   -0.13216E-02 12360   0.728E-01    0.389E-01
DAV:   5    -0.191443390027E+03    0.66963E-03   -0.84974E-03 11160   0.656E-01    0.440E-01
DAV:   6    -0.191442506262E+03    0.88377E-03   -0.75981E-03 10480   0.584E-01    0.300E-01
DAV:   7    -0.191442002902E+03    0.50336E-03   -0.35488E-03 11280   0.398E-01    0.249E-01
DAV:   8    -0.191441340017E+03    0.66289E-03   -0.12277E-03  9760   0.251E-01    0.482E-02
DAV:   9    -0.191441329129E+03    0.10888E-04   -0.96415E-05  6480   0.490E-02
  14 F= -.19144133E+03 E0= -.19133951E+03  d E =-.302590E-02
       N       E                     dE             d eps       ncg     rms          rms(c)
DAV:   1    -0.191499059423E+03   -0.57719E-01   -0.58261E+00  8160   0.510E+00    0.614E-01
DAV:   2    -0.191546045509E+03   -0.46986E-01   -0.21949E-01 13600   0.253E+00    0.199E+00
DAV:   3    -0.191508388631E+03    0.37657E-01   -0.89001E-02 12160   0.210E+00    0.535E-01
DAV:   4    -0.191508883767E+03   -0.49514E-03   -0.15634E-02 11440   0.850E-01    0.609E-01
DAV:   5    -0.191505176572E+03    0.37072E-02   -0.86648E-03 11560   0.659E-01    0.236E-01
DAV:   6    -0.191504587389E+03    0.58918E-03   -0.23547E-03 10640   0.222E-01    0.118E-01
DAV:   7    -0.191504680622E+03   -0.93233E-04   -0.13282E-03 11800   0.199E-01    0.169E-01
DAV:   8    -0.191504398966E+03    0.28166E-03   -0.67299E-04  8800   0.184E-01    0.575E-02
DAV:   9    -0.191504370826E+03    0.28139E-04   -0.95298E-05  5960   0.565E-02
  15 F= -.19150437E+03 E0= -.19140143E+03  d E =-.630417E-01
       N       E                     dE             d eps       ncg     rms          rms(c)
DAV:   1    -0.191446575018E+03    0.57824E-01   -0.42664E+00  8160   0.437E+00    0.500E-01
DAV:   2    -0.191470759124E+03   -0.24184E-01   -0.13854E-01 13600   0.186E+00    0.129E+00
DAV:   3    -0.191452077911E+03    0.18681E-01   -0.38439E-02 11840   0.146E+00    0.412E-01
DAV:   4    -0.191452448385E+03   -0.37047E-03   -0.97815E-03 11240   0.620E-01    0.476E-01
DAV:   5    -0.191450507048E+03    0.19413E-02   -0.64600E-03 11280   0.573E-01    0.251E-01
DAV:   6    -0.191449854067E+03    0.65298E-03   -0.20268E-03 10960   0.249E-01    0.101E-01
DAV:   7    -0.191449752961E+03    0.10111E-03   -0.57397E-04 10760   0.977E-02    0.557E-02
DAV:   8    -0.191449742225E+03    0.10736E-04   -0.16370E-04  6760   0.905E-02
  16 F= -.19144974E+03 E0= -.19134714E+03  d E =0.546286E-01
       N       E                     dE             d eps       ncg     rms          rms(c)
DAV:   1    -0.191385594143E+03    0.64159E-01   -0.68711E+00  8160   0.553E+00    0.598E-01
DAV:   2    -0.191421044659E+03   -0.35451E-01   -0.19870E-01 12800   0.205E+00    0.155E+00
DAV:   3    -0.191395004500E+03    0.26040E-01   -0.57478E-02 11840   0.176E+00    0.556E-01
DAV:   4    -0.191394577206E+03    0.42729E-03   -0.13250E-02 11240   0.728E-01    0.516E-01
DAV:   5    -0.191392212431E+03    0.23648E-02   -0.76749E-03 10960   0.639E-01    0.286E-01
DAV:   6    -0.191391454895E+03    0.75754E-03   -0.27056E-03 11920   0.306E-01    0.137E-01
DAV:   7    -0.191391549747E+03   -0.94852E-04   -0.13365E-03 11240   0.220E-01    0.185E-01
DAV:   8    -0.191391213965E+03    0.33578E-03   -0.72120E-04  8600   0.191E-01    0.482E-02
DAV:   9    -0.191391205699E+03    0.82665E-05   -0.64030E-05  6080   0.459E-02
  17 F= -.19139121E+03 E0= -.19128991E+03  d E =0.585365E-01
       N       E                     dE             d eps       ncg     rms          rms(c)
DAV:   1    -0.191389035885E+03    0.21781E-02   -0.11282E+00  8160   0.225E+00    0.255E-01
DAV:   2    -0.191392831070E+03   -0.37952E-02   -0.35104E-02 12720   0.720E-01    0.496E-01
DAV:   3    -0.191391281973E+03    0.15491E-02   -0.10440E-02 12280   0.693E-01    0.363E-01
DAV:   4    -0.191390056799E+03    0.12252E-02   -0.27794E-03 11320   0.331E-01    0.117E-01
DAV:   5    -0.191389900838E+03    0.15596E-03   -0.80833E-04 10040   0.134E-01    0.916E-02
DAV:   6    -0.191390036711E+03   -0.13587E-03   -0.72583E-04 10000   0.203E-01    0.138E-01
DAV:   7    -0.191389830509E+03    0.20620E-03   -0.40445E-04  8400   0.150E-01    0.411E-02
DAV:   8    -0.191389834811E+03   -0.43022E-05   -0.10876E-04  5800   0.680E-02
  18 F= -.19138983E+03 E0= -.19128873E+03  d E =0.137089E-02
       N       E                     dE             d eps       ncg     rms          rms(c)
DAV:   1    -0.191430274442E+03   -0.40444E-01   -0.39964E+00  8160   0.424E+00    0.520E-01
DAV:   2    -0.191457078868E+03   -0.26804E-01   -0.13874E-01 13600   0.195E+00    0.152E+00
DAV:   3    -0.191435282973E+03    0.21796E-01   -0.53519E-02 12200   0.164E+00    0.461E-01
DAV:   4    -0.191435512724E+03   -0.22975E-03   -0.11344E-02 11440   0.705E-01    0.511E-01
DAV:   5    -0.191433120560E+03    0.23922E-02   -0.71371E-03 11040   0.605E-01    0.261E-01
DAV:   6    -0.191432369139E+03    0.75142E-03   -0.23573E-03 11000   0.255E-01    0.108E-01
DAV:   7    -0.191432562640E+03   -0.19350E-03   -0.12772E-03 10840   0.221E-01    0.191E-01
DAV:   8    -0.191432194808E+03    0.36783E-03   -0.71607E-04  8880   0.190E-01    0.406E-02
DAV:   9    -0.191432187592E+03    0.72160E-05   -0.60723E-05  6040   0.405E-02
  19 F= -.19143219E+03 E0= -.19132953E+03  d E =-.423528E-01
       N       E                     dE             d eps       ncg     rms          rms(c)
DAV:   1    -0.191462105817E+03   -0.29911E-01   -0.17120E+00  8160   0.278E+00    0.348E-01
DAV:   2    -0.191475638514E+03   -0.13533E-01   -0.67112E-02 13600   0.140E+00    0.105E+00
DAV:   3    -0.191464506032E+03    0.11132E-01   -0.24583E-02 12240   0.112E+00    0.274E-01
DAV:   4    -0.191465029672E+03   -0.52364E-03   -0.50019E-03 11400   0.475E-01    0.374E-01
DAV:   5    -0.191463689862E+03    0.13398E-02   -0.31970E-03 11160   0.398E-01    0.139E-01
DAV:   6    -0.191463507378E+03    0.18248E-03   -0.82315E-04  9800   0.131E-01    0.660E-02
DAV:   7    -0.191463447781E+03    0.59596E-04   -0.27949E-04  8120   0.596E-02
  20 F= -.19146345E+03 E0= -.19136003E+03  d E =-.312602E-01
       N       E                     dE             d eps       ncg     rms          rms(c)
DAV:   1    -0.191425878916E+03    0.37628E-01   -0.21838E+00  8160   0.313E+00    0.369E-01
DAV:   2    -0.191440248682E+03   -0.14370E-01   -0.79090E-02 13600   0.143E+00    0.100E+00
DAV:   3    -0.191428960871E+03    0.11288E-01   -0.22054E-02 12080   0.111E+00    0.274E-01
DAV:   4    -0.191429405355E+03   -0.44448E-03   -0.50025E-03 10880   0.452E-01    0.371E-01
DAV:   5    -0.191428136686E+03    0.12687E-02   -0.34041E-03 10960   0.412E-01    0.156E-01
DAV:   6    -0.191427931920E+03    0.20477E-03   -0.97180E-04 10200   0.156E-01    0.760E-02
DAV:   7    -0.191427865256E+03    0.66664E-04   -0.33996E-04  9080   0.794E-02
  21 F= -.19142787E+03 E0= -.19132512E+03  d E =0.355825E-01
       N       E                     dE             d eps       ncg     rms          rms(c)
DAV:   1    -0.191368835731E+03    0.59096E-01   -0.60474E+00  8160   0.520E+00    0.573E-01
DAV:   2    -0.191399166093E+03   -0.30330E-01   -0.19080E-01 13320   0.196E+00    0.137E+00
DAV:   3    -0.191378169862E+03    0.20996E-01   -0.48202E-02 11840   0.162E+00    0.501E-01
DAV:   4    -0.191378210580E+03   -0.40718E-04   -0.12377E-02 11560   0.694E-01    0.532E-01
DAV:   5    -0.191375697619E+03    0.25130E-02   -0.73686E-03 11400   0.615E-01    0.261E-01
DAV:   6    -0.191375115477E+03    0.58214E-03   -0.24427E-03 11480   0.280E-01    0.128E-01
DAV:   7    -0.191374943416E+03    0.17206E-03   -0.87869E-04 10920   0.123E-01    0.600E-02
DAV:   8    -0.191374923157E+03    0.20258E-04   -0.21831E-04  7240   0.101E-01
  22 F= -.19137492E+03 E0= -.19127291E+03  d E =0.529421E-01
       N       E                     dE             d eps       ncg     rms          rms(c)
DAV:   1    -0.191355001870E+03    0.19942E-01   -0.24817E+00  8160   0.332E+00    0.363E-01
DAV:   2    -0.191365493616E+03   -0.10492E-01   -0.72412E-02 13240   0.119E+00    0.819E-01
DAV:   3    -0.191358648895E+03    0.68447E-02   -0.20079E-02 11360   0.100E+00    0.379E-01
DAV:   4    -0.191357977690E+03    0.67120E-03   -0.54249E-03 11320   0.470E-01    0.301E-01
DAV:   5    -0.191357376427E+03    0.60126E-03   -0.29893E-03 10800   0.394E-01    0.209E-01
DAV:   6    -0.191356927341E+03    0.44909E-03   -0.11928E-03 10760   0.224E-01    0.712E-02
DAV:   7    -0.191356927493E+03   -0.15218E-06   -0.40625E-04  9280   0.793E-02
  23 F= -.19135693E+03 E0= -.19125456E+03  d E =0.179957E-01
       N       E                     dE             d eps       ncg     rms          rms(c)
DAV:   1    -0.191394946896E+03   -0.38020E-01   -0.43876E+00  8160   0.445E+00    0.547E-01
DAV:   2    -0.191426204932E+03   -0.31258E-01   -0.16198E-01 13600   0.212E+00    0.158E+00
DAV:   3    -0.191401042783E+03    0.25162E-01   -0.58890E-02 12200   0.174E+00    0.444E-01
DAV:   4    -0.191401728022E+03   -0.68524E-03   -0.11882E-02 11480   0.717E-01    0.564E-01
DAV:   5    -0.191398820784E+03    0.29072E-02   -0.78377E-03 11200   0.623E-01    0.248E-01
DAV:   6    -0.191398126254E+03    0.69453E-03   -0.22937E-03 11160   0.245E-01    0.105E-01
DAV:   7    -0.191398286007E+03   -0.15975E-03   -0.12442E-03 11080   0.202E-01    0.176E-01
DAV:   8    -0.191397980467E+03    0.30554E-03   -0.66846E-04  8840   0.184E-01    0.533E-02
DAV:   9    -0.191397956301E+03    0.24167E-04   -0.79089E-05  5920   0.523E-02
  24 F= -.19139796E+03 E0= -.19129413E+03  d E =-.410288E-01
       N       E                     dE             d eps       ncg     rms          rms(c)
DAV:   1    -0.191410731934E+03   -0.12751E-01   -0.50157E-01  8160   0.150E+00    0.176E-01
DAV:   2    -0.191413752000E+03   -0.30201E-02   -0.16979E-02 13600   0.678E-01    0.470E-01
DAV:   3    -0.191411404744E+03    0.23473E-02   -0.54028E-03 11680   0.538E-01    0.141E-01
DAV:   4    -0.191411459187E+03   -0.54443E-04   -0.11374E-03  9720   0.211E-01    0.169E-01
DAV:   5    -0.191411233749E+03    0.22544E-03   -0.76886E-04  8520   0.198E-01    0.911E-02
DAV:   6    -0.191411151997E+03    0.81752E-04   -0.22137E-04  5880   0.889E-02
  25 F= -.19141115E+03 E0= -.19130660E+03  d E =-.131957E-01
       N       E                     dE             d eps       ncg     rms          rms(c)
DAV:   1    -0.191399998170E+03    0.11236E-01   -0.15571E+00  8160   0.268E+00    0.385E-01
DAV:   2    -0.191406124838E+03   -0.61267E-02   -0.54105E-02 12640   0.118E+00    0.770E-01
DAV:   3    -0.191400103227E+03    0.60216E-02   -0.16574E-02 12080   0.982E-01    0.316E-01
DAV:   4    -0.191399583850E+03    0.51938E-03   -0.50261E-03 10960   0.428E-01    0.309E-01
DAV:   5    -0.191399377014E+03    0.20684E-03   -0.45745E-03 11560   0.478E-01    0.308E-01
DAV:   6    -0.191398373867E+03    0.10031E-02   -0.22773E-03 10880   0.301E-01    0.754E-02
DAV:   7    -0.191398346609E+03    0.27258E-04   -0.39660E-04  8040   0.795E-02
  26 F= -.19139835E+03 E0= -.19129555E+03  d E =0.128054E-01
       N       E                     dE             d eps       ncg     rms          rms(c)
DAV:   1    -0.191449535040E+03   -0.51161E-01   -0.74946E+00  8160   0.583E+00    0.729E-01
DAV:   2    -0.191491593961E+03   -0.42059E-01   -0.25542E-01 13600   0.262E+00    0.185E+00
DAV:   3    -0.191456975564E+03    0.34618E-01   -0.85557E-02 12240   0.216E+00    0.558E-01
DAV:   4    -0.191457688257E+03   -0.71269E-03   -0.19102E-02 12320   0.865E-01    0.724E-01
DAV:   5    -0.191453805018E+03    0.38832E-02   -0.15558E-02 10800   0.877E-01    0.448E-01
DAV:   6    -0.191451732590E+03    0.20724E-02   -0.58259E-03 11320   0.433E-01    0.160E-01
DAV:   7    -0.191451679057E+03    0.53533E-04   -0.19801E-03 11680   0.224E-01    0.167E-01
DAV:   8    -0.191451455498E+03    0.22356E-03   -0.10378E-03  9120   0.222E-01    0.107E-01
DAV:   9    -0.191451334635E+03    0.12086E-03   -0.24844E-04  6840   0.994E-02    0.251E-02
DAV:  10    -0.191451332246E+03    0.23890E-05   -0.61205E-05  6560   0.289E-02
  27 F= -.19145133E+03 E0= -.19134595E+03  d E =-.529856E-01
       N       E                     dE             d eps       ncg     rms          rms(c)
DAV:   1    -0.191481628728E+03   -0.30294E-01   -0.18268E+00  8160   0.286E+00    0.336E-01
DAV:   2    -0.191493097860E+03   -0.11469E-01   -0.61055E-02 13600   0.127E+00    0.965E-01
DAV:   3    -0.191484087456E+03    0.90104E-02   -0.22340E-02 11960   0.105E+00    0.306E-01
DAV:   4    -0.191484195920E+03   -0.10846E-03   -0.47640E-03 11120   0.457E-01    0.339E-01
DAV:   5    -0.191483174209E+03    0.10217E-02   -0.29625E-03 10840   0.388E-01    0.161E-01
DAV:   6    -0.191482889726E+03    0.28448E-03   -0.88332E-04 10400   0.154E-01    0.620E-02
DAV:   7    -0.191482849252E+03    0.40474E-04   -0.25241E-04  7320   0.563E-02
  28 F= -.19148285E+03 E0= -.19137754E+03  d E =-.315170E-01
       N       E                     dE             d eps       ncg     rms          rms(c)
DAV:   1    -0.191451215838E+03    0.31674E-01   -0.20512E+00  8160   0.301E+00    0.307E-01
DAV:   2    -0.191459067784E+03   -0.78519E-02   -0.54039E-02 12320   0.922E-01    0.716E-01
DAV:   3    -0.191454444581E+03    0.46232E-02   -0.15870E-02 12000   0.872E-01    0.364E-01
DAV:   4    -0.191453646769E+03    0.79781E-03   -0.38755E-03 11000   0.384E-01    0.227E-01
DAV:   5    -0.191453257936E+03    0.38883E-03   -0.18390E-03 10240   0.314E-01    0.167E-01
DAV:   6    -0.191453017220E+03    0.24072E-03   -0.92337E-04 10080   0.201E-01    0.811E-02
DAV:   7    -0.191452992019E+03    0.25201E-04   -0.33383E-04  8160   0.985E-02
  29 F= -.19145299E+03 E0= -.19134725E+03  d E =0.298572E-01
       N       E                     dE             d eps       ncg     rms          rms(c)
DAV:   1    -0.191437384141E+03    0.15633E-01   -0.34254E+00  8160   0.389E+00    0.402E-01
DAV:   2    -0.191448892197E+03   -0.11508E-01   -0.94384E-02 12600   0.128E+00    0.844E-01
DAV:   3    -0.191442976072E+03    0.59161E-02   -0.22668E-02 11960   0.105E+00    0.464E-01
DAV:   4    -0.191441691335E+03    0.12847E-02   -0.66263E-03 11280   0.527E-01    0.310E-01
DAV:   5    -0.191441187742E+03    0.50359E-03   -0.37939E-03 10360   0.452E-01    0.256E-01
DAV:   6    -0.191440631501E+03    0.55624E-03   -0.19522E-03 12680   0.286E-01    0.988E-02
DAV:   7    -0.191440562713E+03    0.68788E-04   -0.61057E-04 10040   0.126E-01
  30 F= -.19144056E+03 E0= -.19133476E+03  d E =0.124293E-01
       N       E                     dE             d eps       ncg     rms          rms(c)
DAV:   1    -0.191487275271E+03   -0.46644E-01   -0.60492E+00  8160   0.520E+00    0.597E-01
DAV:   2    -0.191522554486E+03   -0.35279E-01   -0.19729E-01 13520   0.219E+00    0.170E+00
DAV:   3    -0.191496569580E+03    0.25985E-01   -0.68069E-02 12200   0.187E+00    0.576E-01
DAV:   4    -0.191496115831E+03    0.45375E-03   -0.13957E-02 11400   0.792E-01    0.565E-01
DAV:   5    -0.191493160344E+03    0.29555E-02   -0.85780E-03 10800   0.674E-01    0.293E-01
DAV:   6    -0.191492318010E+03    0.84233E-03   -0.31647E-03 11560   0.304E-01    0.139E-01
DAV:   7    -0.191492756432E+03   -0.43842E-03   -0.22886E-03 12080   0.305E-01    0.266E-01
DAV:   8    -0.191492053390E+03    0.70304E-03   -0.13131E-03  9400   0.257E-01    0.515E-02
DAV:   9    -0.191492033723E+03    0.19667E-04   -0.94270E-05  5800   0.506E-02
  31 F= -.19149203E+03 E0= -.19138642E+03  d E =-.514710E-01
       N       E                     dE             d eps       ncg     rms          rms(c)
DAV:   1    -0.191516868184E+03   -0.24815E-01   -0.13079E+00  8160   0.243E+00    0.277E-01
DAV:   2    -0.191522366085E+03   -0.54979E-02   -0.37358E-02 13600   0.945E-01    0.640E-01
DAV:   3    -0.191518099982E+03    0.42661E-02   -0.10551E-02 12120   0.764E-01    0.212E-01
DAV:   4    -0.191518168910E+03   -0.68928E-04   -0.25082E-03 11280   0.303E-01    0.257E-01
DAV:   5    -0.191517755264E+03    0.41365E-03   -0.23178E-03 10200   0.335E-01    0.183E-01
DAV:   6    -0.191517442332E+03    0.31293E-03   -0.92011E-04  9680   0.183E-01    0.641E-02
DAV:   7    -0.191517410859E+03    0.31473E-04   -0.18270E-04  6480   0.741E-02
  32 F= -.19151741E+03 E0= -.19141200E+03  d E =-.253771E-01
       N       E                     dE             d eps       ncg     rms          rms(c)
DAV:   1    -0.191510453689E+03    0.69886E-02   -0.13269E+00  8160   0.244E+00    0.243E-01
DAV:   2    -0.191513208624E+03   -0.27549E-02   -0.29773E-02 13240   0.674E-01    0.416E-01
DAV:   3    -0.191512198597E+03    0.10100E-02   -0.74523E-03 12240   0.600E-01    0.302E-01
DAV:   4    -0.191511596698E+03    0.60190E-03   -0.27471E-03  9920   0.346E-01    0.198E-01
DAV:   5    -0.191511403744E+03    0.19295E-03   -0.16079E-03  9880   0.294E-01    0.159E-01
DAV:   6    -0.191511175769E+03    0.22797E-03   -0.75385E-04 10320   0.164E-01    0.631E-02
DAV:   7    -0.191511228370E+03   -0.52601E-04   -0.33744E-04  7880   0.123E-01
  33 F= -.19151123E+03 E0= -.19140580E+03  d E =0.618249E-02
       N       E                     dE             d eps       ncg     rms          rms(c)
DAV:   1    -0.191486787806E+03    0.24388E-01   -0.44904E+00  8160   0.443E+00    0.451E-01
DAV:   2    -0.191505085811E+03   -0.18298E-01   -0.11281E-01 12080   0.144E+00    0.117E+00
DAV:   3    -0.191492904880E+03    0.12181E-01   -0.32531E-02 12480   0.130E+00    0.454E-01
DAV:   4    -0.191492057107E+03    0.84777E-03   -0.64995E-03 10960   0.527E-01    0.358E-01
DAV:   5    -0.191490966099E+03    0.10910E-02   -0.40703E-03 12120   0.487E-01    0.226E-01
DAV:   6    -0.191490636937E+03    0.32916E-03   -0.18627E-03 11680   0.267E-01    0.127E-01
DAV:   7    -0.191490841857E+03   -0.20492E-03   -0.14256E-03 10200   0.256E-01    0.207E-01
DAV:   8    -0.191490407120E+03    0.43474E-03   -0.77636E-04  8400   0.196E-01    0.354E-02
DAV:   9    -0.191490406694E+03    0.42602E-06   -0.50148E-05  5600   0.340E-02
  34 F= -.19149041E+03 E0= -.19138497E+03  d E =0.208217E-01
       N       E                     dE             d eps       ncg     rms          rms(c)
DAV:   1    -0.191544729712E+03   -0.54323E-01   -0.59459E+00  8160   0.517E+00    0.588E-01
DAV:   2    -0.191575735761E+03   -0.31006E-01   -0.18869E-01 13600   0.211E+00    0.156E+00
DAV:   3    -0.191553687268E+03    0.22048E-01   -0.61147E-02 12120   0.177E+00    0.578E-01
DAV:   4    -0.191553313956E+03    0.37331E-03   -0.14317E-02 11520   0.811E-01    0.583E-01
DAV:   5    -0.191550291716E+03    0.30222E-02   -0.90405E-03 11240   0.692E-01    0.303E-01
DAV:   6    -0.191549299782E+03    0.99193E-03   -0.31436E-03 11440   0.304E-01    0.122E-01
DAV:   7    -0.191549262435E+03    0.37346E-04   -0.11794E-03 11840   0.168E-01    0.130E-01
DAV:   8    -0.191549116032E+03    0.14640E-03   -0.54144E-04  8800   0.166E-01    0.746E-02
DAV:   9    -0.191549058445E+03    0.57587E-04   -0.11901E-04  6040   0.733E-02
  35 F= -.19154906E+03 E0= -.19144463E+03  d E =-.586518E-01
       N       E                     dE             d eps       ncg     rms          rms(c)
DAV:   1    -0.191557932756E+03   -0.88167E-02   -0.45839E-01  8160   0.144E+00    0.138E-01
DAV:   2    -0.191559116527E+03   -0.11838E-02   -0.10405E-02 13040   0.396E-01    0.275E-01
DAV:   3    -0.191558558083E+03    0.55844E-03   -0.23373E-03 10680   0.346E-01    0.157E-01
DAV:   4    -0.191558473204E+03    0.84879E-04   -0.69536E-04  8320   0.189E-01
  36 F= -.19155847E+03 E0= -.19145449E+03  d E =-.941476E-02
       N       E                     dE             d eps       ncg     rms          rms(c)
DAV:   1    -0.191586932191E+03   -0.28374E-01   -0.51379E+00  8160   0.474E+00    0.461E-01
DAV:   2    -0.191602323863E+03   -0.15392E-01   -0.11984E-01 12200   0.139E+00    0.103E+00
DAV:   3    -0.191594656652E+03    0.76672E-02   -0.34980E-02 12520   0.128E+00    0.559E-01
DAV:   4    -0.191591838204E+03    0.28184E-02   -0.66913E-03 10840   0.505E-01    0.221E-01
DAV:   5    -0.191591704875E+03    0.13333E-03   -0.29805E-03 12040   0.359E-01    0.257E-01
DAV:   6    -0.191591396563E+03    0.30831E-03   -0.24759E-03 11800   0.370E-01    0.176E-01
DAV:   7    -0.191591206010E+03    0.19055E-03   -0.11187E-03  9920   0.220E-01    0.135E-01
DAV:   8    -0.191591047397E+03    0.15861E-03   -0.48167E-04  8600   0.159E-01    0.599E-02
DAV:   9    -0.191591010961E+03    0.36436E-04   -0.79666E-05  5880   0.589E-02
  37 F= -.19159101E+03 E0= -.19148777E+03  d E =-.325378E-01
       N       E                     dE             d eps       ncg     rms          rms(c)
DAV:   1    -0.191614672502E+03   -0.23625E-01   -0.49921E+00  8160   0.476E+00    0.473E-01
DAV:   2    -0.191628737329E+03   -0.14065E-01   -0.11959E-01 13560   0.143E+00    0.980E-01
DAV:   3    -0.191621394920E+03    0.73424E-02   -0.27386E-02 11640   0.121E+00    0.504E-01
DAV:   4    -0.191620809788E+03    0.58513E-03   -0.87620E-03 11800   0.675E-01    0.472E-01
DAV:   5    -0.191618874076E+03    0.19357E-02   -0.58197E-03 10360   0.603E-01    0.265E-01
DAV:   6    -0.191618330116E+03    0.54396E-03   -0.24126E-03 11080   0.270E-01    0.124E-01
DAV:   7    -0.191618206231E+03    0.12388E-03   -0.88350E-04 10840   0.165E-01    0.121E-01
DAV:   8    -0.191618068620E+03    0.13761E-03   -0.39708E-04  8680   0.141E-01    0.493E-02
DAV:   9    -0.191618045478E+03    0.23142E-04   -0.62903E-05  5960   0.486E-02
  38 F= -.19161805E+03 E0= -.19151607E+03  d E =-.270345E-01
       N       E                     dE             d eps       ncg     rms          rms(c)
DAV:   1    -0.191700231991E+03   -0.82163E-01   -0.13586E+01  8160   0.790E+00    0.818E-01
DAV:   2    -0.191740504435E+03   -0.40272E-01   -0.35574E-01 13440   0.245E+00    0.160E+00
DAV:   3    -0.191719298724E+03    0.21206E-01   -0.77996E-02 12240   0.211E+00    0.835E-01
DAV:   4    -0.191717131360E+03    0.21674E-02   -0.24854E-02 12200   0.113E+00    0.807E-01
DAV:   5    -0.191712266077E+03    0.48653E-02   -0.17044E-02 12080   0.104E+00    0.530E-01
DAV:   6    -0.191709508989E+03    0.27571E-02   -0.81793E-03 11120   0.559E-01    0.213E-01
DAV:   7    -0.191709235986E+03    0.27300E-03   -0.26169E-03 12400   0.276E-01    0.205E-01
DAV:   8    -0.191708842669E+03    0.39332E-03   -0.11359E-03 10440   0.242E-01    0.799E-02
DAV:   9    -0.191708775259E+03    0.67409E-04   -0.14869E-04  6160   0.768E-02
  39 F= -.19170878E+03 E0= -.19161028E+03  d E =-.907298E-01
       N       E                     dE             d eps       ncg     rms          rms(c)
DAV:   1    -0.191785426112E+03   -0.76583E-01   -0.95559E+00  8160   0.660E+00    0.669E-01
DAV:   2    -0.191810208986E+03   -0.24783E-01   -0.26769E-01 12280   0.188E+00    0.104E+00
DAV:   3    -0.191803273506E+03    0.69355E-02   -0.47753E-02 12080   0.163E+00    0.775E-01
DAV:   4    -0.191798940371E+03    0.43331E-02   -0.15944E-02 12200   0.935E-01    0.532E-01
DAV:   5    -0.191797164232E+03    0.17761E-02   -0.86160E-03 11920   0.758E-01    0.445E-01
DAV:   6    -0.191795557453E+03    0.16068E-02   -0.56551E-03 12360   0.540E-01    0.218E-01
DAV:   7    -0.191795519961E+03    0.37492E-04   -0.25363E-03 11840   0.308E-01    0.238E-01
DAV:   8    -0.191794969280E+03    0.55068E-03   -0.12899E-03  9840   0.264E-01    0.746E-02
DAV:   9    -0.191794907758E+03    0.61522E-04   -0.13459E-04  5800   0.718E-02
  40 F= -.19179491E+03 E0= -.19169957E+03  d E =-.861325E-01
       N       E                     dE             d eps       ncg     rms          rms(c)
DAV:   1    -0.191844460897E+03   -0.49492E-01   -0.37121E+00  8160   0.412E+00    0.455E-01
DAV:   2    -0.191854910853E+03   -0.10450E-01   -0.11778E-01 12480   0.127E+00    0.705E-01
DAV:   3    -0.191851669885E+03    0.32410E-02   -0.21980E-02 12200   0.112E+00    0.519E-01
DAV:   4    -0.191849677635E+03    0.19922E-02   -0.82413E-03 12320   0.658E-01    0.348E-01
DAV:   5    -0.191848949542E+03    0.72809E-03   -0.45609E-03 10520   0.519E-01    0.302E-01
DAV:   6    -0.191848139170E+03    0.81037E-03   -0.26333E-03 11440   0.366E-01    0.127E-01
DAV:   7    -0.191847941289E+03    0.19788E-03   -0.63951E-04  9960   0.111E-01    0.416E-02
DAV:   8    -0.191847902295E+03    0.38994E-04   -0.10390E-04  7040   0.503E-02
  41 F= -.19184790E+03 E0= -.19175378E+03  d E =-.529945E-01
       N       E                     dE             d eps       ncg     rms          rms(c)
DAV:   1    -0.191915318520E+03   -0.67377E-01   -0.10818E+01  8160   0.697E+00    0.685E-01
DAV:   2    -0.191939375669E+03   -0.24057E-01   -0.30256E-01 12200   0.174E+00    0.839E-01
DAV:   3    -0.191940657296E+03   -0.12816E-02   -0.52192E-02 12360   0.164E+00    0.100E+00
DAV:   4    -0.191931532782E+03    0.91245E-02   -0.21243E-02 12280   0.111E+00    0.410E-01
DAV:   5    -0.191930073737E+03    0.14590E-02   -0.63729E-03 11040   0.602E-01    0.345E-01
DAV:   6    -0.191929834100E+03    0.23964E-03   -0.51308E-03 12760   0.575E-01    0.287E-01
DAV:   7    -0.191928907079E+03    0.92702E-03   -0.21142E-03 11240   0.292E-01    0.122E-01
DAV:   8    -0.191928874516E+03    0.32562E-04   -0.72012E-04  8400   0.198E-01
  42 F= -.19192887E+03 E0= -.19183603E+03  d E =-.809722E-01
       N       E                     dE             d eps       ncg     rms          rms(c)
DAV:   1    -0.191945544184E+03   -0.16637E-01   -0.50108E-01  8160   0.158E+00    0.277E-01
DAV:   2    -0.191946614955E+03   -0.10708E-02   -0.25292E-02 10720   0.657E-01    0.388E-01
DAV:   3    -0.191945674907E+03    0.94005E-03   -0.58337E-03 11400   0.628E-01    0.270E-01
DAV:   4    -0.191944957064E+03    0.71784E-03   -0.25781E-03 11520   0.368E-01    0.200E-01
DAV:   5    -0.191944944243E+03    0.12821E-04   -0.20754E-03 10240   0.338E-01    0.223E-01
DAV:   6    -0.191944413215E+03    0.53103E-03   -0.11285E-03  9840   0.236E-01    0.517E-02
DAV:   7    -0.191944381524E+03    0.31691E-04   -0.12995E-04  5600   0.560E-02
  43 F= -.19194438E+03 E0= -.19185119E+03  d E =-.155070E-01
       N       E                     dE             d eps       ncg     rms          rms(c)
DAV:   1    -0.191971743170E+03   -0.27330E-01   -0.22180E+00  8160   0.315E+00    0.313E-01
DAV:   2    -0.191976874471E+03   -0.51313E-02   -0.66295E-02 12240   0.789E-01    0.365E-01
DAV:   3    -0.191977699429E+03   -0.82496E-03   -0.10543E-02 12000   0.734E-01    0.496E-01
DAV:   4    -0.191975350417E+03    0.23490E-02   -0.43822E-03 11520   0.516E-01    0.160E-01
DAV:   5    -0.191975216176E+03    0.13424E-03   -0.10355E-03 10080   0.198E-01    0.142E-01
DAV:   6    -0.191975263754E+03   -0.47578E-04   -0.10379E-03 11520   0.260E-01    0.151E-01
DAV:   7    -0.191975034994E+03    0.22876E-03   -0.58594E-04  8760   0.178E-01    0.721E-02
DAV:   8    -0.191975010104E+03    0.24889E-04   -0.20655E-04  7520   0.109E-01
  44 F= -.19197501E+03 E0= -.19188195E+03  d E =-.306286E-01
       N       E                     dE             d eps       ncg     rms          rms(c)
DAV:   1    -0.191994894753E+03   -0.19860E-01   -0.12321E+00  8160   0.239E+00    0.294E-01
DAV:   2    -0.191997684124E+03   -0.27894E-02   -0.45764E-02 12280   0.700E-01    0.341E-01
DAV:   3    -0.191997892975E+03   -0.20885E-03   -0.77208E-03 12200   0.665E-01    0.384E-01
DAV:   4    -0.191996491447E+03    0.14015E-02   -0.39724E-03 12120   0.474E-01    0.209E-01
DAV:   5    -0.191996323669E+03    0.16778E-03   -0.19377E-03  9640   0.334E-01    0.194E-01
DAV:   6    -0.191995984179E+03    0.33949E-03   -0.11038E-03  9960   0.235E-01    0.775E-02
DAV:   7    -0.191995896764E+03    0.87415E-04   -0.19286E-04  5800   0.780E-02
  45 F= -.19199590E+03 E0= -.19190221E+03  d E =-.208867E-01
       N       E                     dE             d eps       ncg     rms          rms(c)
DAV:   1    -0.192016515607E+03   -0.20531E-01   -0.24824E+00  8160   0.334E+00    0.338E-01
DAV:   2    -0.192022823263E+03   -0.63077E-02   -0.80900E-02 12200   0.846E-01    0.371E-01
DAV:   3    -0.192023960010E+03   -0.11367E-02   -0.10808E-02 11920   0.773E-01    0.519E-01
DAV:   4    -0.192021352417E+03    0.26076E-02   -0.48273E-03 10880   0.552E-01    0.195E-01
DAV:   5    -0.192021288496E+03    0.63921E-04   -0.14634E-03 10080   0.299E-01    0.188E-01
DAV:   6    -0.192021068505E+03    0.21999E-03   -0.12541E-03 11480   0.264E-01    0.108E-01
DAV:   7    -0.192020941917E+03    0.12659E-03   -0.49561E-04  8720   0.137E-01    0.714E-02
DAV:   8    -0.192020911572E+03    0.30345E-04   -0.20313E-04  7440   0.108E-01
  46 F= -.19202091E+03 E0= -.19192685E+03  d E =-.250148E-01
       N       E                     dE             d eps       ncg     rms          rms(c)
DAV:   1    -0.192028230399E+03   -0.72885E-02   -0.23479E-01  8160   0.109E+00    0.193E-01
DAV:   2    -0.192028410031E+03   -0.17963E-03   -0.11822E-02 10640   0.397E-01    0.219E-01
DAV:   3    -0.192028400471E+03    0.95597E-05   -0.26946E-03 11360   0.419E-01    0.224E-01
DAV:   4    -0.192027873590E+03    0.52688E-03   -0.15902E-03 10080   0.299E-01    0.142E-01
DAV:   5    -0.192027882148E+03   -0.85579E-05   -0.10490E-03  9640   0.239E-01    0.153E-01
DAV:   6    -0.192027607097E+03    0.27505E-03   -0.50612E-04  8480   0.160E-01    0.276E-02
DAV:   7    -0.192027609813E+03   -0.27156E-05   -0.70236E-05  5680   0.477E-02
  47 F= -.19202761E+03 E0= -.19193298E+03  d E =-.669824E-02
       N       E                     dE             d eps       ncg     rms          rms(c)
DAV:   1    -0.192037465805E+03   -0.98587E-02   -0.73655E-01  8160   0.182E+00    0.191E-01
DAV:   2    -0.192039599535E+03   -0.21337E-02   -0.24998E-02 11160   0.531E-01    0.251E-01
DAV:   3    -0.192039459646E+03    0.13989E-03   -0.34202E-03 12240   0.454E-01    0.233E-01
DAV:   4    -0.192038907663E+03    0.55198E-03   -0.12010E-03 10520   0.266E-01    0.120E-01
DAV:   5    -0.192038880728E+03    0.26934E-04   -0.56516E-04  8440   0.189E-01
  48 F= -.19203888E+03 E0= -.19194428E+03  d E =-.112709E-01
       N       E                     dE             d eps       ncg     rms          rms(c)
DAV:   1    -0.192048936418E+03   -0.10029E-01   -0.96051E-01  8160   0.211E+00    0.244E-01
DAV:   2    -0.192051017075E+03   -0.20807E-02   -0.34069E-02 11760   0.495E-01    0.209E-01
DAV:   3    -0.192052342833E+03   -0.13258E-02   -0.59064E-03 12320   0.552E-01    0.429E-01
DAV:   4    -0.192050403791E+03    0.19390E-02   -0.30814E-03 11120   0.421E-01    0.104E-01
DAV:   5    -0.192050578665E+03   -0.17487E-03   -0.88037E-04 10040   0.234E-01    0.158E-01
DAV:   6    -0.192050344393E+03    0.23427E-03   -0.58335E-04  9680   0.198E-01    0.643E-02
DAV:   7    -0.192050299974E+03    0.44419E-04   -0.15178E-04  6160   0.829E-02
  49 F= -.19205030E+03 E0= -.19195490E+03  d E =-.114192E-01
       N       E                     dE             d eps       ncg     rms          rms(c)
DAV:   1    -0.192063039685E+03   -0.12695E-01   -0.30617E+00  8160   0.373E+00    0.410E-01
DAV:   2    -0.192070329544E+03   -0.72899E-02   -0.10169E-01 11320   0.880E-01    0.398E-01
DAV:   3    -0.192072103460E+03   -0.17739E-02   -0.15746E-02 12320   0.916E-01    0.601E-01
DAV:   4    -0.192068331077E+03    0.37724E-02   -0.63334E-03 11080   0.605E-01    0.234E-01
DAV:   5    -0.192068410006E+03   -0.78928E-04   -0.24180E-03 11000   0.423E-01    0.268E-01
DAV:   6    -0.192067849008E+03    0.56100E-03   -0.16207E-03 11280   0.285E-01    0.990E-02
DAV:   7    -0.192067720708E+03    0.12830E-03   -0.53665E-04 10480   0.120E-01    0.683E-02
DAV:   8    -0.192067688953E+03    0.31756E-04   -0.17635E-04  7480   0.980E-02
  50 F= -.19206769E+03 E0= -.19197171E+03  d E =-.173890E-01
       N       E                     dE             d eps       ncg     rms          rms(c)
DAV:   1    -0.192076694052E+03   -0.89733E-02   -0.14244E+00  8160   0.255E+00    0.295E-01
DAV:   2    -0.192080307460E+03   -0.36134E-02   -0.45520E-02 10920   0.659E-01    0.365E-01
DAV:   3    -0.192080062842E+03    0.24462E-03   -0.90620E-03 12360   0.704E-01    0.375E-01
DAV:   4    -0.192078752616E+03    0.13102E-02   -0.28808E-03 12120   0.401E-01    0.194E-01
DAV:   5    -0.192078660315E+03    0.92300E-04   -0.14716E-03 10120   0.319E-01    0.186E-01
DAV:   6    -0.192078371622E+03    0.28869E-03   -0.78194E-04  9920   0.191E-01    0.629E-02
DAV:   7    -0.192078323809E+03    0.47813E-04   -0.17672E-04  6760   0.666E-02
  51 F= -.19207832E+03 E0= -.19198245E+03  d E =-.106349E-01
       N       E                     dE             d eps       ncg     rms          rms(c)
DAV:   1    -0.192078772232E+03   -0.40061E-03   -0.25074E-03  8720   0.127E-01    0.385E-02
DAV:   2    -0.192079095024E+03   -0.32279E-03   -0.70545E-04 10080   0.194E-01    0.178E-01
DAV:   3    -0.192078747032E+03    0.34799E-03   -0.48618E-04  8360   0.171E-01    0.126E-02
DAV:   4    -0.192078761126E+03   -0.14094E-04   -0.20056E-05  5560   0.195E-02
  52 F= -.19207876E+03 E0= -.19198288E+03  d E =-.437317E-03
       N       E                     dE             d eps       ncg     rms          rms(c)
DAV:   1    -0.192078586858E+03    0.16017E-03   -0.51819E-02  8160   0.483E-01    0.532E-02
DAV:   2    -0.192078725648E+03   -0.13879E-03   -0.20743E-03 11240   0.132E-01    0.376E-02
DAV:   3    -0.192078731973E+03   -0.63244E-05   -0.12815E-04  6360   0.774E-02
  53 F= -.19207873E+03 E0= -.19198316E+03  d E =0.291532E-04
       N       E                     dE             d eps       ncg     rms          rms(c)
DAV:   1    -0.192083982852E+03   -0.52572E-02   -0.41541E-01  8160   0.137E+00    0.165E-01
DAV:   2    -0.192085480677E+03   -0.14978E-02   -0.14801E-02 10800   0.436E-01    0.263E-01
DAV:   3    -0.192084944348E+03    0.53633E-03   -0.30497E-03 12200   0.424E-01    0.183E-01
DAV:   4    -0.192084734193E+03    0.21016E-03   -0.10583E-03 10080   0.227E-01    0.127E-01
DAV:   5    -0.192084605109E+03    0.12908E-03   -0.57794E-04  8840   0.179E-01    0.822E-02
DAV:   6    -0.192084560280E+03    0.44829E-04   -0.22833E-04  8080   0.103E-01
  54 F= -.19208456E+03 E0= -.19198902E+03  d E =-.582831E-02
       N       E                     dE             d eps       ncg     rms          rms(c)
DAV:   1    -0.192086132817E+03   -0.15277E-02   -0.50269E-02  8160   0.495E-01    0.930E-02
DAV:   2    -0.192087326266E+03   -0.11934E-02   -0.37454E-03 11000   0.395E-01    0.338E-01
DAV:   3    -0.192086091822E+03    0.12344E-02   -0.18440E-03 10120   0.328E-01    0.549E-02
DAV:   4    -0.192086118717E+03   -0.26896E-04   -0.16089E-04  7520   0.101E-01
  55 F= -.19208612E+03 E0= -.19199106E+03  d E =-.155844E-02
       N       E                     dE             d eps       ncg     rms          rms(c)
DAV:   1    -0.192087295200E+03   -0.12034E-02   -0.11858E-01  8160   0.731E-01    0.947E-02
DAV:   2    -0.192088115226E+03   -0.82003E-03   -0.60050E-03 11240   0.338E-01    0.220E-01
DAV:   3    -0.192087589150E+03    0.52608E-03   -0.13107E-03 10200   0.265E-01    0.686E-02
DAV:   4    -0.192087631705E+03   -0.42555E-04   -0.30258E-04  8680   0.129E-01
  56 F= -.19208763E+03 E0= -.19199242E+03  d E =-.151299E-02
       N       E                     dE             d eps       ncg     rms          rms(c)
DAV:   1    -0.192089098499E+03   -0.15093E-02   -0.18143E-01  8160   0.920E-01    0.121E-01
DAV:   2    -0.192089594056E+03   -0.49556E-03   -0.75539E-03 12040   0.281E-01    0.150E-01
DAV:   3    -0.192089629055E+03   -0.34999E-04   -0.13834E-03 11000   0.278E-01    0.167E-01
DAV:   4    -0.192089334177E+03    0.29488E-03   -0.66169E-04  8320   0.183E-01    0.702E-02
DAV:   5    -0.192089352013E+03   -0.17837E-04   -0.30783E-04  8320   0.137E-01
  57 F= -.19208935E+03 E0= -.19199341E+03  d E =-.172031E-02
       N       E                     dE             d eps       ncg     rms          rms(c)
DAV:   1    -0.192093910882E+03   -0.45767E-02   -0.34047E-01  8160   0.126E+00    0.175E-01
DAV:   2    -0.192096479991E+03   -0.25691E-02   -0.13338E-02 12080   0.624E-01    0.454E-01
DAV:   3    -0.192094066246E+03    0.24137E-02   -0.53897E-03 11600   0.531E-01    0.156E-01
DAV:   4    -0.192093971514E+03    0.94731E-04   -0.91227E-04  9680   0.216E-01
  58 F= -.19209397E+03 E0= -.19199916E+03  d E =-.461950E-02
       N       E                     dE             d eps       ncg     rms          rms(c)
DAV:   1    -0.192090591189E+03    0.34751E-02   -0.12011E-01  8160   0.766E-01    0.155E-01
DAV:   2    -0.192094866439E+03   -0.42753E-02   -0.93721E-03 12160   0.766E-01    0.601E-01
DAV:   3    -0.192090441865E+03    0.44246E-02   -0.49894E-03 10720   0.623E-01    0.741E-02
DAV:   4    -0.192090529750E+03   -0.87885E-04   -0.41189E-04  8280   0.146E-01
  59 F= -.19209053E+03 E0= -.19199516E+03  d E =0.344176E-02
       N       E                     dE             d eps       ncg     rms          rms(c)
DAV:   1    -0.192079152743E+03    0.11289E-01   -0.36830E+00  8160   0.416E+00    0.603E-01
DAV:   2    -0.192105769114E+03   -0.26616E-01   -0.13135E-01 12280   0.210E+00    0.156E+00
DAV:   3    -0.192078760287E+03    0.27009E-01   -0.60698E-02 12280   0.184E+00    0.491E-01
DAV:   4    -0.192079023280E+03   -0.26299E-03   -0.11343E-02 12440   0.782E-01    0.565E-01
DAV:   5    -0.192077105862E+03    0.19174E-02   -0.88146E-03 12160   0.777E-01    0.385E-01
DAV:   6    -0.192075095233E+03    0.20106E-02   -0.34560E-03 10920   0.373E-01    0.944E-02
DAV:   7    -0.192075397415E+03   -0.30218E-03   -0.12017E-03 10800   0.230E-01    0.185E-01
DAV:   8    -0.192075057512E+03    0.33990E-03   -0.76157E-04  8800   0.205E-01    0.524E-02
DAV:   9    -0.192075026648E+03    0.30864E-04   -0.82418E-05  6040   0.520E-02
  60 F= -.19207503E+03 E0= -.19197648E+03  d E =0.155031E-01
       N       E                     dE             d eps       ncg     rms          rms(c)
DAV:   1    -0.192095410532E+03   -0.20353E-01   -0.37101E+00  8160   0.417E+00    0.603E-01
DAV:   2    -0.192119069425E+03   -0.23659E-01   -0.13086E-01 12120   0.211E+00    0.142E+00
DAV:   3    -0.192094501235E+03    0.24568E-01   -0.50596E-02 12120   0.169E+00    0.445E-01
DAV:   4    -0.192095541579E+03   -0.10403E-02   -0.11198E-02 12160   0.766E-01    0.583E-01
DAV:   5    -0.192093262884E+03    0.22787E-02   -0.94088E-03 11240   0.795E-01    0.375E-01
DAV:   6    -0.192091381183E+03    0.18817E-02   -0.32045E-03 10920   0.368E-01    0.868E-02
DAV:   7    -0.192091569947E+03   -0.18876E-03   -0.91605E-04 11480   0.189E-01    0.147E-01
DAV:   8    -0.192091362225E+03    0.20772E-03   -0.52412E-04  8880   0.174E-01    0.514E-02
DAV:   9    -0.192091338135E+03    0.24089E-04   -0.78130E-05  6080   0.534E-02
  61 F= -.19209134E+03 E0= -.19199624E+03  d E =-.163115E-01
       N       E                     dE             d eps       ncg     rms          rms(c)
DAV:   1    -0.192096988508E+03   -0.56263E-02   -0.33323E-01  8160   0.124E+00    0.167E-01
DAV:   2    -0.192098646820E+03   -0.16583E-02   -0.96159E-03 11840   0.500E-01    0.364E-01
DAV:   3    -0.192096983619E+03    0.16632E-02   -0.39361E-03 12320   0.472E-01    0.140E-01
DAV:   4    -0.192096948630E+03    0.34989E-04   -0.80227E-04  9920   0.194E-01
  62 F= -.19209695E+03 E0= -.19200249E+03  d E =-.561049E-02
       N       E                     dE             d eps       ncg     rms          rms(c)
DAV:   1    -0.192090215897E+03    0.67677E-02   -0.52902E-01  8160   0.158E+00    0.219E-01
DAV:   2    -0.192095969519E+03   -0.57536E-02   -0.20486E-02 12240   0.908E-01    0.700E-01
DAV:   3    -0.192090375713E+03    0.55938E-02   -0.91237E-03 11920   0.764E-01    0.143E-01
DAV:   4    -0.192090665066E+03   -0.28935E-03   -0.16139E-03  9960   0.298E-01    0.213E-01
DAV:   5    -0.192090190700E+03    0.47437E-03   -0.86775E-04  9360   0.228E-01    0.629E-02
DAV:   6    -0.192090153694E+03    0.37007E-04   -0.15836E-04  6400   0.656E-02
  63 F= -.19209015E+03 E0= -.19199444E+03  d E =0.679494E-02
       N       E                     dE             d eps       ncg     rms          rms(c)
DAV:   1    -0.192075244646E+03    0.14946E-01   -0.49231E+00  8160   0.479E+00    0.650E-01
DAV:   2    -0.192099205948E+03   -0.23961E-01   -0.15085E-01 12360   0.200E+00    0.139E+00
DAV:   3    -0.192076523983E+03    0.22682E-01   -0.58970E-02 12400   0.185E+00    0.528E-01
DAV:   4    -0.192075651884E+03    0.87210E-03   -0.11552E-02 12280   0.695E-01    0.484E-01
DAV:   5    -0.192075109746E+03    0.54214E-03   -0.97569E-03 12000   0.802E-01    0.497E-01
DAV:   6    -0.192072461716E+03    0.26480E-02   -0.47119E-03 11760   0.492E-01    0.117E-01
DAV:   7    -0.192072450125E+03    0.11591E-04   -0.92268E-04 10400   0.157E-01
  64 F= -.19207245E+03 E0= -.19197350E+03  d E =0.177036E-01
       N       E                     dE             d eps       ncg     rms          rms(c)
DAV:   1    -0.192073764143E+03   -0.13024E-02   -0.10802E-01  8160   0.726E-01    0.123E-01
DAV:   2    -0.192074933452E+03   -0.11693E-02   -0.68754E-03 11240   0.420E-01    0.312E-01
DAV:   3    -0.192073897876E+03    0.10356E-02   -0.21287E-03 10520   0.355E-01    0.967E-02
DAV:   4    -0.192073912564E+03   -0.14688E-04   -0.51143E-04  8400   0.164E-01
  65 F= -.19207391E+03 E0= -.19197486E+03  d E =-.146244E-02
       N       E                     dE             d eps       ncg     rms          rms(c)
DAV:   1    -0.192090639729E+03   -0.16742E-01   -0.37931E+00  8160   0.420E+00    0.542E-01
DAV:   2    -0.192104879787E+03   -0.14240E-01   -0.10373E-01 12240   0.145E+00    0.109E+00
DAV:   3    -0.192092966958E+03    0.11913E-01   -0.41321E-02 12080   0.145E+00    0.598E-01
DAV:   4    -0.192091142656E+03    0.18243E-02   -0.10024E-02 12280   0.718E-01    0.414E-01
DAV:   5    -0.192090091755E+03    0.10509E-02   -0.63112E-03 11240   0.655E-01    0.335E-01
DAV:   6    -0.192088793298E+03    0.12985E-02   -0.27062E-03 11800   0.382E-01    0.122E-01
DAV:   7    -0.192088921772E+03   -0.12847E-03   -0.11681E-03 10560   0.227E-01    0.167E-01
DAV:   8    -0.192088661666E+03    0.26011E-03   -0.69216E-04  9080   0.199E-01    0.597E-02
DAV:   9    -0.192088619034E+03    0.42632E-04   -0.87557E-05  6440   0.579E-02
  66 F= -.19208862E+03 E0= -.19199236E+03  d E =-.147065E-01
       N       E                     dE             d eps       ncg     rms          rms(c)
DAV:   1    -0.192087318315E+03    0.13434E-02   -0.64419E-02  8160   0.544E-01    0.690E-02
DAV:   2    -0.192087687487E+03   -0.36917E-03   -0.25133E-03 11440   0.214E-01    0.169E-01
DAV:   3    -0.192087417667E+03    0.26982E-03   -0.73408E-04 10240   0.199E-01    0.654E-02
DAV:   4    -0.192087386350E+03    0.31316E-04   -0.86918E-05  5800   0.677E-02
  67 F= -.19208739E+03 E0= -.19199089E+03  d E =0.123268E-02
       N       E                     dE             d eps       ncg     rms          rms(c)
DAV:   1    -0.192078973923E+03    0.84437E-02   -0.18905E+00  8160   0.296E+00    0.398E-01
DAV:   2    -0.192091192292E+03   -0.12218E-01   -0.72797E-02 11600   0.125E+00    0.102E+00
DAV:   3    -0.192081338082E+03    0.98542E-02   -0.27768E-02 11600   0.119E+00    0.381E-01
DAV:   4    -0.192080742069E+03    0.59601E-03   -0.47827E-03 11480   0.484E-01    0.302E-01
DAV:   5    -0.192079965849E+03    0.77622E-03   -0.29312E-03 11240   0.450E-01    0.213E-01
DAV:   6    -0.192079509915E+03    0.45593E-03   -0.13728E-03 11040   0.257E-01    0.104E-01
DAV:   7    -0.192079681565E+03   -0.17165E-03   -0.96657E-04 10680   0.221E-01    0.168E-01
DAV:   8    -0.192079385407E+03    0.29616E-03   -0.54630E-04  8440   0.174E-01    0.318E-02
DAV:   9    -0.192079380692E+03    0.47143E-05   -0.39111E-05  5800   0.317E-02
  68 F= -.19207938E+03 E0= -.19198127E+03  d E =0.800566E-02
       N       E                     dE             d eps       ncg     rms          rms(c)
DAV:   1    -0.192076153626E+03    0.32318E-02   -0.66340E-01  8160   0.174E+00    0.223E-01
DAV:   2    -0.192081128712E+03   -0.49751E-02   -0.31034E-02 11480   0.768E-01    0.608E-01
DAV:   3    -0.192077632115E+03    0.34966E-02   -0.85415E-03 11920   0.669E-01    0.184E-01
DAV:   4    -0.192077491405E+03    0.14071E-03   -0.11175E-03  9760   0.231E-01    0.150E-01
DAV:   5    -0.192077278280E+03    0.21313E-03   -0.75518E-04 10120   0.219E-01    0.102E-01
DAV:   6    -0.192077260728E+03    0.17552E-04   -0.48190E-04  9320   0.149E-01
  69 F= -.19207726E+03 E0= -.19197875E+03  d E =0.211996E-02
       N       E                     dE             d eps       ncg     rms          rms(c)
DAV:   1    -0.192075860018E+03    0.14183E-02   -0.40158E-01  8160   0.136E+00    0.179E-01
DAV:   2    -0.192078902175E+03   -0.30422E-02   -0.17778E-02 12360   0.597E-01    0.482E-01
DAV:   3    -0.192076667690E+03    0.22345E-02   -0.52372E-03 12280   0.539E-01    0.150E-01
DAV:   4    -0.192076628277E+03    0.39413E-04   -0.81656E-04  9920   0.197E-01
  70 F= -.19207663E+03 E0= -.19197836E+03  d E =0.632450E-03
       N       E                     dE             d eps       ncg     rms          rms(c)
DAV:   1    -0.192078602088E+03   -0.19344E-02   -0.11415E-01  8160   0.744E-01    0.121E-01
DAV:   2    -0.192079998048E+03   -0.13960E-02   -0.56872E-03 12240   0.441E-01    0.331E-01
DAV:   3    -0.192078604239E+03    0.13938E-02   -0.26487E-03 12160   0.390E-01    0.780E-02
DAV:   4    -0.192078626507E+03   -0.22268E-04   -0.35011E-04  8120   0.125E-01
  71 F= -.19207863E+03 E0= -.19198040E+03  d E =-.199823E-02
       N       E                     dE             d eps       ncg     rms          rms(c)
DAV:   1    -0.192079295984E+03   -0.69175E-03   -0.30789E-02  8160   0.399E-01    0.953E-02
DAV:   2    -0.192081077736E+03   -0.17818E-02   -0.40482E-03 12280   0.442E-01    0.411E-01
DAV:   3    -0.192079270460E+03    0.18073E-02   -0.23868E-03 10520   0.394E-01    0.503E-02
DAV:   4    -0.192079272904E+03   -0.24440E-05   -0.10234E-04  5840   0.631E-02
  72 F= -.19207927E+03 E0= -.19198123E+03  d E =-.646397E-03
       N       E                     dE             d eps       ncg     rms          rms(c)
DAV:   1    -0.192083451239E+03   -0.41808E-02   -0.31517E-01  8160   0.122E+00    0.180E-01
DAV:   2    -0.192085367239E+03   -0.19160E-02   -0.11468E-02 11840   0.495E-01    0.416E-01
DAV:   3    -0.192083602328E+03    0.17649E-02   -0.49818E-03 11800   0.511E-01    0.181E-01
DAV:   4    -0.192083488968E+03    0.11336E-03   -0.10618E-03  9920   0.226E-01    0.143E-01
DAV:   5    -0.192083329449E+03    0.15952E-03   -0.68811E-04 10280   0.214E-01    0.995E-02
DAV:   6    -0.192083231873E+03    0.97576E-04   -0.29952E-04  9240   0.121E-01
  73 F= -.19208323E+03 E0= -.19198570E+03  d E =-.395897E-02
       N       E                     dE             d eps       ncg     rms          rms(c)
DAV:   1    -0.192082917076E+03    0.41237E-03   -0.23412E-03  9160   0.142E-01    0.713E-02
DAV:   2    -0.192084244927E+03   -0.13279E-02   -0.26759E-03 11160   0.397E-01    0.354E-01
DAV:   3    -0.192082843054E+03    0.14019E-02   -0.18497E-03 10080   0.331E-01    0.195E-02
DAV:   4    -0.192082864891E+03   -0.21837E-04   -0.23559E-05  5800   0.305E-02
  74 F= -.19208286E+03 E0= -.19198533E+03  d E =0.366982E-03
       N       E                     dE             d eps       ncg     rms          rms(c)
DAV:   1    -0.192086071445E+03   -0.32284E-02   -0.20118E-01  8160   0.966E-01    0.134E-01
DAV:   2    -0.192087695663E+03   -0.16242E-02   -0.75309E-03 11560   0.521E-01    0.371E-01
DAV:   3    -0.192086127755E+03    0.15679E-02   -0.30362E-03 11880   0.422E-01    0.106E-01
DAV:   4    -0.192086163303E+03   -0.35548E-04   -0.57264E-04  8400   0.178E-01
  75 F= -.19208616E+03 E0= -.19198921E+03  d E =-.329841E-02
       N       E                     dE             d eps       ncg     rms          rms(c)
DAV:   1    -0.192085412706E+03    0.71505E-03   -0.13431E-02  8200   0.289E-01    0.761E-02
DAV:   2    -0.192086554497E+03   -0.11418E-02   -0.21450E-03 11680   0.384E-01    0.308E-01
DAV:   3    -0.192085376357E+03    0.11781E-02   -0.12440E-03  9760   0.315E-01    0.411E-02
DAV:   4    -0.192085387551E+03   -0.11194E-04   -0.61826E-05  5480   0.578E-02
  76 F= -.19208539E+03 E0= -.19198848E+03  d E =0.775752E-03
       N       E                     dE             d eps       ncg     rms          rms(c)
DAV:   1    -0.192084215530E+03    0.11608E-02   -0.93641E-02  8160   0.654E-01    0.101E-01
DAV:   2    -0.192085674710E+03   -0.14592E-02   -0.48637E-03 12400   0.461E-01    0.354E-01
DAV:   3    -0.192084259809E+03    0.14149E-02   -0.20003E-03 10200   0.361E-01    0.667E-02
DAV:   4    -0.192084293319E+03   -0.33510E-04   -0.30195E-04  8240   0.126E-01
  77 F= -.19208429E+03 E0= -.19198709E+03  d E =0.109423E-02
       N       E                     dE             d eps       ncg     rms          rms(c)
DAV:   1    -0.192082293184E+03    0.19666E-02   -0.18554E-01  8160   0.928E-01    0.146E-01
DAV:   2    -0.192084195832E+03   -0.19026E-02   -0.84203E-03 12120   0.543E-01    0.400E-01
DAV:   3    -0.192082372314E+03    0.18235E-02   -0.30562E-03 11480   0.452E-01    0.116E-01
DAV:   4    -0.192082373703E+03   -0.13891E-05   -0.78058E-04  8560   0.188E-01
  78 F= -.19208237E+03 E0= -.19198463E+03  d E =0.191962E-02
       N       E                     dE             d eps       ncg     rms          rms(c)
DAV:   1    -0.192081732578E+03    0.63974E-03   -0.10541E-02  9200   0.279E-01    0.919E-02
DAV:   2    -0.192082862287E+03   -0.11297E-02   -0.23906E-03 12280   0.360E-01    0.319E-01
DAV:   3    -0.192081657931E+03    0.12044E-02   -0.17018E-03 10160   0.333E-01    0.805E-02
DAV:   4    -0.192081622266E+03    0.35664E-04   -0.21867E-04  7120   0.996E-02
  79 F= -.19208162E+03 E0= -.19198368E+03  d E =0.751436E-03
       N       E                     dE             d eps       ncg     rms          rms(c)
DAV:   1    -0.192087613173E+03   -0.59552E-02   -0.73047E-01  8160   0.183E+00    0.231E-01
DAV:   2    -0.192092127721E+03   -0.45145E-02   -0.23687E-02 11760   0.834E-01    0.592E-01
DAV:   3    -0.192088104574E+03    0.40231E-02   -0.75677E-03 12240   0.686E-01    0.167E-01
DAV:   4    -0.192088360005E+03   -0.25543E-03   -0.20571E-03 10440   0.316E-01    0.238E-01
DAV:   5    -0.192087824239E+03    0.53577E-03   -0.12048E-03 10000   0.270E-01    0.933E-02
DAV:   6    -0.192087740285E+03    0.83954E-04   -0.32630E-04  8720   0.106E-01
  80 F= -.19208774E+03 E0= -.19199122E+03  d E =-.611802E-02
       N       E                     dE             d eps       ncg     rms          rms(c)
DAV:   1    -0.192089173278E+03   -0.13490E-02   -0.36125E-02  8160   0.419E-01    0.663E-02
DAV:   2    -0.192089566021E+03   -0.39274E-03   -0.15953E-03 11560   0.239E-01    0.195E-01
DAV:   3    -0.192089160415E+03    0.40561E-03   -0.70614E-04  8840   0.209E-01    0.439E-02
DAV:   4    -0.192089181732E+03   -0.21317E-04   -0.11103E-04  5960   0.697E-02
  81 F= -.19208918E+03 E0= -.19199304E+03  d E =-.144145E-02
       N       E                     dE             d eps       ncg     rms          rms(c)
DAV:   1    -0.192087875468E+03    0.12849E-02   -0.26962E-02  8160   0.359E-01    0.514E-02
DAV:   2    -0.192088188782E+03   -0.31331E-03   -0.11593E-03 11840   0.199E-01    0.155E-01
DAV:   3    -0.192087880829E+03    0.30795E-03   -0.51305E-04  8880   0.177E-01    0.303E-02
DAV:   4    -0.192087903598E+03   -0.22768E-04   -0.66111E-05  5640   0.637E-02
  82 F= -.19208790E+03 E0= -.19199161E+03  d E =0.127813E-02
       N       E                     dE             d eps       ncg     rms          rms(c)
DAV:   1    -0.192083540494E+03    0.43403E-02   -0.48450E-01  8160   0.151E+00    0.242E-01
DAV:   2    -0.192085320533E+03   -0.17800E-02   -0.16317E-02 11320   0.587E-01    0.456E-01
DAV:   3    -0.192083699819E+03    0.16207E-02   -0.71935E-03 11600   0.632E-01    0.265E-01
DAV:   4    -0.192083452502E+03    0.24732E-03   -0.26643E-03 11160   0.348E-01    0.220E-01
DAV:   5    -0.192082925326E+03    0.52718E-03   -0.14386E-03  9840   0.295E-01    0.105E-01
DAV:   6    -0.192082824628E+03    0.10070E-03   -0.40369E-04  9080   0.132E-01    0.578E-02
DAV:   7    -0.192082834355E+03   -0.97273E-05   -0.19724E-04  8120   0.105E-01
  83 F= -.19208283E+03 E0= -.19198565E+03  d E =0.506924E-02
       N       E                     dE             d eps       ncg     rms          rms(c)
DAV:   1    -0.192078034944E+03    0.47897E-02   -0.49098E-01  8160   0.151E+00    0.199E-01
DAV:   2    -0.192079768595E+03   -0.17337E-02   -0.13897E-02 11680   0.537E-01    0.374E-01
DAV:   3    -0.192078297307E+03    0.14713E-02   -0.51718E-03 12280   0.522E-01    0.186E-01
DAV:   4    -0.192078241321E+03    0.55986E-04   -0.12983E-03 10760   0.251E-01    0.170E-01
DAV:   5    -0.192078075380E+03    0.16594E-03   -0.92098E-04 10040   0.255E-01    0.135E-01
DAV:   6    -0.192077883725E+03    0.19165E-03   -0.36384E-04  8440   0.137E-01    0.390E-02
DAV:   7    -0.192077918489E+03   -0.34763E-04   -0.12943E-04  6760   0.825E-02
  84 F= -.19207792E+03 E0= -.19197965E+03  d E =0.491587E-02
       N       E                     dE             d eps       ncg     rms          rms(c)
DAV:   1    -0.192079886300E+03   -0.20026E-02   -0.15495E-01  8160   0.847E-01    0.137E-01
DAV:   2    -0.192081968025E+03   -0.20817E-02   -0.75948E-03 12360   0.538E-01    0.421E-01
DAV:   3    -0.192079941692E+03    0.20263E-02   -0.29759E-03 10760   0.451E-01    0.945E-02
DAV:   4    -0.192080028319E+03   -0.86627E-04   -0.66060E-04  8320   0.181E-01
  85 F= -.19208003E+03 E0= -.19198204E+03  d E =-.210983E-02
       N       E                     dE             d eps       ncg     rms          rms(c)
DAV:   1    -0.192082120314E+03   -0.21786E-02   -0.10367E-01  8160   0.703E-01    0.124E-01
DAV:   2    -0.192082494834E+03   -0.37452E-03   -0.37461E-03 11640   0.295E-01    0.227E-01
DAV:   3    -0.192082118248E+03    0.37659E-03   -0.19022E-03 11080   0.328E-01    0.164E-01
DAV:   4    -0.192081880189E+03    0.23806E-03   -0.57939E-04  8280   0.174E-01    0.678E-02
DAV:   5    -0.192081856943E+03    0.23247E-04   -0.23717E-04  7400   0.104E-01
  86 F= -.19208186E+03 E0= -.19198403E+03  d E =-.182862E-02
       N       E                     dE             d eps       ncg     rms          rms(c)
DAV:   1    -0.192083954979E+03   -0.20748E-02   -0.81382E-02  8160   0.628E-01    0.841E-02
DAV:   2    -0.192084291113E+03   -0.33613E-03   -0.25828E-03 11480   0.237E-01    0.177E-01
DAV:   3    -0.192084012855E+03    0.27826E-03   -0.10173E-03 10160   0.227E-01    0.816E-02
DAV:   4    -0.192083977232E+03    0.35623E-04   -0.17828E-04  6480   0.955E-02
  87 F= -.19208398E+03 E0= -.19198674E+03  d E =-.212029E-02
       N       E                     dE             d eps       ncg     rms          rms(c)
DAV:   1    -0.192084123463E+03   -0.11061E-03   -0.12318E-02  8160   0.247E-01    0.710E-02
DAV:   2    -0.192084561737E+03   -0.43827E-03   -0.13673E-03 10840   0.282E-01    0.206E-01
DAV:   3    -0.192084038100E+03    0.52364E-03   -0.65358E-04  8960   0.226E-01    0.353E-02
DAV:   4    -0.192084091993E+03   -0.53892E-04   -0.14496E-04  6840   0.919E-02
  88 F= -.19208409E+03 E0= -.19198684E+03  d E =-.114761E-03
       N       E                     dE             d eps       ncg     rms          rms(c)
DAV:   1    -0.192088110820E+03   -0.40727E-02   -0.26491E-01  8160   0.111E+00    0.150E-01
DAV:   2    -0.192089318538E+03   -0.12077E-02   -0.83189E-03 11600   0.442E-01    0.311E-01
DAV:   3    -0.192088212173E+03    0.11064E-02   -0.31481E-03 12280   0.407E-01    0.126E-01
DAV:   4    -0.192088216992E+03   -0.48186E-05   -0.67730E-04  9160   0.183E-01
  89 F= -.19208822E+03 E0= -.19199186E+03  d E =-.412500E-02
       N       E                     dE             d eps       ncg     rms          rms(c)
DAV:   1    -0.192083499629E+03    0.47125E-02   -0.34026E-01  8160   0.128E+00    0.180E-01
DAV:   2    -0.192086853174E+03   -0.33535E-02   -0.12032E-02 12400   0.657E-01    0.544E-01
DAV:   3    -0.192083621956E+03    0.32312E-02   -0.51007E-03 12000   0.604E-01    0.130E-01
DAV:   4    -0.192083871598E+03   -0.24964E-03   -0.12717E-03  9600   0.252E-01    0.191E-01
DAV:   5    -0.192083456470E+03    0.41513E-03   -0.61307E-04  8440   0.195E-01    0.415E-02
DAV:   6    -0.192083473460E+03   -0.16990E-04   -0.14454E-04  6440   0.730E-02
  90 F= -.19208347E+03 E0= -.19198624E+03  d E =0.474353E-02
       N       E                     dE             d eps       ncg     rms          rms(c)
DAV:   1    -0.192075566145E+03    0.78903E-02   -0.15516E+00  8160   0.268E+00    0.357E-01
DAV:   2    -0.192082391949E+03   -0.68258E-02   -0.44568E-02 12240   0.108E+00    0.747E-01
DAV:   3    -0.192076160936E+03    0.62310E-02   -0.16666E-02 12320   0.990E-01    0.294E-01
DAV:   4    -0.192076353799E+03   -0.19286E-03   -0.38651E-03 11880   0.440E-01    0.336E-01
DAV:   5    -0.192075578749E+03    0.77505E-03   -0.31390E-03 11320   0.456E-01    0.220E-01
DAV:   6    -0.192075049536E+03    0.52921E-03   -0.11706E-03  9920   0.214E-01    0.629E-02
DAV:   7    -0.192075071170E+03   -0.21635E-04   -0.30810E-04  8720   0.104E-01
  91 F= -.19207507E+03 E0= -.19197600E+03  d E =0.840229E-02
       N       E                     dE             d eps       ncg     rms          rms(c)
DAV:   1    -0.192067387172E+03    0.76624E-02   -0.30026E+00  8160   0.373E+00    0.477E-01
DAV:   2    -0.192076878692E+03   -0.94915E-02   -0.79630E-02 12200   0.120E+00    0.897E-01
DAV:   3    -0.192069896653E+03    0.69820E-02   -0.31685E-02 12120   0.128E+00    0.532E-01
DAV:   4    -0.192069014614E+03    0.88204E-03   -0.88882E-03 12080   0.676E-01    0.433E-01
DAV:   5    -0.192067494914E+03    0.15197E-02   -0.53150E-03 10560   0.601E-01    0.278E-01
DAV:   6    -0.192066640134E+03    0.85478E-03   -0.21461E-03 11240   0.298E-01    0.103E-01
DAV:   7    -0.192066743691E+03   -0.10356E-03   -0.84464E-04 11240   0.190E-01    0.144E-01
DAV:   8    -0.192066545970E+03    0.19772E-03   -0.48429E-04  8640   0.166E-01    0.483E-02
DAV:   9    -0.192066523166E+03    0.22805E-04   -0.66029E-05  6040   0.495E-02
  92 F= -.19206652E+03 E0= -.19196598E+03  d E =0.854800E-02
       N       E                     dE             d eps       ncg     rms          rms(c)
DAV:   1    -0.192069563288E+03   -0.30173E-02   -0.41509E-01  8160   0.139E+00    0.188E-01
DAV:   2    -0.192072128717E+03   -0.25654E-02   -0.14586E-02 10440   0.604E-01    0.458E-01
DAV:   3    -0.192069900215E+03    0.22285E-02   -0.50181E-03 11360   0.541E-01    0.157E-01
DAV:   4    -0.192069913723E+03   -0.13508E-04   -0.14221E-03 10080   0.243E-01    0.164E-01
DAV:   5    -0.192069668504E+03    0.24522E-03   -0.79730E-04 10480   0.216E-01    0.887E-02
DAV:   6    -0.192069598540E+03    0.69964E-04   -0.27310E-04  7960   0.109E-01
  93 F= -.19206960E+03 E0= -.19196933E+03  d E =-.307537E-02
       N       E                     dE             d eps       ncg     rms          rms(c)
DAV:   1    -0.192066578600E+03    0.30899E-02   -0.11697E+00  8160   0.232E+00    0.287E-01
DAV:   2    -0.192071224978E+03   -0.46464E-02   -0.33538E-02 12200   0.863E-01    0.635E-01
DAV:   3    -0.192067503909E+03    0.37211E-02   -0.13130E-02 12360   0.814E-01    0.301E-01
DAV:   4    -0.192067165601E+03    0.33831E-03   -0.30764E-03 11360   0.395E-01    0.244E-01
DAV:   5    -0.192066710303E+03    0.45530E-03   -0.17355E-03 10120   0.344E-01    0.156E-01
DAV:   6    -0.192066419034E+03    0.29127E-03   -0.71495E-04 10600   0.175E-01    0.574E-02
DAV:   7    -0.192066428093E+03   -0.90587E-05   -0.21587E-04  7680   0.882E-02
  94 F= -.19206643E+03 E0= -.19196555E+03  d E =0.317045E-02
       N       E                     dE             d eps       ncg     rms          rms(c)
DAV:   1    -0.192065732306E+03    0.68673E-03   -0.17781E-01  8160   0.910E-01    0.130E-01
DAV:   2    -0.192067404225E+03   -0.16719E-02   -0.71930E-03 11840   0.433E-01    0.400E-01
DAV:   3    -0.192065855329E+03    0.15489E-02   -0.32294E-03 11880   0.420E-01    0.980E-02
DAV:   4    -0.192065806114E+03    0.49215E-04   -0.28152E-04  7520   0.944E-02
  95 F= -.19206581E+03 E0= -.19196505E+03  d E =0.621979E-03
