<?xml version="1.0" encoding="ISO-8859-1"?>
<modeling>
 <generator>
  <i name="program" type="string">vasp </i>
  <i name="version" type="string">5.4.1  </i>
  <i name="subversion" type="string">05Feb16 (build Jul 05 2020 17:13:04) complex                          parallel </i>
  <i name="platform" type="string">IFC91_ompi </i>
  <i name="date" type="string">2024 04 23 </i>
  <i name="time" type="string">01:35:02 </i>
 </generator>
 <incar>
  <i type="int" name="ISTART">     0</i>
  <i type="string" name="PREC">normal</i>
  <i type="string" name="ALGO"> Normal</i>
  <i type="int" name="ISPIN">     1</i>
  <i type="int" name="ICHARG">     2</i>
  <i type="int" name="IBRION">     1</i>
  <i type="int" name="NSW">   100</i>
  <i type="int" name="ISIF">     3</i>
  <i type="int" name="ISYM">     0</i>
  <i name="SYMPREC">      0.00000001</i>
  <i name="POTIM">      0.50000000</i>
  <i type="logical" name="LREAL"> F  </i>
  <i type="logical" name="LPLANE"> F  </i>
  <i type="int" name="ISMEAR">     0</i>
  <i type="logical" name="LWAVE"> F  </i>
  <i type="logical" name="LCHARG"> F  </i>
  <v type="int" name="KPOINT_BSE">    -1     0     0     0</v>
 </incar>
 <kpoints>
  <generation param="Gamma">
   <v type="int" name="divisions">       8        8        1 </v>
   <v name="usershift">      0.00000000       0.00000000       0.00000000 </v>
   <v name="genvec1">      0.12500000       0.00000000       0.00000000 </v>
   <v name="genvec2">     -0.00000000       0.12500000       0.00000000 </v>
   <v name="genvec3">      0.00000000       0.00000000       1.00000000 </v>
   <v name="shift">      0.00000000       0.00000000       0.00000000 </v>
  </generation>
  <varray name="kpointlist" >
   <v>       0.00000000       0.00000000       0.00000000 </v>
   <v>       0.12500000       0.00000000       0.00000000 </v>
   <v>       0.25000000       0.00000000       0.00000000 </v>
   <v>       0.37500000       0.00000000       0.00000000 </v>
   <v>       0.50000000       0.00000000       0.00000000 </v>
   <v>       0.00000000       0.12500000       0.00000000 </v>
   <v>       0.12500000       0.12500000       0.00000000 </v>
   <v>       0.25000000       0.12500000       0.00000000 </v>
   <v>       0.37500000       0.12500000       0.00000000 </v>
   <v>       0.50000000       0.12500000       0.00000000 </v>
   <v>      -0.37500000       0.12500000       0.00000000 </v>
   <v>      -0.25000000       0.12500000       0.00000000 </v>
   <v>      -0.12500000       0.12500000       0.00000000 </v>
   <v>       0.00000000       0.25000000       0.00000000 </v>
   <v>       0.12500000       0.25000000       0.00000000 </v>
   <v>       0.25000000       0.25000000       0.00000000 </v>
   <v>       0.37500000       0.25000000       0.00000000 </v>
   <v>       0.50000000       0.25000000       0.00000000 </v>
   <v>      -0.37500000       0.25000000       0.00000000 </v>
   <v>      -0.25000000       0.25000000       0.00000000 </v>
   <v>      -0.12500000       0.25000000       0.00000000 </v>
   <v>      -0.00000000       0.37500000       0.00000000 </v>
   <v>       0.12500000       0.37500000       0.00000000 </v>
   <v>       0.25000000       0.37500000       0.00000000 </v>
   <v>       0.37500000       0.37500000       0.00000000 </v>
   <v>       0.50000000       0.37500000       0.00000000 </v>
   <v>      -0.37500000       0.37500000       0.00000000 </v>
   <v>      -0.25000000       0.37500000       0.00000000 </v>
   <v>      -0.12500000       0.37500000       0.00000000 </v>
   <v>       0.00000000       0.50000000       0.00000000 </v>
   <v>       0.12500000       0.50000000       0.00000000 </v>
   <v>       0.25000000       0.50000000       0.00000000 </v>
   <v>       0.37500000       0.50000000       0.00000000 </v>
   <v>       0.50000000       0.50000000       0.00000000 </v>
  </varray>
  <varray name="weights" >
   <v>       0.01562500 </v>
   <v>       0.03125000 </v>
   <v>       0.03125000 </v>
   <v>       0.03125000 </v>
   <v>       0.01562500 </v>
   <v>       0.03125000 </v>
   <v>       0.03125000 </v>
   <v>       0.03125000 </v>
   <v>       0.03125000 </v>
   <v>       0.03125000 </v>
   <v>       0.03125000 </v>
   <v>       0.03125000 </v>
   <v>       0.03125000 </v>
   <v>       0.03125000 </v>
   <v>       0.03125000 </v>
   <v>       0.03125000 </v>
   <v>       0.03125000 </v>
   <v>       0.03125000 </v>
   <v>       0.03125000 </v>
   <v>       0.03125000 </v>
   <v>       0.03125000 </v>
   <v>       0.03125000 </v>
   <v>       0.03125000 </v>
   <v>       0.03125000 </v>
   <v>       0.03125000 </v>
   <v>       0.03125000 </v>
   <v>       0.03125000 </v>
   <v>       0.03125000 </v>
   <v>       0.03125000 </v>
   <v>       0.01562500 </v>
   <v>       0.03125000 </v>
   <v>       0.03125000 </v>
   <v>       0.03125000 </v>
   <v>       0.01562500 </v>
  </varray>
 </kpoints>
 <parameters>
  <separator name="general" >
   <i type="string" name="SYSTEM">unknown system</i>
   <i type="logical" name="LCOMPAT"> F  </i>
  </separator>
  <separator name="electronic" >
   <i type="string" name="PREC">normal</i>
   <i name="ENMAX">    280.00000000</i>
   <i name="ENAUG">    373.43800000</i>
   <i name="EDIFF">      0.00010000</i>
   <i type="int" name="IALGO">    38</i>
   <i type="int" name="IWAVPR">    11</i>
   <i type="int" name="NBANDS">   120</i>
   <i name="NELECT">    159.00000000</i>
   <i type="int" name="TURBO">     0</i>
   <i type="int" name="IRESTART">     0</i>
   <i type="int" name="NREBOOT">     0</i>
   <i type="int" name="NMIN">     0</i>
   <i name="EREF">      0.00000000</i>
   <separator name="electronic smearing" >
    <i type="int" name="ISMEAR">     0</i>
    <i name="SIGMA">      0.20000000</i>
    <i name="KSPACING">      0.50000000</i>
    <i type="logical" name="KGAMMA"> T  </i>
   </separator>
   <separator name="electronic projectors" >
    <i type="logical" name="LREAL"> F  </i>
    <v name="ROPT">      0.00000000      0.00000000      0.00000000      0.00000000</v>
    <i type="int" name="LMAXPAW">  -100</i>
    <i type="int" name="LMAXMIX">     2</i>
    <i type="logical" name="NLSPLINE"> F  </i>
   </separator>
   <separator name="electronic startup" >
    <i type="int" name="ISTART">     0</i>
    <i type="int" name="ICHARG">     2</i>
    <i type="int" name="INIWAV">     1</i>
   </separator>
   <separator name="electronic spin" >
    <i type="int" name="ISPIN">     1</i>
    <i type="logical" name="LNONCOLLINEAR"> F  </i>
    <v name="MAGMOM">      1.00000000      1.00000000      1.00000000      1.00000000      1.00000000      1.00000000      1.00000000      1.00000000      1.00000000      1.00000000      1.00000000      1.00000000      1.00000000      1.00000000      1.00000000      1.00000000      1.00000000      1.00000000      1.00000000      1.00000000
      1.00000000      1.00000000      1.00000000      1.00000000      1.00000000      1.00000000      1.00000000</v>
    <i name="NUPDOWN">     -1.00000000</i>
    <i type="logical" name="LSORBIT"> F  </i>
    <v name="SAXIS">      0.00000000      0.00000000      1.00000000</v>
    <i type="logical" name="LSPIRAL"> F  </i>
    <v name="QSPIRAL">      0.00000000      0.00000000      0.00000000</v>
    <i type="logical" name="LZEROZ"> F  </i>
   </separator>
   <separator name="electronic exchange-correlation" >
    <i type="logical" name="LASPH"> F  </i>
    <i type="logical" name="LMETAGGA"> F  </i>
   </separator>
   <separator name="electronic convergence" >
    <i type="int" name="NELM">    60</i>
    <i type="int" name="NELMDL">    -5</i>
    <i type="int" name="NELMIN">     2</i>
    <i name="ENINI">    280.00000000</i>
    <separator name="electronic convergence detail" >
     <i type="logical" name="LDIAG"> T  </i>
     <i type="logical" name="LSUBROT"> F  </i>
     <i name="WEIMIN">      0.00100000</i>
     <i name="EBREAK">      0.00000021</i>
     <i name="DEPER">      0.30000000</i>
     <i type="int" name="NRMM">     4</i>
     <i name="TIME">      0.40000000</i>
    </separator>
   </separator>
   <separator name="electronic mixer" >
    <i name="AMIX">      0.40000000</i>
    <i name="BMIX">      1.00000000</i>
    <i name="AMIN">      0.10000000</i>
    <i name="AMIX_MAG">      1.60000000</i>
    <i name="BMIX_MAG">      1.00000000</i>
    <separator name="electronic mixer details" >
     <i type="int" name="IMIX">     4</i>
     <i type="logical" name="MIXFIRST"> F  </i>
     <i type="int" name="MAXMIX">   -45</i>
     <i name="WC">    100.00000000</i>
     <i type="int" name="INIMIX">     1</i>
     <i type="int" name="MIXPRE">     1</i>
     <i type="int" name="MREMOVE">     5</i>
    </separator>
   </separator>
   <separator name="electronic dipolcorrection" >
    <i type="logical" name="LDIPOL"> F  </i>
    <i type="logical" name="LMONO"> F  </i>
    <i type="int" name="IDIPOL">     0</i>
    <i name="EPSILON">      1.00000000</i>
    <v name="DIPOL">   -100.00000000   -100.00000000   -100.00000000</v>
    <i name="EFIELD">      0.00000000</i>
   </separator>
  </separator>
  <separator name="grids" >
   <i type="int" name="NGX">    42</i>
   <i type="int" name="NGY">    42</i>
   <i type="int" name="NGZ">   126</i>
   <i type="int" name="NGXF">    84</i>
   <i type="int" name="NGYF">    84</i>
   <i type="int" name="NGZF">   252</i>
   <i type="logical" name="ADDGRID"> F  </i>
  </separator>
  <separator name="ionic" >
   <i type="int" name="NSW">   100</i>
   <i type="int" name="IBRION">     1</i>
   <i type="int" name="ISIF">     3</i>
   <i name="PSTRESS">      0.00000000</i>
   <i name="EDIFFG">      0.00100000</i>
   <i type="int" name="NFREE">     0</i>
   <i name="POTIM">      0.50000000</i>
   <i name="SMASS">     -3.00000000</i>
   <i name="SCALEE">      1.00000000</i>
  </separator>
  <separator name="ionic md" >
   <i name="TEBEG">      0.00010000</i>
   <i name="TEEND">      0.00010000</i>
   <i type="int" name="NBLOCK">     1</i>
   <i type="int" name="KBLOCK">   100</i>
   <i type="int" name="NPACO">   256</i>
   <i name="APACO">     16.00000000</i>
  </separator>
  <separator name="symmetry" >
   <i type="int" name="ISYM">     0</i>
   <i name="SYMPREC">      0.00000001</i>
  </separator>
  <separator name="dos" >
   <i type="logical" name="LORBIT"> F  </i>
   <v name="RWIGS">     -1.00000000     -1.00000000     -1.00000000     -1.00000000</v>
   <i type="int" name="NEDOS">   301</i>
   <i name="EMIN">     10.00000000</i>
   <i name="EMAX">    -10.00000000</i>
   <i name="EFERMI">      0.00000000</i>
  </separator>
  <separator name="writing" >
   <i type="int" name="NWRITE">     2</i>
   <i type="logical" name="LWAVE"> F  </i>
   <i type="logical" name="LCHARG"> F  </i>
   <i type="logical" name="LPARD"> F  </i>
   <i type="logical" name="LVTOT"> F  </i>
   <i type="logical" name="LVHAR"> F  </i>
   <i type="logical" name="LELF"> F  </i>
   <i type="logical" name="LOPTICS"> F  </i>
   <v name="STM">      0.00000000      0.00000000      0.00000000      0.00000000      0.00000000      0.00000000      0.00000000</v>
  </separator>
  <separator name="performance" >
   <i type="int" name="NPAR">    40</i>
   <i type="int" name="NSIM">     4</i>
   <i type="int" name="NBLK">    -1</i>
   <i type="logical" name="LPLANE"> F  </i>
   <i type="logical" name="LSCALAPACK"> T  </i>
   <i type="logical" name="LSCAAWARE"> F  </i>
   <i type="logical" name="LSCALU"> F  </i>
   <i type="logical" name="LASYNC"> F  </i>
   <i type="logical" name="LORBITALREAL"> F  </i>
  </separator>
  <separator name="miscellaneous" >
   <i type="int" name="IDIOT">     3</i>
   <i type="logical" name="LMUSIC"> F  </i>
   <v name="POMASS">     50.94100000     95.94000000    183.85000000     32.06600000</v>
   <v name="DARWINR">      0.00000000      0.00000000      0.00000000      0.00000000</v>
   <v name="DARWINV">      1.00000000      1.00000000      1.00000000      1.00000000</v>
   <i type="logical" name="LCORR"> T  </i>
  </separator>
  <i type="logical" name="GGA_COMPAT"> T  </i>
  <i type="logical" name="LBERRY"> F  </i>
  <i type="int" name="ICORELEVEL">     0</i>
  <i type="logical" name="LDAU"> F  </i>
  <i type="int" name="I_CONSTRAINED_M">     0</i>
  <separator name="electronic exchange-correlation" >
   <i type="string" name="GGA">--</i>
   <i type="int" name="VOSKOWN">     0</i>
   <i type="logical" name="LHFCALC"> F  </i>
   <i type="string" name="PRECFOCK"></i>
   <i type="logical" name="LSYMGRAD"> F  </i>
   <i type="logical" name="LHFONE"> F  </i>
   <i type="logical" name="LRHFCALC"> F  </i>
   <i type="logical" name="LTHOMAS"> F  </i>
   <i type="logical" name="LMODELHF"> F  </i>
   <i name="ENCUT4O">     -1.00000000</i>
   <i type="int" name="EXXOEP">     0</i>
   <i type="int" name="FOURORBIT">     0</i>
   <i name="AEXX">      0.00000000</i>
   <i name="HFALPHA">      0.00000000</i>
   <i name="MCALPHA">      0.00000000</i>
   <i name="ALDAX">      1.00000000</i>
   <i name="AGGAX">      1.00000000</i>
   <i name="ALDAC">      1.00000000</i>
   <i name="AGGAC">      1.00000000</i>
   <i type="int" name="NKREDX">     1</i>
   <i type="int" name="NKREDY">     1</i>
   <i type="int" name="NKREDZ">     1</i>
   <i type="logical" name="SHIFTRED"> F  </i>
   <i type="logical" name="ODDONLY"> F  </i>
   <i type="logical" name="EVENONLY"> F  </i>
   <i type="int" name="LMAXFOCK">     0</i>
   <i type="int" name="NMAXFOCKAE">     0</i>
   <i type="logical" name="LFOCKAEDFT"> F  </i>
   <i name="HFSCREEN">      0.00000000</i>
   <i name="HFSCREENC">      0.00000000</i>
   <i type="int" name="NBANDSGWLOW">     0</i>
  </separator>
  <separator name="vdW DFT" >
   <i type="logical" name="LUSE_VDW"> F  </i>
   <i name="Zab_VDW">     -0.84910000</i>
   <i name="PARAM1">      0.12340000</i>
   <i name="PARAM2">      1.00000000</i>
   <i name="PARAM3">      0.00000000</i>
  </separator>
  <separator name="model GW" >
   <i type="int" name="MODEL_GW">     0</i>
   <i name="MODEL_EPS0">     58.26239943</i>
   <i name="MODEL_ALPHA">      1.00000000</i>
  </separator>
  <separator name="linear response parameters" >
   <i type="logical" name="LEPSILON"> F  </i>
   <i type="logical" name="LRPA"> F  </i>
   <i type="logical" name="LNABLA"> F  </i>
   <i type="logical" name="LVEL"> F  </i>
   <i type="int" name="KINTER">     0</i>
   <i name="CSHIFT">      0.10000000</i>
   <i name="OMEGAMAX">     -1.00000000</i>
   <i name="DEG_THRESHOLD">      0.00200000</i>
  </separator>
  <separator name="orbital magnetization" >
   <i type="logical" name="NUCIND"> F  </i>
   <v name="MAGPOS">      0.00000000      0.00000000      0.00000000</v>
   <i type="logical" name="LNICSALL"> T  </i>
   <i type="logical" name="ORBITALMAG"> F  </i>
   <i type="logical" name="LMAGBLOCH"> F  </i>
   <i type="logical" name="LCHIMAG"> F  </i>
   <i type="logical" name="LGAUGE"> T  </i>
   <i type="int" name="MAGATOM">     0</i>
   <v name="MAGDIPOL">      0.00000000      0.00000000      0.00000000</v>
   <v name="AVECCONST">      0.00000000      0.00000000      0.00000000</v>
  </separator>
  <separator name="response functions" >
   <i type="logical" name="LADDER"> F  </i>
   <i type="logical" name="LFXC"> F  </i>
   <i type="logical" name="LHARTREE"> T  </i>
   <i type="int" name="IBSE">     0</i>
   <v type="int" name="KPOINT">    -1     0     0     0</v>
   <i type="logical" name="LTCTE"> F  </i>
   <i type="logical" name="LTETE"> F  </i>
   <i type="logical" name="LTRIPLET"> F  </i>
   <i type="logical" name="LFXCEPS"> F  </i>
   <i type="logical" name="LFXHEG"> F  </i>
   <i type="int" name="NATURALO">     0</i>
   <i type="logical" name="L2ORDER"> F  </i>
   <i type="logical" name="LUSEW"> F  </i>
   <i name="ENCUTGW">     -2.00000000</i>
   <i name="ENCUTGWSOFT">     -2.00000000</i>
   <i name="ENCUTLF">     -1.00000000</i>
   <i type="int" name="LMAXMP2">    -1</i>
   <i name="SCISSOR">      0.00000000</i>
   <i type="int" name="NOMEGA">     0</i>
   <i type="int" name="NOMEGAR">     0</i>
   <i type="int" name="NBANDSGW">    -1</i>
   <i type="int" name="NBANDSO">    -1</i>
   <i type="int" name="NBANDSV">    -1</i>
   <i type="int" name="NELM">     1</i>
   <i type="int" name="NELMHF">     1</i>
   <i type="int" name="DIM">     3</i>
   <i type="int" name="ANTIRES">     0</i>
   <i name="OMEGAMAX">    -30.00000000</i>
   <i name="OMEGAMIN">    -30.00000000</i>
   <i name="OMEGATL">   -200.00000000</i>
   <i type="int" name="OMEGAGRID">     0</i>
   <i name="CSHIFT">     -0.10000000</i>
   <i type="logical" name="SELFENERGY"> F  </i>
   <i type="logical" name="LSPECTRAL"> F  </i>
   <i type="logical" name="LSPECTRALGW"> F  </i>
   <i type="logical" name="LSINGLES"> F  </i>
   <i type="logical" name="LFERMIGW"> F  </i>
   <i type="logical" name="ODDONLYGW"> F  </i>
   <i type="logical" name="EVENONLYGW"> F  </i>
   <i type="int" name="NKREDLFX">     1</i>
   <i type="int" name="NKREDLFY">     1</i>
   <i type="int" name="NKREDLFZ">     1</i>
   <i type="int" name="MAXMEM">  1800</i>
   <i type="int" name="TELESCOPE">     0</i>
   <i type="int" name="TAUPAR">     1</i>
   <i type="int" name="OMEGAPAR">    -1</i>
   <i name="LAMBDA">      1.00000000</i>
  </separator>
  <separator name="External order field" >
   <i name="OFIELD_KAPPA">      0.00000000</i>
   <v name="OFIELD_K">      0.00000000      0.00000000      0.00000000</v>
   <i name="OFIELD_Q6_NEAR">      0.00000000</i>
   <i name="OFIELD_Q6_FAR">      0.00000000</i>
   <i name="OFIELD_A">      0.00000000</i>
  </separator>
 </parameters>
 <atominfo>
  <atoms>      27 </atoms>
  <types>       4 </types>
  <array name="atoms" >
   <dimension dim="1">ion</dimension>
   <field type="string">element</field>
   <field type="int">atomtype</field>
   <set>
    <rc><c>V </c><c>   1</c></rc>
    <rc><c>V </c><c>   1</c></rc>
    <rc><c>V </c><c>   1</c></rc>
    <rc><c>Mo</c><c>   2</c></rc>
    <rc><c>Mo</c><c>   2</c></rc>
    <rc><c>Mo</c><c>   2</c></rc>
    <rc><c>W </c><c>   3</c></rc>
    <rc><c>W </c><c>   3</c></rc>
    <rc><c>W </c><c>   3</c></rc>
    <rc><c>S </c><c>   4</c></rc>
    <rc><c>S </c><c>   4</c></rc>
    <rc><c>S </c><c>   4</c></rc>
    <rc><c>S </c><c>   4</c></rc>
    <rc><c>S </c><c>   4</c></rc>
    <rc><c>S </c><c>   4</c></rc>
    <rc><c>S </c><c>   4</c></rc>
    <rc><c>S </c><c>   4</c></rc>
    <rc><c>S </c><c>   4</c></rc>
    <rc><c>S </c><c>   4</c></rc>
    <rc><c>S </c><c>   4</c></rc>
    <rc><c>S </c><c>   4</c></rc>
    <rc><c>S </c><c>   4</c></rc>
    <rc><c>S </c><c>   4</c></rc>
    <rc><c>S </c><c>   4</c></rc>
    <rc><c>S </c><c>   4</c></rc>
    <rc><c>S </c><c>   4</c></rc>
    <rc><c>S </c><c>   4</c></rc>
   </set>
  </array>
  <array name="atomtypes" >
   <dimension dim="1">type</dimension>
   <field type="int">atomspertype</field>
   <field type="string">element</field>
   <field>mass</field>
   <field>valence</field>
   <field type="string">pseudopotential</field>
   <set>
    <rc><c>   3</c><c>V </c><c>     50.94100000</c><c>      5.00000000</c><c> PAW_PBE V 08Apr2002                    </c></rc>
    <rc><c>   3</c><c>Mo</c><c>     95.94000000</c><c>      6.00000000</c><c> PAW_PBE Mo 08Apr2002                   </c></rc>
    <rc><c>   3</c><c>W </c><c>    183.85000000</c><c>      6.00000000</c><c> PAW_PBE W 08Apr2002                    </c></rc>
    <rc><c>  18</c><c>S </c><c>     32.06600000</c><c>      6.00000000</c><c>  PAW_PBE S 17Jan2003                   </c></rc>
   </set>
  </array>
 </atominfo>
 <structure name="initialpos" >
  <crystal>
   <varray name="basis" >
    <v>       8.66999996       5.03999989       0.00000000 </v>
    <v>      -8.66999982       5.04000013       0.00000000 </v>
    <v>       0.00000000       0.00000000      30.00000000 </v>
   </varray>
   <i name="volume">   2621.80797419 </i>
   <varray name="rec_basis" >
    <v>       0.05767013       0.09920635       0.00000000 </v>
    <v>      -0.05767013       0.09920635       0.00000000 </v>
    <v>       0.00000000       0.00000000       0.03333333 </v>
   </varray>
  </crystal>
  <varray name="positions" >
   <v>       0.66666669       0.00000000       0.00000000 </v>
   <v>       1.00000000       0.33333334       0.00000000 </v>
   <v>       0.33333334       0.33333334       0.00000000 </v>
   <v>       0.66666669       0.33333334       0.00000000 </v>
   <v>       0.00000000       0.00000000       0.00000000 </v>
   <v>       0.00000000       0.66666669       0.00000000 </v>
   <v>       0.33333334       0.00000000       0.00000000 </v>
   <v>       0.33333334       0.66666669       0.00000000 </v>
   <v>       0.66666669       0.66666669       0.00000000 </v>
   <v>       0.11068511       0.22244981       0.95539999 </v>
   <v>       0.22244981       0.11068511       0.04460000 </v>
   <v>       0.11068511       0.55578315       0.95539999 </v>
   <v>       0.22244981       0.44401845       0.04460000 </v>
   <v>       0.11068511       0.88911647       0.95539999 </v>
   <v>       0.22244981       0.77735180       0.04460000 </v>
   <v>       0.44401845       0.22244981       0.95539999 </v>
   <v>       0.55578315       0.11068511       0.04460000 </v>
   <v>       0.44401845       0.55578315       0.95539999 </v>
   <v>       0.55578315       0.44401845       0.04460000 </v>
   <v>       0.44401845       0.88911647       0.95539999 </v>
   <v>       0.55578315       0.77735180       0.04460000 </v>
   <v>       0.77735180       0.22244981       0.95539999 </v>
   <v>       0.88911647       0.11068511       0.04460000 </v>
   <v>       0.77735180       0.55578315       0.95539999 </v>
   <v>       0.88911647       0.44401845       0.04460000 </v>
   <v>       0.77735180       0.88911647       0.95539999 </v>
   <v>       0.88911647       0.77735180       0.04460000 </v>
  </varray>
 </structure>
 <calculation>
  <scstep>
   <time name="dav">   23.14   23.28</time>
   <time name="total">   23.19   23.34</time>
   <energy>
    <i name="alphaZ">     81.65567618 </i>
    <i name="ewald">  41890.23011097 </i>
    <i name="hartreedc"> -47722.86557415 </i>
    <i name="XCdc">   -242.92861158 </i>
    <i name="pawpsdc">   3467.42045192 </i>
    <i name="pawaedc">  -2871.19716117 </i>
    <i name="eentropy">     -0.52281052 </i>
    <i name="bandstr">   -238.80397035 </i>
    <i name="atom">   6761.44252427 </i>
    <i name="e_fr_energy">   1124.43063556 </i>
    <i name="e_wo_entrp">   1124.95344609 </i>
    <i name="e_0_energy">   1124.69204083 </i>
   </energy>
  </scstep>
  <scstep>
   <time name="dav">   29.61   29.68</time>
   <time name="total">   29.61   29.69</time>
   <energy>
    <i name="e_fr_energy">     -1.11710805 </i>
    <i name="e_wo_entrp">     -0.92566683 </i>
    <i name="e_0_energy">     -1.02138744 </i>
   </energy>
  </scstep>
  <scstep>
   <time name="dav">   29.31   29.38</time>
   <time name="total">   29.31   29.39</time>
   <energy>
    <i name="e_fr_energy">   -199.70196925 </i>
    <i name="e_wo_entrp">   -199.42182268 </i>
    <i name="e_0_energy">   -199.56189597 </i>
   </energy>
  </scstep>
  <scstep>
   <time name="dav">   31.70   31.77</time>
   <time name="total">   31.70   31.78</time>
   <energy>
    <i name="e_fr_energy">   -208.95298303 </i>
    <i name="e_wo_entrp">   -208.63627425 </i>
    <i name="e_0_energy">   -208.79462864 </i>
   </energy>
  </scstep>
  <scstep>
   <time name="dav">   30.55   30.62</time>
   <time name="total">   31.02   31.10</time>
   <energy>
    <i name="e_fr_energy">   -209.28853933 </i>
    <i name="e_wo_entrp">   -208.97462128 </i>
    <i name="e_0_energy">   -209.13158031 </i>
   </energy>
  </scstep>
  <scstep>
   <time name="dav">   33.20   33.28</time>
   <time name="total">   33.70   33.79</time>
   <energy>
    <i name="e_fr_energy">   -236.79023976 </i>
    <i name="e_wo_entrp">   -236.50182878 </i>
    <i name="e_0_energy">   -236.64603427 </i>
   </energy>
  </scstep>
  <scstep>
   <time name="dav">   34.39   34.48</time>
   <time name="total">   34.91   35.00</time>
   <energy>
    <i name="e_fr_energy">   -196.66868669 </i>
    <i name="e_wo_entrp">   -196.34665507 </i>
    <i name="e_0_energy">   -196.50767088 </i>
   </energy>
  </scstep>
  <scstep>
   <time name="dav">   30.78   30.85</time>
   <time name="total">   31.29   31.38</time>
   <energy>
    <i name="e_fr_energy">   -190.02803286 </i>
    <i name="e_wo_entrp">   -189.75465933 </i>
    <i name="e_0_energy">   -189.89134610 </i>
   </energy>
  </scstep>
  <scstep>
   <time name="dav">   31.38   31.46</time>
   <time name="total">   31.91   31.99</time>
   <energy>
    <i name="e_fr_energy">   -188.24063348 </i>
    <i name="e_wo_entrp">   -187.90263770 </i>
    <i name="e_0_energy">   -188.07163559 </i>
   </energy>
  </scstep>
  <scstep>
   <time name="dav">   34.23   34.31</time>
   <time name="total">   34.77   34.86</time>
   <energy>
    <i name="e_fr_energy">   -187.05641420 </i>
    <i name="e_wo_entrp">   -186.71295402 </i>
    <i name="e_0_energy">   -186.88468411 </i>
   </energy>
  </scstep>
  <scstep>
   <time name="dav">   32.73   32.81</time>
   <time name="total">   33.27   33.36</time>
   <energy>
    <i name="e_fr_energy">   -186.99605563 </i>
    <i name="e_wo_entrp">   -186.64490850 </i>
    <i name="e_0_energy">   -186.82048206 </i>
   </energy>
  </scstep>
  <scstep>
   <time name="dav">   32.68   32.76</time>
   <time name="total">   33.21   33.30</time>
   <energy>
    <i name="e_fr_energy">   -187.07367899 </i>
    <i name="e_wo_entrp">   -186.73993208 </i>
    <i name="e_0_energy">   -186.90680554 </i>
   </energy>
  </scstep>
  <scstep>
   <time name="dav">   33.65   33.73</time>
   <time name="total">   34.19   34.28</time>
   <energy>
    <i name="e_fr_energy">   -186.90589848 </i>
    <i name="e_wo_entrp">   -186.56794561 </i>
    <i name="e_0_energy">   -186.73692205 </i>
   </energy>
  </scstep>
  <scstep>
   <time name="dav">   33.55   33.63</time>
   <time name="total">   34.09   34.17</time>
   <energy>
    <i name="e_fr_energy">   -186.89404891 </i>
    <i name="e_wo_entrp">   -186.54996838 </i>
    <i name="e_0_energy">   -186.72200864 </i>
   </energy>
  </scstep>
  <scstep>
   <time name="dav">   33.45   33.53</time>
   <time name="total">   33.98   34.08</time>
   <energy>
    <i name="e_fr_energy">   -186.87006618 </i>
    <i name="e_wo_entrp">   -186.52347477 </i>
    <i name="e_0_energy">   -186.69677047 </i>
   </energy>
  </scstep>
  <scstep>
   <time name="dav">   32.71   32.79</time>
   <time name="total">   33.25   33.34</time>
   <energy>
    <i name="e_fr_energy">   -186.86557272 </i>
    <i name="e_wo_entrp">   -186.51988412 </i>
    <i name="e_0_energy">   -186.69272842 </i>
   </energy>
  </scstep>
  <scstep>
   <time name="dav">   33.22   33.30</time>
   <time name="total">   33.76   33.84</time>
   <energy>
    <i name="e_fr_energy">   -186.86362315 </i>
    <i name="e_wo_entrp">   -186.51963745 </i>
    <i name="e_0_energy">   -186.69163030 </i>
   </energy>
  </scstep>
  <scstep>
   <time name="dav">   30.63   30.71</time>
   <time name="total">   31.17   31.25</time>
   <energy>
    <i name="e_fr_energy">   -186.86297943 </i>
    <i name="e_wo_entrp">   -186.51880247 </i>
    <i name="e_0_energy">   -186.69089095 </i>
   </energy>
  </scstep>
  <scstep>
   <time name="dav">   27.03   27.09</time>
   <time name="total">   27.56   27.64</time>
   <energy>
    <i name="e_fr_energy">   -186.86285787 </i>
    <i name="e_wo_entrp">   -186.51844371 </i>
    <i name="e_0_energy">   -186.69065079 </i>
   </energy>
  </scstep>
  <scstep>
   <time name="dav">   25.16   25.22</time>
   <time name="total">   25.70   25.77</time>
   <energy>
    <i name="e_fr_energy">   -186.86370559 </i>
    <i name="e_wo_entrp">   -186.51947900 </i>
    <i name="e_0_energy">   -186.69159230 </i>
   </energy>
  </scstep>
  <scstep>
   <time name="dav">   23.41   23.47</time>
   <time name="total">   23.95   24.02</time>
   <energy>
    <i name="e_fr_energy">   -186.86438739 </i>
    <i name="e_wo_entrp">   -186.52024161 </i>
    <i name="e_0_energy">   -186.69231450 </i>
   </energy>
  </scstep>
  <scstep>
   <time name="dav">   21.82   21.87</time>
   <time name="total">   22.36   22.42</time>
   <energy>
    <i name="e_fr_energy">   -186.86541829 </i>
    <i name="e_wo_entrp">   -186.52112724 </i>
    <i name="e_0_energy">   -186.69327276 </i>
   </energy>
  </scstep>
  <scstep>
   <time name="dav">   21.67   21.73</time>
   <time name="total">   22.21   22.27</time>
   <energy>
    <i name="e_fr_energy">   -186.86656564 </i>
    <i name="e_wo_entrp">   -186.52241450 </i>
    <i name="e_0_energy">   -186.69449007 </i>
   </energy>
  </scstep>
  <scstep>
   <time name="dav">   20.28   20.33</time>
   <time name="total">   20.82   20.87</time>
   <energy>
    <i name="e_fr_energy">   -186.86714135 </i>
    <i name="e_wo_entrp">   -186.52294225 </i>
    <i name="e_0_energy">   -186.69504180 </i>
   </energy>
  </scstep>
  <scstep>
   <time name="dav">   17.72   17.76</time>
   <time name="total">   18.25   18.30</time>
   <energy>
    <i name="e_fr_energy">   -186.86750545 </i>
    <i name="e_wo_entrp">   -186.52328345 </i>
    <i name="e_0_energy">   -186.69539445 </i>
   </energy>
  </scstep>
  <scstep>
   <time name="dav">   20.38   20.43</time>
   <time name="total">   20.92   20.97</time>
   <energy>
    <i name="e_fr_energy">   -186.86774918 </i>
    <i name="e_wo_entrp">   -186.52354495 </i>
    <i name="e_0_energy">   -186.69564707 </i>
   </energy>
  </scstep>
  <scstep>
   <time name="dav">   21.49   21.55</time>
   <time name="total">   21.53   21.59</time>
   <energy>
    <i name="alphaZ">     81.65567618 </i>
    <i name="ewald">  41890.23011097 </i>
    <i name="hartreedc"> -47832.97526691 </i>
    <i name="XCdc">   -231.60457552 </i>
    <i name="pawpsdc">   4192.11566283 </i>
    <i name="pawaedc">  -3610.12950160 </i>
    <i name="eentropy">     -0.34420944 </i>
    <i name="bandstr">  -1437.25826057 </i>
    <i name="atom">   6761.44252427 </i>
    <i name="e_fr_energy">   -186.86783980 </i>
    <i name="e_wo_entrp">   -186.52363036 </i>
    <i name="e_0_energy">   -186.69573508 </i>
   </energy>
  </scstep>
  <structure>
   <crystal>
    <varray name="basis" >
     <v>       8.66999996       5.03999989       0.00000000 </v>
     <v>      -8.66999982       5.04000013       0.00000000 </v>
     <v>       0.00000000       0.00000000      30.00000000 </v>
    </varray>
    <i name="volume">   2621.80797419 </i>
    <varray name="rec_basis" >
     <v>       0.05767013       0.09920635       0.00000000 </v>
     <v>      -0.05767013       0.09920635       0.00000000 </v>
     <v>       0.00000000       0.00000000       0.03333333 </v>
    </varray>
   </crystal>
   <varray name="positions" >
    <v>       0.66666669       0.00000000       0.00000000 </v>
    <v>       1.00000000       0.33333334       0.00000000 </v>
    <v>       0.33333334       0.33333334       0.00000000 </v>
    <v>       0.66666669       0.33333334       0.00000000 </v>
    <v>       0.00000000       0.00000000       0.00000000 </v>
    <v>       0.00000000       0.66666669       0.00000000 </v>
    <v>       0.33333334       0.00000000       0.00000000 </v>
    <v>       0.33333334       0.66666669       0.00000000 </v>
    <v>       0.66666669       0.66666669       0.00000000 </v>
    <v>       0.11068511       0.22244981       0.95539999 </v>
    <v>       0.22244981       0.11068511       0.04460000 </v>
    <v>       0.11068511       0.55578315       0.95539999 </v>
    <v>       0.22244981       0.44401845       0.04460000 </v>
    <v>       0.11068511       0.88911647       0.95539999 </v>
    <v>       0.22244981       0.77735180       0.04460000 </v>
    <v>       0.44401845       0.22244981       0.95539999 </v>
    <v>       0.55578315       0.11068511       0.04460000 </v>
    <v>       0.44401845       0.55578315       0.95539999 </v>
    <v>       0.55578315       0.44401845       0.04460000 </v>
    <v>       0.44401845       0.88911647       0.95539999 </v>
    <v>       0.55578315       0.77735180       0.04460000 </v>
    <v>       0.77735180       0.22244981       0.95539999 </v>
    <v>       0.88911647       0.11068511       0.04460000 </v>
    <v>       0.77735180       0.55578315       0.95539999 </v>
    <v>       0.88911647       0.44401845       0.04460000 </v>
    <v>       0.77735180       0.88911647       0.95539999 </v>
    <v>       0.88911647       0.77735180       0.04460000 </v>
   </varray>
  </structure>
  <varray name="forces" >
   <v>       0.00418325       0.31385013      -0.07697704 </v>
   <v>      -0.13112406      -0.15831473      -0.01947728 </v>
   <v>       0.13170700      -0.16529331       0.06641238 </v>
   <v>       0.03355895       0.29932649       0.01898809 </v>
   <v>       0.17757482      -0.10621256      -0.03558620 </v>
   <v>      -0.24575156      -0.14359942       0.01563848 </v>
   <v>      -0.28458881      -0.11056849      -0.10237927 </v>
   <v>      -0.24083256      -0.23909555       0.02127376 </v>
   <v>       0.55112769       0.30179565       0.12954471 </v>
   <v>      -0.31874180       0.66300425      -1.39725751 </v>
   <v>      -0.39051408       0.72165522       2.19459025 </v>
   <v>       0.61269870      -0.54059838      -2.14939935 </v>
   <v>       0.25782891      -0.50960938       1.43453765 </v>
   <v>       0.22841015       0.16217106      -2.89883485 </v>
   <v>      -0.05131858       0.10868462       2.89360619 </v>
   <v>      -0.63918856      -0.16025971      -2.09978470 </v>
   <v>       0.65981467      -0.13838203       2.06444837 </v>
   <v>       0.45547830      -0.57197704      -2.10851827 </v>
   <v>      -0.64336383      -0.55852496       2.16699468 </v>
   <v>       0.46934374       0.59484162      -2.20090546 </v>
   <v>      -0.45579903       0.56031718       2.11985627 </v>
   <v>       0.90842598      -0.01734668      -1.48927103 </v>
   <v>      -0.89440917      -0.00132297       1.46057471 </v>
   <v>      -0.01986791       0.00503206      -2.94118369 </v>
   <v>       0.74139812       0.00436451       2.11190947 </v>
   <v>      -0.70210429      -0.14051671      -2.11755227 </v>
   <v>      -0.21394604      -0.17342090       2.93875189 </v>
  </varray>
  <varray name="stress" >
   <v>       7.44387636      -0.01328072      -1.61977087 </v>
   <v>      -0.01328074       4.31453288       0.01594385 </v>
   <v>      -1.61977087       0.01594377      30.30395558 </v>
  </varray>
  <energy>
   <i name="e_fr_energy">   -186.86783980 </i>
   <i name="e_wo_entrp">   -186.69573508 </i>
   <i name="e_0_energy">     -0.34420944 </i>
  </energy>
  <time name="totalsc">  825.81  828.09</time>
 </calculation>
 <calculation>
  <scstep>
   <time name="dav">   23.17   23.23</time>
   <time name="total">   23.72   23.78</time>
   <energy>
    <i name="alphaZ">     78.92071059 </i>
    <i name="ewald">  39379.58928918 </i>
    <i name="hartreedc"> -45337.07139577 </i>
    <i name="XCdc">   -239.06178019 </i>
    <i name="pawpsdc">   4192.09689015 </i>
    <i name="pawaedc">  -3610.11085819 </i>
    <i name="eentropy">     -0.28386849 </i>
    <i name="bandstr">  -1413.02834937 </i>
    <i name="atom">   6761.44252427 </i>
    <i name="e_fr_energy">   -187.50683782 </i>
    <i name="e_wo_entrp">   -187.22296933 </i>
    <i name="e_0_energy">   -187.36490358 </i>
   </energy>
  </scstep>
  <scstep>
   <time name="dav">   32.19   32.27</time>
   <time name="total">   32.73   32.82</time>
   <energy>
    <i name="e_fr_energy">   -189.51399689 </i>
    <i name="e_wo_entrp">   -189.17891427 </i>
    <i name="e_0_energy">   -189.34645558 </i>
   </energy>
  </scstep>
  <scstep>
   <time name="dav">   32.46   32.54</time>
   <time name="total">   33.01   33.10</time>
   <energy>
    <i name="e_fr_energy">   -189.36320002 </i>
    <i name="e_wo_entrp">   -189.08450596 </i>
    <i name="e_0_energy">   -189.22385299 </i>
   </energy>
  </scstep>
  <scstep>
   <time name="dav">   32.47   32.55</time>
   <time name="total">   33.02   33.11</time>
   <energy>
    <i name="e_fr_energy">   -188.79155069 </i>
    <i name="e_wo_entrp">   -188.50793174 </i>
    <i name="e_0_energy">   -188.64974121 </i>
   </energy>
  </scstep>
  <scstep>
   <time name="dav">   29.83   29.90</time>
   <time name="total">   30.37   30.45</time>
   <energy>
    <i name="e_fr_energy">   -188.88641927 </i>
    <i name="e_wo_entrp">   -188.59516597 </i>
    <i name="e_0_energy">   -188.74079262 </i>
   </energy>
  </scstep>
  <scstep>
   <time name="dav">   32.95   33.03</time>
   <time name="total">   33.50   33.59</time>
   <energy>
    <i name="e_fr_energy">   -188.75865057 </i>
    <i name="e_wo_entrp">   -188.47079684 </i>
    <i name="e_0_energy">   -188.61472371 </i>
   </energy>
  </scstep>
  <scstep>
   <time name="dav">   28.38   28.45</time>
   <time name="total">   28.93   29.01</time>
   <energy>
    <i name="e_fr_energy">   -188.70469382 </i>
    <i name="e_wo_entrp">   -188.41967062 </i>
    <i name="e_0_energy">   -188.56218222 </i>
   </energy>
  </scstep>
  <scstep>
   <time name="dav">   33.57   33.65</time>
   <time name="total">   34.12   34.21</time>
   <energy>
    <i name="e_fr_energy">   -188.69614054 </i>
    <i name="e_wo_entrp">   -188.41253523 </i>
    <i name="e_0_energy">   -188.55433789 </i>
   </energy>
  </scstep>
  <scstep>
   <time name="dav">   31.47   31.55</time>
   <time name="total">   32.02   32.10</time>
   <energy>
    <i name="e_fr_energy">   -188.68108803 </i>
    <i name="e_wo_entrp">   -188.39727682 </i>
    <i name="e_0_energy">   -188.53918243 </i>
   </energy>
  </scstep>
  <scstep>
   <time name="dav">   32.57   32.65</time>
   <time name="total">   33.12   33.21</time>
   <energy>
    <i name="e_fr_energy">   -188.67744126 </i>
    <i name="e_wo_entrp">   -188.39380283 </i>
    <i name="e_0_energy">   -188.53562204 </i>
   </energy>
  </scstep>
  <scstep>
   <time name="dav">   33.46   33.54</time>
   <time name="total">   34.01   34.11</time>
   <energy>
    <i name="e_fr_energy">   -188.67674004 </i>
    <i name="e_wo_entrp">   -188.39391413 </i>
    <i name="e_0_energy">   -188.53532709 </i>
   </energy>
  </scstep>
  <scstep>
   <time name="dav">   31.65   31.73</time>
   <time name="total">   31.69   31.78</time>
   <energy>
    <i name="alphaZ">     78.92071059 </i>
    <i name="ewald">  39379.58928918 </i>
    <i name="hartreedc"> -45347.98963353 </i>
    <i name="XCdc">   -237.96992857 </i>
    <i name="pawpsdc">   3952.76286092 </i>
    <i name="pawaedc">  -3367.30125986 </i>
    <i name="eentropy">     -0.28264853 </i>
    <i name="bandstr">  -1407.84875190 </i>
    <i name="atom">   6761.44252427 </i>
    <i name="e_fr_energy">   -188.67683743 </i>
    <i name="e_wo_entrp">   -188.39418891 </i>
    <i name="e_0_energy">   -188.53551317 </i>
   </energy>
  </scstep>
  <structure>
   <crystal>
    <varray name="basis" >
     <v>       8.85850602       5.10324345       0.00000000 </v>
     <v>      -8.85889729       5.10391702       0.00000000 </v>
     <v>       0.00000000       0.00000000      30.00000000 </v>
    </varray>
    <i name="volume">   2712.66567854 </i>
    <varray name="rec_basis" >
     <v>       0.05644540       0.09797260       0.00000000 </v>
     <v>      -0.05643796       0.09796828       0.00000000 </v>
     <v>       0.00000000       0.00000000       0.03333333 </v>
    </varray>
   </crystal>
   <varray name="positions" >
    <v>       0.66818040       0.00149044      -0.00012379 </v>
    <v>       0.99887750       0.33294046      -0.00003132 </v>
    <v>       0.33290868       0.33217582       0.00010680 </v>
    <v>       0.66819262       0.33467255       0.00003053 </v>
    <v>      -0.00001429      -0.00100237      -0.00005723 </v>
    <v>      -0.00137098       0.66666314       0.00002515 </v>
    <v>       0.33201239       0.00026259      -0.00016463 </v>
    <v>       0.33151900       0.66619242       0.00003421 </v>
    <v>       0.66964440       0.66657775       0.00020832 </v>
    <v>       0.11297144       0.22650972       0.95315308 </v>
    <v>       0.22481716       0.11522541       0.04812909 </v>
    <v>       0.10980244       0.55149124       0.95194357 </v>
    <v>       0.22072815       0.44086215       0.04690686 </v>
    <v>       0.11209673       0.88925714       0.95073841 </v>
    <v>       0.22282719       0.77801474       0.04925317 </v>
    <v>       0.44147313       0.22346113       0.95202335 </v>
    <v>       0.55695657       0.10818711       0.04791981 </v>
    <v>       0.44254820       0.55177847       0.95200931 </v>
    <v>       0.55132012       0.44313531       0.04808472 </v>
    <v>       0.44817114       0.89065758       0.95186074 </v>
    <v>       0.55719671       0.78130157       0.04800892 </v>
    <v>       0.77979616       0.21983940       0.95300511 </v>
    <v>       0.88662174       0.11316717       0.04694873 </v>
    <v>       0.77732060       0.55586251       0.95067031 </v>
    <v>       0.89120004       0.44197665       0.04799614 </v>
    <v>       0.77472592       0.89039732       0.95199478 </v>
    <v>       0.88769125       0.77711704       0.04932577 </v>
   </varray>
  </structure>
  <varray name="forces" >
   <v>      -0.03108034       0.21129463       0.05515947 </v>
   <v>      -0.12761278      -0.11053822      -0.00549469 </v>
   <v>       0.15057928      -0.14216420      -0.07258656 </v>
   <v>      -0.13332006       0.38418171       0.08627415 </v>
   <v>       0.42537622      -0.23858879      -0.08267064 </v>
   <v>      -0.40589751      -0.10121718       0.01253366 </v>
   <v>      -0.18377125      -0.23771546      -0.03630847 </v>
   <v>      -0.33637402      -0.11342651      -0.01253403 </v>
   <v>       0.64402251       0.34259361       0.02879239 </v>
   <v>      -0.00913796       0.03345677       0.14873189 </v>
   <v>       0.09340749       0.06246135       0.05680468 </v>
   <v>       0.07439957       0.04755044       0.02191399 </v>
   <v>      -0.06160164       0.05909979      -0.10060355 </v>
   <v>       0.06914969       0.10312775      -0.18092447 </v>
   <v>       0.05584589       0.08789251       0.00562051 </v>
   <v>       0.01657280      -0.09920632       0.03132243 </v>
   <v>      -0.02662164      -0.10478718      -0.15002106 </v>
   <v>      -0.05573114       0.06663579       0.29059779 </v>
   <v>      -0.08544251       0.05661966       0.01306946 </v>
   <v>      -0.06170797      -0.05379788       0.10401253 </v>
   <v>       0.05807281      -0.06872098      -0.25063352 </v>
   <v>       0.03980895       0.01674638      -0.01723741 </v>
   <v>      -0.02838431       0.01835264      -0.10068243 </v>
   <v>      -0.13436088       0.00951733      -0.22413763 </v>
   <v>       0.07101977      -0.00303249       0.08453405 </v>
   <v>       0.02600307      -0.11493207       0.01001974 </v>
   <v>      -0.04321404      -0.11140308       0.28444770 </v>
  </varray>
  <varray name="stress" >
   <v>     -19.98943554       0.00555590       0.07029177 </v>
   <v>       0.00555607     -19.53837233      -0.01009401 </v>
   <v>       0.07029184      -0.01009396      -1.74866161 </v>
  </varray>
  <energy>
   <i name="e_fr_energy">   -188.67683743 </i>
   <i name="e_wo_entrp">   -188.53551317 </i>
   <i name="e_0_energy">     -0.28264853 </i>
  </energy>
  <time name="totalsc">  424.59  425.71</time>
 </calculation>
 <calculation>
  <scstep>
   <time name="dav">   25.23   25.29</time>
   <time name="total">   25.76   25.83</time>
   <energy>
    <i name="alphaZ">     82.35576205 </i>
    <i name="ewald">  41308.80043281 </i>
    <i name="hartreedc"> -47307.85010035 </i>
    <i name="XCdc">   -233.83878342 </i>
    <i name="pawpsdc">   3950.50124787 </i>
    <i name="pawaedc">  -3365.01341266 </i>
    <i name="eentropy">     -0.23715237 </i>
    <i name="bandstr">  -1386.76791949 </i>
    <i name="atom">   6761.44252427 </i>
    <i name="e_fr_energy">   -190.60740129 </i>
    <i name="e_wo_entrp">   -190.37024892 </i>
    <i name="e_0_energy">   -190.48882510 </i>
   </energy>
  </scstep>
  <scstep>
   <time name="dav">   29.66   29.73</time>
   <time name="total">   30.18   30.26</time>
   <energy>
    <i name="e_fr_energy">   -190.56700002 </i>
    <i name="e_wo_entrp">   -190.32369558 </i>
    <i name="e_0_energy">   -190.44534780 </i>
   </energy>
  </scstep>
  <scstep>
   <time name="dav">   32.13   32.20</time>
   <time name="total">   32.66   32.74</time>
   <energy>
    <i name="e_fr_energy">   -190.08800246 </i>
    <i name="e_wo_entrp">   -189.83704304 </i>
    <i name="e_0_energy">   -189.96252275 </i>
   </energy>
  </scstep>
  <scstep>
   <time name="dav">   32.99   33.07</time>
   <time name="total">   33.53   33.62</time>
   <energy>
    <i name="e_fr_energy">   -189.88073379 </i>
    <i name="e_wo_entrp">   -189.64169738 </i>
    <i name="e_0_energy">   -189.76121558 </i>
   </energy>
  </scstep>
  <scstep>
   <time name="dav">   31.95   32.02</time>
   <time name="total">   32.48   32.56</time>
   <energy>
    <i name="e_fr_energy">   -189.92009899 </i>
    <i name="e_wo_entrp">   -189.67350474 </i>
    <i name="e_0_energy">   -189.79680186 </i>
   </energy>
  </scstep>
  <scstep>
   <time name="dav">   32.06   32.14</time>
   <time name="total">   32.60   32.68</time>
   <energy>
    <i name="e_fr_energy">   -189.77565702 </i>
    <i name="e_wo_entrp">   -189.53548637 </i>
    <i name="e_0_energy">   -189.65557169 </i>
   </energy>
  </scstep>
  <scstep>
   <time name="dav">   32.65   32.73</time>
   <time name="total">   33.19   33.27</time>
   <energy>
    <i name="e_fr_energy">   -189.76947166 </i>
    <i name="e_wo_entrp">   -189.52931699 </i>
    <i name="e_0_energy">   -189.64939432 </i>
   </energy>
  </scstep>
  <scstep>
   <time name="dav">   30.74   30.81</time>
   <time name="total">   31.27   31.36</time>
   <energy>
    <i name="e_fr_energy">   -189.77049955 </i>
    <i name="e_wo_entrp">   -189.53029814 </i>
    <i name="e_0_energy">   -189.65039885 </i>
   </energy>
  </scstep>
  <scstep>
   <time name="dav">   29.57   29.64</time>
   <time name="total">   30.10   30.18</time>
   <energy>
    <i name="e_fr_energy">   -189.76928431 </i>
    <i name="e_wo_entrp">   -189.52914345 </i>
    <i name="e_0_energy">   -189.64921388 </i>
   </energy>
  </scstep>
  <scstep>
   <time name="dav">   27.55   27.62</time>
   <time name="total">   28.08   28.16</time>
   <energy>
    <i name="e_fr_energy">   -189.76957167 </i>
    <i name="e_wo_entrp">   -189.52931423 </i>
    <i name="e_0_energy">   -189.64944295 </i>
   </energy>
  </scstep>
  <scstep>
   <time name="dav">   24.68   24.74</time>
   <time name="total">   25.21   25.28</time>
   <energy>
    <i name="e_fr_energy">   -189.76935577 </i>
    <i name="e_wo_entrp">   -189.52911724 </i>
    <i name="e_0_energy">   -189.64923651 </i>
   </energy>
  </scstep>
  <scstep>
   <time name="dav">   20.89   20.94</time>
   <time name="total">   20.92   20.98</time>
   <energy>
    <i name="alphaZ">     82.35576205 </i>
    <i name="ewald">  41308.80043281 </i>
    <i name="hartreedc"> -47281.09740103 </i>
    <i name="XCdc">   -235.23624859 </i>
    <i name="pawpsdc">   4039.07248297 </i>
    <i name="pawaedc">  -3454.78272007 </i>
    <i name="eentropy">     -0.24022736 </i>
    <i name="bandstr">  -1410.08398312 </i>
    <i name="atom">   6761.44252427 </i>
    <i name="e_fr_energy">   -189.76937807 </i>
    <i name="e_wo_entrp">   -189.52915071 </i>
    <i name="e_0_energy">   -189.64926439 </i>
   </energy>
  </scstep>
  <structure>
   <crystal>
    <varray name="basis" >
     <v>       8.66969450       4.99696205       0.00000000 </v>
     <v>      -8.67001695       4.99751661       0.00000000 </v>
     <v>       0.00000000       0.00000000      30.00000000 </v>
    </varray>
    <i name="volume">   2599.52063599 </i>
    <varray name="rec_basis" >
     <v>       0.05767429       0.10005710       0.00000000 </v>
     <v>      -0.05766789       0.10005338       0.00000000 </v>
     <v>       0.00000000       0.00000000       0.03333333 </v>
    </varray>
   </crystal>
   <varray name="positions" >
    <v>       0.66850262       0.00187231      -0.00009252 </v>
    <v>       0.99857082       0.33287878      -0.00003444 </v>
    <v>       0.33281636       0.33179444       0.00006565 </v>
    <v>       0.66870476       0.33544059       0.00007944 </v>
    <v>      -0.00000348      -0.00180817      -0.00010409 </v>
    <v>      -0.00192927       0.66688409       0.00003225 </v>
    <v>       0.33143991       0.00004292      -0.00018522 </v>
    <v>       0.33100712       0.66632629       0.00002710 </v>
    <v>       0.67083344       0.66653040       0.00022464 </v>
    <v>       0.11301842       0.22657424       0.95323739 </v>
    <v>       0.22501090       0.11523982       0.04816130 </v>
    <v>       0.10995309       0.55149905       0.95195599 </v>
    <v>       0.22076749       0.44101975       0.04684983 </v>
    <v>       0.11233494       0.88936259       0.95063584 </v>
    <v>       0.22302725       0.77810757       0.04925636 </v>
    <v>       0.44132374       0.22327994       0.95204111 </v>
    <v>       0.55675642       0.10803807       0.04783477 </v>
    <v>       0.44260573       0.55194298       0.95217404 </v>
    <v>       0.55133244       0.44331165       0.04809213 </v>
    <v>       0.44802227       0.89062717       0.95191970 </v>
    <v>       0.55713796       0.78113133       0.04786684 </v>
    <v>       0.77986228       0.21982909       0.95299534 </v>
    <v>       0.88662508       0.11322499       0.04689166 </v>
    <v>       0.77720748       0.55600733       0.95054325 </v>
    <v>       0.89126316       0.44190344       0.04804406 </v>
    <v>       0.77455939       0.89018088       0.95200046 </v>
    <v>       0.88746415       0.77697291       0.04948702 </v>
   </varray>
  </structure>
  <varray name="forces" >
   <v>      -0.04381978       0.14209610       0.07443915 </v>
   <v>      -0.13314427      -0.07839946      -0.00074834 </v>
   <v>       0.17306835      -0.12733468      -0.08571050 </v>
   <v>      -0.18499656       0.38486824       0.07869209 </v>
   <v>       0.49692238      -0.28182218      -0.06528239 </v>
   <v>      -0.45369340      -0.06776355       0.00668226 </v>
   <v>      -0.13721336      -0.28081179      -0.00541223 </v>
   <v>      -0.36554690      -0.05957524      -0.01992806 </v>
   <v>       0.64951798       0.34600442      -0.00511506 </v>
   <v>      -0.04681493       0.08384901      -0.28798638 </v>
   <v>      -0.02527214       0.11241722       0.56127860 </v>
   <v>       0.05431646      -0.09617717      -0.47961900 </v>
   <v>       0.01501417      -0.08344790       0.35963352 </v>
   <v>       0.03596527       0.02660959      -0.75485125 </v>
   <v>      -0.00080113       0.02348919       0.56847518 </v>
   <v>      -0.08443865      -0.01891084      -0.45933768 </v>
   <v>       0.07165495      -0.04133201       0.32016992 </v>
   <v>       0.01970816      -0.02992302      -0.17889897 </v>
   <v>      -0.08902451      -0.07020226       0.52244894 </v>
   <v>       0.00605037       0.08186074      -0.40772642 </v>
   <v>       0.00049276       0.05325681       0.22425776 </v>
   <v>       0.10687967       0.01957715      -0.47226265 </v>
   <v>      -0.08342672       0.02249186       0.33282212 </v>
   <v>      -0.04951463       0.00988743      -0.80042992 </v>
   <v>       0.14970321       0.01104754       0.58065241 </v>
   <v>      -0.07961820      -0.05657021      -0.48330056 </v>
   <v>      -0.00196855      -0.02518499       0.87705747 </v>
  </varray>
  <varray name="stress" >
   <v>     -10.15759245      -0.00289577       0.07215705 </v>
   <v>      -0.00289586      -9.76229807      -0.00830763 </v>
   <v>       0.07215710      -0.00830771       6.51488584 </v>
  </varray>
  <energy>
   <i name="e_fr_energy">   -189.76937807 </i>
   <i name="e_wo_entrp">   -189.64926439 </i>
   <i name="e_0_energy">     -0.24022736 </i>
  </energy>
  <time name="totalsc">  400.13  401.19</time>
 </calculation>
 <calculation>
  <scstep>
   <time name="dav">   23.11   23.17</time>
   <time name="total">   23.64   23.70</time>
   <energy>
    <i name="alphaZ">     85.79577758 </i>
    <i name="ewald">  42819.73355078 </i>
    <i name="hartreedc"> -48836.15520955 </i>
    <i name="XCdc">   -232.99004616 </i>
    <i name="pawpsdc">   4039.15519959 </i>
    <i name="pawaedc">  -3454.86306025 </i>
    <i name="eentropy">     -0.20402943 </i>
    <i name="bandstr">  -1373.22902515 </i>
    <i name="atom">   6761.44252427 </i>
    <i name="e_fr_energy">   -191.31431832 </i>
    <i name="e_wo_entrp">   -191.11028889 </i>
    <i name="e_0_energy">   -191.21230361 </i>
   </energy>
  </scstep>
  <scstep>
   <time name="dav">   34.12   34.20</time>
   <time name="total">   34.64   34.73</time>
   <energy>
    <i name="e_fr_energy">   -191.16483358 </i>
    <i name="e_wo_entrp">   -190.95532489 </i>
    <i name="e_0_energy">   -191.06007923 </i>
   </energy>
  </scstep>
  <scstep>
   <time name="dav">   32.01   32.09</time>
   <time name="total">   32.53   32.61</time>
   <energy>
    <i name="e_fr_energy">   -191.26914682 </i>
    <i name="e_wo_entrp">   -191.04775800 </i>
    <i name="e_0_energy">   -191.15845241 </i>
   </energy>
  </scstep>
  <scstep>
   <time name="dav">   33.63   33.71</time>
   <time name="total">   34.16   34.25</time>
   <energy>
    <i name="e_fr_energy">   -190.87325728 </i>
    <i name="e_wo_entrp">   -190.66584972 </i>
    <i name="e_0_energy">   -190.76955350 </i>
   </energy>
  </scstep>
  <scstep>
   <time name="dav">   32.07   32.15</time>
   <time name="total">   32.59   32.68</time>
   <energy>
    <i name="e_fr_energy">   -190.78965396 </i>
    <i name="e_wo_entrp">   -190.57894803 </i>
    <i name="e_0_energy">   -190.68430099 </i>
   </energy>
  </scstep>
  <scstep>
   <time name="dav">   32.90   32.98</time>
   <time name="total">   33.42   33.51</time>
   <energy>
    <i name="e_fr_energy">   -190.77217019 </i>
    <i name="e_wo_entrp">   -190.56123870 </i>
    <i name="e_0_energy">   -190.66670445 </i>
   </energy>
  </scstep>
  <scstep>
   <time name="dav">   31.05   31.12</time>
   <time name="total">   31.57   31.65</time>
   <energy>
    <i name="e_fr_energy">   -190.75109103 </i>
    <i name="e_wo_entrp">   -190.54098783 </i>
    <i name="e_0_energy">   -190.64603943 </i>
   </energy>
  </scstep>
  <scstep>
   <time name="dav">   30.50   30.57</time>
   <time name="total">   31.02   31.11</time>
   <energy>
    <i name="e_fr_energy">   -190.74800077 </i>
    <i name="e_wo_entrp">   -190.53789969 </i>
    <i name="e_0_energy">   -190.64295023 </i>
   </energy>
  </scstep>
  <scstep>
   <time name="dav">   30.39   30.46</time>
   <time name="total">   30.91   30.99</time>
   <energy>
    <i name="e_fr_energy">   -190.74740303 </i>
    <i name="e_wo_entrp">   -190.53735542 </i>
    <i name="e_0_energy">   -190.64237922 </i>
   </energy>
  </scstep>
  <scstep>
   <time name="dav">   29.62   29.70</time>
   <time name="total">   30.14   30.23</time>
   <energy>
    <i name="e_fr_energy">   -190.74751792 </i>
    <i name="e_wo_entrp">   -190.53719584 </i>
    <i name="e_0_energy">   -190.64235688 </i>
   </energy>
  </scstep>
  <scstep>
   <time name="dav">   27.21   27.27</time>
   <time name="total">   27.73   27.80</time>
   <energy>
    <i name="e_fr_energy">   -190.74730403 </i>
    <i name="e_wo_entrp">   -190.53723945 </i>
    <i name="e_0_energy">   -190.64227174 </i>
   </energy>
  </scstep>
  <scstep>
   <time name="dav">   21.54   21.60</time>
   <time name="total">   21.58   21.64</time>
   <energy>
    <i name="alphaZ">     85.79577758 </i>
    <i name="ewald">  42819.73355078 </i>
    <i name="hartreedc"> -48807.83743259 </i>
    <i name="XCdc">   -234.30458806 </i>
    <i name="pawpsdc">   4063.19301266 </i>
    <i name="pawaedc">  -3479.07342626 </i>
    <i name="eentropy">     -0.21008494 </i>
    <i name="bandstr">  -1399.48663280 </i>
    <i name="atom">   6761.44252427 </i>
    <i name="e_fr_energy">   -190.74729934 </i>
    <i name="e_wo_entrp">   -190.53721441 </i>
    <i name="e_0_energy">   -190.64225688 </i>
   </energy>
  </scstep>
  <structure>
   <crystal>
    <varray name="basis" >
     <v>       8.48823736       4.89886492       0.00000000 </v>
     <v>      -8.48879645       4.89983085       0.00000000 </v>
     <v>       0.00000000       0.00000000      30.00000000 </v>
    </varray>
    <i name="volume">   2495.29183101 </i>
    <varray name="rec_basis" >
     <v>       0.05890891       0.10205776       0.00000000 </v>
     <v>      -0.05889730       0.10205104       0.00000000 </v>
     <v>       0.00000000       0.00000000       0.03333333 </v>
    </varray>
   </crystal>
   <varray name="positions" >
    <v>       0.66904411       0.00276605       0.00007749 </v>
    <v>       0.99767199       0.33295583      -0.00003199 </v>
    <v>       0.33271271       0.33037874      -0.00012247 </v>
    <v>       0.67037287       0.33858985       0.00023565 </v>
    <v>       0.00002072      -0.00557105      -0.00022434 </v>
    <v>      -0.00397435       0.66824679       0.00004114 </v>
    <v>       0.32914865      -0.00139143      -0.00017041 </v>
    <v>       0.32940803       0.66744631      -0.00002029 </v>
    <v>       0.67535569       0.66635319       0.00018555 </v>
    <v>       0.11344494       0.22744565       0.95227506 </v>
    <v>       0.22557732       0.11632651       0.04974525 </v>
    <v>       0.10916349       0.55037501       0.95054322 </v>
    <v>       0.22005644       0.43998222       0.04797997 </v>
    <v>       0.11239461       0.88925744       0.94859354 </v>
    <v>       0.22293136       0.77817882       0.05090429 </v>
    <v>       0.44095564       0.22380846       0.95067939 </v>
    <v>       0.55705314       0.10753815       0.04889175 </v>
    <v>       0.44235838       0.55133865       0.95140952 </v>
    <v>       0.55025375       0.44288515       0.04959998 </v>
    <v>       0.44898795       0.89135618       0.95064688 </v>
    <v>       0.55769236       0.78184617       0.04872961 </v>
    <v>       0.78047263       0.21947767       0.95163689 </v>
    <v>       0.88639677       0.11375506       0.04794391 </v>
    <v>       0.77721255       0.55612777       0.94840479 </v>
    <v>       0.89201893       0.44135554       0.04966101 </v>
    <v>       0.77391234       0.89040883       0.95058699 </v>
    <v>       0.88757143       0.77697690       0.05179752 </v>
   </varray>
  </structure>
  <varray name="forces" >
   <v>      -0.07126369       0.07259403       0.08062226 </v>
   <v>      -0.11317894      -0.03538537       0.00622804 </v>
   <v>       0.19556557      -0.14260831      -0.08127919 </v>
   <v>      -0.20638620       0.39460489       0.04085895 </v>
   <v>       0.52954882      -0.28176042      -0.00488250 </v>
   <v>      -0.46724944      -0.00979134      -0.00601463 </v>
   <v>      -0.10149859      -0.34134326       0.02908014 </v>
   <v>      -0.43398141      -0.05487419      -0.03608760 </v>
   <v>       0.65268633       0.34965614      -0.02662337 </v>
   <v>       0.01991976      -0.05516947      -0.19270972 </v>
   <v>      -0.02732601      -0.00731876       0.37811910 </v>
   <v>      -0.05388943      -0.06972040      -0.31145054 </v>
   <v>      -0.01773056      -0.04977815       0.23456011 </v>
   <v>       0.03133269      -0.03532818      -0.59495316 </v>
   <v>      -0.08013478      -0.05019749       0.41443707 </v>
   <v>       0.01676967       0.01455079      -0.26143859 </v>
   <v>      -0.04973937       0.02022839       0.15083992 </v>
   <v>       0.02082829       0.05826123       0.00562750 </v>
   <v>      -0.04002399       0.01554737       0.38114570 </v>
   <v>      -0.02985384       0.06173292      -0.31069828 </v>
   <v>       0.06105233       0.00777623       0.06882046 </v>
   <v>      -0.00264522       0.03686884      -0.35864374 </v>
   <v>       0.04897477       0.02805519       0.21660247 </v>
   <v>       0.03894556       0.02734719      -0.61116601 </v>
   <v>       0.01878206       0.03923323       0.40145096 </v>
   <v>       0.03885328      -0.01096200      -0.30964568 </v>
   <v>       0.02164235       0.01778086       0.69720034 </v>
  </varray>
  <varray name="stress" >
   <v>      -5.70780529       0.00116323      -0.14277298 </v>
   <v>       0.00116319      -5.93396682       0.00003118 </v>
   <v>      -0.14277286       0.00003128       4.43532827 </v>
  </varray>
  <energy>
   <i name="e_fr_energy">   -190.74729934 </i>
   <i name="e_wo_entrp">   -190.64225688 </i>
   <i name="e_0_energy">     -0.21008494 </i>
  </energy>
  <time name="totalsc">  408.30  409.37</time>
 </calculation>
 <calculation>
  <scstep>
   <time name="dav">   23.14   23.20</time>
   <time name="total">   23.65   23.71</time>
   <energy>
    <i name="alphaZ">     90.21171006 </i>
    <i name="ewald">  44689.79110069 </i>
    <i name="hartreedc"> -50733.51188101 </i>
    <i name="XCdc">   -231.76816066 </i>
    <i name="pawpsdc">   4063.17312029 </i>
    <i name="pawaedc">  -3479.04833443 </i>
    <i name="eentropy">     -0.19637987 </i>
    <i name="bandstr">  -1352.25092034 </i>
    <i name="atom">   6761.44252427 </i>
    <i name="e_fr_energy">   -192.15722100 </i>
    <i name="e_wo_entrp">   -191.96084114 </i>
    <i name="e_0_energy">   -192.05903107 </i>
   </energy>
  </scstep>
  <scstep>
   <time name="dav">   30.02   30.09</time>
   <time name="total">   30.53   30.61</time>
   <energy>
    <i name="e_fr_energy">   -191.86581417 </i>
    <i name="e_wo_entrp">   -191.66272529 </i>
    <i name="e_0_energy">   -191.76426973 </i>
   </energy>
  </scstep>
  <scstep>
   <time name="dav">   31.64   31.72</time>
   <time name="total">   32.15   32.24</time>
   <energy>
    <i name="e_fr_energy">   -192.01121279 </i>
    <i name="e_wo_entrp">   -191.80772675 </i>
    <i name="e_0_energy">   -191.90946977 </i>
   </energy>
  </scstep>
  <scstep>
   <time name="dav">   30.35   30.42</time>
   <time name="total">   30.86   30.94</time>
   <energy>
    <i name="e_fr_energy">   -191.75303504 </i>
    <i name="e_wo_entrp">   -191.55274992 </i>
    <i name="e_0_energy">   -191.65289248 </i>
   </energy>
  </scstep>
  <scstep>
   <time name="dav">   31.96   32.04</time>
   <time name="total">   32.47   32.56</time>
   <energy>
    <i name="e_fr_energy">   -191.58709748 </i>
    <i name="e_wo_entrp">   -191.38344153 </i>
    <i name="e_0_energy">   -191.48526950 </i>
   </energy>
  </scstep>
  <scstep>
   <time name="dav">   32.01   32.09</time>
   <time name="total">   32.52   32.61</time>
   <energy>
    <i name="e_fr_energy">   -191.43611049 </i>
    <i name="e_wo_entrp">   -191.23044886 </i>
    <i name="e_0_energy">   -191.33327968 </i>
   </energy>
  </scstep>
  <scstep>
   <time name="dav">   32.15   32.23</time>
   <time name="total">   32.66   32.75</time>
   <energy>
    <i name="e_fr_energy">   -191.42787987 </i>
    <i name="e_wo_entrp">   -191.22396325 </i>
    <i name="e_0_energy">   -191.32592156 </i>
   </energy>
  </scstep>
  <scstep>
   <time name="dav">   31.61   31.69</time>
   <time name="total">   32.12   32.21</time>
   <energy>
    <i name="e_fr_energy">   -191.42605425 </i>
    <i name="e_wo_entrp">   -191.22132849 </i>
    <i name="e_0_energy">   -191.32369137 </i>
   </energy>
  </scstep>
  <scstep>
   <time name="dav">   32.43   32.51</time>
   <time name="total">   32.94   33.03</time>
   <energy>
    <i name="e_fr_energy">   -191.41949118 </i>
    <i name="e_wo_entrp">   -191.21476162 </i>
    <i name="e_0_energy">   -191.31712640 </i>
   </energy>
  </scstep>
  <scstep>
   <time name="dav">   29.82   29.89</time>
   <time name="total">   30.34   30.42</time>
   <energy>
    <i name="e_fr_energy">   -191.41978200 </i>
    <i name="e_wo_entrp">   -191.21478422 </i>
    <i name="e_0_energy">   -191.31728311 </i>
   </energy>
  </scstep>
  <scstep>
   <time name="dav">   29.77   29.84</time>
   <time name="total">   30.28   30.36</time>
   <energy>
    <i name="e_fr_energy">   -191.41963679 </i>
    <i name="e_wo_entrp">   -191.21478189 </i>
    <i name="e_0_energy">   -191.31720934 </i>
   </energy>
  </scstep>
  <scstep>
   <time name="dav">   20.91   20.96</time>
   <time name="total">   20.95   21.01</time>
   <energy>
    <i name="alphaZ">     90.21171006 </i>
    <i name="ewald">  44689.79110069 </i>
    <i name="hartreedc"> -50699.21146450 </i>
    <i name="XCdc">   -233.31663519 </i>
    <i name="pawpsdc">   4087.57336124 </i>
    <i name="pawaedc">  -3503.57691001 </i>
    <i name="eentropy">     -0.20493531 </i>
    <i name="bandstr">  -1384.12836957 </i>
    <i name="atom">   6761.44252427 </i>
    <i name="e_fr_energy">   -191.41961832 </i>
    <i name="e_wo_entrp">   -191.21468302 </i>
    <i name="e_0_energy">   -191.31715067 </i>
   </energy>
  </scstep>
  <structure>
   <crystal>
    <varray name="basis" >
     <v>       8.28274170       4.77452168       0.00000000 </v>
     <v>      -8.28340131       4.77566105       0.00000000 </v>
     <v>       0.00000000       0.00000000      30.00000000 </v>
    </varray>
    <i name="volume">   2373.14537994 </i>
    <varray name="rec_basis" >
     <v>       0.06037128       0.10471421       0.00000000 </v>
     <v>      -0.06035688       0.10470587       0.00000000 </v>
     <v>       0.00000000       0.00000000       0.03333333 </v>
    </varray>
   </crystal>
   <varray name="positions" >
    <v>       0.66935261       0.00407525       0.00041593 </v>
    <v>       0.99642683       0.33337287      -0.00000612 </v>
    <v>       0.33243072       0.32729089      -0.00046317 </v>
    <v>       0.67367998       0.34495474       0.00041199 </v>
    <v>       0.00027719      -0.01300157      -0.00025902 </v>
    <v>      -0.00747568       0.67150673       0.00001808 </v>
    <v>       0.32425226      -0.00493317      -0.00004212 </v>
    <v>       0.32581849       0.66997967      -0.00016345 </v>
    <v>       0.68429390       0.66601890       0.00005726 </v>
    <v>       0.11315686       0.22712699       0.95102641 </v>
    <v>       0.22544090       0.11696608       0.05184931 </v>
    <v>       0.10753829       0.54937409       0.94871701 </v>
    <v>       0.21901204       0.43887367       0.04943502 </v>
    <v>       0.11201532       0.88853446       0.94556560 </v>
    <v>       0.22166529       0.77808536       0.05319531 </v>
    <v>       0.44116476       0.22430683       0.94904830 </v>
    <v>       0.55730736       0.10794131       0.05004471 </v>
    <v>       0.44292289       0.55136045       0.95087583 </v>
    <v>       0.54960241       0.44290712       0.05169872 </v>
    <v>       0.45010369       0.89260288       0.94885153 </v>
    <v>       0.55849326       0.78208685       0.04955128 </v>
    <v>       0.78110200       0.21971364       0.94969603 </v>
    <v>       0.88687429       0.11397258       0.04929625 </v>
    <v>       0.77785285       0.55610410       0.94529400 </v>
    <v>       0.89288324       0.44144318       0.05184826 </v>
    <v>       0.77385740       0.89037807       0.94877311 </v>
    <v>       0.88816529       0.77717248       0.05526381 </v>
   </varray>
  </structure>
  <varray name="forces" >
   <v>      -0.10312842       0.03841238       0.01736171 </v>
   <v>      -0.07310720      -0.00959934       0.02547033 </v>
   <v>       0.24507465      -0.19579058      -0.02496426 </v>
   <v>      -0.08764527       0.30023969      -0.02024465 </v>
   <v>       0.24381149      -0.02076958       0.04605632 </v>
   <v>       0.01556687       0.09390781      -0.02691893 </v>
   <v>      -0.02707042      -0.38043367      -0.04347893 </v>
   <v>      -0.53365481      -0.06292137      -0.05605950 </v>
   <v>       0.26095090       0.13349724       0.04054052 </v>
   <v>       0.10377376      -0.20759206       0.03963093 </v>
   <v>       0.02454908      -0.10154261       0.12689356 </v>
   <v>      -0.16372259      -0.01606646      -0.07937133 </v>
   <v>      -0.04016268       0.02417995      -0.06094526 </v>
   <v>       0.03897337      -0.06375335      -0.26284254 </v>
   <v>      -0.13952000      -0.11064180       0.24370021 </v>
   <v>       0.13951302       0.00149817       0.06227031 </v>
   <v>      -0.21659298       0.06117877      -0.11504484 </v>
   <v>      -0.01223489       0.20737837       0.32183605 </v>
   <v>      -0.01496804       0.12363072       0.07685101 </v>
   <v>      -0.10016653       0.02726739      -0.07778351 </v>
   <v>       0.17841606      -0.08216987      -0.22925598 </v>
   <v>      -0.09418913       0.02727851      -0.04049906 </v>
   <v>       0.17578972       0.01796411      -0.05615425 </v>
   <v>       0.10453651       0.06845896      -0.30270451 </v>
   <v>      -0.13733405       0.08807851       0.07372547 </v>
   <v>       0.17427725       0.00417735       0.01096170 </v>
   <v>       0.03826431       0.03413274       0.31096944 </v>
  </varray>
  <varray name="stress" >
   <v>       0.61644577      -0.08954724      -0.35392723 </v>
   <v>      -0.08954699       0.12156799       0.01777003 </v>
   <v>      -0.35392707       0.01777002      -0.32010170 </v>
  </varray>
  <energy>
   <i name="e_fr_energy">   -191.41961832 </i>
   <i name="e_wo_entrp">   -191.31715067 </i>
   <i name="e_0_energy">     -0.20493531 </i>
  </energy>
  <time name="totalsc">  405.70  406.76</time>
 </calculation>
 <calculation>
  <scstep>
   <time name="dav">   23.10   23.15</time>
   <time name="total">   23.61   23.67</time>
   <energy>
    <i name="alphaZ">     89.93979984 </i>
    <i name="ewald">  44549.82840112 </i>
    <i name="hartreedc"> -50556.92486336 </i>
    <i name="XCdc">   -233.57283555 </i>
    <i name="pawpsdc">   4087.50104801 </i>
    <i name="pawaedc">  -3503.50017850 </i>
    <i name="eentropy">     -0.20891686 </i>
    <i name="bandstr">  -1385.98884509 </i>
    <i name="atom">   6761.44252427 </i>
    <i name="e_fr_energy">   -191.48386612 </i>
    <i name="e_wo_entrp">   -191.27494926 </i>
    <i name="e_0_energy">   -191.37940769 </i>
   </energy>
  </scstep>
  <scstep>
   <time name="dav">   33.63   33.71</time>
   <time name="total">   34.14   34.23</time>
   <energy>
    <i name="e_fr_energy">   -191.54667748 </i>
    <i name="e_wo_entrp">   -191.33325012 </i>
    <i name="e_0_energy">   -191.43996380 </i>
   </energy>
  </scstep>
  <scstep>
   <time name="dav">   32.34   32.42</time>
   <time name="total">   32.86   32.94</time>
   <energy>
    <i name="e_fr_energy">   -191.49342186 </i>
    <i name="e_wo_entrp">   -191.28382308 </i>
    <i name="e_0_energy">   -191.38862247 </i>
   </energy>
  </scstep>
  <scstep>
   <time name="dav">   29.63   29.70</time>
   <time name="total">   30.14   30.22</time>
   <energy>
    <i name="e_fr_energy">   -191.49594921 </i>
    <i name="e_wo_entrp">   -191.28665108 </i>
    <i name="e_0_energy">   -191.39130015 </i>
   </energy>
  </scstep>
  <scstep>
   <time name="dav">   29.86   29.94</time>
   <time name="total">   30.37   30.46</time>
   <energy>
    <i name="e_fr_energy">   -191.49073845 </i>
    <i name="e_wo_entrp">   -191.28077233 </i>
    <i name="e_0_energy">   -191.38575539 </i>
   </energy>
  </scstep>
  <scstep>
   <time name="dav">   29.20   29.27</time>
   <time name="total">   29.71   29.79</time>
   <energy>
    <i name="e_fr_energy">   -191.49044866 </i>
    <i name="e_wo_entrp">   -191.28061399 </i>
    <i name="e_0_energy">   -191.38553133 </i>
   </energy>
  </scstep>
  <scstep>
   <time name="dav">   30.34   30.41</time>
   <time name="total">   30.85   30.93</time>
   <energy>
    <i name="e_fr_energy">   -191.49082850 </i>
    <i name="e_wo_entrp">   -191.28126309 </i>
    <i name="e_0_energy">   -191.38604579 </i>
   </energy>
  </scstep>
  <scstep>
   <time name="dav">   26.49   26.55</time>
   <time name="total">   27.00   27.07</time>
   <energy>
    <i name="e_fr_energy">   -191.48985144 </i>
    <i name="e_wo_entrp">   -191.28006970 </i>
    <i name="e_0_energy">   -191.38496057 </i>
   </energy>
  </scstep>
  <scstep>
   <time name="dav">   18.04   18.08</time>
   <time name="total">   18.08   18.13</time>
   <energy>
    <i name="alphaZ">     89.93979984 </i>
    <i name="ewald">  44549.82840112 </i>
    <i name="hartreedc"> -50559.97442067 </i>
    <i name="XCdc">   -233.46211883 </i>
    <i name="pawpsdc">   4083.14915524 </i>
    <i name="pawaedc">  -3499.08971639 </i>
    <i name="eentropy">     -0.20969019 </i>
    <i name="bandstr">  -1383.11377419 </i>
    <i name="atom">   6761.44252427 </i>
    <i name="e_fr_energy">   -191.48983980 </i>
    <i name="e_wo_entrp">   -191.28014962 </i>
    <i name="e_0_energy">   -191.38499471 </i>
   </energy>
  </scstep>
  <structure>
   <crystal>
    <varray name="basis" >
     <v>       8.29910237       4.77709111       0.00000000 </v>
     <v>      -8.30186220       4.78187225       0.00000000 </v>
     <v>       0.00000000       0.00000000      30.00000000 </v>
    </varray>
    <i name="volume">   2380.31998418 </i>
    <varray name="rec_basis" >
     <v>       0.06026760       0.10463125       0.00000000 </v>
     <v>      -0.06020734       0.10459647       0.00000000 </v>
     <v>       0.00000000       0.00000000       0.03333333 </v>
    </varray>
   </crystal>
   <varray name="positions" >
    <v>       0.66924307       0.00448469       0.00042769 </v>
    <v>       0.99623439       0.33350763       0.00003096 </v>
    <v>       0.33218347       0.32582938      -0.00048624 </v>
    <v>       0.67472221       0.34634384       0.00037411 </v>
    <v>       0.00083159      -0.01345105      -0.00018818 </v>
    <v>      -0.00684637       0.67177131      -0.00002134 </v>
    <v>       0.32258791      -0.00650355      -0.00011283 </v>
    <v>       0.32421651       0.67102419      -0.00024164 </v>
    <v>       0.68526448       0.66595297       0.00012384 </v>
    <v>       0.11246634       0.22586776       0.95114986 </v>
    <v>       0.22503112       0.11638075       0.05193734 </v>
    <v>       0.10709540       0.54979799       0.94868854 </v>
    <v>       0.21906798       0.43915881       0.04927014 </v>
    <v>       0.11184109       0.88816006       0.94531313 </v>
    <v>       0.22081989       0.77794820       0.05344958 </v>
    <v>       0.44154428       0.22390300       0.94922422 </v>
    <v>       0.55698735       0.10880581       0.04981021 </v>
    <v>       0.44385089       0.55238373       0.95139509 </v>
    <v>       0.55018562       0.44354109       0.05171246 </v>
    <v>       0.44989902       0.89294442       0.94882341 </v>
    <v>       0.55855046       0.78119041       0.04915925 </v>
    <v>       0.78094372       0.22009436       0.94972845 </v>
    <v>       0.88742222       0.11356529       0.04914359 </v>
    <v>       0.77843181       0.55614594       0.94498568 </v>
    <v>       0.89288297       0.44223388       0.05185351 </v>
    <v>       0.77435760       0.88991578       0.94887935 </v>
    <v>       0.88839944       0.77721775       0.05556970 </v>
   </varray>
  </structure>
  <varray name="forces" >
   <v>      -0.07616317       0.06086957       0.04607682 </v>
   <v>      -0.07187442      -0.02627482       0.04435935 </v>
   <v>       0.27690175      -0.24565026      -0.03396823 </v>
   <v>      -0.12229466       0.38365996      -0.00704120 </v>
   <v>       0.27582214      -0.02290655       0.02548634 </v>
   <v>      -0.02579956       0.08092463      -0.00167912 </v>
   <v>      -0.03889425      -0.43747843      -0.01161024 </v>
   <v>      -0.60346984      -0.06302752      -0.03681717 </v>
   <v>       0.40695291       0.18975939      -0.01034069 </v>
   <v>       0.06280776      -0.12275004       0.05709041 </v>
   <v>       0.03992053      -0.04760867       0.12660898 </v>
   <v>      -0.08812390      -0.02809320      -0.11848815 </v>
   <v>      -0.03517974       0.03481439      -0.10526776 </v>
   <v>       0.01376161      -0.04347301      -0.22496920 </v>
   <v>      -0.09615993      -0.05605290       0.24624332 </v>
   <v>       0.11190381      -0.00864397       0.07111942 </v>
   <v>      -0.16238746       0.03156489      -0.15787006 </v>
   <v>      -0.05424244       0.12184562       0.35139280 </v>
   <v>      -0.00239926       0.06585987       0.04935311 </v>
   <v>      -0.08051112       0.01590009      -0.07548870 </v>
   <v>       0.09570671      -0.07305333      -0.23757819 </v>
   <v>      -0.05332079       0.02140173      -0.02926551 </v>
   <v>       0.10741414       0.01119305      -0.07627229 </v>
   <v>       0.04211078       0.06518072      -0.19935620 </v>
   <v>      -0.07345854       0.05988382       0.06746158 </v>
   <v>       0.10222931       0.00610120       0.03617470 </v>
   <v>       0.04874763       0.02605376       0.20464590 </v>
  </varray>
  <varray name="stress" >
   <v>      -0.27220627      -0.05984639      -0.14420366 </v>
   <v>      -0.05984636      -0.30783447       0.03730429 </v>
   <v>      -0.14420406       0.03730435      -0.95596157 </v>
  </varray>
  <energy>
   <i name="e_fr_energy">   -191.48983980 </i>
   <i name="e_wo_entrp">   -191.38499471 </i>
   <i name="e_0_energy">     -0.20969019 </i>
  </energy>
  <time name="totalsc">  300.93  301.73</time>
 </calculation>
 <calculation>
  <scstep>
   <time name="dav">   23.13   23.19</time>
   <time name="total">   23.65   23.71</time>
   <energy>
    <i name="alphaZ">     90.03648140 </i>
    <i name="ewald">  44590.43831624 </i>
    <i name="hartreedc"> -50601.72107786 </i>
    <i name="XCdc">   -233.41011701 </i>
    <i name="pawpsdc">   4082.85658501 </i>
    <i name="pawaedc">  -3498.79380840 </i>
    <i name="eentropy">     -0.21078404 </i>
    <i name="bandstr">  -1382.17395790 </i>
    <i name="atom">   6761.44252427 </i>
    <i name="e_fr_energy">   -191.53583828 </i>
    <i name="e_wo_entrp">   -191.32505424 </i>
    <i name="e_0_energy">   -191.43044626 </i>
   </energy>
  </scstep>
  <scstep>
   <time name="dav">   34.66   34.74</time>
   <time name="total">   35.17   35.26</time>
   <energy>
    <i name="e_fr_energy">   -191.54958837 </i>
    <i name="e_wo_entrp">   -191.33594203 </i>
    <i name="e_0_energy">   -191.44276520 </i>
   </energy>
  </scstep>
  <scstep>
   <time name="dav">   31.81   31.89</time>
   <time name="total">   32.32   32.41</time>
   <energy>
    <i name="e_fr_energy">   -191.53895815 </i>
    <i name="e_wo_entrp">   -191.32792250 </i>
    <i name="e_0_energy">   -191.43344033 </i>
   </energy>
  </scstep>
  <scstep>
   <time name="dav">   29.47   29.54</time>
   <time name="total">   29.98   30.06</time>
   <energy>
    <i name="e_fr_energy">   -191.53928122 </i>
    <i name="e_wo_entrp">   -191.32836418 </i>
    <i name="e_0_energy">   -191.43382270 </i>
   </energy>
  </scstep>
  <scstep>
   <time name="dav">   29.37   29.44</time>
   <time name="total">   29.88   29.96</time>
   <energy>
    <i name="e_fr_energy">   -191.53774754 </i>
    <i name="e_wo_entrp">   -191.32627811 </i>
    <i name="e_0_energy">   -191.43201283 </i>
   </energy>
  </scstep>
  <scstep>
   <time name="dav">   27.04   27.10</time>
   <time name="total">   27.07   27.15</time>
   <energy>
    <i name="alphaZ">     90.03648140 </i>
    <i name="ewald">  44590.43831624 </i>
    <i name="hartreedc"> -50601.24959245 </i>
    <i name="XCdc">   -233.43250604 </i>
    <i name="pawpsdc">   4083.37413993 </i>
    <i name="pawaedc">  -3499.31813973 </i>
    <i name="eentropy">     -0.21145876 </i>
    <i name="bandstr">  -1382.61742170 </i>
    <i name="atom">   6761.44252427 </i>
    <i name="e_fr_energy">   -191.53765683 </i>
    <i name="e_wo_entrp">   -191.32619807 </i>
    <i name="e_0_energy">   -191.43192745 </i>
   </energy>
  </scstep>
  <structure>
   <crystal>
    <varray name="basis" >
     <v>       8.29459601       4.77363119       0.00000000 </v>
     <v>      -8.29815286       4.77979617       0.00000000 </v>
[...]
      <set comment="kpoint 31">
       <r>  -17.5201    1.0000 </r>
       <r>  -17.2143    1.0000 </r>
       <r>  -16.9253    1.0000 </r>
       <r>  -16.6015    1.0000 </r>
       <r>  -16.5016    1.0000 </r>
       <r>  -16.3836    1.0000 </r>
       <r>  -16.2882    1.0000 </r>
       <r>  -16.1324    1.0000 </r>
       <r>  -16.0375    1.0000 </r>
       <r>  -16.0116    1.0000 </r>
       <r>  -15.9145    1.0000 </r>
       <r>  -15.8959    1.0000 </r>
       <r>  -15.8071    1.0000 </r>
       <r>  -15.7658    1.0000 </r>
       <r>  -15.6348    1.0000 </r>
       <r>  -15.5345    1.0000 </r>
       <r>  -15.4851    1.0000 </r>
       <r>  -15.3716    1.0000 </r>
       <r>   -9.6883    1.0000 </r>
       <r>   -9.4050    1.0000 </r>
       <r>   -9.3236    1.0000 </r>
       <r>   -8.9773    1.0000 </r>
       <r>   -8.8301    1.0000 </r>
       <r>   -8.7512    1.0000 </r>
       <r>   -8.5326    1.0000 </r>
       <r>   -8.4261    1.0000 </r>
       <r>   -8.3934    1.0000 </r>
       <r>   -8.3230    1.0000 </r>
       <r>   -8.2864    1.0000 </r>
       <r>   -8.1842    1.0000 </r>
       <r>   -8.1256    1.0000 </r>
       <r>   -8.1009    1.0000 </r>
       <r>   -7.9750    1.0000 </r>
       <r>   -7.8837    1.0000 </r>
       <r>   -7.8022    1.0000 </r>
       <r>   -7.6457    1.0000 </r>
       <r>   -7.6036    1.0000 </r>
       <r>   -7.4317    1.0000 </r>
       <r>   -7.2586    1.0000 </r>
       <r>   -7.1504    1.0000 </r>
       <r>   -7.1041    1.0000 </r>
       <r>   -7.0646    1.0000 </r>
       <r>   -6.9835    1.0000 </r>
       <r>   -6.9510    1.0000 </r>
       <r>   -6.8342    1.0000 </r>
       <r>   -6.8249    1.0000 </r>
       <r>   -6.6848    1.0000 </r>
       <r>   -6.6190    1.0000 </r>
       <r>   -6.5925    1.0000 </r>
       <r>   -6.5296    1.0000 </r>
       <r>   -6.4508    1.0000 </r>
       <r>   -6.3824    1.0000 </r>
       <r>   -6.2745    1.0000 </r>
       <r>   -6.1936    1.0000 </r>
       <r>   -6.1549    1.0000 </r>
       <r>   -6.0985    1.0000 </r>
       <r>   -6.0263    1.0000 </r>
       <r>   -5.9002    1.0000 </r>
       <r>   -5.8813    1.0000 </r>
       <r>   -5.7822    1.0000 </r>
       <r>   -5.7371    1.0000 </r>
       <r>   -5.6831    1.0000 </r>
       <r>   -5.5672    1.0000 </r>
       <r>   -5.4172    1.0000 </r>
       <r>   -5.2446    1.0000 </r>
       <r>   -5.1603    1.0000 </r>
       <r>   -5.0704    1.0000 </r>
       <r>   -4.8779    1.0000 </r>
       <r>   -4.8017    1.0000 </r>
       <r>   -4.6658    1.0000 </r>
       <r>   -4.5595    1.0000 </r>
       <r>   -4.4629    1.0000 </r>
       <r>   -4.4081    1.0000 </r>
       <r>   -4.3088    1.0000 </r>
       <r>   -4.2408    1.0000 </r>
       <r>   -3.9285    1.0000 </r>
       <r>   -3.7461    0.9993 </r>
       <r>   -3.6045    0.9858 </r>
       <r>   -3.5312    0.9528 </r>
       <r>   -3.2777    0.4522 </r>
       <r>   -3.0295    0.0304 </r>
       <r>   -2.7682    0.0001 </r>
       <r>   -2.6599    0.0000 </r>
       <r>   -2.5942    0.0000 </r>
       <r>   -2.3827    0.0000 </r>
       <r>   -2.3474    0.0000 </r>
       <r>   -2.2779    0.0000 </r>
       <r>   -2.2228    0.0000 </r>
       <r>   -2.1165    0.0000 </r>
       <r>   -2.0532    0.0000 </r>
       <r>   -1.8981    0.0000 </r>
       <r>   -1.8517    0.0000 </r>
       <r>   -1.4391    0.0000 </r>
       <r>   -1.3293    0.0000 </r>
       <r>   -1.2440    0.0000 </r>
       <r>   -1.1473    0.0000 </r>
       <r>   -1.0860    0.0000 </r>
       <r>   -1.0039    0.0000 </r>
       <r>   -0.9378    0.0000 </r>
       <r>   -0.8815    0.0000 </r>
       <r>   -0.8275    0.0000 </r>
       <r>   -0.7375    0.0000 </r>
       <r>   -0.6332    0.0000 </r>
       <r>   -0.6058    0.0000 </r>
       <r>   -0.4789    0.0000 </r>
       <r>   -0.3722    0.0000 </r>
       <r>   -0.2598    0.0000 </r>
       <r>   -0.1328    0.0000 </r>
       <r>    0.0967    0.0000 </r>
       <r>    0.1720    0.0000 </r>
       <r>    0.3349    0.0000 </r>
       <r>    0.5549    0.0000 </r>
       <r>    0.6385    0.0000 </r>
       <r>    0.9362    0.0000 </r>
       <r>    1.2460    0.0000 </r>
       <r>    1.3107    0.0000 </r>
       <r>    1.4406    0.0000 </r>
       <r>    2.1238    0.0000 </r>
       <r>    2.2868    0.0000 </r>
       <r>    2.3794    0.0000 </r>
      </set>
      <set comment="kpoint 32">
       <r>  -17.5216    1.0000 </r>
       <r>  -17.1424    1.0000 </r>
       <r>  -17.0505    1.0000 </r>
       <r>  -16.6020    1.0000 </r>
       <r>  -16.3921    1.0000 </r>
       <r>  -16.3694    1.0000 </r>
       <r>  -16.2648    1.0000 </r>
       <r>  -16.1959    1.0000 </r>
       <r>  -16.0574    1.0000 </r>
       <r>  -16.0343    1.0000 </r>
       <r>  -15.9337    1.0000 </r>
       <r>  -15.8752    1.0000 </r>
       <r>  -15.7942    1.0000 </r>
       <r>  -15.7472    1.0000 </r>
       <r>  -15.6805    1.0000 </r>
       <r>  -15.5252    1.0000 </r>
       <r>  -15.4906    1.0000 </r>
       <r>  -15.3476    1.0000 </r>
       <r>   -9.6185    1.0000 </r>
       <r>   -9.5331    1.0000 </r>
       <r>   -9.3932    1.0000 </r>
       <r>   -8.9620    1.0000 </r>
       <r>   -8.7210    1.0000 </r>
       <r>   -8.5309    1.0000 </r>
       <r>   -8.4943    1.0000 </r>
       <r>   -8.4404    1.0000 </r>
       <r>   -8.4151    1.0000 </r>
       <r>   -8.3333    1.0000 </r>
       <r>   -8.3134    1.0000 </r>
       <r>   -8.2394    1.0000 </r>
       <r>   -8.1583    1.0000 </r>
       <r>   -8.1146    1.0000 </r>
       <r>   -8.0549    1.0000 </r>
       <r>   -7.9593    1.0000 </r>
       <r>   -7.8322    1.0000 </r>
       <r>   -7.5934    1.0000 </r>
       <r>   -7.5077    1.0000 </r>
       <r>   -7.4360    1.0000 </r>
       <r>   -7.3121    1.0000 </r>
       <r>   -7.1840    1.0000 </r>
       <r>   -7.0658    1.0000 </r>
       <r>   -7.0467    1.0000 </r>
       <r>   -7.0214    1.0000 </r>
       <r>   -6.9538    1.0000 </r>
       <r>   -6.8699    1.0000 </r>
       <r>   -6.8518    1.0000 </r>
       <r>   -6.6591    1.0000 </r>
       <r>   -6.6324    1.0000 </r>
       <r>   -6.5808    1.0000 </r>
       <r>   -6.5140    1.0000 </r>
       <r>   -6.4317    1.0000 </r>
       <r>   -6.3965    1.0000 </r>
       <r>   -6.3122    1.0000 </r>
       <r>   -6.2072    1.0000 </r>
       <r>   -6.1397    1.0000 </r>
       <r>   -6.1066    1.0000 </r>
       <r>   -5.9967    1.0000 </r>
       <r>   -5.9184    1.0000 </r>
       <r>   -5.8595    1.0000 </r>
       <r>   -5.7544    1.0000 </r>
       <r>   -5.7228    1.0000 </r>
       <r>   -5.5310    1.0000 </r>
       <r>   -5.5080    1.0000 </r>
       <r>   -5.3865    1.0000 </r>
       <r>   -5.2936    1.0000 </r>
       <r>   -5.2170    1.0000 </r>
       <r>   -5.1670    1.0000 </r>
       <r>   -4.8981    1.0000 </r>
       <r>   -4.8600    1.0000 </r>
       <r>   -4.6304    1.0000 </r>
       <r>   -4.5259    1.0000 </r>
       <r>   -4.5068    1.0000 </r>
       <r>   -4.4164    1.0000 </r>
       <r>   -4.2807    1.0000 </r>
       <r>   -4.2763    1.0000 </r>
       <r>   -3.9331    1.0000 </r>
       <r>   -3.7163    0.9986 </r>
       <r>   -3.5405    0.9589 </r>
       <r>   -3.5188    0.9435 </r>
       <r>   -3.3482    0.6473 </r>
       <r>   -3.0152    0.0240 </r>
       <r>   -2.7434    0.0000 </r>
       <r>   -2.6830    0.0000 </r>
       <r>   -2.5813    0.0000 </r>
       <r>   -2.3924    0.0000 </r>
       <r>   -2.3361    0.0000 </r>
       <r>   -2.2925    0.0000 </r>
       <r>   -2.2338    0.0000 </r>
       <r>   -2.1191    0.0000 </r>
       <r>   -2.0466    0.0000 </r>
       <r>   -1.9078    0.0000 </r>
       <r>   -1.8465    0.0000 </r>
       <r>   -1.4043    0.0000 </r>
       <r>   -1.3323    0.0000 </r>
       <r>   -1.2715    0.0000 </r>
       <r>   -1.1586    0.0000 </r>
       <r>   -1.0692    0.0000 </r>
       <r>   -1.0301    0.0000 </r>
       <r>   -0.9276    0.0000 </r>
       <r>   -0.8676    0.0000 </r>
       <r>   -0.8290    0.0000 </r>
       <r>   -0.7038    0.0000 </r>
       <r>   -0.6165    0.0000 </r>
       <r>   -0.5988    0.0000 </r>
       <r>   -0.4627    0.0000 </r>
       <r>   -0.3928    0.0000 </r>
       <r>   -0.3169    0.0000 </r>
       <r>   -0.0520    0.0000 </r>
       <r>    0.0422    0.0000 </r>
       <r>    0.1787    0.0000 </r>
       <r>    0.3158    0.0000 </r>
       <r>    0.5468    0.0000 </r>
       <r>    0.7288    0.0000 </r>
       <r>    0.9178    0.0000 </r>
       <r>    1.1873    0.0000 </r>
       <r>    1.2915    0.0000 </r>
       <r>    1.4197    0.0000 </r>
       <r>    2.0943    0.0000 </r>
       <r>    2.2556    0.0000 </r>
       <r>    2.5469    0.0000 </r>
      </set>
      <set comment="kpoint 33">
       <r>  -17.4926    1.0000 </r>
       <r>  -17.2716    1.0000 </r>
       <r>  -16.8983    1.0000 </r>
       <r>  -16.6061    1.0000 </r>
       <r>  -16.4643    1.0000 </r>
       <r>  -16.3917    1.0000 </r>
       <r>  -16.2921    1.0000 </r>
       <r>  -16.1441    1.0000 </r>
       <r>  -16.0659    1.0000 </r>
       <r>  -15.9959    1.0000 </r>
       <r>  -15.9477    1.0000 </r>
       <r>  -15.8485    1.0000 </r>
       <r>  -15.8067    1.0000 </r>
       <r>  -15.7859    1.0000 </r>
       <r>  -15.6222    1.0000 </r>
       <r>  -15.5335    1.0000 </r>
       <r>  -15.4860    1.0000 </r>
       <r>  -15.3715    1.0000 </r>
       <r>   -9.7239    1.0000 </r>
       <r>   -9.3867    1.0000 </r>
       <r>   -9.3335    1.0000 </r>
       <r>   -8.9680    1.0000 </r>
       <r>   -8.8348    1.0000 </r>
       <r>   -8.6301    1.0000 </r>
       <r>   -8.5341    1.0000 </r>
       <r>   -8.4759    1.0000 </r>
       <r>   -8.4308    1.0000 </r>
       <r>   -8.3097    1.0000 </r>
       <r>   -8.2940    1.0000 </r>
       <r>   -8.1907    1.0000 </r>
       <r>   -8.1368    1.0000 </r>
       <r>   -8.0720    1.0000 </r>
       <r>   -8.0075    1.0000 </r>
       <r>   -7.8749    1.0000 </r>
       <r>   -7.8311    1.0000 </r>
       <r>   -7.6144    1.0000 </r>
       <r>   -7.5697    1.0000 </r>
       <r>   -7.4035    1.0000 </r>
       <r>   -7.2575    1.0000 </r>
       <r>   -7.1834    1.0000 </r>
       <r>   -7.1182    1.0000 </r>
       <r>   -7.0819    1.0000 </r>
       <r>   -6.9967    1.0000 </r>
       <r>   -6.9540    1.0000 </r>
       <r>   -6.8478    1.0000 </r>
       <r>   -6.8177    1.0000 </r>
       <r>   -6.6882    1.0000 </r>
       <r>   -6.6222    1.0000 </r>
       <r>   -6.6070    1.0000 </r>
       <r>   -6.5086    1.0000 </r>
       <r>   -6.4457    1.0000 </r>
       <r>   -6.4043    1.0000 </r>
       <r>   -6.2661    1.0000 </r>
       <r>   -6.2088    1.0000 </r>
       <r>   -6.1795    1.0000 </r>
       <r>   -6.1038    1.0000 </r>
       <r>   -6.0022    1.0000 </r>
       <r>   -5.9152    1.0000 </r>
       <r>   -5.8707    1.0000 </r>
       <r>   -5.7855    1.0000 </r>
       <r>   -5.7100    1.0000 </r>
       <r>   -5.6926    1.0000 </r>
       <r>   -5.5441    1.0000 </r>
       <r>   -5.4302    1.0000 </r>
       <r>   -5.2439    1.0000 </r>
       <r>   -5.1253    1.0000 </r>
       <r>   -5.0716    1.0000 </r>
       <r>   -4.8696    1.0000 </r>
       <r>   -4.8133    1.0000 </r>
       <r>   -4.6590    1.0000 </r>
       <r>   -4.5582    1.0000 </r>
       <r>   -4.4575    1.0000 </r>
       <r>   -4.4253    1.0000 </r>
       <r>   -4.3064    1.0000 </r>
       <r>   -4.2407    1.0000 </r>
       <r>   -3.9293    1.0000 </r>
       <r>   -3.7315    0.9990 </r>
       <r>   -3.5804    0.9783 </r>
       <r>   -3.5311    0.9527 </r>
       <r>   -3.3374    0.6188 </r>
       <r>   -3.0333    0.0323 </r>
       <r>   -2.7161    0.0000 </r>
       <r>   -2.6981    0.0000 </r>
       <r>   -2.5805    0.0000 </r>
       <r>   -2.4455    0.0000 </r>
       <r>   -2.3316    0.0000 </r>
       <r>   -2.2783    0.0000 </r>
       <r>   -2.2332    0.0000 </r>
       <r>   -2.0803    0.0000 </r>
       <r>   -2.0357    0.0000 </r>
       <r>   -1.9178    0.0000 </r>
       <r>   -1.8250    0.0000 </r>
       <r>   -1.3826    0.0000 </r>
       <r>   -1.3442    0.0000 </r>
       <r>   -1.2631    0.0000 </r>
       <r>   -1.1681    0.0000 </r>
       <r>   -1.0818    0.0000 </r>
       <r>   -1.0073    0.0000 </r>
       <r>   -0.9317    0.0000 </r>
       <r>   -0.8884    0.0000 </r>
       <r>   -0.8052    0.0000 </r>
       <r>   -0.6939    0.0000 </r>
       <r>   -0.6555    0.0000 </r>
       <r>   -0.5711    0.0000 </r>
       <r>   -0.5173    0.0000 </r>
       <r>   -0.3896    0.0000 </r>
       <r>   -0.2828    0.0000 </r>
       <r>   -0.0984    0.0000 </r>
       <r>    0.0113    0.0000 </r>
       <r>    0.2188    0.0000 </r>
       <r>    0.3289    0.0000 </r>
       <r>    0.5313    0.0000 </r>
       <r>    0.8010    0.0000 </r>
       <r>    0.9090    0.0000 </r>
       <r>    1.1970    0.0000 </r>
       <r>    1.2281    0.0000 </r>
       <r>    1.4636    0.0000 </r>
       <r>    2.1262    0.0000 </r>
       <r>    2.2888    0.0000 </r>
       <r>    2.3835    0.0000 </r>
      </set>
      <set comment="kpoint 34">
       <r>  -17.4550    1.0000 </r>
       <r>  -17.3497    1.0000 </r>
       <r>  -16.7432    1.0000 </r>
       <r>  -16.6586    1.0000 </r>
       <r>  -16.5686    1.0000 </r>
       <r>  -16.3992    1.0000 </r>
       <r>  -16.2763    1.0000 </r>
       <r>  -16.1535    1.0000 </r>
       <r>  -16.0426    1.0000 </r>
       <r>  -15.9696    1.0000 </r>
       <r>  -15.9351    1.0000 </r>
       <r>  -15.8617    1.0000 </r>
       <r>  -15.8137    1.0000 </r>
       <r>  -15.7984    1.0000 </r>
       <r>  -15.5618    1.0000 </r>
       <r>  -15.5505    1.0000 </r>
       <r>  -15.4847    1.0000 </r>
       <r>  -15.4028    1.0000 </r>
       <r>   -9.7659    1.0000 </r>
       <r>   -9.3200    1.0000 </r>
       <r>   -9.1575    1.0000 </r>
       <r>   -9.0868    1.0000 </r>
       <r>   -8.9152    1.0000 </r>
       <r>   -8.7359    1.0000 </r>
       <r>   -8.5613    1.0000 </r>
       <r>   -8.4892    1.0000 </r>
       <r>   -8.4503    1.0000 </r>
       <r>   -8.3006    1.0000 </r>
       <r>   -8.2542    1.0000 </r>
       <r>   -8.1813    1.0000 </r>
       <r>   -8.1164    1.0000 </r>
       <r>   -8.0555    1.0000 </r>
       <r>   -7.9516    1.0000 </r>
       <r>   -7.8570    1.0000 </r>
       <r>   -7.7483    1.0000 </r>
       <r>   -7.6877    1.0000 </r>
       <r>   -7.5004    1.0000 </r>
       <r>   -7.3974    1.0000 </r>
       <r>   -7.3189    1.0000 </r>
       <r>   -7.1940    1.0000 </r>
       <r>   -7.1388    1.0000 </r>
       <r>   -7.0927    1.0000 </r>
       <r>   -6.9667    1.0000 </r>
       <r>   -6.9363    1.0000 </r>
       <r>   -6.8335    1.0000 </r>
       <r>   -6.7697    1.0000 </r>
       <r>   -6.7033    1.0000 </r>
       <r>   -6.6451    1.0000 </r>
       <r>   -6.5827    1.0000 </r>
       <r>   -6.5236    1.0000 </r>
       <r>   -6.4577    1.0000 </r>
       <r>   -6.4099    1.0000 </r>
       <r>   -6.2988    1.0000 </r>
       <r>   -6.1926    1.0000 </r>
       <r>   -6.1621    1.0000 </r>
       <r>   -6.1339    1.0000 </r>
       <r>   -5.9985    1.0000 </r>
       <r>   -5.9457    1.0000 </r>
       <r>   -5.8688    1.0000 </r>
       <r>   -5.7882    1.0000 </r>
       <r>   -5.7708    1.0000 </r>
       <r>   -5.6827    1.0000 </r>
       <r>   -5.5934    1.0000 </r>
       <r>   -5.4380    1.0000 </r>
       <r>   -5.3489    1.0000 </r>
       <r>   -5.0330    1.0000 </r>
       <r>   -4.8960    1.0000 </r>
       <r>   -4.8430    1.0000 </r>
       <r>   -4.8248    1.0000 </r>
       <r>   -4.6877    1.0000 </r>
       <r>   -4.5529    1.0000 </r>
       <r>   -4.4779    1.0000 </r>
       <r>   -4.4117    1.0000 </r>
       <r>   -4.3045    1.0000 </r>
       <r>   -4.2221    1.0000 </r>
       <r>   -3.9238    1.0000 </r>
       <r>   -3.7511    0.9994 </r>
       <r>   -3.6282    0.9908 </r>
       <r>   -3.5383    0.9575 </r>
       <r>   -3.3236    0.5810 </r>
       <r>   -3.0415    0.0367 </r>
       <r>   -2.7186    0.0000 </r>
       <r>   -2.6941    0.0000 </r>
       <r>   -2.5792    0.0000 </r>
       <r>   -2.4708    0.0000 </r>
       <r>   -2.3370    0.0000 </r>
       <r>   -2.2575    0.0000 </r>
       <r>   -2.2369    0.0000 </r>
       <r>   -2.0621    0.0000 </r>
       <r>   -2.0247    0.0000 </r>
       <r>   -1.9191    0.0000 </r>
       <r>   -1.8141    0.0000 </r>
       <r>   -1.3846    0.0000 </r>
       <r>   -1.3371    0.0000 </r>
       <r>   -1.2663    0.0000 </r>
       <r>   -1.1710    0.0000 </r>
       <r>   -1.0519    0.0000 </r>
       <r>   -1.0114    0.0000 </r>
       <r>   -0.9525    0.0000 </r>
       <r>   -0.8876    0.0000 </r>
       <r>   -0.7843    0.0000 </r>
       <r>   -0.7209    0.0000 </r>
       <r>   -0.6592    0.0000 </r>
       <r>   -0.6151    0.0000 </r>
       <r>   -0.5195    0.0000 </r>
       <r>   -0.3273    0.0000 </r>
       <r>   -0.3056    0.0000 </r>
       <r>   -0.1273    0.0000 </r>
       <r>   -0.0010    0.0000 </r>
       <r>    0.2268    0.0000 </r>
       <r>    0.3450    0.0000 </r>
       <r>    0.5290    0.0000 </r>
       <r>    0.8198    0.0000 </r>
       <r>    0.9142    0.0000 </r>
       <r>    1.1888    0.0000 </r>
       <r>    1.2340    0.0000 </r>
       <r>    1.4882    0.0000 </r>
       <r>    2.2052    0.0000 </r>
       <r>    2.2395    0.0000 </r>
       <r>    2.3700    0.0000 </r>
      </set>
     </set>
    </set>
   </array>
  </eigenvalues>
  <separator name="orbital magnetization" >
   <v name="MAGDIPOLOUT">      0.00000000      0.00000000      0.00000000</v>
  </separator>
 </calculation>
 <structure name="finalpos" >
  <crystal>
   <varray name="basis" >
    <v>       8.36693761       4.79646954       0.00000000 </v>
    <v>      -8.39989387       4.85380848       0.00000000 </v>
    <v>       0.00000000       0.00000000      30.00000000 </v>
   </varray>
   <i name="volume">   2427.04043399 </i>
   <varray name="rec_basis" >
    <v>       0.05999663       0.10382885       0.00000000 </v>
    <v>      -0.05928788       0.10342149       0.00000000 </v>
    <v>       0.00000000       0.00000000       0.03333333 </v>
   </varray>
  </crystal>
  <varray name="positions" >
   <v>       0.65330621       0.02229273      -0.00148562 </v>
   <v>       0.99711829       0.31062825      -0.00008945 </v>
   <v>       0.34501665       0.36488676       0.00077094 </v>
   <v>       0.69174846       0.36030892       0.00032928 </v>
   <v>       0.00418690      -0.02559165       0.00038241 </v>
   <v>      -0.00247165       0.68022543      -0.00016364 </v>
   <v>       0.31186061      -0.03335992      -0.00039627 </v>
   <v>       0.31020903       0.66908770      -0.00023962 </v>
   <v>       0.68933518       0.65482719       0.00049564 </v>
   <v>       0.11837858       0.22271453       0.95261877 </v>
   <v>       0.22829459       0.11613965       0.04836765 </v>
   <v>       0.10242828       0.54500120       0.94935585 </v>
   <v>       0.21648264       0.44053132       0.05086017 </v>
   <v>       0.11224429       0.88552246       0.94328117 </v>
   <v>       0.21372122       0.77258560       0.05643931 </v>
   <v>       0.43882833       0.22092885       0.95765783 </v>
   <v>       0.55109788       0.11448773       0.04937383 </v>
   <v>       0.44965350       0.56348058       0.95094083 </v>
   <v>       0.55511408       0.44643654       0.05315821 </v>
   <v>       0.44435509       0.88964076       0.94662172 </v>
   <v>       0.55949101       0.78165994       0.04209523 </v>
   <v>       0.78248389       0.22381797       0.94833964 </v>
   <v>       0.88007423       0.10394245       0.04724830 </v>
   <v>       0.78524624       0.55922778       0.94322715 </v>
   <v>       0.89850005       0.44409238       0.05080581 </v>
   <v>       0.77386335       0.89053488       0.95315627 </v>
   <v>       0.88764753       0.77416441       0.05684849 </v>
  </varray>
 </structure>
</modeling>
