unknown system                          
           1
     8.858506    5.103243    0.000000
    -8.858897    5.103917    0.000000
     0.000000    0.000000   30.000000
   V    Mo   W    S 
   3   3   3  18
Direct configuration=     1
   0.66666669  0.00000000  0.00000000
   1.00000000  0.33333334  0.00000000
   0.33333334  0.33333334  0.00000000
   0.66666669  0.33333334  0.00000000
   0.00000000  0.00000000  0.00000000
   0.00000000  0.66666669  0.00000000
   0.33333334  0.00000000  0.00000000
   0.33333334  0.66666669  0.00000000
   0.66666669  0.66666669  0.00000000
   0.11068511  0.22244981  0.95539999
   0.22244981  0.11068511  0.04460000
   0.11068511  0.55578315  0.95539999
   0.22244981  0.44401845  0.04460000
   0.11068511  0.88911647  0.95539999
   0.22244981  0.77735180  0.04460000
   0.44401845  0.22244981  0.95539999
   0.55578315  0.11068511  0.04460000
   0.44401845  0.55578315  0.95539999
   0.55578315  0.44401845  0.04460000
   0.44401845  0.88911647  0.95539999
   0.55578315  0.77735180  0.04460000
   0.77735180  0.22244981  0.95539999
   0.88911647  0.11068511  0.04460000
   0.77735180  0.55578315  0.95539999
   0.88911647  0.44401845  0.04460000
   0.77735180  0.88911647  0.95539999
   0.88911647  0.77735180  0.04460000
unknown system                          
           1
     8.669694    4.996962    0.000000
    -8.670017    4.997517    0.000000
     0.000000    0.000000   30.000000
   V    Mo   W    S 
   3   3   3  18
Direct configuration=     2
   0.66818040  0.00149044 -0.00012379
   0.99887750  0.33294046 -0.00003132
   0.33290868  0.33217582  0.00010680
   0.66819262  0.33467255  0.00003053
  -0.00001429 -0.00100237 -0.00005723
  -0.00137098  0.66666314  0.00002515
   0.33201239  0.00026259 -0.00016463
   0.33151900  0.66619242  0.00003421
   0.66964440  0.66657775  0.00020832
   0.11297144  0.22650972  0.95315308
   0.22481716  0.11522541  0.04812909
   0.10980244  0.55149124  0.95194357
   0.22072815  0.44086215  0.04690686
   0.11209673  0.88925714  0.95073841
   0.22282719  0.77801474  0.04925317
   0.44147313  0.22346113  0.95202335
   0.55695657  0.10818711  0.04791981
   0.44254820  0.55177847  0.95200931
   0.55132012  0.44313531  0.04808472
   0.44817114  0.89065758  0.95186074
   0.55719671  0.78130157  0.04800892
   0.77979616  0.21983940  0.95300511
   0.88662174  0.11316717  0.04694873
   0.77732060  0.55586251  0.95067031
   0.89120004  0.44197665  0.04799614
   0.77472592  0.89039732  0.95199478
   0.88769125  0.77711704  0.04932577
unknown system                          
           1
     8.488237    4.898865    0.000000
    -8.488796    4.899831    0.000000
     0.000000    0.000000   30.000000
   V    Mo   W    S 
   3   3   3  18
Direct configuration=     3
   0.66850262  0.00187231 -0.00009252
   0.99857082  0.33287878 -0.00003444
   0.33281636  0.33179444  0.00006565
   0.66870476  0.33544059  0.00007944
  -0.00000348 -0.00180817 -0.00010409
  -0.00192927  0.66688409  0.00003225
   0.33143991  0.00004292 -0.00018522
   0.33100712  0.66632629  0.00002710
   0.67083344  0.66653040  0.00022464
   0.11301842  0.22657424  0.95323739
   0.22501090  0.11523982  0.04816130
   0.10995309  0.55149905  0.95195599
   0.22076749  0.44101975  0.04684983
   0.11233494  0.88936259  0.95063584
   0.22302725  0.77810757  0.04925636
   0.44132374  0.22327994  0.95204111
   0.55675642  0.10803807  0.04783477
   0.44260573  0.55194298  0.95217404
   0.55133244  0.44331165  0.04809213
   0.44802227  0.89062717  0.95191970
   0.55713796  0.78113133  0.04786684
   0.77986228  0.21982909  0.95299534
   0.88662508  0.11322499  0.04689166
   0.77720748  0.55600733  0.95054325
   0.89126316  0.44190344  0.04804406
   0.77455939  0.89018088  0.95200046
   0.88746415  0.77697291  0.04948702
unknown system                          
           1
     8.282742    4.774522    0.000000
    -8.283401    4.775661    0.000000
     0.000000    0.000000   30.000000
   V    Mo   W    S 
   3   3   3  18
Direct configuration=     4
   0.66904411  0.00276605  0.00007749
   0.99767199  0.33295583 -0.00003199
   0.33271271  0.33037874 -0.00012247
   0.67037287  0.33858985  0.00023565
   0.00002072 -0.00557105 -0.00022434
  -0.00397435  0.66824679  0.00004114
   0.32914865 -0.00139143 -0.00017041
   0.32940803  0.66744631 -0.00002029
   0.67535569  0.66635319  0.00018555
   0.11344494  0.22744565  0.95227506
   0.22557732  0.11632651  0.04974525
   0.10916349  0.55037501  0.95054322
   0.22005644  0.43998222  0.04797997
   0.11239461  0.88925744  0.94859354
   0.22293136  0.77817882  0.05090429
   0.44095564  0.22380846  0.95067939
   0.55705314  0.10753815  0.04889175
   0.44235838  0.55133865  0.95140952
   0.55025375  0.44288515  0.04959998
   0.44898795  0.89135618  0.95064688
   0.55769236  0.78184617  0.04872961
   0.78047263  0.21947767  0.95163689
   0.88639677  0.11375506  0.04794391
   0.77721255  0.55612777  0.94840479
   0.89201893  0.44135554  0.04966101
   0.77391234  0.89040883  0.95058699
   0.88757143  0.77697690  0.05179752
unknown system                          
           1
     8.299102    4.777091    0.000000
    -8.301862    4.781872    0.000000
     0.000000    0.000000   30.000000
   V    Mo   W    S 
   3   3   3  18
Direct configuration=     5
   0.66935261  0.00407525  0.00041593
   0.99642683  0.33337287 -0.00000612
   0.33243072  0.32729089 -0.00046317
   0.67367998  0.34495474  0.00041199
   0.00027719 -0.01300157 -0.00025902
  -0.00747568  0.67150673  0.00001808
   0.32425226 -0.00493317 -0.00004212
   0.32581849  0.66997967 -0.00016345
   0.68429390  0.66601890  0.00005726
   0.11315686  0.22712699  0.95102641
   0.22544090  0.11696608  0.05184931
   0.10753829  0.54937409  0.94871701
   0.21901204  0.43887367  0.04943502
   0.11201532  0.88853446  0.94556560
   0.22166529  0.77808536  0.05319531
   0.44116476  0.22430683  0.94904830
   0.55730736  0.10794131  0.05004471
   0.44292289  0.55136045  0.95087583
   0.54960241  0.44290712  0.05169872
   0.45010369  0.89260288  0.94885153
   0.55849326  0.78208685  0.04955128
   0.78110200  0.21971364  0.94969603
   0.88687429  0.11397258  0.04929625
   0.77785285  0.55610410  0.94529400
   0.89288324  0.44144318  0.05184826
   0.77385740  0.89037807  0.94877311
   0.88816529  0.77717248  0.05526381
unknown system                          
           1
     8.294596    4.773631    0.000000
    -8.298153    4.779796    0.000000
     0.000000    0.000000   30.000000
   V    Mo   W    S 
   3   3   3  18
Direct configuration=     6
   0.66924307  0.00448469  0.00042769
   0.99623439  0.33350763  0.00003096
   0.33218347  0.32582938 -0.00048624
   0.67472221  0.34634384  0.00037411
   0.00083159 -0.01345105 -0.00018818
  -0.00684637  0.67177131 -0.00002134
   0.32258791 -0.00650355 -0.00011283
   0.32421651  0.67102419 -0.00024164
   0.68526448  0.66595297  0.00012384
   0.11246634  0.22586776  0.95114986
   0.22503112  0.11638075  0.05193734
   0.10709540  0.54979799  0.94868854
   0.21906798  0.43915881  0.04927014
   0.11184109  0.88816006  0.94531313
   0.22081989  0.77794820  0.05344958
   0.44154428  0.22390300  0.94922422
   0.55698735  0.10880581  0.04981021
   0.44385089  0.55238373  0.95139509
   0.55018562  0.44354109  0.05171246
   0.44989902  0.89294442  0.94882341
   0.55855046  0.78119041  0.04915925
   0.78094372  0.22009436  0.94972845
   0.88742222  0.11356529  0.04914359
   0.77843181  0.55614594  0.94498568
   0.89288297  0.44223388  0.05185351
   0.77435760  0.88991578  0.94887935
   0.88839944  0.77721775  0.05556970
unknown system                          
           1
     8.293213    4.771525    0.000000
    -8.297803    4.779484    0.000000
     0.000000    0.000000   30.000000
   V    Mo   W    S 
   3   3   3  18
Direct configuration=     7
   0.66928639  0.00477052  0.00046903
   0.99604545  0.33355396  0.00006732
   0.33196052  0.32474942 -0.00051823
   0.67556725  0.34758758  0.00037009
   0.00118535 -0.01401115 -0.00016700
  -0.00671400  0.67205830 -0.00002381
   0.32134292 -0.00761778 -0.00012181
   0.32311374  0.67178888 -0.00027439
   0.68645799  0.66583638  0.00011522
   0.11223414  0.22544497  0.95117761
   0.22496045  0.11620518  0.05207200
   0.10686503  0.54984603  0.94856529
   0.21908930  0.43928242  0.04920626
   0.11174241  0.88801404  0.94508444
   0.22050690  0.77794190  0.05368558
   0.44169348  0.22372253  0.94925838
   0.55683241  0.10913943  0.04969945
   0.44410139  0.55278266  0.95167355
   0.55034563  0.44371864  0.05178397
   0.44983800  0.89312534  0.94873494
   0.55851972  0.78085997  0.04897752
   0.78092692  0.22023335  0.94967651
   0.88762042  0.11343508  0.04910139
   0.77867568  0.55624781  0.94477489
   0.89294007  0.44250432  0.05194042
   0.77452792  0.88977731  0.94888199
   0.88854897  0.77721738  0.05578932
unknown system                          
           1
     8.294381    4.770922    0.000000
    -8.299441    4.779694    0.000000
     0.000000    0.000000   30.000000
   V    Mo   W    S 
   3   3   3  18
Direct configuration=     8
   0.66938268  0.00514784  0.00052167
   0.99579027  0.33359213  0.00011356
   0.33163729  0.32328289 -0.00055543
   0.67667125  0.34912033  0.00036521
   0.00167630 -0.01446937 -0.00013957
  -0.00642203  0.67227217 -0.00002983
   0.31978942 -0.00904107 -0.00013721
   0.32170017  0.67278569 -0.00032464
   0.68778379  0.66567561  0.00011365
   0.11195535  0.22493540  0.95125650
   0.22489190  0.11596344  0.05219868
   0.10662423  0.54990451  0.94844840
   0.21916310  0.43950396  0.04906442
   0.11162662  0.88784923  0.94486746
   0.22014973  0.77796260  0.05395076
   0.44190036  0.22344983  0.94936061
   0.55660933  0.10957306  0.04949594
   0.44437111  0.55330548  0.95208676
   0.55057721  0.44394612  0.05180875
   0.44970657  0.89331541  0.94867365
   0.55842719  0.78041655  0.04869405
   0.78089673  0.22040725  0.94966976
   0.88785296  0.11327403  0.04900127
   0.77899254  0.55638710  0.94458119
   0.89298885  0.44283032  0.05199593
   0.77473649  0.88960520  0.94894437
   0.88873503  0.77721873  0.05597400
unknown system                          
           1
     8.293745    4.771291    0.000000
    -8.298587    4.779686    0.000000
     0.000000    0.000000   30.000000
   V    Mo   W    S 
   3   3   3  18
Direct configuration=     9
   0.66946324  0.00535294  0.00055183
   0.99563263  0.33360428  0.00013063
   0.33147190  0.32252537 -0.00057768
   0.67722756  0.34985532  0.00036897
   0.00191373 -0.01462549 -0.00012800
  -0.00628851  0.67229690 -0.00003867
   0.31907023 -0.00971090 -0.00014599
   0.32102810  0.67328080 -0.00036057
   0.68835781  0.66559322  0.00012330
   0.11184222  0.22473656  0.95127834
   0.22486830  0.11587012  0.05228670
   0.10651342  0.54989335  0.94837297
   0.21919429  0.43960496  0.04901029
   0.11157449  0.88777167  0.94473936
   0.21998681  0.77798947  0.05411042
   0.44201386  0.22332296  0.94939311
   0.55651183  0.10978079  0.04940542
   0.44446860  0.55353266  0.95227705
   0.55067854  0.44404609  0.05183530
   0.44964861  0.89340193  0.94863007
   0.55837865  0.78022411  0.04856894
   0.78089680  0.22048381  0.94965157
   0.88794716  0.11322004  0.04897202
   0.77915724  0.55643791  0.94445328
   0.89301362  0.44295231  0.05204777
   0.77481417  0.88953770  0.94895391
   0.88882916  0.77723555  0.05608956
unknown system                          
           1
     8.282941    4.767764    0.000000
    -8.288218    4.776917    0.000000
     0.000000    0.000000   30.000000
   V    Mo   W    S 
   3   3   3  18
Direct configuration=    10
   0.66935450  0.00520232  0.00053053
   0.99576041  0.33359260  0.00011838
   0.33161391  0.32312228 -0.00056604
   0.67683060  0.34935637  0.00036904
   0.00174074 -0.01458865 -0.00013265
  -0.00635012  0.67234457 -0.00003519
   0.31956077 -0.00930670 -0.00014464
   0.32143623  0.67295548 -0.00033850
   0.68799804  0.66563754  0.00011918
   0.11188931  0.22484282  0.95125680
   0.22486875  0.11593084  0.05223532
   0.10657907  0.54991605  0.94842207
   0.21914850  0.43951045  0.04906729
   0.11161776  0.88782103  0.94480327
   0.22008082  0.77795664  0.05401635
   0.44192755  0.22342385  0.94936061
   0.55658689  0.10964249  0.04948387
   0.44445218  0.55339815  0.95212612
   0.55060864  0.44398784  0.05183357
   0.44971192  0.89335291  0.94864787
   0.55842876  0.78035025  0.04866770
   0.78089886  0.22043565  0.94965624
   0.88789509  0.11325122  0.04899382
   0.77904949  0.55639259  0.94451904
   0.89299264  0.44288087  0.05201557
   0.77478015  0.88958715  0.94893329
   0.88875300  0.77721783  0.05604100
unknown system                          
           1
     8.267268    4.766319    0.000000
    -8.271061    4.772894    0.000000
     0.000000    0.000000   30.000000
   V    Mo   W    S 
   3   3   3  18
Direct configuration=    11
   0.66855386  0.00485835  0.00047641
   0.99645611  0.33358959  0.00010129
   0.33200240  0.32520123 -0.00055032
   0.67604622  0.34840717  0.00034870
   0.00144542 -0.01519380 -0.00011150
  -0.00575703  0.67335768 -0.00003210
   0.32023836 -0.00933686 -0.00014843
   0.32170481  0.67225615 -0.00026325
   0.68751289  0.66568168  0.00011446
   0.11173801  0.22495119  0.95122159
   0.22488590  0.11605840  0.05205061
   0.10660298  0.55001929  0.94856006
   0.21897514  0.43922032  0.04926838
   0.11177005  0.88792699  0.94484824
   0.22014284  0.77779904  0.05386563
   0.44155093  0.22366305  0.94929023
   0.55668164  0.10925916  0.04975675
   0.44471249  0.55341619  0.95171707
   0.55032878  0.44388552  0.05189574
   0.45007806  0.89328534  0.94862961
   0.55851022  0.78043797  0.04890347
   0.78088760  0.22028042  0.94966710
   0.88787529  0.11328277  0.04898558
   0.77890539  0.55632903  0.94461948
   0.89303348  0.44282781  0.05188881
   0.77483902  0.88968668  0.94887952
   0.88849360  0.77706410  0.05601675
unknown system                          
           1
     8.279477    4.764448    0.000000
    -8.283604    4.771592    0.000000
     0.000000    0.000000   30.000000
   V    Mo   W    S 
   3   3   3  18
Direct configuration=    12
   0.66582315  0.00341264  0.00028478
   0.99865283  0.33314328  0.00001013
   0.33427414  0.33424758 -0.00051739
   0.67123212  0.34268032  0.00032810
  -0.00062312 -0.01604714 -0.00010546
  -0.00551496  0.67544761 -0.00003744
   0.32578979 -0.00610025 -0.00017451
   0.32575558  0.66832700  0.00001334
   0.68357812  0.66565112  0.00006020
   0.11179001  0.22568812  0.95099024
   0.22496976  0.11666336  0.05130743
   0.10709256  0.55048749  0.94905474
   0.21833528  0.43815406  0.05016250
   0.11253984  0.88859068  0.94524370
   0.22082967  0.77726684  0.05309188
   0.44019004  0.22479326  0.94898990
   0.55739734  0.10768805  0.05086558
   0.44511882  0.55273605  0.94983116
   0.54938375  0.44329511  0.05202921
   0.45106976  0.89263023  0.94864585
   0.55892703  0.78142625  0.05000821
   0.78082348  0.21962821  0.94968023
   0.88743993  0.11339084  0.04910836
   0.77808304  0.55587738  0.94526725
   0.89291133  0.44232237  0.05143721
   0.77479509  0.89014787  0.94866852
   0.88755009  0.77666613  0.05575616
unknown system                          
           1
     8.282596    4.766110    0.000000
    -8.287643    4.774847    0.000000
     0.000000    0.000000   30.000000
   V    Mo   W    S 
   3   3   3  18
Direct configuration=    13
   0.66604386  0.00490130  0.00045253
   0.99792165  0.33298630  0.00004540
   0.33477606  0.33432380 -0.00052818
   0.67165009  0.34316271  0.00035145
  -0.00072009 -0.01687137 -0.00013687
  -0.00622350  0.67538404 -0.00003550
   0.32486384 -0.00700586 -0.00007246
   0.32554823  0.66854886 -0.00003786
   0.68458138  0.66521026  0.00013230
   0.11183814  0.22497688  0.95114891
   0.22508141  0.11642184  0.05131609
   0.10697622  0.55064056  0.94894478
   0.21861212  0.43871378  0.04998970
   0.11268773  0.88858330  0.94500721
   0.22051571  0.77734483  0.05329311
   0.44062528  0.22444509  0.94913599
   0.55714934  0.10838125  0.05056214
   0.44503987  0.55335515  0.95032489
   0.54977182  0.44345156  0.05203966
   0.45047511  0.89251868  0.94850617
   0.55872459  0.78098462  0.04952063
   0.78067281  0.21981561  0.94969738
   0.88753125  0.11305241  0.04899138
   0.77865137  0.55580666  0.94507739
   0.89284573  0.44274837  0.05144655
   0.77480067  0.88969226  0.94883730
   0.88777378  0.77664156  0.05598981
unknown system                          
           1
     8.290572    4.765113    0.000000
    -8.298914    4.779567    0.000000
     0.000000    0.000000   30.000000
   V    Mo   W    S 
   3   3   3  18
Direct configuration=    14
   0.66402622  0.00650678  0.00035585
   0.99832407  0.33237498 -0.00000098
   0.33696601  0.33992717 -0.00053862
   0.67002556  0.34123869  0.00025310
  -0.00160569 -0.01905361 -0.00017545
  -0.00614767  0.67739626 -0.00009642
   0.32622771 -0.00750296 -0.00015563
   0.32640242  0.66705219  0.00006387
   0.68398618  0.66406472  0.00015166
   0.11173125  0.22440734  0.95130820
   0.22519760  0.11643561  0.05086967
   0.10692037  0.55102179  0.94909140
   0.21845385  0.43861826  0.05035465
   0.11329125  0.88889097  0.94492106
   0.22036947  0.77690258  0.05319519
   0.44021282  0.22462257  0.94924102
   0.55710892  0.10830512  0.05101474
   0.44569781  0.55406721  0.94977123
   0.54967540  0.44325594  0.05227245
   0.45057105  0.89226786  0.94840481
   0.55895389  0.78098484  0.04949200
   0.78040993  0.21954592  0.94965291
   0.88745477  0.11259223  0.04888159
   0.77886683  0.55550443  0.94514460
   0.89286109  0.44309627  0.05124628
   0.77473251  0.88936004  0.94903448
   0.88750082  0.77633123  0.05624625
unknown system                          
           1
     8.284575    4.764677    0.000000
    -8.290750    4.775371    0.000000
     0.000000    0.000000   30.000000
   V    Mo   W    S 
   3   3   3  18
Direct configuration=    15
   0.66395387  0.00843821  0.00040859
   0.99766632  0.33209570  0.00005063
   0.33736688  0.33966601 -0.00053206
   0.67150338  0.34285782  0.00026956
  -0.00104901 -0.01998964 -0.00011378
  -0.00583476  0.67781571 -0.00009390
   0.32422988 -0.00977553 -0.00012915
   0.32462265  0.66788238  0.00000855
   0.68535076  0.66307806  0.00024568
   0.11173548  0.22389932  0.95157751
   0.22523298  0.11621370  0.05083578
   0.10669196  0.55095978  0.94900350
   0.21860391  0.43892295  0.05015254
   0.11330440  0.88872394  0.94464215
   0.21994919  0.77685405  0.05347591
   0.44040948  0.22424820  0.94949175
   0.55664006  0.10886032  0.05081723
   0.44602096  0.55480895  0.95022467
   0.54997305  0.44331000  0.05233749
   0.45027603  0.89238282  0.94830637
   0.55897889  0.78067360  0.04892549
   0.78038465  0.21970939  0.94955418
   0.88754976  0.11233798  0.04867910
   0.77940131  0.55556800  0.94487299
   0.89296531  0.44345343  0.05125086
   0.77462952  0.88896051  0.94929570
   0.88765753  0.77625880  0.05644257
unknown system                          
           1
     8.283103    4.766271    0.000000
    -8.286837    4.772727    0.000000
     0.000000    0.000000   30.000000
   V    Mo   W    S 
   3   3   3  18
Direct configuration=    16
   0.66435721  0.00664377  0.00040989
   0.99806753  0.33255300  0.00001853
   0.33670041  0.33884137 -0.00047330
   0.67017110  0.34151066  0.00030633
  -0.00158575 -0.01926038 -0.00012631
  -0.00643793  0.67727947 -0.00005388
   0.32570758 -0.00761962 -0.00006755
   0.32629483  0.66746625  0.00003156
   0.68475316  0.66429947  0.00018764
   0.11177467  0.22421900  0.95133853
   0.22518999  0.11641131  0.05090605
   0.10691654  0.55107755  0.94908946
   0.21858954  0.43876981  0.05023294
   0.11326145  0.88882881  0.94484113
   0.22031830  0.77698174  0.05319083
   0.44038333  0.22453163  0.94920348
   0.55707785  0.10851549  0.05086934
   0.44562783  0.55416907  0.94997370
   0.54978350  0.44332705  0.05222663
   0.45042476  0.89231751  0.94837605
   0.55887870  0.78085243  0.04941360
   0.78037079  0.21959594  0.94967192
   0.88753652  0.11253806  0.04886079
   0.77894130  0.55549395  0.94504806
   0.89278974  0.44317834  0.05124628
   0.77473055  0.88930364  0.94898964
   0.88759095  0.77638914  0.05628856
unknown system                          
           1
     8.277859    4.762362    0.000000
    -8.282534    4.770451    0.000000
     0.000000    0.000000   30.000000
   V    Mo   W    S 
   3   3   3  18
Direct configuration=    17
   0.66468072  0.00450227  0.00040515
   0.99878797  0.33322657 -0.00001457
   0.33600293  0.33808555 -0.00045018
   0.66806514  0.33952412  0.00030564
  -0.00236886 -0.01883592 -0.00019999
  -0.00717112  0.67701857 -0.00008238
   0.32759273 -0.00475657 -0.00006493
   0.32844133  0.66673603  0.00002298
   0.68411685  0.66586629  0.00005026
   0.11174840  0.22443469  0.95116339
   0.22508811  0.11669575  0.05097973
   0.10710002  0.55132291  0.94928106
   0.21855014  0.43854142  0.05034267
   0.11327843  0.88893510  0.94507181
   0.22067507  0.77707168  0.05283753
   0.44018929  0.22490584  0.94883462
   0.55754502  0.10807844  0.05104397
   0.44537949  0.55346527  0.94967887
   0.54956339  0.44339898  0.05212675
   0.45063888  0.89231164  0.94845610
   0.55887151  0.78104718  0.05003791
   0.78033890  0.21944951  0.94981539
   0.88765433  0.11279041  0.04902105
   0.77840918  0.55532485  0.94528052
   0.89259793  0.44292798  0.05116976
   0.77493818  0.88961915  0.94861270
   0.88750049  0.77652672  0.05627407
unknown system                          
           1
     8.286996    4.765455    0.000000
    -8.293135    4.776084    0.000000
     0.000000    0.000000   30.000000
   V    Mo   W    S 
   3   3   3  18
Direct configuration=    18
   0.66453057  0.00432040  0.00044401
   0.99889251  0.33353689  0.00001838
   0.33599299  0.33743349 -0.00042174
   0.66715361  0.33885181  0.00032214
  -0.00271313 -0.01977480 -0.00014945
  -0.00769211  0.67736485 -0.00001978
   0.32790005 -0.00382268 -0.00003020
   0.32902697  0.66679263  0.00003786
   0.68481055  0.66658271  0.00013082
   0.11160775  0.22406001  0.95131145
   0.22493052  0.11664143  0.05096322
   0.10708024  0.55162187  0.94939490
   0.21875923  0.43869828  0.05026356
   0.11334390  0.88888373  0.94500042
   0.22066609  0.77707738  0.05263858
   0.44003789  0.22489370  0.94872005
   0.55746742  0.10802755  0.05104511
   0.44563533  0.55358648  0.94978288
   0.54969674  0.44361745  0.05205552
   0.45065288  0.89246867  0.94852741
   0.55902303  0.78100745  0.04998258
   0.78020463  0.21935294  0.94988855
   0.88780965  0.11270181  0.04889317
   0.77836372  0.55516785  0.94526253
   0.89249282  0.44309447  0.05102191
   0.77502712  0.88953225  0.94855975
   0.88751349  0.77649584  0.05635627
unknown system                          
           1
     8.292730    4.766815    0.000000
    -8.299910    4.779250    0.000000
     0.000000    0.000000   30.000000
   V    Mo   W    S 
   3   3   3  18
Direct configuration=    19
   0.66428617  0.00595730  0.00042400
   0.99841611  0.33309015  0.00003211
   0.33650416  0.33796909 -0.00047451
   0.66867680  0.34032297  0.00027761
  -0.00206793 -0.02007045 -0.00016215
  -0.00705534  0.67759719 -0.00008666
   0.32643691 -0.00594180 -0.00009588
   0.32731556  0.66727299  0.00000242
   0.68524536  0.66534244  0.00014330
   0.11159855  0.22386121  0.95146752
   0.22499394  0.11646457  0.05095482
   0.10689009  0.55142377  0.94926338
   0.21874930  0.43882465  0.05019719
   0.11332326  0.88877755  0.94484189
   0.22035400  0.77699348  0.05296326
   0.44015836  0.22462720  0.94898413
   0.55710654  0.10837651  0.05097552
   0.44587944  0.55410441  0.95001844
   0.54984201  0.44355023  0.05217860
   0.45050920  0.89251520  0.94844932
   0.55907317  0.78087062  0.04956026
   0.78024505  0.21948063  0.94976534
   0.88777580  0.11253882  0.04878305
   0.77876900  0.55529267  0.94510461
   0.89266940  0.44329034  0.05110049
   0.77490828  0.88927097  0.94884184
   0.88761128  0.77641176  0.05649000
unknown system                          
           1
     8.287968    4.766364    0.000000
    -8.293493    4.775927    0.000000
     0.000000    0.000000   30.000000
   V    Mo   W    S 
   3   3   3  18
Direct configuration=    20
   0.66396298  0.00712233  0.00042427
   0.99812150  0.33297144  0.00006337
   0.33690476  0.33797913 -0.00049273
   0.66923426  0.34095532  0.00025106
  -0.00169259 -0.02071461 -0.00015032
  -0.00677107  0.67794161 -0.00012037
   0.32555975 -0.00693201 -0.00012491
   0.32625948  0.66764304 -0.00001735
   0.68591976  0.66472245  0.00017027
   0.11149678  0.22350914  0.95165446
   0.22493562  0.11630743  0.05096339
   0.10673275  0.55140864  0.94921571
   0.21884455  0.43898461  0.05010739
   0.11333091  0.88865475  0.94469023
   0.22015247  0.77696545  0.05310194
   0.44016969  0.22446622  0.94908132
   0.55681441  0.10859060  0.05094707
   0.44620223  0.55451896  0.95024212
   0.55000316  0.44359756  0.05224302
   0.45042760  0.89264404  0.94841582
   0.55919838  0.78079014  0.04924804
   0.78021873  0.21953359  0.94970203
   0.88784172  0.11238111  0.04863666
   0.77901275  0.55529842  0.94499500
   0.89274120  0.44349970  0.05108340
   0.77488837  0.88904754  0.94902380
   0.88770431  0.77632786  0.05664519
unknown system                          
           1
     8.283933    4.766024    0.000000
    -8.288022    4.773093    0.000000
     0.000000    0.000000   30.000000
   V    Mo   W    S 
   3   3   3  18
Direct configuration=    21
   0.66441476  0.00580707  0.00042385
   0.99839151  0.33303086  0.00001851
   0.33643295  0.33803394 -0.00046925
   0.66872089  0.34035509  0.00027554
  -0.00216417 -0.02002951 -0.00017982
  -0.00717436  0.67758147 -0.00010318
   0.32644967 -0.00594205 -0.00008650
   0.32754036  0.66724942 -0.00000348
   0.68520630  0.66542633  0.00010268
   0.11161553  0.22389264  0.95143354
   0.22500596  0.11650492  0.05094743
   0.10688040  0.55144468  0.94929382
   0.21873998  0.43879018  0.05022210
   0.11329235  0.88877489  0.94485970
   0.22035388  0.77696224  0.05295005
   0.44016441  0.22464253  0.94898098
   0.55716204  0.10834351  0.05096827
   0.44585880  0.55404568  0.94996849
   0.54980624  0.44356220  0.05217515
   0.45053689  0.89249693  0.94844857
   0.55907461  0.78088061  0.04963487
   0.78023768  0.21945015  0.94977598
   0.88777518  0.11256047  0.04882674
   0.77872714  0.55531695  0.94512181
   0.89268848  0.44329568  0.05110745
   0.77488565  0.88927798  0.94879289
   0.88759134  0.77645961  0.05651371
unknown system                          
           1
     8.280276    4.763829    0.000000
    -8.284771    4.771603    0.000000
     0.000000    0.000000   30.000000
   V    Mo   W    S 
   3   3   3  18
Direct configuration=    22
   0.66523182  0.00366260  0.00045657
   0.99858028  0.33281293 -0.00005035
   0.33569232  0.33815373 -0.00042218
   0.66797069  0.33949908  0.00034827
  -0.00313185 -0.01929253 -0.00020688
  -0.00818567  0.67723959 -0.00002237
   0.32770332 -0.00446217 -0.00001174
   0.33017088  0.66680904  0.00002765
   0.68429035  0.66683261  0.00006289
   0.11175059  0.22432741  0.95111809
   0.22504174  0.11677618  0.05087080
   0.10702722  0.55163668  0.94952049
   0.21863282  0.43848725  0.05038717
   0.11321763  0.88892670  0.94508972
   0.22051568  0.77683105  0.05263669
   0.44013042  0.22484391  0.94885490
   0.55769201  0.10794615  0.05092896
   0.44544029  0.55332814  0.94952112
   0.54955053  0.44362560  0.05201207
   0.45080876  0.89239067  0.94853781
   0.55898998  0.78104263  0.05025420
   0.78019414  0.21924601  0.94991646
   0.88771304  0.11278302  0.04912761
   0.77830479  0.55530118  0.94524671
   0.89263686  0.44313476  0.05109986
   0.77489370  0.88963036  0.94836004
   0.88735213  0.77670189  0.05633535
unknown system                          
           1
     8.288940    4.766253    0.000000
    -8.295135    4.776978    0.000000
     0.000000    0.000000   30.000000
   V    Mo   W    S 
   3   3   3  18
Direct configuration=    23
   0.66587187  0.00253043  0.00044375
   0.99870288  0.33245264 -0.00010792
   0.33533193  0.33845728 -0.00045081
   0.66803551  0.33980068  0.00031880
  -0.00382344 -0.01943395 -0.00027604
  -0.00939282  0.67722124 -0.00008764
   0.32762259 -0.00407910 -0.00000603
   0.33207265  0.66643660 -0.00002452
   0.68392804  0.66764303 -0.00006989
   0.11164315  0.22422353  0.95113459
   0.22487472  0.11673945  0.05078418
   0.10715003  0.55200532  0.94989449
   0.21868419  0.43846461  0.05037056
   0.11311662  0.88886970  0.94516702
   0.22042399  0.77653579  0.05239724
   0.44007252  0.22479714  0.94890326
   0.55775021  0.10785703  0.05085538
   0.44548748  0.55313121  0.94939041
   0.54958435  0.44382948  0.05193268
   0.45096659  0.89246136  0.94864137
   0.55916470  0.78111734  0.05054081
   0.78010034  0.21910494  0.95003071
   0.88785155  0.11282392  0.04923128
   0.77809896  0.55534561  0.94532858
   0.89269834  0.44330311  0.05103336
   0.77500434  0.88963655  0.94815722
   0.88719312  0.77693952  0.05646706
unknown system                          
           1
     8.291549    4.766558    0.000000
    -8.298465    4.778533    0.000000
     0.000000    0.000000   30.000000
   V    Mo   W    S 
   3   3   3  18
Direct configuration=    24
   0.66519410  0.00437455  0.00045435
   0.99831291  0.33234258 -0.00003906
   0.33600935  0.33848259 -0.00044945
   0.66892941  0.34074510  0.00032521
  -0.00303160 -0.02017989 -0.00018118
  -0.00867018  0.67765080 -0.00004660
   0.32630696 -0.00564769 -0.00001928
   0.33024208  0.66702864 -0.00001224
   0.68474509  0.66651531  0.00010114
   0.11152855  0.22379737  0.95137322
   0.22482426  0.11650872  0.05081566
   0.10695154  0.55186686  0.94971240
   0.21880687  0.43870176  0.05025013
   0.11314238  0.88870938  0.94490519
   0.22017953  0.77654121  0.05262518
   0.44010920  0.22459394  0.94902964
   0.55730936  0.10820239  0.05080676
   0.44588322  0.55372935  0.94969056
   0.54980900  0.44381635  0.05203876
   0.45080692  0.89259392  0.94856197