   27   27  100    1
  0.9710400E+02  0.1002848E-08  0.1002848E-08  0.3000000E-08  0.5000000E-15
  1.000000000000000E-004
  CAR 
 unknown system                          
    159     34    120
 
  0.0000000E+00  0.0000000E+00  0.0000000E+00  0.1562500E-01
    1      -17.861064   1.000000
    2      -16.800979   1.000000
    3      -16.689931   1.000000
    4      -16.605668   1.000000
    5      -16.579281   1.000000
    6      -16.431547   1.000000
    7      -16.354140   1.000000
    8      -16.338917   1.000000
    9      -16.244452   1.000000
   10      -16.140954   1.000000
   11      -16.076686   1.000000
   12      -15.982417   1.000000
   13      -15.869266   1.000000
   14      -15.633873   1.000000
   15      -15.584476   1.000000
   16      -15.461585   1.000000
   17      -15.222772   1.000000
   18      -15.190938   1.000000
   19       -9.474852   1.000000
   20       -9.061009   1.000000
   21       -9.031917   1.000000
   22       -8.926677   1.000000
   23       -8.756557   1.000000
   24       -8.710915   1.000000
   25       -8.643709   1.000000
   26       -8.569835   1.000000
   27       -8.487382   1.000000
   28       -8.452967   1.000000
   29       -8.409256   1.000000
   30       -8.362614   1.000000
   31       -8.234780   1.000000
   32       -8.199187   1.000000
   33       -8.154154   1.000000
   34       -8.053699   1.000000
   35       -7.809665   1.000000
   36       -7.771970   1.000000
   37       -7.631534   1.000000
   38       -7.614414   1.000000
   39       -7.500462   1.000000
   40       -7.374825   1.000000
   41       -7.306265   1.000000
   42       -7.213167   1.000000
   43       -7.086448   1.000000
   44       -6.960834   1.000000
   45       -6.830125   1.000000
   46       -6.825826   1.000000
   47       -6.753215   1.000000
   48       -6.718090   1.000000
   49       -6.643190   1.000000
   50       -6.510597   1.000000
   51       -6.399958   1.000000
   52       -6.252634   1.000000
   53       -6.210257   1.000000
   54       -6.180218   1.000000
   55       -6.118672   1.000000
   56       -6.040279   1.000000
   57       -5.982745   1.000000
   58       -5.877224   1.000000
   59       -5.852698   1.000000
   60       -5.728826   1.000000
   61       -5.606298   1.000000
   62       -5.344467   1.000000
   63       -5.294885   1.000000
   64       -5.048094   1.000000
   65       -4.986955   1.000000
   66       -4.897464   1.000000
   67       -4.852193   1.000000
   68       -4.781589   1.000000
   69       -4.746598   1.000000
   70       -4.721113   1.000000
   71       -4.657871   1.000000
   72       -4.619928   1.000000
   73       -4.412218   1.000000
   74       -4.360746   1.000000
   75       -4.283958   1.000000
   76       -3.991508   1.000000
   77       -3.749660   0.999908
   78       -3.578084   0.994262
   79       -3.500996   0.976302
   80       -3.189130   0.411968
   81       -3.147460   0.302530
   82       -2.849241   0.004321
   83       -2.693329   0.000096
   84       -2.667841   0.000046
   85       -2.518491   0.000000
   86       -2.511197   0.000000
   87       -2.291910   0.000000
   88       -2.228910   0.000000
   89       -2.184840   0.000000
   90       -1.933332   0.000000
   91       -1.731726   0.000000
   92       -1.614561   0.000000
   93       -1.495651   0.000000
   94       -1.188851   0.000000
   95       -1.131675   0.000000
   96       -1.019848   0.000000
   97       -0.955481   0.000000
   98       -0.877368   0.000000
   99       -0.813825   0.000000
  100       -0.632330   0.000000
  101       -0.547296   0.000000
  102       -0.498176   0.000000
  103       -0.377910   0.000000
  104       -0.230059   0.000000
  105       -0.130656   0.000000
  106       -0.064031   0.000000
  107       -0.028572   0.000000
  108        0.018882   0.000000
  109        0.126157   0.000000
  110        0.182816   0.000000
  111        0.437840   0.000000
  112        0.540309   0.000000
  113        0.610701   0.000000
  114        0.892762   0.000000
  115        0.976307   0.000000
  116        1.023497   0.000000
  117        1.136923   0.000000
  118        1.648653   0.000000
  119        1.842877   0.000000
  120        2.171770   0.000000
 
  0.1250000E+00  0.2775558E-16  0.0000000E+00  0.3125000E-01
    1      -17.838393   1.000000
    2      -16.839107   1.000000
    3      -16.720858   1.000000
    4      -16.657927   1.000000
    5      -16.596164   1.000000
    6      -16.431469   1.000000
    7      -16.349509   1.000000
    8      -16.309506   1.000000
    9      -16.243675   1.000000
   10      -16.114874   1.000000
   11      -16.000798   1.000000
   12      -15.965751   1.000000
   13      -15.864117   1.000000
   14      -15.645234   1.000000
   15      -15.582976   1.000000
   16      -15.479209   1.000000
   17      -15.223978   1.000000
   18      -15.194490   1.000000
   19       -9.468317   1.000000
   20       -9.205715   1.000000
   21       -9.062511   1.000000
   22       -9.014209   1.000000
   23       -8.832696   1.000000
   24       -8.749311   1.000000
   25       -8.668781   1.000000
   26       -8.575590   1.000000
   27       -8.491924   1.000000
   28       -8.449019   1.000000
   29       -8.357784   1.000000
   30       -8.243787   1.000000
   31       -8.150831   1.000000
   32       -8.110099   1.000000
   33       -8.050170   1.000000
   34       -8.023895   1.000000
   35       -7.747312   1.000000
   36       -7.727866   1.000000
   37       -7.655756   1.000000
   38       -7.582846   1.000000
   39       -7.488762   1.000000
   40       -7.479744   1.000000
   41       -7.265417   1.000000
   42       -7.222510   1.000000
   43       -7.121206   1.000000
   44       -7.012373   1.000000
   45       -6.903277   1.000000
   46       -6.798982   1.000000
   47       -6.731401   1.000000
   48       -6.670292   1.000000
   49       -6.568481   1.000000
   50       -6.458996   1.000000
   51       -6.421380   1.000000
   52       -6.305642   1.000000
   53       -6.213143   1.000000
   54       -6.159274   1.000000
   55       -6.127920   1.000000
   56       -6.067300   1.000000
   57       -5.994175   1.000000
   58       -5.935094   1.000000
   59       -5.769667   1.000000
   60       -5.683728   1.000000
   61       -5.575219   1.000000
   62       -5.456194   1.000000
   63       -5.377665   1.000000
   64       -5.137295   1.000000
   65       -5.061182   1.000000
   66       -4.927927   1.000000
   67       -4.843242   1.000000
   68       -4.795340   1.000000
   69       -4.748038   1.000000
   70       -4.652182   1.000000
   71       -4.605328   1.000000
   72       -4.538371   1.000000
   73       -4.422431   1.000000
   74       -4.296000   1.000000
   75       -4.253676   1.000000
   76       -4.055702   1.000000
   77       -3.756688   0.999925
   78       -3.652014   0.998858
   79       -3.566783   0.992816
   80       -3.149034   0.306427
   81       -3.109783   0.216652
   82       -2.810840   0.001881
   83       -2.674578   0.000056
   84       -2.642481   0.000022
   85       -2.513833   0.000000
   86       -2.498135   0.000000
   87       -2.272563   0.000000
   88       -2.204372   0.000000
   89       -2.135004   0.000000
   90       -1.938010   0.000000
   91       -1.748226   0.000000
   92       -1.605999   0.000000
   93       -1.475051   0.000000
   94       -1.198216   0.000000
   95       -1.145502   0.000000
   96       -1.036686   0.000000
   97       -0.947094   0.000000
   98       -0.885048   0.000000
   99       -0.820180   0.000000
  100       -0.709606   0.000000
  101       -0.645532   0.000000
  102       -0.547982   0.000000
  103       -0.477286   0.000000
  104       -0.311258   0.000000
  105       -0.180297   0.000000
  106       -0.074349   0.000000
  107        0.003191   0.000000
  108        0.041608   0.000000
  109        0.136685   0.000000
  110        0.236738   0.000000
  111        0.482360   0.000000
  112        0.547077   0.000000
  113        0.589974   0.000000
  114        0.933923   0.000000
  115        0.970264   0.000000
  116        1.043637   0.000000
  117        1.100136   0.000000
  118        1.690505   0.000000
  119        1.883705   0.000000
  120        2.206339   0.000000
 
  0.2500000E+00  0.5551115E-16  0.0000000E+00  0.3125000E-01
    1      -17.773513   1.000000
    2      -16.993687   1.000000
    3      -16.740737   1.000000
    4      -16.704758   1.000000
    5      -16.647388   1.000000
    6      -16.425958   1.000000
    7      -16.339091   1.000000
    8      -16.297772   1.000000
    9      -16.200169   1.000000
   10      -16.048237   1.000000
   11      -15.956050   1.000000
   12      -15.871894   1.000000
   13      -15.822066   1.000000
   14      -15.674478   1.000000
   15      -15.578129   1.000000
   16      -15.525556   1.000000
   17      -15.227803   1.000000
   18      -15.204183   1.000000
   19       -9.544964   1.000000
   20       -9.365400   1.000000
   21       -9.191618   1.000000
   22       -9.092683   1.000000
   23       -8.981978   1.000000
   24       -8.804525   1.000000
   25       -8.609380   1.000000
   26       -8.550222   1.000000
   27       -8.469765   1.000000
   28       -8.402902   1.000000
   29       -8.266605   1.000000
   30       -8.238485   1.000000
   31       -8.119746   1.000000
   32       -8.051618   1.000000
   33       -7.848836   1.000000
   34       -7.820335   1.000000
   35       -7.760508   1.000000
   36       -7.702701   1.000000
   37       -7.613291   1.000000
   38       -7.581873   1.000000
   39       -7.498804   1.000000
   40       -7.368190   1.000000
   41       -7.271347   1.000000
   42       -7.187504   1.000000
   43       -7.133663   1.000000
   44       -7.053148   1.000000
   45       -6.909637   1.000000
   46       -6.797828   1.000000
   47       -6.714200   1.000000
   48       -6.654748   1.000000
   49       -6.470167   1.000000
   50       -6.408767   1.000000
   51       -6.364486   1.000000
   52       -6.323346   1.000000
   53       -6.272594   1.000000
   54       -6.202195   1.000000
   55       -6.144758   1.000000
   56       -6.061566   1.000000
   57       -6.029479   1.000000
   58       -5.889850   1.000000
   59       -5.737897   1.000000
   60       -5.692319   1.000000
   61       -5.668836   1.000000
   62       -5.510772   1.000000
   63       -5.452821   1.000000
   64       -5.366296   1.000000
   65       -5.274633   1.000000
   66       -4.964368   1.000000
   67       -4.866620   1.000000
   68       -4.749277   1.000000
   69       -4.693252   1.000000
   70       -4.609311   1.000000
   71       -4.488801   1.000000
   72       -4.405752   1.000000
   73       -4.382606   1.000000
   74       -4.303354   1.000000
   75       -4.223189   1.000000
   76       -4.167672   1.000000
   77       -3.807383   0.999983
   78       -3.746271   0.999899
   79       -3.619959   0.997628
   80       -3.097278   0.191611
   81       -3.043990   0.105873
   82       -2.743250   0.000369
   83       -2.662976   0.000040
   84       -2.576116   0.000003
   85       -2.487272   0.000000
   86       -2.454304   0.000000
   87       -2.223462   0.000000
   88       -2.133640   0.000000
   89       -2.007217   0.000000
   90       -1.929605   0.000000
   91       -1.759953   0.000000
   92       -1.588662   0.000000
   93       -1.452739   0.000000
   94       -1.243405   0.000000
   95       -1.203280   0.000000
   96       -1.102620   0.000000
   97       -0.951964   0.000000
   98       -0.921512   0.000000
   99       -0.896191   0.000000
  100       -0.820190   0.000000
  101       -0.776061   0.000000
  102       -0.655006   0.000000
  103       -0.589238   0.000000
  104       -0.479000   0.000000
  105       -0.263608   0.000000
  106       -0.145703   0.000000
  107       -0.000578   0.000000
  108        0.061551   0.000000
  109        0.162403   0.000000
  110        0.307923   0.000000
  111        0.408529   0.000000
  112        0.590506   0.000000
  113        0.628234   0.000000
  114        0.912161   0.000000
  115        1.016152   0.000000
  116        1.043655   0.000000
  117        1.182020   0.000000
  118        1.807395   0.000000
  119        2.000043   0.000000
  120        2.308487   0.000000
 
  0.3750000E+00  0.0000000E+00  0.0000000E+00  0.3125000E-01
    1      -17.681364   1.000000
    2      -17.171665   1.000000
    3      -16.750074   1.000000
    4      -16.725585   1.000000
    5      -16.684727   1.000000
    6      -16.429114   1.000000
    7      -16.332884   1.000000
    8      -16.308745   1.000000
    9      -16.124910   1.000000
   10      -15.989117   1.000000
   11      -15.930289   1.000000
   12      -15.842157   1.000000
   13      -15.752076   1.000000
   14      -15.678349   1.000000
   15      -15.596567   1.000000
   16      -15.558195   1.000000
   17      -15.232808   1.000000
   18      -15.215710   1.000000
   19       -9.725497   1.000000
   20       -9.373529   1.000000
   21       -9.289193   1.000000
   22       -9.140282   1.000000
   23       -9.072188   1.000000
   24       -8.848172   1.000000
   25       -8.535737   1.000000
   26       -8.475893   1.000000
   27       -8.432342   1.000000
   28       -8.309966   1.000000
   29       -8.273968   1.000000
   30       -8.209545   1.000000
   31       -8.136695   1.000000
   32       -8.096821   1.000000
   33       -7.888472   1.000000
   34       -7.831200   1.000000
   35       -7.765185   1.000000
   36       -7.740136   1.000000
   37       -7.545582   1.000000
   38       -7.416424   1.000000
   39       -7.387771   1.000000
   40       -7.308245   1.000000
   41       -7.228386   1.000000
   42       -7.134441   1.000000
   43       -7.067650   1.000000
   44       -7.006521   1.000000
   45       -6.826676   1.000000
   46       -6.755031   1.000000
   47       -6.680342   1.000000
   48       -6.586790   1.000000
   49       -6.505784   1.000000
   50       -6.419311   1.000000
   51       -6.387592   1.000000
   52       -6.323901   1.000000
   53       -6.281478   1.000000
   54       -6.220511   1.000000
   55       -6.112454   1.000000
   56       -6.062101   1.000000
   57       -6.027680   1.000000
   58       -5.872922   1.000000
   59       -5.839753   1.000000
   60       -5.764804   1.000000
   61       -5.696271   1.000000
   62       -5.603520   1.000000
   63       -5.571530   1.000000
   64       -5.444228   1.000000
   65       -5.335769   1.000000
   66       -5.014267   1.000000
   67       -4.878106   1.000000
   68       -4.793000   1.000000
   69       -4.694161   1.000000
   70       -4.647995   1.000000
   71       -4.540146   1.000000
   72       -4.381910   1.000000
   73       -4.336816   1.000000
   74       -4.276285   1.000000
   75       -4.159082   1.000000
   76       -4.097467   1.000000
   77       -3.931657   1.000000
   78       -3.720217   0.999794
   79       -3.613181   0.997248
   80       -3.072205   0.147027
   81       -2.992355   0.053275
   82       -2.701439   0.000121
   83       -2.667914   0.000047
   84       -2.552512   0.000001
   85       -2.420622   0.000000
   86       -2.391651   0.000000
   87       -2.161756   0.000000
   88       -2.035199   0.000000
   89       -1.898630   0.000000
   90       -1.869851   0.000000
   91       -1.721952   0.000000
   92       -1.578082   0.000000
   93       -1.501654   0.000000
   94       -1.354907   0.000000
   95       -1.270087   0.000000
   96       -1.194707   0.000000
   97       -1.037548   0.000000
   98       -0.982498   0.000000
   99       -0.943445   0.000000
  100       -0.896531   0.000000
  101       -0.853307   0.000000
  102       -0.729373   0.000000
  103       -0.626451   0.000000
  104       -0.546697   0.000000
  105       -0.322408   0.000000
  106       -0.217395   0.000000
  107       -0.062042   0.000000
  108        0.010139   0.000000
  109        0.139395   0.000000
  110        0.302449   0.000000
  111        0.393589   0.000000
  112        0.616225   0.000000
  113        0.654420   0.000000
  114        0.886668   0.000000
  115        0.982914   0.000000
  116        1.140965   0.000000
  117        1.311693   0.000000
  118        1.982257   0.000000
  119        2.177937   0.000000
  120        2.421272   0.000000
 
  0.5000000E+00  0.1110223E-15  0.0000000E+00  0.1562500E-01
    1      -17.622880   1.000000
    2      -17.261886   1.000000
    3      -16.758184   1.000000
    4      -16.727740   1.000000
    5      -16.696903   1.000000
    6      -16.431919   1.000000
    7      -16.328630   1.000000
    8      -16.316671   1.000000
    9      -16.082791   1.000000
   10      -15.979499   1.000000
   11      -15.917613   1.000000
   12      -15.818442   1.000000
   13      -15.748454   1.000000
   14      -15.682318   1.000000
   15      -15.602643   1.000000
   16      -15.560006   1.000000
   17      -15.235230   1.000000
   18      -15.221139   1.000000
   19       -9.796768   1.000000
   20       -9.386871   1.000000
   21       -9.311707   1.000000
   22       -9.160799   1.000000
   23       -9.090270   1.000000
   24       -8.862542   1.000000
   25       -8.517210   1.000000
   26       -8.429288   1.000000
   27       -8.385756   1.000000
   28       -8.301582   1.000000
   29       -8.244429   1.000000
   30       -8.218120   1.000000
   31       -8.157140   1.000000
   32       -8.090799   1.000000
   33       -7.935105   1.000000
   34       -7.880316   1.000000
   35       -7.843057   1.000000
   36       -7.762013   1.000000
   37       -7.484438   1.000000
   38       -7.354010   1.000000
   39       -7.342005   1.000000
   40       -7.252882   1.000000
   41       -7.133530   1.000000
   42       -7.100397   1.000000
   43       -7.051571   1.000000
   44       -7.015179   1.000000
   45       -6.806658   1.000000
   46       -6.699498   1.000000
   47       -6.603338   1.000000
   48       -6.544973   1.000000
   49       -6.540285   1.000000
   50       -6.484891   1.000000
   51       -6.413128   1.000000
   52       -6.308131   1.000000
   53       -6.247014   1.000000
   54       -6.230609   1.000000
   55       -6.149823   1.000000
   56       -6.092116   1.000000
   57       -6.059087   1.000000
   58       -5.887696   1.000000
   59       -5.822984   1.000000
   60       -5.775608   1.000000
   61       -5.752591   1.000000
   62       -5.675341   1.000000
   63       -5.489252   1.000000
   64       -5.370234   1.000000
   65       -5.301342   1.000000
   66       -5.268979   1.000000
   67       -4.919102   1.000000
   68       -4.870895   1.000000
   69       -4.704833   1.000000
   70       -4.638108   1.000000
   71       -4.517566   1.000000
   72       -4.336911   1.000000
   73       -4.318365   1.000000
   74       -4.265081   1.000000
   75       -4.140113   1.000000
   76       -4.059659   1.000000
   77       -3.979658   1.000000
   78       -3.705448   0.999696
   79       -3.596020   0.996031
   80       -3.067211   0.139054
   81       -2.972976   0.039980
   82       -2.691578   0.000092
   83       -2.667072   0.000045
   84       -2.551463   0.000001
   85       -2.409040   0.000000
   86       -2.340320   0.000000
   87       -2.130191   0.000000
   88       -1.976018   0.000000
   89       -1.860508   0.000000
   90       -1.828478   0.000000
   91       -1.674330   0.000000
   92       -1.598715   0.000000
   93       -1.571499   0.000000
   94       -1.389014   0.000000
   95       -1.281956   0.000000
   96       -1.263286   0.000000
   97       -1.084636   0.000000
   98       -1.004207   0.000000
   99       -0.975915   0.000000
  100       -0.928392   0.000000
  101       -0.874159   0.000000
  102       -0.746544   0.000000
  103       -0.645087   0.000000
  104       -0.532598   0.000000
  105       -0.347265   0.000000
  106       -0.246501   0.000000
  107       -0.097473   0.000000
  108       -0.023276   0.000000
  109        0.113810   0.000000
  110        0.284382   0.000000
  111        0.409424   0.000000
  112        0.623098   0.000000
  113        0.659521   0.000000
  114        0.879642   0.000000
  115        0.977590   0.000000
  116        1.182244   0.000000
  117        1.363110   0.000000
  118        2.157094   0.000000
  119        2.261662   0.000000
  120        2.398913   0.000000
 
  0.0000000E+00  0.1250000E+00  0.0000000E+00  0.3125000E-01
    1      -17.836816   1.000000
    2      -16.831371   1.000000
    3      -16.781906   1.000000
    4      -16.611121   1.000000
    5      -16.541839   1.000000
    6      -16.444072   1.000000
    7      -16.384143   1.000000
    8      -16.324863   1.000000
    9      -16.269089   1.000000
   10      -16.053016   1.000000
   11      -16.023407   1.000000
   12      -16.001712   1.000000
   13      -15.835275   1.000000
   14      -15.633276   1.000000
   15      -15.579231   1.000000
   16      -15.467459   1.000000
   17      -15.249419   1.000000
   18      -15.189300   1.000000
   19       -9.484010   1.000000
   20       -9.152885   1.000000
   21       -9.111734   1.000000
   22       -9.042922   1.000000
   23       -8.783932   1.000000
   24       -8.699058   1.000000
   25       -8.634812   1.000000
   26       -8.574808   1.000000
   27       -8.508497   1.000000
   28       -8.490676   1.000000
   29       -8.394801   1.000000
   30       -8.311422   1.000000
   31       -8.204491   1.000000
   32       -8.077256   1.000000
   33       -8.011142   1.000000
   34       -7.912950   1.000000
   35       -7.839630   1.000000
   36       -7.758839   1.000000
   37       -7.698046   1.000000
   38       -7.496821   1.000000
   39       -7.437550   1.000000
   40       -7.406834   1.000000
   41       -7.339488   1.000000
   42       -7.202403   1.000000
   43       -7.138005   1.000000
   44       -7.002337   1.000000
   45       -6.886505   1.000000
   46       -6.852803   1.000000
   47       -6.741744   1.000000
   48       -6.679836   1.000000
   49       -6.618393   1.000000
   50       -6.540944   1.000000
   51       -6.385362   1.000000
   52       -6.274519   1.000000
   53       -6.240757   1.000000
   54       -6.172542   1.000000
   55       -6.129047   1.000000
   56       -6.034979   1.000000
   57       -5.978149   1.000000
   58       -5.853210   1.000000
   59       -5.779038   1.000000
   60       -5.663769   1.000000
   61       -5.561742   1.000000
   62       -5.366994   1.000000
   63       -5.314615   1.000000
   64       -5.214287   1.000000
   65       -5.058654   1.000000
   66       -5.012138   1.000000
   67       -4.888474   1.000000
   68       -4.865817   1.000000
   69       -4.772783   1.000000
   70       -4.649532   1.000000
   71       -4.582036   1.000000
   72       -4.477890   1.000000
   73       -4.378311   1.000000
   74       -4.299204   1.000000
   75       -4.275107   1.000000
   76       -3.909321   0.999999
   77       -3.810573   0.999985
   78       -3.672534   0.999303
   79       -3.478706   0.966009
   80       -3.396573   0.893316
   81       -2.958389   0.031864
   82       -2.860132   0.005404
   83       -2.710386   0.000154
   84       -2.641995   0.000021
   85       -2.514540   0.000000
   86       -2.504550   0.000000
   87       -2.288765   0.000000
   88       -2.198420   0.000000
   89       -2.156060   0.000000
   90       -1.938173   0.000000
   91       -1.736329   0.000000
   92       -1.595443   0.000000
   93       -1.479232   0.000000
   94       -1.189074   0.000000
   95       -1.133381   0.000000
   96       -1.010217   0.000000
   97       -0.964842   0.000000
   98       -0.880679   0.000000
   99       -0.821286   0.000000
  100       -0.669621   0.000000
  101       -0.604049   0.000000
  102       -0.561009   0.000000
  103       -0.462276   0.000000
  104       -0.318167   0.000000
  105       -0.200127   0.000000
  106       -0.133823   0.000000
  107       -0.056765   0.000000
  108        0.068621   0.000000
  109        0.164899   0.000000
  110        0.217437   0.000000
  111        0.430999   0.000000
  112        0.540016   0.000000
  113        0.623215   0.000000
  114        0.814355   0.000000
  115        0.994291   0.000000
  116        1.088963   0.000000
  117        1.230671   0.000000
  118        1.693921   0.000000
  119        1.882096   0.000000
  120        2.207268   0.000000
 
  0.1250000E+00  0.1250000E+00  0.0000000E+00  0.3125000E-01
    1      -17.793018   1.000000
    2      -16.918697   1.000000
    3      -16.820860   1.000000
    4      -16.707457   1.000000
    5      -16.526018   1.000000
    6      -16.422869   1.000000
    7      -16.347543   1.000000
    8      -16.331438   1.000000
    9      -16.250578   1.000000
   10      -16.020544   1.000000
   11      -15.997771   1.000000
   12      -15.913957   1.000000
   13      -15.813760   1.000000
   14      -15.655731   1.000000
   15      -15.577131   1.000000
   16      -15.493253   1.000000
   17      -15.257238   1.000000
   18      -15.190840   1.000000
   19       -9.500181   1.000000
   20       -9.322567   1.000000
   21       -9.240422   1.000000
   22       -9.109469   1.000000
   23       -8.856105   1.000000
   24       -8.686801   1.000000
   25       -8.650696   1.000000
   26       -8.551053   1.000000
   27       -8.485663   1.000000
   28       -8.440973   1.000000
   29       -8.333937   1.000000
   30       -8.252778   1.000000
   31       -8.117365   1.000000
   32       -8.054829   1.000000
   33       -7.980334   1.000000
   34       -7.867319   1.000000
   35       -7.743293   1.000000
   36       -7.710017   1.000000
   37       -7.603721   1.000000
   38       -7.539096   1.000000
   39       -7.466950   1.000000
   40       -7.372663   1.000000
   41       -7.255002   1.000000
   42       -7.222553   1.000000
   43       -7.184133   1.000000
   44       -7.022065   1.000000
   45       -6.925335   1.000000
   46       -6.810577   1.000000
   47       -6.775766   1.000000
   48       -6.667929   1.000000
   49       -6.502474   1.000000
   50       -6.471555   1.000000
   51       -6.390618   1.000000
   52       -6.295988   1.000000
   53       -6.267483   1.000000
   54       -6.203530   1.000000
   55       -6.117480   1.000000
   56       -6.043113   1.000000
   57       -5.970600   1.000000
   58       -5.907297   1.000000
   59       -5.763610   1.000000
   60       -5.607755   1.000000
   61       -5.558692   1.000000
   62       -5.491810   1.000000
   63       -5.451604   1.000000
   64       -5.274069   1.000000
   65       -5.208198   1.000000
   66       -5.054606   1.000000
   67       -4.888160   1.000000
   68       -4.806659   1.000000
   69       -4.747202   1.000000
   70       -4.622543   1.000000
   71       -4.490027   1.000000
   72       -4.403142   1.000000
   73       -4.368098   1.000000
   74       -4.246093   1.000000
   75       -4.214353   1.000000
   76       -4.098274   1.000000
   77       -3.914268   1.000000
   78       -3.667574   0.999213
   79       -3.541359   0.988340
   80       -3.294431   0.699201
   81       -2.935577   0.021933
   82       -2.809785   0.001837
   83       -2.670074   0.000050
   84       -2.613607   0.000009
   85       -2.504539   0.000000
   86       -2.473252   0.000000
   87       -2.240901   0.000000
   88       -2.151657   0.000000
   89       -2.082721   0.000000
   90       -1.945796   0.000000
   91       -1.743320   0.000000
   92       -1.586724   0.000000
   93       -1.453719   0.000000
   94       -1.205696   0.000000
   95       -1.173337   0.000000
   96       -1.058874   0.000000
   97       -0.951175   0.000000
   98       -0.893565   0.000000
   99       -0.855708   0.000000
  100       -0.776284   0.000000
  101       -0.741495   0.000000
  102       -0.664494   0.000000
  103       -0.569769   0.000000
  104       -0.432923   0.000000
  105       -0.220468   0.000000
  106       -0.115869   0.000000
  107       -0.086070   0.000000
  108        0.052759   0.000000
  109        0.191788   0.000000
  110        0.275974   0.000000
  111        0.416836   0.000000
  112        0.530214   0.000000
  113        0.623105   0.000000
  114        0.867253   0.000000
  115        1.038454   0.000000
  116        1.080119   0.000000
  117        1.235416   0.000000
  118        1.773605   0.000000
  119        1.961492   0.000000
  120        2.275878   0.000000
 
  0.2500000E+00  0.1250000E+00  0.0000000E+00  0.3125000E-01
    1      -17.712534   1.000000
    2      -17.073552   1.000000
    3      -16.899009   1.000000
    4      -16.723593   1.000000
    5      -16.531723   1.000000
    6      -16.420427   1.000000
    7      -16.345343   1.000000
    8      -16.270238   1.000000
    9      -16.218885   1.000000
   10      -15.996293   1.000000
   11      -15.979209   1.000000
   12      -15.830575   1.000000
   13      -15.764530   1.000000
   14      -15.677367   1.000000
   15      -15.582943   1.000000
   16      -15.523239   1.000000
   17      -15.268979   1.000000
   18      -15.193026   1.000000
   19       -9.625977   1.000000
   20       -9.453823   1.000000
   21       -9.355500   1.000000
   22       -9.150168   1.000000
   23       -8.926171   1.000000
   24       -8.696108   1.000000
   25       -8.570672   1.000000
   26       -8.487674   1.000000
   27       -8.421281   1.000000
   28       -8.369297   1.000000
   29       -8.308574   1.000000
   30       -8.211641   1.000000
   31       -8.161157   1.000000
   32       -8.069007   1.000000
   33       -7.954927   1.000000
   34       -7.860126   1.000000
   35       -7.770210   1.000000
   36       -7.661302   1.000000
   37       -7.611416   1.000000
   38       -7.500449   1.000000
   39       -7.370080   1.000000
   40       -7.324955   1.000000
   41       -7.249249   1.000000
   42       -7.137332   1.000000
   43       -7.061251   1.000000
   44       -6.948464   1.000000
   45       -6.915714   1.000000
   46       -6.810325   1.000000
   47       -6.735905   1.000000