       N       E                     dE             d eps       ncg     rms          rms(c)
DAV:   1     0.112414068898E+04    0.11241E+04   -0.35867E+04  8160   0.577E+02
DAV:   2    -0.367099265523E+01   -0.11278E+04   -0.10885E+04 10960   0.173E+02
DAV:   3    -0.199757423620E+03   -0.19609E+03   -0.18795E+03 10920   0.818E+01
DAV:   4    -0.208998204632E+03   -0.92408E+01   -0.89312E+01 12160   0.260E+01
DAV:   5    -0.209322626541E+03   -0.32442E+00   -0.32342E+00 11760   0.357E+00    0.275E+01
DAV:   6    -0.236723221509E+03   -0.27401E+02   -0.10605E+02 12560   0.604E+01    0.594E+01
DAV:   7    -0.196530353690E+03    0.40193E+02   -0.17701E+02 13200   0.152E+02    0.200E+01
DAV:   8    -0.189392742716E+03    0.71376E+01   -0.17318E+01 12080   0.127E+01    0.125E+01
DAV:   9    -0.188132729430E+03    0.12600E+01   -0.30411E+00 13040   0.649E+00    0.903E+00
DAV:  10    -0.187009136122E+03    0.11236E+01   -0.21773E+00 13360   0.718E+00    0.282E+00
DAV:  11    -0.186972125388E+03    0.37011E-01   -0.61287E-01 13320   0.261E+00    0.282E+00
DAV:  12    -0.187103661189E+03   -0.13154E+00   -0.89540E-01 12240   0.506E+00    0.496E+00
DAV:  13    -0.186887334953E+03    0.21633E+00   -0.53694E-01 12680   0.403E+00    0.217E+00
DAV:  14    -0.186862727449E+03    0.24608E-01   -0.13572E-01 13480   0.217E+00    0.177E+00
DAV:  15    -0.186839602486E+03    0.23125E-01   -0.72757E-02 12240   0.164E+00    0.835E-01
DAV:  16    -0.186832731627E+03    0.68709E-02   -0.10834E-02 12080   0.412E-01    0.471E-01
DAV:  17    -0.186830886327E+03    0.18453E-02   -0.79595E-03 12880   0.407E-01    0.237E-01
DAV:  18    -0.186830211480E+03    0.67485E-03   -0.29285E-03 11960   0.163E-01    0.204E-01
DAV:  19    -0.186829795517E+03    0.41596E-03   -0.10901E-03 11120   0.156E-01    0.460E-02
DAV:  20    -0.186830542340E+03   -0.74682E-03   -0.70490E-04  9360   0.566E-02    0.498E-02
DAV:  21    -0.186831125428E+03   -0.58309E-03   -0.24510E-04  8040   0.428E-02    0.392E-02
DAV:  22    -0.186832296937E+03   -0.11715E-02   -0.19177E-04  7480   0.513E-02    0.335E-02
DAV:  23    -0.186833523128E+03   -0.12262E-02   -0.13092E-04  7480   0.399E-02    0.107E-02
DAV:  24    -0.186834126064E+03   -0.60294E-03   -0.29881E-05  6600   0.135E-02    0.706E-03
DAV:  25    -0.186834482980E+03   -0.35692E-03   -0.14894E-05  5720   0.111E-02    0.475E-03
DAV:  26    -0.186834713332E+03   -0.23035E-03   -0.88316E-06  6760   0.717E-03    0.160E-03
DAV:  27    -0.186834813690E+03   -0.10036E-03   -0.37015E-06  7200   0.443E-03    0.136E-03
DAV:  28    -0.186834856543E+03   -0.42853E-04   -0.20158E-06  7400   0.339E-03
   1 F= -.18683486E+03 E0= -.18666271E+03  d E =-.186835E+03
       N       E                     dE             d eps       ncg     rms          rms(c)
DAV:   1    -0.187451603963E+03   -0.61679E+00   -0.27167E+02  8160   0.350E+01    0.457E+00
DAV:   2    -0.189149101095E+03   -0.16975E+01   -0.19870E+01 12240   0.145E+01    0.691E+00
DAV:   3    -0.189402106084E+03   -0.25300E+00   -0.31938E+00 12480   0.112E+01    0.725E+00
DAV:   4    -0.188719181698E+03    0.68292E+00   -0.67319E-01 12720   0.524E+00    0.182E+00
DAV:   5    -0.188725857972E+03   -0.66763E-02   -0.32401E-01 10800   0.180E+00    0.257E+00
DAV:   6    -0.188696010490E+03    0.29847E-01   -0.36345E-01 12880   0.302E+00    0.277E+00
DAV:   7    -0.188665424669E+03    0.30586E-01   -0.23052E-01 12320   0.278E+00    0.177E+00
DAV:   8    -0.188630356943E+03    0.35068E-01   -0.59950E-02 12720   0.118E+00    0.425E-01
DAV:   9    -0.188629823863E+03    0.53308E-03   -0.98971E-03 12360   0.510E-01    0.442E-01
DAV:  10    -0.188628914518E+03    0.90935E-03   -0.47263E-03 13600   0.379E-01    0.234E-01
DAV:  11    -0.188628175396E+03    0.73912E-03   -0.21997E-03 12920   0.158E-01    0.845E-02
DAV:  12    -0.188628260647E+03   -0.85251E-04   -0.82882E-04 11080   0.875E-02
   2 F= -.18862826E+03 E0= -.18848628E+03  d E =-.179340E+01
       N       E                     dE             d eps       ncg     rms          rms(c)
DAV:   1    -0.190541728556E+03   -0.19136E+01   -0.30737E+01  9280   0.141E+01    0.447E+00
DAV:   2    -0.190564612625E+03   -0.22884E-01   -0.28746E+00 11360   0.991E+00    0.763E+00
DAV:   3    -0.190007668705E+03    0.55694E+00   -0.13300E+00 12280   0.870E+00    0.406E+00
DAV:   4    -0.189808480936E+03    0.19919E+00   -0.67170E-01 12760   0.395E+00    0.249E+00
DAV:   5    -0.189733077840E+03    0.75403E-01   -0.30860E-01 11400   0.213E+00    0.151E+00
DAV:   6    -0.189712206902E+03    0.20871E-01   -0.81410E-02 11960   0.167E+00    0.896E-01
DAV:   7    -0.189704792450E+03    0.74145E-02   -0.16035E-02 12680   0.700E-01    0.194E-01
DAV:   8    -0.189704872371E+03   -0.79922E-04   -0.25469E-03 11040   0.181E-01    0.159E-01
DAV:   9    -0.189705072740E+03   -0.20037E-03   -0.11790E-03 11200   0.201E-01    0.196E-01
DAV:  10    -0.189705338687E+03   -0.26595E-03   -0.15121E-03 10320   0.264E-01    0.212E-01
DAV:  11    -0.189704855598E+03    0.48309E-03   -0.75534E-04  9520   0.156E-01    0.235E-02
DAV:  12    -0.189704885491E+03   -0.29893E-04   -0.82574E-05  6600   0.328E-02
   3 F= -.18970489E+03 E0= -.18958547E+03  d E =-.107662E+01
       N       E                     dE             d eps       ncg     rms          rms(c)
DAV:   1    -0.191217896370E+03   -0.15130E+01   -0.66721E+01  8160   0.187E+01    0.459E+00
DAV:   2    -0.191163335140E+03    0.54561E-01   -0.53678E+00 13520   0.882E+00    0.563E+00
DAV:   3    -0.191084766473E+03    0.78569E-01   -0.15501E+00 12000   0.920E+00    0.586E+00
DAV:   4    -0.190765842805E+03    0.31892E+00   -0.11103E+00 13000   0.652E+00    0.283E+00
DAV:   5    -0.190755739661E+03    0.10103E-01   -0.43765E-01 12200   0.429E+00    0.312E+00
DAV:   6    -0.190642398661E+03    0.11334E+00   -0.19448E-01 12240   0.318E+00    0.928E-01
DAV:   7    -0.190636825492E+03    0.55732E-02   -0.36102E-02 12520   0.997E-01    0.545E-01
DAV:   8    -0.190635664434E+03    0.11611E-02   -0.13466E-02 11440   0.782E-01    0.584E-01
DAV:   9    -0.190632397606E+03    0.32668E-02   -0.50406E-03 11680   0.512E-01    0.139E-01
DAV:  10    -0.190632760861E+03   -0.36326E-03   -0.12290E-03 10120   0.124E-01    0.125E-01
DAV:  11    -0.190632565996E+03    0.19487E-03   -0.78189E-04 10760   0.107E-01    0.456E-02
DAV:  12    -0.190632570683E+03   -0.46876E-05   -0.11561E-04  7120   0.432E-02
   4 F= -.19063257E+03 E0= -.19053273E+03  d E =-.927685E+00
       N       E                     dE             d eps       ncg     rms          rms(c)
DAV:   1    -0.192063405617E+03   -0.14308E+01   -0.14061E+02  8160   0.268E+01    0.586E+00
DAV:   2    -0.191875381176E+03    0.18802E+00   -0.98077E+00 12600   0.977E+00    0.526E+00
DAV:   3    -0.192155322137E+03   -0.27994E+00   -0.24267E+00 10920   0.113E+01    0.935E+00
DAV:   4    -0.191527478622E+03    0.62784E+00   -0.29356E+00 12120   0.117E+01    0.409E+00
DAV:   5    -0.191453981695E+03    0.73497E-01   -0.85067E-01 12240   0.621E+00    0.371E+00
DAV:   6    -0.191264985165E+03    0.18900E+00   -0.28985E-01 12280   0.399E+00    0.977E-01
DAV:   7    -0.191258477905E+03    0.65073E-02   -0.53487E-02 12160   0.112E+00    0.541E-01
DAV:   8    -0.191253612453E+03    0.48655E-02   -0.10735E-02 10560   0.498E-01    0.268E-01
DAV:   9    -0.191254410534E+03   -0.79808E-03   -0.42487E-03 12640   0.476E-01    0.359E-01
DAV:  10    -0.191253594479E+03    0.81606E-03   -0.32073E-03 11240   0.369E-01    0.104E-01
DAV:  11    -0.191253509278E+03    0.85201E-04   -0.68705E-04 10600   0.103E-01
   5 F= -.19125351E+03 E0= -.19116104E+03  d E =-.620939E+00
       N       E                     dE             d eps       ncg     rms          rms(c)
DAV:   1    -0.191316746939E+03   -0.63152E-01   -0.59330E+00  8160   0.515E+00    0.671E-01
DAV:   2    -0.191374961561E+03   -0.58215E-01   -0.25342E-01 13320   0.257E+00    0.223E+00
DAV:   3    -0.191327461916E+03    0.47500E-01   -0.12038E-01 11840   0.239E+00    0.579E-01
DAV:   4    -0.191326805311E+03    0.65660E-03   -0.15101E-02 11400   0.824E-01    0.567E-01
DAV:   5    -0.191323590279E+03    0.32150E-02   -0.74808E-03 11280   0.662E-01    0.245E-01
DAV:   6    -0.191322976910E+03    0.61337E-03   -0.21845E-03 11120   0.256E-01    0.133E-01
DAV:   7    -0.191323349918E+03   -0.37301E-03   -0.19449E-03 11680   0.295E-01    0.233E-01
DAV:   8    -0.191322808722E+03    0.54120E-03   -0.11800E-03 10000   0.263E-01    0.700E-02
DAV:   9    -0.191322760622E+03    0.48100E-04   -0.11983E-04  6240   0.661E-02
   6 F= -.19132276E+03 E0= -.19122689E+03  d E =-.692513E-01
       N       E                     dE             d eps       ncg     rms          rms(c)
DAV:   1    -0.191368455945E+03   -0.45647E-01   -0.28804E+00  8160   0.359E+00    0.460E-01
DAV:   2    -0.191396782251E+03   -0.28326E-01   -0.11773E-01 13600   0.189E+00    0.156E+00
DAV:   3    -0.191372643838E+03    0.24138E-01   -0.55412E-02 12040   0.164E+00    0.370E-01
DAV:   4    -0.191372767699E+03   -0.12386E-03   -0.71146E-03 11320   0.576E-01    0.405E-01
DAV:   5    -0.191371137930E+03    0.16298E-02   -0.36238E-03 11240   0.453E-01    0.159E-01
DAV:   6    -0.191370900525E+03    0.23741E-03   -0.10361E-03 10520   0.167E-01    0.905E-02
DAV:   7    -0.191371062526E+03   -0.16200E-03   -0.85603E-04 10440   0.192E-01    0.151E-01
DAV:   8    -0.191370823873E+03    0.23865E-03   -0.48289E-04  8680   0.169E-01    0.434E-02
DAV:   9    -0.191370810088E+03    0.13785E-04   -0.55668E-05  6240   0.446E-02
   7 F= -.19137081E+03 E0= -.19127274E+03  d E =-.480495E-01
       N       E                     dE             d eps       ncg     rms          rms(c)
DAV:   1    -0.191310923506E+03    0.59900E-01   -0.42665E+00  8160   0.439E+00    0.554E-01
DAV:   2    -0.191343794512E+03   -0.32871E-01   -0.16015E-01 13600   0.214E+00    0.154E+00
DAV:   3    -0.191315622242E+03    0.28172E-01   -0.49852E-02 12000   0.172E+00    0.390E-01
DAV:   4    -0.191315943765E+03   -0.32152E-03   -0.92551E-03 11560   0.612E-01    0.463E-01
DAV:   5    -0.191314012716E+03    0.19310E-02   -0.56439E-03 11480   0.562E-01    0.240E-01
DAV:   6    -0.191313428310E+03    0.58441E-03   -0.19744E-03 11720   0.258E-01    0.105E-01
DAV:   7    -0.191313348685E+03    0.79625E-04   -0.77918E-04 10440   0.122E-01
   8 F= -.19131335E+03 E0= -.19121808E+03  d E =0.574614E-01
       N       E                     dE             d eps       ncg     rms          rms(c)
DAV:   1    -0.191231896668E+03    0.81532E-01   -0.97986E+00  8160   0.665E+00    0.752E-01
DAV:   2    -0.191279948592E+03   -0.48052E-01   -0.30047E-01 13600   0.232E+00    0.170E+00
DAV:   3    -0.191246452539E+03    0.33496E-01   -0.85084E-02 12400   0.217E+00    0.744E-01
DAV:   4    -0.191243650019E+03    0.28025E-02   -0.20720E-02 12640   0.895E-01    0.543E-01
DAV:   5    -0.191241165491E+03    0.24845E-02   -0.97909E-03 11720   0.718E-01    0.401E-01
DAV:   6    -0.191239733428E+03    0.14321E-02   -0.48803E-03 11040   0.490E-01    0.203E-01
DAV:   7    -0.191239713843E+03    0.19585E-04   -0.22452E-03 11920   0.282E-01    0.189E-01
DAV:   8    -0.191239361641E+03    0.35220E-03   -0.11014E-03 10560   0.249E-01    0.106E-01
DAV:   9    -0.191239235023E+03    0.12662E-03   -0.24718E-04  8080   0.108E-01    0.250E-02
DAV:  10    -0.191239236738E+03   -0.17152E-05   -0.63925E-05  7640   0.312E-02
   9 F= -.19123924E+03 E0= -.19114841E+03  d E =0.741119E-01
       N       E                     dE             d eps       ncg     rms          rms(c)
DAV:   1    -0.191291960328E+03   -0.52725E-01   -0.51025E+00  8160   0.478E+00    0.575E-01
DAV:   2    -0.191331583854E+03   -0.39624E-01   -0.18580E-01 13520   0.205E+00    0.181E+00
DAV:   3    -0.191300171152E+03    0.31413E-01   -0.83498E-02 12200   0.200E+00    0.528E-01
DAV:   4    -0.191299108770E+03    0.10624E-02   -0.10795E-02 11400   0.666E-01    0.465E-01
DAV:   5    -0.191297018499E+03    0.20903E-02   -0.51806E-03 11480   0.547E-01    0.226E-01
DAV:   6    -0.191296583367E+03    0.43513E-03   -0.19505E-03 11000   0.261E-01    0.143E-01
DAV:   7    -0.191296871343E+03   -0.28798E-03   -0.17110E-03 11960   0.286E-01    0.220E-01
DAV:   8    -0.191296365400E+03    0.50594E-03   -0.95668E-04  9360   0.239E-01    0.559E-02
DAV:   9    -0.191296337483E+03    0.27917E-04   -0.92139E-05  6200   0.545E-02
  10 F= -.19129634E+03 E0= -.19120151E+03  d E =-.571007E-01
       N       E                     dE             d eps       ncg     rms          rms(c)
DAV:   1    -0.191313610062E+03   -0.17245E-01   -0.46031E-01  8160   0.145E+00    0.219E-01
DAV:   2    -0.191319773369E+03   -0.61633E-02   -0.23860E-02 13480   0.928E-01    0.742E-01
DAV:   3    -0.191313956238E+03    0.58171E-02   -0.11050E-02 11560   0.764E-01    0.150E-01
DAV:   4    -0.191314115956E+03   -0.15972E-03   -0.15449E-03 10160   0.273E-01    0.200E-01
DAV:   5    -0.191313729708E+03    0.38625E-03   -0.94220E-04 10000   0.229E-01    0.861E-02
DAV:   6    -0.191313648273E+03    0.81435E-04   -0.25755E-04  7080   0.882E-02
  11 F= -.19131365E+03 E0= -.19121737E+03  d E =-.173108E-01
       N       E                     dE             d eps       ncg     rms          rms(c)
DAV:   1    -0.191378477948E+03   -0.64748E-01   -0.69020E+00  8160   0.558E+00    0.749E-01
DAV:   2    -0.191453772511E+03   -0.75295E-01   -0.30210E-01 13480   0.309E+00    0.269E+00
DAV:   3    -0.191387778406E+03    0.65994E-01   -0.17046E-01 11880   0.273E+00    0.621E-01
DAV:   4    -0.191388068736E+03   -0.29033E-03   -0.20570E-02 11600   0.100E+00    0.692E-01
DAV:   5    -0.191383145641E+03    0.49231E-02   -0.10553E-02 11680   0.761E-01    0.264E-01
DAV:   6    -0.191382403257E+03    0.74238E-03   -0.32427E-03 11040   0.293E-01    0.162E-01
DAV:   7    -0.191382982495E+03   -0.57924E-03   -0.29276E-03 11920   0.381E-01    0.292E-01
DAV:   8    -0.191382059831E+03    0.92266E-03   -0.15815E-03 10160   0.300E-01    0.580E-02
DAV:   9    -0.191382023763E+03    0.36068E-04   -0.11546E-04  6080   0.558E-02
  12 F= -.19138202E+03 E0= -.19128144E+03  d E =-.683755E-01
       N       E                     dE             d eps       ncg     rms          rms(c)
DAV:   1    -0.191389439156E+03   -0.73793E-02   -0.79895E-02  8160   0.603E-01    0.735E-02
DAV:   2    -0.191389935678E+03   -0.49652E-03   -0.28363E-03 13600   0.258E-01    0.194E-01
DAV:   3    -0.191389553046E+03    0.38263E-03   -0.99545E-04 10200   0.225E-01    0.687E-02
DAV:   4    -0.191389543276E+03    0.97698E-05   -0.16984E-04  5960   0.914E-02
  13 F= -.19138954E+03 E0= -.19128873E+03  d E =-.751951E-02
       N       E                     dE             d eps       ncg     rms          rms(c)
DAV:   1    -0.191360778825E+03    0.28774E-01   -0.21110E+00  8160   0.313E+00    0.442E-01
DAV:   2    -0.191375360476E+03   -0.14582E-01   -0.85489E-02 12800   0.149E+00    0.108E+00
DAV:   3    -0.191362228830E+03    0.13132E-01   -0.27730E-02 12240   0.126E+00    0.367E-01
DAV:   4    -0.191362230924E+03   -0.20940E-05   -0.77071E-03 11160   0.563E-01    0.409E-01
DAV:   5    -0.191360961395E+03    0.12695E-02   -0.54558E-03 10160   0.501E-01    0.257E-01
DAV:   6    -0.191360237754E+03    0.72364E-03   -0.21157E-03 11040   0.282E-01    0.947E-02
DAV:   7    -0.191360158773E+03    0.78981E-04   -0.68623E-04 10800   0.113E-01
  14 F= -.19136016E+03 E0= -.19125994E+03  d E =0.293845E-01
       N       E                     dE             d eps       ncg     rms          rms(c)
DAV:   1    -0.191437124967E+03   -0.76887E-01   -0.90165E+00  8160   0.645E+00    0.823E-01
DAV:   2    -0.191491934840E+03   -0.54810E-01   -0.33289E-01 13560   0.286E+00    0.208E+00
DAV:   3    -0.191448406844E+03    0.43528E-01   -0.12186E-01 12280   0.249E+00    0.675E-01
DAV:   4    -0.191446777927E+03    0.16289E-02   -0.23149E-02 12400   0.949E-01    0.691E-01
DAV:   5    -0.191443278387E+03    0.34995E-02   -0.16877E-02 12200   0.927E-01    0.487E-01
DAV:   6    -0.191440904748E+03    0.23736E-02   -0.69875E-03 11400   0.514E-01    0.191E-01
DAV:   7    -0.191441163945E+03   -0.25920E-03   -0.35211E-03 11880   0.357E-01    0.267E-01
DAV:   8    -0.191440477066E+03    0.68688E-03   -0.18861E-03 10080   0.324E-01    0.109E-01
DAV:   9    -0.191440321983E+03    0.15508E-03   -0.32542E-04  8320   0.108E-01    0.268E-02
DAV:  10    -0.191440317868E+03    0.41144E-05   -0.80928E-05  7240   0.326E-02
  15 F= -.19144032E+03 E0= -.19133795E+03  d E =-.801591E-01
       N       E                     dE             d eps       ncg     rms          rms(c)
DAV:   1    -0.191475086837E+03   -0.34765E-01   -0.16768E+00  8160   0.276E+00    0.355E-01
DAV:   2    -0.191489593191E+03   -0.14506E-01   -0.67638E-02 13600   0.137E+00    0.115E+00
DAV:   3    -0.191477184092E+03    0.12409E-01   -0.31116E-02 12200   0.120E+00    0.282E-01
DAV:   4    -0.191477309305E+03   -0.12521E-03   -0.42056E-03 11520   0.444E-01    0.321E-01
DAV:   5    -0.191476275788E+03    0.10335E-02   -0.25169E-03 10680   0.381E-01    0.140E-01
DAV:   6    -0.191476175016E+03    0.10077E-03   -0.99979E-04  9920   0.186E-01    0.111E-01
DAV:   7    -0.191476245896E+03   -0.70880E-04   -0.85175E-04  9800   0.218E-01
  16 F= -.19147625E+03 E0= -.19137373E+03  d E =-.359280E-01
       N       E                     dE             d eps       ncg     rms          rms(c)
DAV:   1    -0.191458215372E+03    0.17960E-01   -0.50056E-01  8160   0.151E+00    0.197E-01
DAV:   2    -0.191462986463E+03   -0.47711E-02   -0.22157E-02 13160   0.779E-01    0.622E-01
DAV:   3    -0.191458931672E+03    0.40548E-02   -0.78883E-03 10960   0.647E-01    0.147E-01
DAV:   4    -0.191458900458E+03    0.31214E-04   -0.11772E-03  9640   0.218E-01    0.145E-01
DAV:   5    -0.191458696252E+03    0.20421E-03   -0.62108E-04  9440   0.189E-01    0.787E-02
DAV:   6    -0.191458640588E+03    0.55664E-04   -0.23578E-04  6680   0.939E-02
  17 F= -.19145864E+03 E0= -.19135627E+03  d E =0.176053E-01
       N       E                     dE             d eps       ncg     rms          rms(c)
DAV:   1    -0.191458646977E+03    0.49276E-04   -0.13380E-04  7120   0.595E-02    0.370E-02
DAV:   2    -0.191458951405E+03   -0.30443E-03   -0.60713E-04  9680   0.196E-01    0.168E-01
DAV:   3    -0.191458621359E+03    0.33005E-03   -0.44756E-04  8160   0.168E-01    0.206E-02
DAV:   4    -0.191458631449E+03   -0.10089E-04   -0.18000E-05  5560   0.218E-02
  18 F= -.19145863E+03 E0= -.19135633E+03  d E =0.913894E-05
       N       E                     dE             d eps       ncg     rms          rms(c)
DAV:   1    -0.191506473950E+03   -0.47853E-01   -0.41111E+00  8160   0.430E+00    0.437E-01
DAV:   2    -0.191513568230E+03   -0.70943E-02   -0.94057E-02 13120   0.966E-01    0.598E-01
DAV:   3    -0.191513053486E+03    0.51474E-03   -0.24966E-02 12640   0.108E+00    0.666E-01
DAV:   4    -0.191508820153E+03    0.42333E-02   -0.94620E-03 12240   0.668E-01    0.215E-01
DAV:   5    -0.191508312903E+03    0.50725E-03   -0.27899E-03 11440   0.295E-01    0.193E-01
DAV:   6    -0.191508478993E+03   -0.16609E-03   -0.25051E-03 11600   0.369E-01    0.223E-01
DAV:   7    -0.191507986649E+03    0.49234E-03   -0.11125E-03 10040   0.241E-01    0.863E-02
DAV:   8    -0.191507940255E+03    0.46395E-04   -0.30177E-04  7920   0.128E-01
  19 F= -.19150794E+03 E0= -.19140617E+03  d E =-.493088E-01
       N       E                     dE             d eps       ncg     rms          rms(c)
DAV:   1    -0.191515658734E+03   -0.76721E-02   -0.61372E-01  8160   0.168E+00    0.305E-01
DAV:   2    -0.191525879967E+03   -0.10221E-01   -0.41399E-02 12560   0.124E+00    0.996E-01
DAV:   3    -0.191515289953E+03    0.10590E-01   -0.22680E-02 11600   0.107E+00    0.234E-01
DAV:   4    -0.191514853058E+03    0.43690E-03   -0.28085E-03 11320   0.309E-01    0.188E-01
DAV:   5    -0.191514885153E+03   -0.32095E-04   -0.20251E-03 11160   0.326E-01    0.223E-01
DAV:   6    -0.191514326707E+03    0.55845E-03   -0.13328E-03  9640   0.246E-01    0.783E-02
DAV:   7    -0.191514359445E+03   -0.32739E-04   -0.45286E-04  7360   0.149E-01
  20 F= -.19151436E+03 E0= -.19141324E+03  d E =-.641919E-02
       N       E                     dE             d eps       ncg     rms          rms(c)
DAV:   1    -0.191578379922E+03   -0.64053E-01   -0.50901E+00  8160   0.483E+00    0.547E-01
DAV:   2    -0.191600826894E+03   -0.22447E-01   -0.16717E-01 13480   0.174E+00    0.128E+00
DAV:   3    -0.191586929886E+03    0.13897E-01   -0.53823E-02 12040   0.158E+00    0.545E-01
DAV:   4    -0.191585405933E+03    0.15240E-02   -0.10433E-02 11600   0.687E-01    0.444E-01
DAV:   5    -0.191583496956E+03    0.19090E-02   -0.59116E-03 11600   0.595E-01    0.270E-01
DAV:   6    -0.191583042055E+03    0.45490E-03   -0.31602E-03 12040   0.353E-01    0.171E-01
DAV:   7    -0.191583033550E+03    0.85044E-05   -0.17640E-03 11280   0.291E-01    0.195E-01
DAV:   8    -0.191582607083E+03    0.42647E-03   -0.76084E-04  8920   0.216E-01    0.461E-02
DAV:   9    -0.191582588391E+03    0.18692E-04   -0.10227E-04  6280   0.542E-02
  21 F= -.19158259E+03 E0= -.19148401E+03  d E =-.682289E-01
       N       E                     dE             d eps       ncg     rms          rms(c)
DAV:   1    -0.191572898864E+03    0.97082E-02   -0.96255E-02  8160   0.663E-01    0.700E-02
DAV:   2    -0.191573113003E+03   -0.21414E-03   -0.26442E-03 13240   0.178E-01    0.101E-01
DAV:   3    -0.191573061962E+03    0.51041E-04   -0.53630E-04  9240   0.170E-01
  22 F= -.19157306E+03 E0= -.19147370E+03  d E =0.952643E-02
       N       E                     dE             d eps       ncg     rms          rms(c)
DAV:   1    -0.191530689674E+03    0.42423E-01   -0.21022E+00  8160   0.308E+00    0.360E-01
DAV:   2    -0.191540740896E+03   -0.10051E-01   -0.67930E-02 13480   0.112E+00    0.838E-01
DAV:   3    -0.191533719031E+03    0.70219E-02   -0.22397E-02 12520   0.106E+00    0.368E-01
DAV:   4    -0.191532785592E+03    0.93344E-03   -0.43486E-03 11400   0.395E-01    0.232E-01
DAV:   5    -0.191532326501E+03    0.45909E-03   -0.21312E-03 12480   0.332E-01    0.194E-01
DAV:   6    -0.191532174256E+03    0.15224E-03   -0.17217E-03 10280   0.295E-01    0.152E-01
DAV:   7    -0.191532060317E+03    0.11394E-03   -0.94366E-04  9840   0.211E-01    0.128E-01
DAV:   8    -0.191531893081E+03    0.16724E-03   -0.37366E-04  8520   0.148E-01    0.371E-02
DAV:   9    -0.191531879902E+03    0.13179E-04   -0.50224E-05  6680   0.400E-02
  23 F= -.19153188E+03 E0= -.19143062E+03  d E =0.411821E-01
       N       E                     dE             d eps       ncg     rms          rms(c)
DAV:   1    -0.191610318725E+03   -0.78426E-01   -0.81148E+00  8160   0.607E+00    0.630E-01
DAV:   2    -0.191636300914E+03   -0.25982E-01   -0.23015E-01 12840   0.183E+00    0.124E+00
DAV:   3    -0.191624832357E+03    0.11469E-01   -0.62922E-02 12360   0.174E+00    0.710E-01
DAV:   4    -0.191620568606E+03    0.42638E-02   -0.12747E-02 11800   0.743E-01    0.402E-01
DAV:   5    -0.191619256415E+03    0.13122E-02   -0.62546E-03 11880   0.599E-01    0.337E-01
DAV:   6    -0.191618846070E+03    0.41034E-03   -0.48989E-03 12560   0.490E-01    0.244E-01
DAV:   7    -0.191618467304E+03    0.37877E-03   -0.24195E-03 11280   0.347E-01    0.200E-01
DAV:   8    -0.191618022477E+03    0.44483E-03   -0.86636E-04  9480   0.231E-01    0.539E-02
DAV:   9    -0.191617997069E+03    0.25407E-04   -0.12979E-04  6240   0.613E-02
  24 F= -.19161800E+03 E0= -.19152116E+03  d E =-.861172E-01
       N       E                     dE             d eps       ncg     rms          rms(c)
DAV:   1    -0.191633261147E+03   -0.15239E-01   -0.26285E-01  8160   0.110E+00    0.112E-01
DAV:   2    -0.191633752804E+03   -0.49166E-03   -0.74849E-03 12240   0.255E-01    0.113E-01
DAV:   3    -0.191633908367E+03   -0.15556E-03   -0.12215E-03 11240   0.247E-01    0.174E-01
DAV:   4    -0.191633604258E+03    0.30411E-03   -0.59872E-04  8640   0.180E-01    0.603E-02
DAV:   5    -0.191633603655E+03    0.60301E-06   -0.15792E-04  5720   0.100E-01
  25 F= -.19163360E+03 E0= -.19153751E+03  d E =-.156066E-01
       N       E                     dE             d eps       ncg     rms          rms(c)
DAV:   1    -0.191635433323E+03   -0.18291E-02   -0.18085E-01  8160   0.958E-01    0.174E-01
DAV:   2    -0.191636239496E+03   -0.80617E-03   -0.86277E-03 12720   0.425E-01    0.319E-01
DAV:   3    -0.191635315373E+03    0.92412E-03   -0.38067E-03 10040   0.477E-01    0.189E-01
DAV:   4    -0.191634997681E+03    0.31769E-03   -0.10515E-03  9600   0.218E-01    0.112E-01
DAV:   5    -0.191634953608E+03    0.44074E-04   -0.63748E-04  8400   0.202E-01
  26 F= -.19163495E+03 E0= -.19153919E+03  d E =-.134995E-02
       N       E                     dE             d eps       ncg     rms          rms(c)
DAV:   1    -0.191703750414E+03   -0.68753E-01   -0.49601E+00  8160   0.487E+00    0.677E-01
DAV:   2    -0.191710529412E+03   -0.67790E-02   -0.17663E-01 12200   0.140E+00    0.799E-01
DAV:   3    -0.191712864710E+03   -0.23353E-02   -0.45720E-02 12080   0.159E+00    0.947E-01
DAV:   4    -0.191702624868E+03    0.10240E-01   -0.19017E-02 11960   0.105E+00    0.359E-01
DAV:   5    -0.191702399313E+03    0.22555E-03   -0.80731E-03 10960   0.635E-01    0.407E-01
DAV:   6    -0.191700708098E+03    0.16912E-02   -0.50643E-03 11560   0.547E-01    0.162E-01
DAV:   7    -0.191700387266E+03    0.32083E-03   -0.10769E-03  9840   0.193E-01    0.672E-02
DAV:   8    -0.191700350176E+03    0.37090E-04   -0.33143E-04  9120   0.116E-01
  27 F= -.19170035E+03 E0= -.19160751E+03  d E =-.653966E-01
       N       E                     dE             d eps       ncg     rms          rms(c)
DAV:   1    -0.191755254081E+03   -0.54867E-01   -0.42702E+00  8160   0.442E+00    0.468E-01
DAV:   2    -0.191764149070E+03   -0.88950E-02   -0.12701E-01 11240   0.112E+00    0.534E-01
DAV:   3    -0.191765193707E+03   -0.10446E-02   -0.20026E-02 12440   0.109E+00    0.651E-01
DAV:   4    -0.191760688248E+03    0.45055E-02   -0.84561E-03 12400   0.735E-01    0.228E-01
DAV:   5    -0.191760502006E+03    0.18624E-03   -0.31993E-03 12160   0.352E-01    0.225E-01
DAV:   6    -0.191760554365E+03   -0.52360E-04   -0.29247E-03 12880   0.413E-01    0.236E-01
DAV:   7    -0.191759914065E+03    0.64030E-03   -0.11638E-03 10040   0.254E-01    0.691E-02
DAV:   8    -0.191759896407E+03    0.17658E-04   -0.24301E-04  7000   0.117E-01
  28 F= -.19175990E+03 E0= -.19167154E+03  d E =-.595462E-01
       N       E                     dE             d eps       ncg     rms          rms(c)
DAV:   1    -0.191792081040E+03   -0.32167E-01   -0.12915E+00  8160   0.246E+00    0.292E-01
DAV:   2    -0.191794114231E+03   -0.20332E-02   -0.43830E-02 12040   0.584E-01    0.220E-01
DAV:   3    -0.191795100435E+03   -0.98620E-03   -0.57950E-03 12320   0.569E-01    0.391E-01
DAV:   4    -0.191793339780E+03    0.17607E-02   -0.34082E-03 11640   0.486E-01    0.145E-01
DAV:   5    -0.191793253020E+03    0.86760E-04   -0.10640E-03  9760   0.211E-01    0.128E-01
DAV:   6    -0.191793186769E+03    0.66251E-04   -0.76926E-04 10880   0.226E-01
  29 F= -.19179319E+03 E0= -.19170636E+03  d E =-.332904E-01
       N       E                     dE             d eps       ncg     rms          rms(c)
DAV:   1    -0.191849986038E+03   -0.56733E-01   -0.54961E+00  8160   0.500E+00    0.494E-01
DAV:   2    -0.191861641388E+03   -0.11655E-01   -0.16626E-01 11520   0.112E+00    0.398E-01
DAV:   3    -0.191864770585E+03   -0.31292E-02   -0.16170E-02 12280   0.962E-01    0.722E-01
DAV:   4    -0.191859574547E+03    0.51960E-02   -0.98514E-03 11880   0.829E-01    0.248E-01
DAV:   5    -0.191858915533E+03    0.65901E-03   -0.27355E-03 11560   0.278E-01    0.136E-01
DAV:   6    -0.191858984143E+03   -0.68610E-04   -0.17364E-03 12840   0.249E-01    0.163E-01
DAV:   7    -0.191858640255E+03    0.34389E-03   -0.55303E-04  9640   0.200E-01    0.407E-02
DAV:   8    -0.191858635525E+03    0.47299E-05   -0.93751E-05  6080   0.566E-02
  30 F= -.19185864E+03 E0= -.19177586E+03  d E =-.654488E-01
       N       E                     dE             d eps       ncg     rms          rms(c)
DAV:   1    -0.191892732154E+03   -0.34092E-01   -0.17900E+00  8160   0.289E+00    0.339E-01
DAV:   2    -0.191896996860E+03   -0.42647E-02   -0.63251E-02 12120   0.802E-01    0.388E-01
DAV:   3    -0.191897347280E+03   -0.35042E-03   -0.10374E-02 12080   0.802E-01    0.447E-01
DAV:   4    -0.191894981207E+03    0.23661E-02   -0.41598E-03 12080   0.507E-01    0.150E-01
DAV:   5    -0.191894963981E+03    0.17226E-04   -0.14904E-03 10520   0.267E-01    0.170E-01
DAV:   6    -0.191894825314E+03    0.13867E-03   -0.11711E-03 10880   0.285E-01    0.128E-01
DAV:   7    -0.191894608179E+03    0.21714E-03   -0.39812E-04  8520   0.146E-01    0.487E-02
DAV:   8    -0.191894596627E+03    0.11552E-04   -0.96910E-05  6640   0.864E-02
  31 F= -.19189460E+03 E0= -.19181382E+03  d E =-.359611E-01
       N       E                     dE             d eps       ncg     rms          rms(c)
DAV:   1    -0.191935048694E+03   -0.40441E-01   -0.31982E+00  8160   0.380E+00    0.385E-01
DAV:   2    -0.191943245573E+03   -0.81969E-02   -0.10054E-01 11440   0.101E+00    0.442E-01
DAV:   3    -0.191943399471E+03   -0.15390E-03   -0.11574E-02 12400   0.899E-01    0.485E-01
DAV:   4    -0.191940922858E+03    0.24766E-02   -0.50132E-03 11920   0.585E-01    0.202E-01
DAV:   5    -0.191940788484E+03    0.13437E-03   -0.20067E-03 11440   0.353E-01    0.196E-01
DAV:   6    -0.191940653399E+03    0.13509E-03   -0.13587E-03 11880   0.293E-01    0.130E-01
DAV:   7    -0.191940379987E+03    0.27341E-03   -0.49065E-04  9680   0.130E-01    0.354E-02
DAV:   8    -0.191940386365E+03   -0.63782E-05   -0.90636E-05  6560   0.728E-02
  32 F= -.19194039E+03 E0= -.19186283E+03  d E =-.457897E-01
       N       E                     dE             d eps       ncg     rms          rms(c)
DAV:   1    -0.191973707721E+03   -0.33328E-01   -0.22399E+00  8160   0.321E+00    0.351E-01
DAV:   2    -0.191978907780E+03   -0.52001E-02   -0.76551E-02 12160   0.802E-01    0.328E-01
DAV:   3    -0.191980398604E+03   -0.14908E-02   -0.89967E-03 12240   0.785E-01    0.518E-01
DAV:   4    -0.191977402553E+03    0.29961E-02   -0.43670E-03 11680   0.581E-01    0.146E-01
DAV:   5    -0.191977365474E+03    0.37079E-04   -0.13125E-03 10840   0.230E-01    0.147E-01
DAV:   6    -0.191977342646E+03    0.22828E-04   -0.10994E-03 11240   0.281E-01    0.137E-01
DAV:   7    -0.191977066211E+03    0.27644E-03   -0.38045E-04  8600   0.155E-01    0.238E-02
DAV:   8    -0.191977068650E+03   -0.24386E-05   -0.63894E-05  6800   0.457E-02
  33 F= -.19197707E+03 E0= -.19190173E+03  d E =-.366823E-01
       N       E                     dE             d eps       ncg     rms          rms(c)
DAV:   1    -0.192013101400E+03   -0.36035E-01   -0.33429E+00  8160   0.388E+00    0.407E-01
DAV:   2    -0.192022102833E+03   -0.90014E-02   -0.10910E-01 11960   0.109E+00    0.483E-01
DAV:   3    -0.192021748076E+03    0.35476E-03   -0.12424E-02 12360   0.944E-01    0.480E-01
DAV:   4    -0.192019328945E+03    0.24191E-02   -0.48725E-03 10880   0.593E-01    0.216E-01
DAV:   5    -0.192019185817E+03    0.14313E-03   -0.21011E-03 12080   0.382E-01    0.209E-01
DAV:   6    -0.192018966507E+03    0.21931E-03   -0.13988E-03 12280   0.300E-01    0.123E-01
DAV:   7    -0.192018722851E+03    0.24366E-03   -0.48222E-04 10040   0.122E-01    0.352E-02
DAV:   8    -0.192018725102E+03   -0.22505E-05   -0.78220E-05  7160   0.684E-02
  34 F= -.19201873E+03 E0= -.19194645E+03  d E =-.416565E-01
       N       E                     dE             d eps       ncg     rms          rms(c)
DAV:   1    -0.192040502018E+03   -0.21779E-01   -0.11674E+00  8160   0.232E+00    0.277E-01
DAV:   2    -0.192042935272E+03   -0.24333E-02   -0.42855E-02 12200   0.588E-01    0.217E-01
DAV:   3    -0.192043612972E+03   -0.67770E-03   -0.42754E-03 12320   0.526E-01    0.348E-01
DAV:   4    -0.192042262024E+03    0.13509E-02   -0.22647E-03 12320   0.451E-01    0.142E-01
DAV:   5    -0.192042186960E+03    0.75064E-04   -0.98483E-04 10320   0.221E-01
  35 F= -.19204219E+03 E0= -.19197112E+03  d E =-.234619E-01
       N       E                     dE             d eps       ncg     rms          rms(c)
DAV:   1    -0.192075485361E+03   -0.33223E-01   -0.41926E+00  8160   0.434E+00    0.460E-01
DAV:   2    -0.192083932099E+03   -0.84467E-02   -0.13116E-01 12040   0.101E+00    0.327E-01
DAV:   3    -0.192087393725E+03   -0.34616E-02   -0.11078E-02 12360   0.904E-01    0.668E-01
DAV:   4    -0.192082324922E+03    0.50688E-02   -0.64958E-03 11960   0.771E-01    0.166E-01
DAV:   5    -0.192082572723E+03   -0.24780E-03   -0.20874E-03 11920   0.268E-01    0.191E-01
DAV:   6    -0.192082285082E+03    0.28764E-03   -0.14339E-03 12320   0.324E-01    0.140E-01
DAV:   7    -0.192082014941E+03    0.27014E-03   -0.40301E-04  9240   0.170E-01    0.300E-02
DAV:   8    -0.192082026573E+03   -0.11632E-04   -0.77416E-05  7600   0.654E-02
  36 F= -.19208203E+03 E0= -.19201361E+03  d E =-.398396E-01
       N       E                     dE             d eps       ncg     rms          rms(c)
DAV:   1    -0.192109602420E+03   -0.27587E-01   -0.46985E+00  8160   0.459E+00    0.508E-01
DAV:   2    -0.192122612889E+03   -0.13010E-01   -0.16724E-01 12360   0.132E+00    0.546E-01
DAV:   3    -0.192122501611E+03    0.11128E-03   -0.21163E-02 11800   0.113E+00    0.585E-01
DAV:   4    -0.192118779613E+03    0.37220E-02   -0.80122E-03 11320   0.764E-01    0.266E-01
DAV:   5    -0.192118268477E+03    0.51114E-03   -0.25870E-03 12640   0.401E-01    0.214E-01
DAV:   6    -0.192118285864E+03   -0.17386E-04   -0.22139E-03 12200   0.398E-01    0.190E-01
DAV:   7    -0.192117804259E+03    0.48161E-03   -0.98214E-04 10400   0.215E-01    0.516E-02
DAV:   8    -0.192117794650E+03    0.96084E-05   -0.13482E-04  7240   0.948E-02
  37 F= -.19211779E+03 E0= -.19205192E+03  d E =-.357681E-01
       N       E                     dE             d eps       ncg     rms          rms(c)
DAV:   1    -0.192128494115E+03   -0.10690E-01   -0.71320E-01  8160   0.182E+00    0.231E-01
DAV:   2    -0.192130286645E+03   -0.17925E-02   -0.30067E-02 12240   0.521E-01    0.205E-01
DAV:   3    -0.192130764448E+03   -0.47780E-03   -0.34445E-03 12320   0.490E-01    0.302E-01
DAV:   4    -0.192129692154E+03    0.10723E-02   -0.17023E-03 11360   0.372E-01    0.104E-01
DAV:   5    -0.192129685931E+03    0.62221E-05   -0.69809E-04 10160   0.184E-01
  38 F= -.19212969E+03 E0= -.19206417E+03  d E =-.118913E-01
       N       E                     dE             d eps       ncg     rms          rms(c)
DAV:   1    -0.192143765353E+03   -0.14073E-01   -0.12820E+01  8160   0.759E+00    0.808E-01
DAV:   2    -0.192171692624E+03   -0.27927E-01   -0.42502E-01 12240   0.174E+00    0.492E-01
DAV:   3    -0.192173341295E+03   -0.16487E-02   -0.27126E-02 12720   0.105E+00    0.685E-01
DAV:   4    -0.192167756320E+03    0.55850E-02   -0.12502E-02 12640   0.103E+00    0.382E-01
DAV:   5    -0.192166835142E+03    0.92118E-03   -0.70695E-03 12760   0.559E-01    0.269E-01
DAV:   6    -0.192166936950E+03   -0.10181E-03   -0.48057E-03 12480   0.514E-01    0.315E-01
DAV:   7    -0.192165760486E+03    0.11765E-02   -0.17070E-03 12480   0.373E-01    0.632E-02
DAV:   8    -0.192165713194E+03    0.47293E-04   -0.15510E-04  6920   0.721E-02
  39 F= -.19216571E+03 E0= -.19210237E+03  d E =-.360273E-01
       N       E                     dE             d eps       ncg     rms          rms(c)
DAV:   1    -0.192165595557E+03    0.16493E-03   -0.32430E-01  8200   0.127E+00    0.195E-01
DAV:   2    -0.192165615177E+03   -0.19620E-04   -0.11274E-02 11680   0.361E-01    0.188E-01
DAV:   3    -0.192165798022E+03   -0.18284E-03   -0.25745E-03 12080   0.423E-01    0.246E-01
DAV:   4    -0.192165068355E+03    0.72967E-03   -0.14516E-03 10960   0.326E-01    0.944E-02
DAV:   5    -0.192165024739E+03    0.43616E-04   -0.57798E-04 10520   0.164E-01
  40 F= -.19216502E+03 E0= -.19210195E+03  d E =0.688455E-03
       N       E                     dE             d eps       ncg     rms          rms(c)
DAV:   1    -0.192170990653E+03   -0.59223E-02   -0.27870E+00  8160   0.353E+00    0.384E-01
DAV:   2    -0.192178590815E+03   -0.76002E-02   -0.10315E-01 12240   0.906E-01    0.316E-01
DAV:   3    -0.192178794578E+03   -0.20376E-03   -0.95599E-03 12680   0.686E-01    0.389E-01
DAV:   4    -0.192177014888E+03    0.17797E-02   -0.34888E-03 12520   0.541E-01    0.185E-01
DAV:   5    -0.192176623151E+03    0.39174E-03   -0.12843E-03 11160   0.233E-01    0.104E-01
DAV:   6    -0.192176901396E+03   -0.27825E-03   -0.10880E-03 11000   0.262E-01    0.176E-01
DAV:   7    -0.192176525184E+03    0.37621E-03   -0.52835E-04  9680   0.210E-01    0.309E-02
DAV:   8    -0.192176517611E+03    0.75731E-05   -0.44744E-05  6360   0.359E-02
  41 F= -.19217652E+03 E0= -.19211424E+03  d E =-.114929E-01
       N       E                     dE             d eps       ncg     rms          rms(c)
DAV:   1    -0.192177984976E+03   -0.14598E-02   -0.77659E-02  8320   0.614E-01    0.109E-01
DAV:   2    -0.192178765761E+03   -0.78078E-03   -0.49490E-03 11200   0.385E-01    0.253E-01
DAV:   3    -0.192178045977E+03    0.71978E-03   -0.14371E-03 11480   0.335E-01    0.777E-02
DAV:   4    -0.192177966811E+03    0.79165E-04   -0.19380E-04  8520   0.103E-01
  42 F= -.19217797E+03 E0= -.19211565E+03  d E =-.144920E-02
       N       E                     dE             d eps       ncg     rms          rms(c)
DAV:   1    -0.192181435222E+03   -0.33892E-02   -0.14633E+00  8160   0.257E+00    0.292E-01
DAV:   2    -0.192186077822E+03   -0.46426E-02   -0.55895E-02 11640   0.745E-01    0.338E-01
DAV:   3    -0.192185762545E+03    0.31528E-03   -0.64303E-03 12560   0.676E-01    0.333E-01
DAV:   4    -0.192184504649E+03    0.12579E-02   -0.23652E-03 12040   0.409E-01    0.137E-01
DAV:   5    -0.192184462870E+03    0.41779E-04   -0.10627E-03 10880   0.251E-01    0.146E-01
DAV:   6    -0.192184391976E+03    0.70894E-04   -0.73790E-04 10760   0.236E-01
  43 F= -.19218439E+03 E0= -.19212258E+03  d E =-.642516E-02
       N       E                     dE             d eps       ncg     rms          rms(c)
DAV:   1    -0.192185792203E+03   -0.13293E-02   -0.99188E-01  8160   0.211E+00    0.241E-01
DAV:   2    -0.192189067072E+03   -0.32749E-02   -0.41186E-02 11840   0.669E-01    0.258E-01
DAV:   3    -0.192189095397E+03   -0.28325E-04   -0.40867E-03 12520   0.550E-01    0.274E-01
DAV:   4    -0.192188162030E+03    0.93337E-03   -0.15241E-03 10560   0.343E-01    0.100E-01
DAV:   5    -0.192188204028E+03   -0.41998E-04   -0.70678E-04 11080   0.195E-01
  44 F= -.19218820E+03 E0= -.19212677E+03  d E =-.381205E-02
       N       E                     dE             d eps       ncg     rms          rms(c)
DAV:   1    -0.192188338278E+03   -0.17625E-03   -0.13007E-02 11120   0.299E-01    0.910E-02
DAV:   2    -0.192189281253E+03   -0.94298E-03   -0.22529E-03 12520   0.364E-01    0.272E-01
DAV:   3    -0.192188251265E+03    0.10300E-02   -0.11397E-03 10400   0.326E-01    0.643E-02
DAV:   4    -0.192188207828E+03    0.43436E-04   -0.14227E-04  6640   0.832E-02
  45 F= -.19218821E+03 E0= -.19212686E+03  d E =-.380014E-05
       N       E                     dE             d eps       ncg     rms          rms(c)
DAV:   1    -0.192188979158E+03   -0.72789E-03   -0.63103E-02  8160   0.538E-01    0.723E-02
DAV:   2    -0.192189340836E+03   -0.36168E-03   -0.30345E-03 11960   0.226E-01    0.129E-01
DAV:   3    -0.192189145232E+03    0.19560E-03   -0.51519E-04  9720   0.200E-01    0.584E-02
DAV:   4    -0.192189111646E+03    0.33586E-04   -0.74637E-05  6400   0.686E-02
  46 F= -.19218911E+03 E0= -.19212787E+03  d E =-.903817E-03
