<?xml version="1.0" encoding="ISO-8859-1"?>
<modeling>
 <generator>
  <i name="program" type="string">vasp </i>
  <i name="version" type="string">5.4.1  </i>
  <i name="subversion" type="string">05Feb16 (build Jul 05 2020 17:13:04) complex                          parallel </i>
  <i name="platform" type="string">IFC91_ompi </i>
  <i name="date" type="string">2024 04 23 </i>
  <i name="time" type="string">16:04:04 </i>
 </generator>
 <incar>
  <i type="int" name="ISTART">     0</i>
  <i type="string" name="PREC">normal</i>
  <i type="string" name="ALGO"> Normal</i>
  <i type="int" name="ISPIN">     1</i>
  <i type="int" name="ICHARG">     2</i>
  <i type="int" name="IBRION">     1</i>
  <i type="int" name="NSW">   100</i>
  <i type="int" name="ISIF">     3</i>
  <i type="int" name="ISYM">     0</i>
  <i name="SYMPREC">      0.00000001</i>
  <i name="POTIM">      0.50000000</i>
  <i type="logical" name="LREAL"> F  </i>
  <i type="logical" name="LPLANE"> F  </i>
  <i type="int" name="ISMEAR">     0</i>
  <i type="logical" name="LWAVE"> F  </i>
  <i type="logical" name="LCHARG"> F  </i>
  <v type="int" name="KPOINT_BSE">    -1     0     0     0</v>
 </incar>
 <kpoints>
  <generation param="Gamma">
   <v type="int" name="divisions">       8        8        1 </v>
   <v name="usershift">      0.00000000       0.00000000       0.00000000 </v>
   <v name="genvec1">      0.12500000       0.00000000       0.00000000 </v>
   <v name="genvec2">     -0.00000000       0.12500000       0.00000000 </v>
   <v name="genvec3">      0.00000000       0.00000000       1.00000000 </v>
   <v name="shift">      0.00000000       0.00000000       0.00000000 </v>
  </generation>
  <varray name="kpointlist" >
   <v>       0.00000000       0.00000000       0.00000000 </v>
   <v>       0.12500000       0.00000000       0.00000000 </v>
   <v>       0.25000000       0.00000000       0.00000000 </v>
   <v>       0.37500000       0.00000000       0.00000000 </v>
   <v>       0.50000000       0.00000000       0.00000000 </v>
   <v>       0.00000000       0.12500000       0.00000000 </v>
   <v>       0.12500000       0.12500000       0.00000000 </v>
   <v>       0.25000000       0.12500000       0.00000000 </v>
   <v>       0.37500000       0.12500000       0.00000000 </v>
   <v>       0.50000000       0.12500000       0.00000000 </v>
   <v>      -0.37500000       0.12500000       0.00000000 </v>
   <v>      -0.25000000       0.12500000       0.00000000 </v>
   <v>      -0.12500000       0.12500000       0.00000000 </v>
   <v>       0.00000000       0.25000000       0.00000000 </v>
   <v>       0.12500000       0.25000000       0.00000000 </v>
   <v>       0.25000000       0.25000000       0.00000000 </v>
   <v>       0.37500000       0.25000000       0.00000000 </v>
   <v>       0.50000000       0.25000000       0.00000000 </v>
   <v>      -0.37500000       0.25000000       0.00000000 </v>
   <v>      -0.25000000       0.25000000       0.00000000 </v>
   <v>      -0.12500000       0.25000000       0.00000000 </v>
   <v>      -0.00000000       0.37500000       0.00000000 </v>
   <v>       0.12500000       0.37500000       0.00000000 </v>
   <v>       0.25000000       0.37500000       0.00000000 </v>
   <v>       0.37500000       0.37500000       0.00000000 </v>
   <v>       0.50000000       0.37500000       0.00000000 </v>
   <v>      -0.37500000       0.37500000       0.00000000 </v>
   <v>      -0.25000000       0.37500000       0.00000000 </v>
   <v>      -0.12500000       0.37500000       0.00000000 </v>
   <v>       0.00000000       0.50000000       0.00000000 </v>
   <v>       0.12500000       0.50000000       0.00000000 </v>
   <v>       0.25000000       0.50000000       0.00000000 </v>
   <v>       0.37500000       0.50000000       0.00000000 </v>
   <v>       0.50000000       0.50000000       0.00000000 </v>
  </varray>
  <varray name="weights" >
   <v>       0.01562500 </v>
   <v>       0.03125000 </v>
   <v>       0.03125000 </v>
   <v>       0.03125000 </v>
   <v>       0.01562500 </v>
   <v>       0.03125000 </v>
   <v>       0.03125000 </v>
   <v>       0.03125000 </v>
   <v>       0.03125000 </v>
   <v>       0.03125000 </v>
   <v>       0.03125000 </v>
   <v>       0.03125000 </v>
   <v>       0.03125000 </v>
   <v>       0.03125000 </v>
   <v>       0.03125000 </v>
   <v>       0.03125000 </v>
   <v>       0.03125000 </v>
   <v>       0.03125000 </v>
   <v>       0.03125000 </v>
   <v>       0.03125000 </v>
   <v>       0.03125000 </v>
   <v>       0.03125000 </v>
   <v>       0.03125000 </v>
   <v>       0.03125000 </v>
   <v>       0.03125000 </v>
   <v>       0.03125000 </v>
   <v>       0.03125000 </v>
   <v>       0.03125000 </v>
   <v>       0.03125000 </v>
   <v>       0.01562500 </v>
   <v>       0.03125000 </v>
   <v>       0.03125000 </v>
   <v>       0.03125000 </v>
   <v>       0.01562500 </v>
  </varray>
 </kpoints>
 <parameters>
  <separator name="general" >
   <i type="string" name="SYSTEM">unknown system</i>
   <i type="logical" name="LCOMPAT"> F  </i>
  </separator>
  <separator name="electronic" >
   <i type="string" name="PREC">normal</i>
   <i name="ENMAX">    280.00000000</i>
   <i name="ENAUG">    373.43800000</i>
   <i name="EDIFF">      0.00010000</i>
   <i type="int" name="IALGO">    38</i>
   <i type="int" name="IWAVPR">    11</i>
   <i type="int" name="NBANDS">   120</i>
   <i name="NELECT">    159.00000000</i>
   <i type="int" name="TURBO">     0</i>
   <i type="int" name="IRESTART">     0</i>
   <i type="int" name="NREBOOT">     0</i>
   <i type="int" name="NMIN">     0</i>
   <i name="EREF">      0.00000000</i>
   <separator name="electronic smearing" >
    <i type="int" name="ISMEAR">     0</i>
    <i name="SIGMA">      0.20000000</i>
    <i name="KSPACING">      0.50000000</i>
    <i type="logical" name="KGAMMA"> T  </i>
   </separator>
   <separator name="electronic projectors" >
    <i type="logical" name="LREAL"> F  </i>
    <v name="ROPT">      0.00000000      0.00000000      0.00000000      0.00000000</v>
    <i type="int" name="LMAXPAW">  -100</i>
    <i type="int" name="LMAXMIX">     2</i>
    <i type="logical" name="NLSPLINE"> F  </i>
   </separator>
   <separator name="electronic startup" >
    <i type="int" name="ISTART">     0</i>
    <i type="int" name="ICHARG">     2</i>
    <i type="int" name="INIWAV">     1</i>
   </separator>
   <separator name="electronic spin" >
    <i type="int" name="ISPIN">     1</i>
    <i type="logical" name="LNONCOLLINEAR"> F  </i>
    <v name="MAGMOM">      1.00000000      1.00000000      1.00000000      1.00000000      1.00000000      1.00000000      1.00000000      1.00000000      1.00000000      1.00000000      1.00000000      1.00000000      1.00000000      1.00000000      1.00000000      1.00000000      1.00000000      1.00000000      1.00000000      1.00000000
      1.00000000      1.00000000      1.00000000      1.00000000      1.00000000      1.00000000      1.00000000</v>
    <i name="NUPDOWN">     -1.00000000</i>
    <i type="logical" name="LSORBIT"> F  </i>
    <v name="SAXIS">      0.00000000      0.00000000      1.00000000</v>
    <i type="logical" name="LSPIRAL"> F  </i>
    <v name="QSPIRAL">      0.00000000      0.00000000      0.00000000</v>
    <i type="logical" name="LZEROZ"> F  </i>
   </separator>
   <separator name="electronic exchange-correlation" >
    <i type="logical" name="LASPH"> F  </i>
    <i type="logical" name="LMETAGGA"> F  </i>
   </separator>
   <separator name="electronic convergence" >
    <i type="int" name="NELM">    60</i>
    <i type="int" name="NELMDL">    -5</i>
    <i type="int" name="NELMIN">     2</i>
    <i name="ENINI">    280.00000000</i>
    <separator name="electronic convergence detail" >
     <i type="logical" name="LDIAG"> T  </i>
     <i type="logical" name="LSUBROT"> F  </i>
     <i name="WEIMIN">      0.00100000</i>
     <i name="EBREAK">      0.00000021</i>
     <i name="DEPER">      0.30000000</i>
     <i type="int" name="NRMM">     4</i>
     <i name="TIME">      0.40000000</i>
    </separator>
   </separator>
   <separator name="electronic mixer" >
    <i name="AMIX">      0.40000000</i>
    <i name="BMIX">      1.00000000</i>
    <i name="AMIN">      0.10000000</i>
    <i name="AMIX_MAG">      1.60000000</i>
    <i name="BMIX_MAG">      1.00000000</i>
    <separator name="electronic mixer details" >
     <i type="int" name="IMIX">     4</i>
     <i type="logical" name="MIXFIRST"> F  </i>
     <i type="int" name="MAXMIX">   -45</i>
     <i name="WC">    100.00000000</i>
     <i type="int" name="INIMIX">     1</i>
     <i type="int" name="MIXPRE">     1</i>
     <i type="int" name="MREMOVE">     5</i>
    </separator>
   </separator>
   <separator name="electronic dipolcorrection" >
    <i type="logical" name="LDIPOL"> F  </i>
    <i type="logical" name="LMONO"> F  </i>
    <i type="int" name="IDIPOL">     0</i>
    <i name="EPSILON">      1.00000000</i>
    <v name="DIPOL">   -100.00000000   -100.00000000   -100.00000000</v>
    <i name="EFIELD">      0.00000000</i>
   </separator>
  </separator>
  <separator name="grids" >
   <i type="int" name="NGX">    42</i>
   <i type="int" name="NGY">    42</i>
   <i type="int" name="NGZ">   126</i>
   <i type="int" name="NGXF">    84</i>
   <i type="int" name="NGYF">    84</i>
   <i type="int" name="NGZF">   252</i>
   <i type="logical" name="ADDGRID"> F  </i>
  </separator>
  <separator name="ionic" >
   <i type="int" name="NSW">   100</i>
   <i type="int" name="IBRION">     1</i>
   <i type="int" name="ISIF">     3</i>
   <i name="PSTRESS">      0.00000000</i>
   <i name="EDIFFG">      0.00100000</i>
   <i type="int" name="NFREE">     0</i>
   <i name="POTIM">      0.50000000</i>
   <i name="SMASS">     -3.00000000</i>
   <i name="SCALEE">      1.00000000</i>
  </separator>
  <separator name="ionic md" >
   <i name="TEBEG">      0.00010000</i>
   <i name="TEEND">      0.00010000</i>
   <i type="int" name="NBLOCK">     1</i>
   <i type="int" name="KBLOCK">   100</i>
   <i type="int" name="NPACO">   256</i>
   <i name="APACO">     16.00000000</i>
  </separator>
  <separator name="symmetry" >
   <i type="int" name="ISYM">     0</i>
   <i name="SYMPREC">      0.00000001</i>
  </separator>
  <separator name="dos" >
   <i type="logical" name="LORBIT"> F  </i>
   <v name="RWIGS">     -1.00000000     -1.00000000     -1.00000000     -1.00000000</v>
   <i type="int" name="NEDOS">   301</i>
   <i name="EMIN">     10.00000000</i>
   <i name="EMAX">    -10.00000000</i>
   <i name="EFERMI">      0.00000000</i>
  </separator>
  <separator name="writing" >
   <i type="int" name="NWRITE">     2</i>
   <i type="logical" name="LWAVE"> F  </i>
   <i type="logical" name="LCHARG"> F  </i>
   <i type="logical" name="LPARD"> F  </i>
   <i type="logical" name="LVTOT"> F  </i>
   <i type="logical" name="LVHAR"> F  </i>
   <i type="logical" name="LELF"> F  </i>
   <i type="logical" name="LOPTICS"> F  </i>
   <v name="STM">      0.00000000      0.00000000      0.00000000      0.00000000      0.00000000      0.00000000      0.00000000</v>
  </separator>
  <separator name="performance" >
   <i type="int" name="NPAR">    40</i>
   <i type="int" name="NSIM">     4</i>
   <i type="int" name="NBLK">    -1</i>
   <i type="logical" name="LPLANE"> F  </i>
   <i type="logical" name="LSCALAPACK"> T  </i>
   <i type="logical" name="LSCAAWARE"> F  </i>
   <i type="logical" name="LSCALU"> F  </i>
   <i type="logical" name="LASYNC"> F  </i>
   <i type="logical" name="LORBITALREAL"> F  </i>
  </separator>
  <separator name="miscellaneous" >
   <i type="int" name="IDIOT">     3</i>
   <i type="logical" name="LMUSIC"> F  </i>
   <v name="POMASS">     50.94100000     95.94000000    183.85000000     32.06600000</v>
   <v name="DARWINR">      0.00000000      0.00000000      0.00000000      0.00000000</v>
   <v name="DARWINV">      1.00000000      1.00000000      1.00000000      1.00000000</v>
   <i type="logical" name="LCORR"> T  </i>
  </separator>
  <i type="logical" name="GGA_COMPAT"> T  </i>
  <i type="logical" name="LBERRY"> F  </i>
  <i type="int" name="ICORELEVEL">     0</i>
  <i type="logical" name="LDAU"> F  </i>
  <i type="int" name="I_CONSTRAINED_M">     0</i>
  <separator name="electronic exchange-correlation" >
   <i type="string" name="GGA">--</i>
   <i type="int" name="VOSKOWN">     0</i>
   <i type="logical" name="LHFCALC"> F  </i>
   <i type="string" name="PRECFOCK"></i>
   <i type="logical" name="LSYMGRAD"> F  </i>
   <i type="logical" name="LHFONE"> F  </i>
   <i type="logical" name="LRHFCALC"> F  </i>
   <i type="logical" name="LTHOMAS"> F  </i>
   <i type="logical" name="LMODELHF"> F  </i>
   <i name="ENCUT4O">     -1.00000000</i>
   <i type="int" name="EXXOEP">     0</i>
   <i type="int" name="FOURORBIT">     0</i>
   <i name="AEXX">      0.00000000</i>
   <i name="HFALPHA">      0.00000000</i>
   <i name="MCALPHA">      0.00000000</i>
   <i name="ALDAX">      1.00000000</i>
   <i name="AGGAX">      1.00000000</i>
   <i name="ALDAC">      1.00000000</i>
   <i name="AGGAC">      1.00000000</i>
   <i type="int" name="NKREDX">     1</i>
   <i type="int" name="NKREDY">     1</i>
   <i type="int" name="NKREDZ">     1</i>
   <i type="logical" name="SHIFTRED"> F  </i>
   <i type="logical" name="ODDONLY"> F  </i>
   <i type="logical" name="EVENONLY"> F  </i>
   <i type="int" name="LMAXFOCK">     0</i>
   <i type="int" name="NMAXFOCKAE">     0</i>
   <i type="logical" name="LFOCKAEDFT"> F  </i>
   <i name="HFSCREEN">      0.00000000</i>
   <i name="HFSCREENC">      0.00000000</i>
   <i type="int" name="NBANDSGWLOW">     0</i>
  </separator>
  <separator name="vdW DFT" >
   <i type="logical" name="LUSE_VDW"> F  </i>
   <i name="Zab_VDW">     -0.84910000</i>
   <i name="PARAM1">      0.12340000</i>
   <i name="PARAM2">      1.00000000</i>
   <i name="PARAM3">      0.00000000</i>
  </separator>
  <separator name="model GW" >
   <i type="int" name="MODEL_GW">     0</i>
   <i name="MODEL_EPS0">     58.26239943</i>
   <i name="MODEL_ALPHA">      1.00000000</i>
  </separator>
  <separator name="linear response parameters" >
   <i type="logical" name="LEPSILON"> F  </i>
   <i type="logical" name="LRPA"> F  </i>
   <i type="logical" name="LNABLA"> F  </i>
   <i type="logical" name="LVEL"> F  </i>
   <i type="int" name="KINTER">     0</i>
   <i name="CSHIFT">      0.10000000</i>
   <i name="OMEGAMAX">     -1.00000000</i>
   <i name="DEG_THRESHOLD">      0.00200000</i>
  </separator>
  <separator name="orbital magnetization" >
   <i type="logical" name="NUCIND"> F  </i>
   <v name="MAGPOS">      0.00000000      0.00000000      0.00000000</v>
   <i type="logical" name="LNICSALL"> T  </i>
   <i type="logical" name="ORBITALMAG"> F  </i>
   <i type="logical" name="LMAGBLOCH"> F  </i>
   <i type="logical" name="LCHIMAG"> F  </i>
   <i type="logical" name="LGAUGE"> T  </i>
   <i type="int" name="MAGATOM">     0</i>
   <v name="MAGDIPOL">      0.00000000      0.00000000      0.00000000</v>
   <v name="AVECCONST">      0.00000000      0.00000000      0.00000000</v>
  </separator>
  <separator name="response functions" >
   <i type="logical" name="LADDER"> F  </i>
   <i type="logical" name="LFXC"> F  </i>
   <i type="logical" name="LHARTREE"> T  </i>
   <i type="int" name="IBSE">     0</i>
   <v type="int" name="KPOINT">    -1     0     0     0</v>
   <i type="logical" name="LTCTE"> F  </i>
   <i type="logical" name="LTETE"> F  </i>
   <i type="logical" name="LTRIPLET"> F  </i>
   <i type="logical" name="LFXCEPS"> F  </i>
   <i type="logical" name="LFXHEG"> F  </i>
   <i type="int" name="NATURALO">     0</i>
   <i type="logical" name="L2ORDER"> F  </i>
   <i type="logical" name="LUSEW"> F  </i>
   <i name="ENCUTGW">     -2.00000000</i>
   <i name="ENCUTGWSOFT">     -2.00000000</i>
   <i name="ENCUTLF">     -1.00000000</i>
   <i type="int" name="LMAXMP2">    -1</i>
   <i name="SCISSOR">      0.00000000</i>
   <i type="int" name="NOMEGA">     0</i>
   <i type="int" name="NOMEGAR">     0</i>
   <i type="int" name="NBANDSGW">    -1</i>
   <i type="int" name="NBANDSO">    -1</i>
   <i type="int" name="NBANDSV">    -1</i>
   <i type="int" name="NELM">     1</i>
   <i type="int" name="NELMHF">     1</i>
   <i type="int" name="DIM">     3</i>
   <i type="int" name="ANTIRES">     0</i>
   <i name="OMEGAMAX">    -30.00000000</i>
   <i name="OMEGAMIN">    -30.00000000</i>
   <i name="OMEGATL">   -200.00000000</i>
   <i type="int" name="OMEGAGRID">     0</i>
   <i name="CSHIFT">     -0.10000000</i>
   <i type="logical" name="SELFENERGY"> F  </i>
   <i type="logical" name="LSPECTRAL"> F  </i>
   <i type="logical" name="LSPECTRALGW"> F  </i>
   <i type="logical" name="LSINGLES"> F  </i>
   <i type="logical" name="LFERMIGW"> F  </i>
   <i type="logical" name="ODDONLYGW"> F  </i>
   <i type="logical" name="EVENONLYGW"> F  </i>
   <i type="int" name="NKREDLFX">     1</i>
   <i type="int" name="NKREDLFY">     1</i>
   <i type="int" name="NKREDLFZ">     1</i>
   <i type="int" name="MAXMEM">  1800</i>
   <i type="int" name="TELESCOPE">     0</i>
   <i type="int" name="TAUPAR">     1</i>
   <i type="int" name="OMEGAPAR">    -1</i>
   <i name="LAMBDA">      1.00000000</i>
  </separator>
  <separator name="External order field" >
   <i name="OFIELD_KAPPA">      0.00000000</i>
   <v name="OFIELD_K">      0.00000000      0.00000000      0.00000000</v>
   <i name="OFIELD_Q6_NEAR">      0.00000000</i>
   <i name="OFIELD_Q6_FAR">      0.00000000</i>
   <i name="OFIELD_A">      0.00000000</i>
  </separator>
 </parameters>
 <atominfo>
  <atoms>      27 </atoms>
  <types>       4 </types>
  <array name="atoms" >
   <dimension dim="1">ion</dimension>
   <field type="string">element</field>
   <field type="int">atomtype</field>
   <set>
    <rc><c>V </c><c>   1</c></rc>
    <rc><c>V </c><c>   1</c></rc>
    <rc><c>V </c><c>   1</c></rc>
    <rc><c>Mo</c><c>   2</c></rc>
    <rc><c>Mo</c><c>   2</c></rc>
    <rc><c>Mo</c><c>   2</c></rc>
    <rc><c>W </c><c>   3</c></rc>
    <rc><c>W </c><c>   3</c></rc>
    <rc><c>W </c><c>   3</c></rc>
    <rc><c>S </c><c>   4</c></rc>
    <rc><c>S </c><c>   4</c></rc>
    <rc><c>S </c><c>   4</c></rc>
    <rc><c>S </c><c>   4</c></rc>
    <rc><c>S </c><c>   4</c></rc>
    <rc><c>S </c><c>   4</c></rc>
    <rc><c>S </c><c>   4</c></rc>
    <rc><c>S </c><c>   4</c></rc>
    <rc><c>S </c><c>   4</c></rc>
    <rc><c>S </c><c>   4</c></rc>
    <rc><c>S </c><c>   4</c></rc>
    <rc><c>S </c><c>   4</c></rc>
    <rc><c>S </c><c>   4</c></rc>
    <rc><c>S </c><c>   4</c></rc>
    <rc><c>S </c><c>   4</c></rc>
    <rc><c>S </c><c>   4</c></rc>
    <rc><c>S </c><c>   4</c></rc>
    <rc><c>S </c><c>   4</c></rc>
   </set>
  </array>
  <array name="atomtypes" >
   <dimension dim="1">type</dimension>
   <field type="int">atomspertype</field>
   <field type="string">element</field>
   <field>mass</field>
   <field>valence</field>
   <field type="string">pseudopotential</field>
   <set>
    <rc><c>   3</c><c>V </c><c>     50.94100000</c><c>      5.00000000</c><c> PAW_PBE V 08Apr2002                    </c></rc>
    <rc><c>   3</c><c>Mo</c><c>     95.94000000</c><c>      6.00000000</c><c> PAW_PBE Mo 08Apr2002                   </c></rc>
    <rc><c>   3</c><c>W </c><c>    183.85000000</c><c>      6.00000000</c><c> PAW_PBE W 08Apr2002                    </c></rc>
    <rc><c>  18</c><c>S </c><c>     32.06600000</c><c>      6.00000000</c><c>  PAW_PBE S 17Jan2003                   </c></rc>
   </set>
  </array>
 </atominfo>
 <structure name="initialpos" >
  <crystal>
   <varray name="basis" >
    <v>       8.66999996       5.03999989       0.00000000 </v>
    <v>      -8.66999982       5.04000013       0.00000000 </v>
    <v>       0.00000000       0.00000000      30.00000000 </v>
   </varray>
   <i name="volume">   2621.80797419 </i>
   <varray name="rec_basis" >
    <v>       0.05767013       0.09920635       0.00000000 </v>
    <v>      -0.05767013       0.09920635       0.00000000 </v>
    <v>       0.00000000       0.00000000       0.03333333 </v>
   </varray>
  </crystal>
  <varray name="positions" >
   <v>       0.66666669       0.66666669       0.00000000 </v>
   <v>       0.66666669       0.33333334       0.00000000 </v>
   <v>       0.33333334       0.66666669       0.00000000 </v>
   <v>       1.00000000       0.33333334       0.00000000 </v>
   <v>       0.66666669       0.00000000       0.00000000 </v>
   <v>       0.00000000       0.66666669       0.00000000 </v>
   <v>       0.00000000       0.00000000       0.00000000 </v>
   <v>       0.33333334       0.00000000       0.00000000 </v>
   <v>       0.33333334       0.33333334       0.00000000 </v>
   <v>       0.11068511       0.22244981       0.95539999 </v>
   <v>       0.22244981       0.11068511       0.04460000 </v>
   <v>       0.11068511       0.55578315       0.95539999 </v>
   <v>       0.22244981       0.44401845       0.04460000 </v>
   <v>       0.11068511       0.88911647       0.95539999 </v>
   <v>       0.22244981       0.77735180       0.04460000 </v>
   <v>       0.44401845       0.22244981       0.95539999 </v>
   <v>       0.55578315       0.11068511       0.04460000 </v>
   <v>       0.44401845       0.55578315       0.95539999 </v>
   <v>       0.55578315       0.44401845       0.04460000 </v>
   <v>       0.44401845       0.88911647       0.95539999 </v>
   <v>       0.55578315       0.77735180       0.04460000 </v>
   <v>       0.77735180       0.22244981       0.95539999 </v>
   <v>       0.88911647       0.11068511       0.04460000 </v>
   <v>       0.77735180       0.55578315       0.95539999 </v>
   <v>       0.88911647       0.44401845       0.04460000 </v>
   <v>       0.77735180       0.88911647       0.95539999 </v>
   <v>       0.88911647       0.77735180       0.04460000 </v>
  </varray>
 </structure>
 <calculation>
  <scstep>
   <time name="dav">   23.22   23.28</time>
   <time name="total">   23.27   23.34</time>
   <energy>
    <i name="alphaZ">     81.65567618 </i>
    <i name="ewald">  41890.25210216 </i>
    <i name="hartreedc"> -47722.89524516 </i>
    <i name="XCdc">   -242.92705562 </i>
    <i name="pawpsdc">   3467.42045192 </i>
    <i name="pawaedc">  -2871.19716117 </i>
    <i name="eentropy">     -0.53827133 </i>
    <i name="bandstr">   -239.07233227 </i>
    <i name="atom">   6761.44252427 </i>
    <i name="e_fr_energy">   1124.14068898 </i>
    <i name="e_wo_entrp">   1124.67896032 </i>
    <i name="e_0_energy">   1124.40982465 </i>
   </energy>
  </scstep>
  <scstep>
   <time name="dav">   29.51   29.58</time>
   <time name="total">   29.51   29.59</time>
   <energy>
    <i name="e_fr_energy">     -3.67099266 </i>
    <i name="e_wo_entrp">     -3.50717196 </i>
    <i name="e_0_energy">     -3.58908231 </i>
   </energy>
  </scstep>
  <scstep>
   <time name="dav">   29.47   29.54</time>
   <time name="total">   29.47   29.54</time>
   <energy>
    <i name="e_fr_energy">   -199.75742362 </i>
    <i name="e_wo_entrp">   -199.49579011 </i>
    <i name="e_0_energy">   -199.62660687 </i>
   </energy>
  </scstep>
  <scstep>
   <time name="dav">   32.10   32.17</time>
   <time name="total">   32.10   32.18</time>
   <energy>
    <i name="e_fr_energy">   -208.99820463 </i>
    <i name="e_wo_entrp">   -208.69771564 </i>
    <i name="e_0_energy">   -208.84796014 </i>
   </energy>
  </scstep>
  <scstep>
   <time name="dav">   31.23   31.30</time>
   <time name="total">   31.69   31.77</time>
   <energy>
    <i name="e_fr_energy">   -209.32262654 </i>
    <i name="e_wo_entrp">   -209.02533313 </i>
    <i name="e_0_energy">   -209.17397983 </i>
   </energy>
  </scstep>
  <scstep>
   <time name="dav">   32.88   32.96</time>
   <time name="total">   33.39   33.48</time>
   <energy>
    <i name="e_fr_energy">   -236.72322151 </i>
    <i name="e_wo_entrp">   -236.44563263 </i>
    <i name="e_0_energy">   -236.58442707 </i>
   </energy>
  </scstep>
  <scstep>
   <time name="dav">   34.35   34.43</time>
   <time name="total">   34.86   34.95</time>
   <energy>
    <i name="e_fr_energy">   -196.53035369 </i>
    <i name="e_wo_entrp">   -196.21596746 </i>
    <i name="e_0_energy">   -196.37316058 </i>
   </energy>
  </scstep>
  <scstep>
   <time name="dav">   31.91   31.98</time>
   <time name="total">   32.42   32.50</time>
   <energy>
    <i name="e_fr_energy">   -189.39274272 </i>
    <i name="e_wo_entrp">   -189.09642794 </i>
    <i name="e_0_energy">   -189.24458533 </i>
   </energy>
  </scstep>
  <scstep>
   <time name="dav">   33.99   34.07</time>
   <time name="total">   34.52   34.61</time>
   <energy>
    <i name="e_fr_energy">   -188.13272943 </i>
    <i name="e_wo_entrp">   -187.79997217 </i>
    <i name="e_0_energy">   -187.96635080 </i>
   </energy>
  </scstep>
  <scstep>
   <time name="dav">   34.69   34.78</time>
   <time name="total">   35.23   35.33</time>
   <energy>
    <i name="e_fr_energy">   -187.00913612 </i>
    <i name="e_wo_entrp">   -186.66387911 </i>
    <i name="e_0_energy">   -186.83650762 </i>
   </energy>
  </scstep>
  <scstep>
   <time name="dav">   34.64   34.72</time>
   <time name="total">   35.18   35.27</time>
   <energy>
    <i name="e_fr_energy">   -186.97212539 </i>
    <i name="e_wo_entrp">   -186.62121782 </i>
    <i name="e_0_energy">   -186.79667160 </i>
   </energy>
  </scstep>
  <scstep>
   <time name="dav">   32.25   32.33</time>
   <time name="total">   32.79   32.87</time>
   <energy>
    <i name="e_fr_energy">   -187.10366119 </i>
    <i name="e_wo_entrp">   -186.76406687 </i>
    <i name="e_0_energy">   -186.93386403 </i>
   </energy>
  </scstep>
  <scstep>
   <time name="dav">   33.21   33.29</time>
   <time name="total">   33.76   33.84</time>
   <energy>
    <i name="e_fr_energy">   -186.88733495 </i>
    <i name="e_wo_entrp">   -186.55210691 </i>
    <i name="e_0_energy">   -186.71972093 </i>
   </energy>
  </scstep>
  <scstep>
   <time name="dav">   34.99   35.07</time>
   <time name="total">   35.53   35.62</time>
   <energy>
    <i name="e_fr_energy">   -186.86272745 </i>
    <i name="e_wo_entrp">   -186.51958682 </i>
    <i name="e_0_energy">   -186.69115713 </i>
   </energy>
  </scstep>
  <scstep>
   <time name="dav">   32.23   32.31</time>
   <time name="total">   32.77   32.86</time>
   <energy>
    <i name="e_fr_energy">   -186.83960249 </i>
    <i name="e_wo_entrp">   -186.49327131 </i>
    <i name="e_0_energy">   -186.66643690 </i>
   </energy>
  </scstep>
  <scstep>
   <time name="dav">   31.83   31.91</time>
   <time name="total">   32.37   32.46</time>
   <energy>
    <i name="e_fr_energy">   -186.83273163 </i>
    <i name="e_wo_entrp">   -186.48654646 </i>
    <i name="e_0_energy">   -186.65963904 </i>
   </energy>
  </scstep>
  <scstep>
   <time name="dav">   33.60   33.68</time>
   <time name="total">   34.14   34.23</time>
   <energy>
    <i name="e_fr_energy">   -186.83088633 </i>
    <i name="e_wo_entrp">   -186.48674152 </i>
    <i name="e_0_energy">   -186.65881392 </i>
   </energy>
  </scstep>
  <scstep>
   <time name="dav">   31.57   31.65</time>
   <time name="total">   32.11   32.19</time>
   <energy>
    <i name="e_fr_energy">   -186.83021148 </i>
    <i name="e_wo_entrp">   -186.48619269 </i>
    <i name="e_0_energy">   -186.65820208 </i>
   </energy>
  </scstep>
  <scstep>
   <time name="dav">   29.72   29.79</time>
   <time name="total">   30.26   30.34</time>
   <energy>
    <i name="e_fr_energy">   -186.82979552 </i>
    <i name="e_wo_entrp">   -186.48524677 </i>
    <i name="e_0_energy">   -186.65752115 </i>
   </energy>
  </scstep>
  <scstep>
   <time name="dav">   25.80   25.86</time>
   <time name="total">   26.34   26.41</time>
   <energy>
    <i name="e_fr_energy">   -186.83054234 </i>
    <i name="e_wo_entrp">   -186.48622930 </i>
    <i name="e_0_energy">   -186.65838582 </i>
   </energy>
  </scstep>
  <scstep>
   <time name="dav">   23.08   23.13</time>
   <time name="total">   23.62   23.69</time>
   <energy>
    <i name="e_fr_energy">   -186.83112543 </i>
    <i name="e_wo_entrp">   -186.48690429 </i>
    <i name="e_0_energy">   -186.65901486 </i>
   </energy>
  </scstep>
  <scstep>
   <time name="dav">   21.81   21.87</time>
   <time name="total">   22.35   22.42</time>
   <energy>
    <i name="e_fr_energy">   -186.83229694 </i>
    <i name="e_wo_entrp">   -186.48795246 </i>
    <i name="e_0_energy">   -186.66012470 </i>
   </energy>
  </scstep>
  <scstep>
   <time name="dav">   21.81   21.87</time>
   <time name="total">   22.35   22.41</time>
   <energy>
    <i name="e_fr_energy">   -186.83352313 </i>
    <i name="e_wo_entrp">   -186.48927156 </i>
    <i name="e_0_energy">   -186.66139735 </i>
   </energy>
  </scstep>
  <scstep>
   <time name="dav">   20.00   20.05</time>
   <time name="total">   20.54   20.60</time>
   <energy>
    <i name="e_fr_energy">   -186.83412606 </i>
    <i name="e_wo_entrp">   -186.48985953 </i>
    <i name="e_0_energy">   -186.66199280 </i>
   </energy>
  </scstep>
  <scstep>
   <time name="dav">   18.10   18.14</time>
   <time name="total">   18.64   18.69</time>
   <energy>
    <i name="e_fr_energy">   -186.83448298 </i>
    <i name="e_wo_entrp">   -186.49017802 </i>
    <i name="e_0_energy">   -186.66233050 </i>
   </energy>
  </scstep>
  <scstep>
   <time name="dav">   20.35   20.40</time>
   <time name="total">   20.89   20.95</time>
   <energy>
    <i name="e_fr_energy">   -186.83471333 </i>
    <i name="e_wo_entrp">   -186.49042343 </i>
    <i name="e_0_energy">   -186.66256838 </i>
   </energy>
  </scstep>
  <scstep>
   <time name="dav">   21.37   21.42</time>
   <time name="total">   21.91   21.97</time>
   <energy>
    <i name="e_fr_energy">   -186.83481369 </i>
    <i name="e_wo_entrp">   -186.49052347 </i>
    <i name="e_0_energy">   -186.66266858 </i>
   </energy>
  </scstep>
  <scstep>
   <time name="dav">   21.82   21.88</time>
   <time name="total">   21.86   21.92</time>
   <energy>
    <i name="alphaZ">     81.65567618 </i>
    <i name="ewald">  41890.25210216 </i>
    <i name="hartreedc"> -47832.90859943 </i>
    <i name="XCdc">   -231.61206872 </i>
    <i name="pawpsdc">   4192.02563232 </i>
    <i name="pawaedc">  -3610.02675354 </i>
    <i name="eentropy">     -0.34428853 </i>
    <i name="bandstr">  -1437.31908125 </i>
    <i name="atom">   6761.44252427 </i>
    <i name="e_fr_energy">   -186.83485654 </i>
    <i name="e_wo_entrp">   -186.49056801 </i>
    <i name="e_0_energy">   -186.66271228 </i>
   </energy>
  </scstep>
  <structure>
   <crystal>
    <varray name="basis" >
     <v>       8.66999996       5.03999989       0.00000000 </v>
     <v>      -8.66999982       5.04000013       0.00000000 </v>
     <v>       0.00000000       0.00000000      30.00000000 </v>
    </varray>
    <i name="volume">   2621.80797419 </i>
    <varray name="rec_basis" >
     <v>       0.05767013       0.09920635       0.00000000 </v>
     <v>      -0.05767013       0.09920635       0.00000000 </v>
     <v>       0.00000000       0.00000000       0.03333333 </v>
    </varray>
   </crystal>
   <varray name="positions" >
    <v>       0.66666669       0.66666669       0.00000000 </v>
    <v>       0.66666669       0.33333334       0.00000000 </v>
    <v>       0.33333334       0.66666669       0.00000000 </v>
    <v>       1.00000000       0.33333334       0.00000000 </v>
    <v>       0.66666669       0.00000000       0.00000000 </v>
    <v>       0.00000000       0.66666669       0.00000000 </v>
    <v>       0.00000000       0.00000000       0.00000000 </v>
    <v>       0.33333334       0.00000000       0.00000000 </v>
    <v>       0.33333334       0.33333334       0.00000000 </v>
    <v>       0.11068511       0.22244981       0.95539999 </v>
    <v>       0.22244981       0.11068511       0.04460000 </v>
    <v>       0.11068511       0.55578315       0.95539999 </v>
    <v>       0.22244981       0.44401845       0.04460000 </v>
    <v>       0.11068511       0.88911647       0.95539999 </v>
    <v>       0.22244981       0.77735180       0.04460000 </v>
    <v>       0.44401845       0.22244981       0.95539999 </v>
    <v>       0.55578315       0.11068511       0.04460000 </v>
    <v>       0.44401845       0.55578315       0.95539999 </v>
    <v>       0.55578315       0.44401845       0.04460000 </v>
    <v>       0.44401845       0.88911647       0.95539999 </v>
    <v>       0.55578315       0.77735180       0.04460000 </v>
    <v>       0.77735180       0.22244981       0.95539999 </v>
    <v>       0.88911647       0.11068511       0.04460000 </v>
    <v>       0.77735180       0.55578315       0.95539999 </v>
    <v>       0.88911647       0.44401845       0.04460000 </v>
    <v>       0.77735180       0.88911647       0.95539999 </v>
    <v>       0.88911647       0.77735180       0.04460000 </v>
   </varray>
  </structure>
  <varray name="forces" >
   <v>      -0.00908215       0.15088867       0.02630062 </v>
   <v>       0.36357447       0.28819722      -0.11336650 </v>
   <v>      -0.14917663      -0.07619019       0.12032188 </v>
   <v>      -0.26960095      -0.13401847      -0.13269315 </v>
   <v>       0.01354430       0.22232985       0.06501545 </v>
   <v>       0.25854516      -0.19528931      -0.07958906 </v>
   <v>      -0.29708534      -0.20247994       0.00126503 </v>
   <v>       0.33294262      -0.12389227       0.11077389 </v>
   <v>      -0.27335724      -0.02085237       0.02479958 </v>
   <v>       0.26340650      -0.00914758      -2.91494648 </v>
   <v>      -0.11126036      -0.01643443       2.92725020 </v>
   <v>       0.52198997       0.67901837      -2.14857433 </v>
   <v>      -0.36426974       0.73531137       2.16065781 </v>
   <v>       0.03290124       0.13271289      -2.85810033 </v>
   <v>       0.68796109       0.17125685       2.16528509 </v>
   <v>       0.46903768       0.60168476      -2.15683878 </v>
   <v>      -0.62169403       0.53670841       2.13898430 </v>
   <v>      -0.23098790       0.52171325      -1.41716656 </v>
   <v>       0.23362498       0.51940214       1.38885754 </v>
   <v>       0.37869594      -0.68933482      -2.15732756 </v>
   <v>       0.31401843      -0.67666351       1.39992403 </v>
   <v>      -0.77066646       0.01864441      -2.16294049 </v>
   <v>       0.06025661       0.00098773       2.89301682 </v>
   <v>      -0.30703863      -0.68267143      -1.42601967 </v>
   <v>      -0.53824140      -0.68702851       2.17681089 </v>
   <v>       0.62263438      -0.53408685      -2.17583410 </v>
   <v>      -0.61067253      -0.53076624       2.14413388 </v>
  </varray>
  <varray name="stress" >
   <v>       7.30349614       0.03681973      -1.57522238 </v>
   <v>       0.03681968       4.43304298       0.01169933 </v>
   <v>      -1.57522246       0.01169922      30.31881250 </v>
  </varray>
  <energy>
   <i name="e_fr_energy">   -186.83485654 </i>
   <i name="e_wo_entrp">   -186.66271228 </i>
   <i name="e_0_energy">     -0.34428853 </i>
  </energy>
  <time name="totalsc">  858.22  860.51</time>
 </calculation>
 <calculation>
  <scstep>
   <time name="dav">   23.20   23.26</time>
   <time name="total">   23.75   23.81</time>
   <energy>
    <i name="alphaZ">     78.92541971 </i>
    <i name="ewald">  39381.54307295 </i>
    <i name="hartreedc"> -45338.99999976 </i>
    <i name="XCdc">   -239.06828441 </i>
    <i name="pawpsdc">   4192.02470176 </i>
    <i name="pawaedc">  -3610.02580690 </i>
    <i name="eentropy">     -0.28739758 </i>
    <i name="bandstr">  -1413.00583399 </i>
    <i name="atom">   6761.44252427 </i>
    <i name="e_fr_energy">   -187.45160396 </i>
    <i name="e_wo_entrp">   -187.16420638 </i>
    <i name="e_0_energy">   -187.30790517 </i>
   </energy>
  </scstep>
  <scstep>
   <time name="dav">   32.24   32.32</time>
   <time name="total">   32.78   32.87</time>
   <energy>
    <i name="e_fr_energy">   -189.14910110 </i>
    <i name="e_wo_entrp">   -188.84139106 </i>
    <i name="e_0_energy">   -188.99524608 </i>
   </energy>
  </scstep>
  <scstep>
   <time name="dav">   32.69   32.77</time>
   <time name="total">   33.24   33.33</time>
   <energy>
    <i name="e_fr_energy">   -189.40210608 </i>
    <i name="e_wo_entrp">   -189.12278227 </i>
    <i name="e_0_energy">   -189.26244418 </i>
   </energy>
  </scstep>
  <scstep>
   <time name="dav">   33.17   33.25</time>
   <time name="total">   33.71   33.80</time>
   <energy>
    <i name="e_fr_energy">   -188.71918170 </i>
    <i name="e_wo_entrp">   -188.43264768 </i>
    <i name="e_0_energy">   -188.57591469 </i>
   </energy>
  </scstep>
  <scstep>
   <time name="dav">   29.03   29.10</time>
   <time name="total">   29.57   29.65</time>
   <energy>
    <i name="e_fr_energy">   -188.72585797 </i>
    <i name="e_wo_entrp">   -188.43970610 </i>
    <i name="e_0_energy">   -188.58278203 </i>
   </energy>
  </scstep>
  <scstep>
   <time name="dav">   33.56   33.64</time>
   <time name="total">   34.10   34.19</time>
   <energy>
    <i name="e_fr_energy">   -188.69601049 </i>
    <i name="e_wo_entrp">   -188.40574184 </i>
    <i name="e_0_energy">   -188.55087616 </i>
   </energy>
  </scstep>
  <scstep>
   <time name="dav">   32.35   32.42</time>
   <time name="total">   32.89   32.98</time>
   <energy>
    <i name="e_fr_energy">   -188.66542467 </i>
    <i name="e_wo_entrp">   -188.38106945 </i>
    <i name="e_0_energy">   -188.52324706 </i>
   </energy>
  </scstep>
  <scstep>
   <time name="dav">   33.19   33.27</time>
   <time name="total">   33.74   33.83</time>
   <energy>
    <i name="e_fr_energy">   -188.63035694 </i>
    <i name="e_wo_entrp">   -188.34511954 </i>
    <i name="e_0_energy">   -188.48773824 </i>
   </energy>
  </scstep>
  <scstep>
   <time name="dav">   32.46   32.54</time>
   <time name="total">   33.01   33.10</time>
   <energy>
    <i name="e_fr_energy">   -188.62982386 </i>
    <i name="e_wo_entrp">   -188.34551090 </i>
    <i name="e_0_energy">   -188.48766738 </i>
   </energy>
  </scstep>
  <scstep>
   <time name="dav">   35.22   35.31</time>
   <time name="total">   35.76   35.87</time>
   <energy>
    <i name="e_fr_energy">   -188.62891452 </i>
    <i name="e_wo_entrp">   -188.34433363 </i>
    <i name="e_0_energy">   -188.48662408 </i>
   </energy>
  </scstep>
  <scstep>
   <time name="dav">   33.70   33.78</time>
   <time name="total">   34.25   34.34</time>
   <energy>
    <i name="e_fr_energy">   -188.62817540 </i>
    <i name="e_wo_entrp">   -188.34380908 </i>
    <i name="e_0_energy">   -188.48599224 </i>
   </energy>
  </scstep>
  <scstep>
   <time name="dav">   29.67   29.74</time>
   <time name="total">   29.70   29.78</time>
   <energy>
    <i name="alphaZ">     78.92541971 </i>
    <i name="ewald">  39381.54307295 </i>
    <i name="hartreedc"> -45350.01050670 </i>
    <i name="XCdc">   -237.97506394 </i>
    <i name="pawpsdc">   3952.11674250 </i>
    <i name="pawaedc">  -3366.63852554 </i>
    <i name="eentropy">     -0.28396740 </i>
    <i name="bandstr">  -1407.74795650 </i>
    <i name="atom">   6761.44252427 </i>
    <i name="e_fr_energy">   -188.62826065 </i>
    <i name="e_wo_entrp">   -188.34429325 </i>
    <i name="e_0_energy">   -188.48627695 </i>
   </energy>
  </scstep>
  <structure>
   <crystal>
    <varray name="basis" >
     <v>       8.85568569       5.10625989       0.00000000 </v>
     <v>      -8.85460038       5.10439338       0.00000000 </v>
     <v>       0.00000000       0.00000000      30.00000000 </v>
    </varray>
    <i name="volume">   2712.50382618 </i>
    <varray name="rec_basis" >
     <v>       0.05645404       0.09793093       0.00000000 </v>
     <v>      -0.05647468       0.09794293       0.00000000 </v>
     <v>       0.00000000       0.00000000       0.03333333 </v>
    </varray>
   </crystal>
   <varray name="positions" >
    <v>       0.66736357       0.66741410       0.00004229 </v>
    <v>       0.66905751       0.33370113      -0.00018230 </v>
    <v>       0.33255367       0.66671708       0.00019349 </v>
    <v>       0.99860852       0.33344201      -0.00021338 </v>
    <v>       0.66776843       0.00102638       0.00010455 </v>
    <v>      -0.00021534       0.66501272      -0.00012799 </v>
    <v>      -0.00179560      -0.00014253       0.00000203 </v>
    <v>       0.33366670      -0.00151925       0.00017813 </v>
    <v>       0.33247302       0.33399407       0.00003988 </v>
    <v>       0.11137417       0.22167319       0.95071250 </v>
    <v>       0.22206161       0.11091600       0.04930728 </v>
    <v>       0.11538714       0.55758066       0.95194489 </v>
    <v>       0.22495554       0.44855109       0.04807453 </v>
    <v>       0.11141181       0.88966009       0.95080391 </v>
    <v>       0.22518346       0.77625741       0.04808197 </v>
    <v>       0.44820304       0.22402452       0.95193160 </v>
    <v>       0.55662217       0.11498344       0.04803967 </v>
    <v>       0.44587272       0.55892271       0.95312106 </v>
    <v>       0.55891898       0.44585432       0.04683340 </v>
    <v>       0.44177291       0.88476373       0.95193082 </v>
    <v>       0.55341831       0.77323965       0.04685120 </v>
    <v>       0.77529691       0.22468316       0.95192179 </v>
    <v>       0.88928884       0.11052219       0.04925223 </v>
    <v>       0.77323032       0.55337013       0.95310682 </v>
    <v>       0.88433089       0.44222782       0.04810050 </v>
    <v>       0.77652794       0.88482807       0.95190106 </v>
    <v>       0.88487724       0.77651055       0.04804796 </v>
   </varray>
  </structure>
  <varray name="forces" >
   <v>      -0.00791820       0.20240629       0.09005033 </v>
   <v>       0.35635724       0.25065664      -0.04240471 </v>
   <v>      -0.20450049      -0.06931747       0.03689194 </v>
   <v>      -0.08648792      -0.22531249      -0.04455717 </v>
   <v>       0.05433475       0.36628588       0.07559510 </v>
   <v>       0.23818732      -0.01522334      -0.08821834 </v>
   <v>      -0.29190171      -0.01340631       0.01236512 </v>
   <v>       0.16400223      -0.18099285      -0.05343316 </v>
   <v>      -0.18270521      -0.28739917       0.01407238 </v>
   <v>       0.09272411      -0.00640586      -0.05360034 </v>
   <v>       0.02206486      -0.02342964      -0.10298909 </v>
   <v>       0.03902006       0.07177871      -0.08369802 </v>
   <v>       0.08825166       0.05839292      -0.01597940 </v>
   <v>      -0.07648641       0.12138709       0.11058894 </v>
   <v>       0.01268153       0.09692495       0.12473841 </v>
   <v>      -0.04976266      -0.05229847       0.22285968 </v>
   <v>      -0.09594615      -0.03852787      -0.02493562 </v>
   <v>       0.05434732      -0.06686422       0.14073771 </v>
   <v>      -0.06057886      -0.07318910      -0.23162763 </v>
   <v>      -0.08800872      -0.05053156       0.06626453 </v>
   <v>       0.01423086      -0.03643423      -0.10882539 </v>
   <v>      -0.07657251       0.00458939      -0.21899158 </v>
   <v>       0.12547165       0.02054847       0.13681523 </v>
   <v>      -0.00275084      -0.05486646       0.03256890 </v>
   <v>      -0.03952573      -0.07058290       0.11649726 </v>
   <v>       0.07211803       0.03448644      -0.05832805 </v>
   <v>      -0.07064622       0.03732515      -0.05245704 </v>
  </varray>
  <varray name="stress" >
   <v>     -19.93328520      -0.01327695       0.02891101 </v>
   <v>      -0.01327698     -19.52871412      -0.03032509 </v>
   <v>       0.02891103      -0.03032495      -1.77446618 </v>
  </varray>
  <energy>
   <i name="e_fr_energy">   -188.62826065 </i>
   <i name="e_wo_entrp">   -188.48627695 </i>
   <i name="e_0_energy">     -0.28396740 </i>
  </energy>
  <time name="totalsc">  431.32  432.47</time>
 </calculation>
 <calculation>
  <scstep>
   <time name="dav">   25.67   25.74</time>
   <time name="total">   26.21   26.28</time>
   <energy>
    <i name="alphaZ">     82.35466791 </i>
    <i name="ewald">  41307.27144430 </i>
    <i name="hartreedc"> -47306.31751760 </i>
    <i name="XCdc">   -233.85094228 </i>
    <i name="pawpsdc">   3950.31240219 </i>
    <i name="pawaedc">  -3364.81417007 </i>
    <i name="eentropy">     -0.23597014 </i>
    <i name="bandstr">  -1386.70416713 </i>
    <i name="atom">   6761.44252427 </i>
    <i name="e_fr_energy">   -190.54172856 </i>
    <i name="e_wo_entrp">   -190.30575842 </i>
    <i name="e_0_energy">   -190.42374349 </i>
   </energy>
  </scstep>
  <scstep>
   <time name="dav">   30.18   30.25</time>
   <time name="total">   30.70   30.78</time>
   <energy>
    <i name="e_fr_energy">   -190.56461262 </i>
    <i name="e_wo_entrp">   -190.32668611 </i>
    <i name="e_0_energy">   -190.44564937 </i>
   </energy>
  </scstep>
  <scstep>
   <time name="dav">   32.24   32.32</time>
   <time name="total">   32.77   32.85</time>
   <energy>
    <i name="e_fr_energy">   -190.00766871 </i>
    <i name="e_wo_entrp">   -189.76025479 </i>
    <i name="e_0_energy">   -189.88396175 </i>
   </energy>
  </scstep>
  <scstep>
   <time name="dav">   33.27   33.35</time>
   <time name="total">   33.81   33.90</time>
   <energy>
    <i name="e_fr_energy">   -189.80848094 </i>
    <i name="e_wo_entrp">   -189.57218420 </i>
    <i name="e_0_energy">   -189.69033257 </i>
   </energy>
  </scstep>
  <scstep>
   <time name="dav">   30.27   30.35</time>
   <time name="total">   30.81   30.89</time>
   <energy>
    <i name="e_fr_energy">   -189.73307784 </i>
    <i name="e_wo_entrp">   -189.49057107 </i>
    <i name="e_0_energy">   -189.61182445 </i>
   </energy>
  </scstep>
  <scstep>
   <time name="dav">   31.51   31.59</time>
   <time name="total">   32.05   32.13</time>
   <energy>
    <i name="e_fr_energy">   -189.71220690 </i>
    <i name="e_wo_entrp">   -189.47379643 </i>
    <i name="e_0_energy">   -189.59300167 </i>
   </energy>
  </scstep>
  <scstep>
   <time name="dav">   33.15   33.23</time>
   <time name="total">   33.69   33.77</time>
   <energy>
    <i name="e_fr_energy">   -189.70479245 </i>
    <i name="e_wo_entrp">   -189.46581032 </i>
    <i name="e_0_energy">   -189.58530139 </i>
   </energy>
  </scstep>
  <scstep>
   <time name="dav">   29.45   29.52</time>
   <time name="total">   29.99   30.06</time>
   <energy>
    <i name="e_fr_energy">   -189.70487237 </i>
    <i name="e_wo_entrp">   -189.46619387 </i>
    <i name="e_0_energy">   -189.58553312 </i>
   </energy>
  </scstep>
  <scstep>
   <time name="dav">   29.98   30.05</time>
   <time name="total">   30.51   30.59</time>
   <energy>
    <i name="e_fr_energy">   -189.70507274 </i>
    <i name="e_wo_entrp">   -189.46609770 </i>
    <i name="e_0_energy">   -189.58558522 </i>
   </energy>
  </scstep>
  <scstep>
   <time name="dav">   27.84   27.91</time>
   <time name="total">   28.38   28.46</time>
   <energy>
    <i name="e_fr_energy">   -189.70533869 </i>
    <i name="e_wo_entrp">   -189.46646921 </i>
    <i name="e_0_energy">   -189.58590395 </i>
   </energy>
  </scstep>
  <scstep>
   <time name="dav">   26.32   26.38</time>
   <time name="total">   26.85   26.92</time>
   <energy>
    <i name="e_fr_energy">   -189.70485560 </i>
    <i name="e_wo_entrp">   -189.46593556 </i>
    <i name="e_0_energy">   -189.58539558 </i>
   </energy>
  </scstep>
  <scstep>
   <time name="dav">   20.07   20.12</time>
   <time name="total">   20.11   20.16</time>
   <energy>
    <i name="alphaZ">     82.35466791 </i>
    <i name="ewald">  41307.27144430 </i>
    <i name="hartreedc"> -47279.65039148 </i>
    <i name="XCdc">   -235.24725500 </i>
    <i name="pawpsdc">   4038.78952171 </i>
    <i name="pawaedc">  -3454.48773659 </i>
    <i name="eentropy">     -0.23884037 </i>
    <i name="bandstr">  -1409.93882025 </i>
    <i name="atom">   6761.44252427 </i>
    <i name="e_fr_energy">   -189.70488549 </i>
    <i name="e_wo_entrp">   -189.46604512 </i>
    <i name="e_0_energy">   -189.58546530 </i>
   </energy>
  </scstep>
  <structure>
   <crystal>
    <varray name="basis" >
     <v>       8.66736751       4.99979345       0.00000000 </v>
     <v>      -8.66644984       4.99821657       0.00000000 </v>
     <v>       0.00000000       0.00000000      30.00000000 </v>
    </varray>
    <i name="volume">   2599.55517240 </i>
    <varray name="rec_basis" >
     <v>       0.05768160       0.10001461       0.00000000 </v>
     <v>      -0.05769980       0.10002520       0.00000000 </v>
     <v>       0.00000000       0.00000000       0.03333333 </v>
    </varray>
   </crystal>
   <varray name="positions" >
    <v>       0.66769308       0.66775886       0.00009334 </v>
    <v>       0.66981713       0.33377638      -0.00020634 </v>
    <v>       0.33224187       0.66679803       0.00021440 </v>
    <v>       0.99815022       0.33314977      -0.00023864 </v>
    <v>       0.66843066       0.00158433       0.00014741 </v>
    <v>      -0.00001200       0.66475859      -0.00017800 </v>
    <v>      -0.00209819       0.00011551       0.00000904 </v>
    <v>       0.33352271      -0.00197825       0.00014784 </v>
    <v>       0.33181894       0.33369082       0.00004786 </v>
    <v>       0.11145253       0.22157346       0.95068211 </v>
    <v>       0.22204377       0.11085578       0.04924889 </v>
    <v>       0.11554415       0.55766275       0.95189744 </v>
    <v>       0.22513752       0.44856360       0.04806547 </v>
    <v>       0.11154054       0.88993575       0.95086660 </v>
    <v>       0.22535706       0.77640668       0.04815268 </v>
    <v>       0.44806816       0.22398520       0.95205794 </v>
    <v>       0.55646589       0.11501141       0.04802554 </v>
    <v>       0.44581353       0.55875913       0.95320085 </v>
    <v>       0.55873892       0.44579059       0.04670209 </v>
    <v>       0.44160425       0.88476409       0.95196838 </v>
    <v>       0.55337129       0.77316529       0.04678951 </v>
    <v>       0.77523104       0.22476435       0.95179764 </v>
    <v>       0.88944353       0.11043591       0.04932979 </v>
    <v>       0.77313629       0.55328138       0.95312529 </v>
    <v>       0.88417538       0.44214822       0.04816655 </v>
    <v>       0.77665462       0.88481625       0.95186799 </v>
    <v>       0.88487158       0.77664058       0.04801822 </v>
   </varray>
  </structure>
  <varray name="forces" >
   <v>      -0.01192392       0.22403285       0.08492589 </v>
   <v>       0.36640685       0.21865011      -0.01103324 </v>
   <v>      -0.24495382      -0.08222103       0.01016790 </v>
   <v>      -0.01210753      -0.25033895      -0.01116846 </v>
   <v>       0.06230329       0.40023287       0.05322968 </v>
   <v>       0.23457559       0.05414108      -0.05968458 </v>
   <v>      -0.28458181       0.07009872       0.00903579 </v>
   <v>       0.09740134      -0.20864043      -0.07644113 </v>
   <v>      -0.15694528      -0.38089059       0.00927011 </v>
   <v>       0.01085405      -0.01116303      -0.62516885 </v>
   <v>       0.02350139      -0.03237929       0.45962174 </v>
   <v>       0.09291231       0.13774193      -0.57647505 </v>
   <v>      -0.04555180       0.10689988       0.48395779 </v>
   <v>      -0.04645989       0.05377152      -0.42866273 </v>
   <v>       0.12572168       0.01330243       0.64398649 </v>
   <v>       0.02099756       0.07272474      -0.26724659 </v>
   <v>      -0.09777176       0.09897098       0.47083216 </v>
   <v>      -0.02670433       0.06747263      -0.30749972 </v>
   <v>       0.02128353       0.05168597       0.20939442 </v>
   <v>       0.05001839      -0.10127571      -0.42023865 </v>
   <v>       0.04516762      -0.09695844       0.32964547 </v>
   <v>      -0.14577346      -0.00033508      -0.73434436 </v>
   <v>       0.03549641       0.03372524       0.70357388 </v>
   <v>      -0.04632000      -0.11672650      -0.41873225 </v>
   <v>      -0.07511535      -0.12795897       0.60191484 </v>
   <v>       0.06013812      -0.10484251      -0.56637653 </v>
   <v>      -0.05256915      -0.08972044       0.43351599 </v>
  </varray>
  <varray name="stress" >
   <v>     -10.12957195      -0.01378825       0.00535795 </v>
   <v>      -0.01378806      -9.81227330      -0.03622143 </v>
   <v>       0.00535781      -0.03622147       6.51283911 </v>
  </varray>
  <energy>
   <i name="e_fr_energy">   -189.70488549 </i>
   <i name="e_wo_entrp">   -189.58546530 </i>
   <i name="e_0_energy">     -0.23884037 </i>
  </energy>
  <time name="totalsc">  400.51  401.56</time>
 </calculation>
 <calculation>
  <scstep>
   <time name="dav">   23.18   23.23</time>
   <time name="total">   23.70   23.76</time>
   <energy>
    <i name="alphaZ">     85.81026928 </i>
    <i name="ewald">  42826.34968498 </i>
    <i name="hartreedc"> -48843.05899208 </i>
    <i name="XCdc">   -232.98267444 </i>
    <i name="pawpsdc">   4038.82182704 </i>
    <i name="pawaedc">  -3454.51753165 </i>
    <i name="eentropy">     -0.19388199 </i>
    <i name="bandstr">  -1372.88912178 </i>
    <i name="atom">   6761.44252427 </i>
    <i name="e_fr_energy">   -191.21789637 </i>
    <i name="e_wo_entrp">   -191.02401438 </i>
    <i name="e_0_energy">   -191.12095538 </i>
   </energy>
  </scstep>
  <scstep>
   <time name="dav">   35.04   35.12</time>
   <time name="total">   35.56   35.65</time>
   <energy>
    <i name="e_fr_energy">   -191.16333514 </i>
    <i name="e_wo_entrp">   -190.96224438 </i>
    <i name="e_0_energy">   -191.06278976 </i>
   </energy>
  </scstep>
  <scstep>
   <time name="dav">   31.57   31.65</time>
   <time name="total">   32.09   32.17</time>
   <energy>
    <i name="e_fr_energy">   -191.08476647 </i>
    <i name="e_wo_entrp">   -190.87340504 </i>
    <i name="e_0_energy">   -190.97908576 </i>
   </energy>
  </scstep>
  <scstep>
   <time name="dav">   33.82   33.90</time>
   <time name="total">   34.34   34.43</time>
   <energy>
    <i name="e_fr_energy">   -190.76584280 </i>
    <i name="e_wo_entrp">   -190.56596502 </i>
    <i name="e_0_energy">   -190.66590391 </i>
   </energy>
  </scstep>
  <scstep>
   <time name="dav">   32.00   32.08</time>
   <time name="total">   32.52   32.61</time>
   <energy>
    <i name="e_fr_energy">   -190.75573966 </i>
    <i name="e_wo_entrp">   -190.55864069 </i>
    <i name="e_0_energy">   -190.65719017 </i>
   </energy>
  </scstep>
  <scstep>
   <time name="dav">   32.06   32.14</time>
   <time name="total">   32.58   32.67</time>
   <energy>
    <i name="e_fr_energy">   -190.64239866 </i>
    <i name="e_wo_entrp">   -190.44099280 </i>
    <i name="e_0_energy">   -190.54169573 </i>
   </energy>
  </scstep>
  <scstep>
   <time name="dav">   32.77   32.85</time>
   <time name="total">   33.29   33.38</time>
   <energy>
    <i name="e_fr_energy">   -190.63682549 </i>
    <i name="e_wo_entrp">   -190.43734172 </i>
    <i name="e_0_energy">   -190.53708361 </i>
   </energy>
  </scstep>
  <scstep>
   <time name="dav">   30.34   30.41</time>
   <time name="total">   30.86   30.94</time>
   <energy>
    <i name="e_fr_energy">   -190.63566443 </i>
    <i name="e_wo_entrp">   -190.43600712 </i>
    <i name="e_0_energy">   -190.53583578 </i>
   </energy>
  </scstep>
  <scstep>
   <time name="dav">   30.95   31.02</time>
   <time name="total">   31.47   31.55</time>
   <energy>
    <i name="e_fr_energy">   -190.63239761 </i>
    <i name="e_wo_entrp">   -190.43270802 </i>
    <i name="e_0_energy">   -190.53255281 </i>
   </energy>
  </scstep>
  <scstep>
   <time name="dav">   27.42   27.49</time>
   <time name="total">   27.94   28.01</time>
   <energy>
    <i name="e_fr_energy">   -190.63276086 </i>
    <i name="e_wo_entrp">   -190.43289417 </i>
    <i name="e_0_energy">   -190.53282752 </i>
   </energy>
  </scstep>
  <scstep>
   <time name="dav">   28.94   29.01</time>
   <time name="total">   29.46   29.54</time>
   <energy>
    <i name="e_fr_energy">   -190.63256600 </i>
    <i name="e_wo_entrp">   -190.43283293 </i>
    <i name="e_0_energy">   -190.53269946 </i>
   </energy>
  </scstep>
  <scstep>
   <time name="dav">   21.15   21.20</time>
   <time name="total">   21.19   21.25</time>
   <energy>
    <i name="alphaZ">     85.81026928 </i>
    <i name="ewald">  42826.34968498 </i>
    <i name="hartreedc"> -48814.61907767 </i>
    <i name="XCdc">   -234.31502066 </i>
    <i name="pawpsdc">   4062.39337983 </i>
    <i name="pawaedc">  -3478.24792920 </i>
    <i name="eentropy">     -0.19969109 </i>
    <i name="bandstr">  -1399.24671044 </i>
    <i name="atom">   6761.44252427 </i>
    <i name="e_fr_energy">   -190.63257068 </i>
    <i name="e_wo_entrp">   -190.43287959 </i>
    <i name="e_0_energy">   -190.53272514 </i>
   </energy>
  </scstep>
  <structure>
   <crystal>
    <varray name="basis" >
     <v>       8.48649182       4.90013957       0.00000000 </v>
     <v>      -8.48609692       4.89946718       0.00000000 </v>
     <v>       0.00000000       0.00000000      30.00000000 </v>
    </varray>
    <i name="volume">   2494.87042427 </i>
    <varray name="rec_basis" >
     <v>       0.05891449       0.10204254       0.00000000 </v>
     <v>      -0.05892257       0.10204729       0.00000000 </v>
     <v>       0.00000000       0.00000000       0.03333333 </v>
    </varray>
   </crystal>
   <varray name="positions" >
    <v>       0.66909946       0.66926291       0.00026460 </v>
    <v>       0.67244226       0.33372805      -0.00020269 </v>
    <v>       0.33075377       0.66719366       0.00021288 </v>
    <v>       0.99658467       0.33145886      -0.00023356 </v>
    <v>       0.67125485       0.00393627       0.00023859 </v>
    <v>       0.00133997       0.66442769      -0.00027732 </v>
    <v>      -0.00246918       0.00177788       0.00002492 </v>
    <v>       0.33240527      -0.00360855      -0.00002960 </v>
    <v>       0.32867483       0.33160571       0.00006297 </v>
    <v>       0.11129309       0.22156967       0.94890742 </v>
    <v>       0.22190589       0.11054412       0.05067377 </v>
    <v>       0.11698164       0.55827563       0.95028989 </v>
    <v>       0.22557095       0.44970834       0.04948779 </v>
    <v>       0.11158459       0.89022935       0.94952544 </v>
    <v>       0.22584822       0.77566723       0.04992214 </v>
    <v>       0.44900988       0.22457319       0.95109195 </v>
    <v>       0.55707041       0.11632701       0.04941720 </v>
    <v>       0.44635643       0.55972653       0.95218696 </v>
    <v>       0.55956555       0.44622968       0.04750707 </v>
    <v>       0.44122261       0.88362682       0.95068913 </v>
    <v>       0.55282190       0.77220137       0.04784094 </v>
    <v>       0.77459181       0.22537516       0.94984466 </v>
    <v>       0.88968671       0.11068005       0.05126252 </v>
    <v>       0.77202333       0.55262721       0.95187885 </v>
    <v>       0.88291075       0.44152742       0.04982048 </v>
    <v>       0.77585329       0.88361496       0.95026843 </v>
    <v>       0.88383153       0.77592823       0.04932447 </v>
   </varray>
  </structure>
  <varray name="forces" >
   <v>      -0.01379962       0.22263634       0.04684544 </v>
   <v>       0.35725260       0.20240789       0.04732821 </v>
   <v>      -0.28523715      -0.08884254      -0.04507685 </v>
   <v>       0.09721441      -0.28544384       0.02399156 </v>
   <v>       0.09421309       0.44182647      -0.00566138 </v>
   <v>       0.24780380       0.11268268      -0.00764960 </v>
   <v>      -0.32738195       0.16728181       0.00108046 </v>
   <v>       0.04729516      -0.25835824      -0.05165176 </v>
   <v>      -0.16326698      -0.41311729       0.01040926 </v>
   <v>      -0.06826574      -0.04382498      -0.50235823 </v>
   <v>       0.01573819      -0.06529561       0.34144705 </v>
   <v>       0.06280855       0.01325800      -0.40376810 </v>
   <v>      -0.06559564      -0.00588619       0.32570078 </v>
   <v>      -0.03437710      -0.03670037      -0.27712195 </v>
   <v>       0.05534959      -0.02000600       0.48555417 </v>
   <v>       0.01787871       0.03929475      -0.13317574 </v>
   <v>      -0.02363332       0.04597760       0.26987579 </v>
   <v>      -0.01181841      -0.00018551      -0.15596653 </v>
   <v>       0.00670843      -0.01217664       0.08303324 </v>
   <v>       0.08097759       0.01125285      -0.23001445 </v>
   <v>      -0.02412031       0.01353002       0.24638667 </v>
   <v>      -0.03183700       0.01608576      -0.56868676 </v>
   <v>      -0.03263520       0.02674953       0.54699040 </v>
   <v>       0.01151413      -0.01556652      -0.32382390 </v>
   <v>      -0.01463342      -0.02440406       0.39499067 </v>
   <v>      -0.00509937      -0.03179505      -0.37954827 </v>
   <v>       0.00694698      -0.01138085       0.26086982 </v>
  </varray>
  <varray name="stress" >
   <v>      -5.85658813       0.01304608      -0.09217770 </v>
   <v>       0.01304617      -5.87687069      -0.00110819 </v>
   <v>      -0.09217775      -0.00110821       4.47414438 </v>
  </varray>
  <energy>
   <i name="e_fr_energy">   -190.63257068 </i>
   <i name="e_wo_entrp">   -190.53272514 </i>
   <i name="e_0_energy">     -0.19969109 </i>
  </energy>
  <time name="totalsc">  409.60  410.68</time>
 </calculation>
 <calculation>
  <scstep>
   <time name="dav">   23.18   23.24</time>
   <time name="total">   23.69   23.75</time>
   <energy>
    <i name="alphaZ">     90.35885915 </i>
    <i name="ewald">  44748.26082174 </i>
    <i name="hartreedc"> -50794.15232514 </i>
    <i name="XCdc">   -231.71070912 </i>
    <i name="pawpsdc">   4062.34853614 </i>
    <i name="pawaedc">  -3478.19895559 </i>
    <i name="eentropy">     -0.17645193 </i>
    <i name="bandstr">  -1350.23570514 </i>
    <i name="atom">   6761.44252427 </i>
    <i name="e_fr_energy">   -192.06340562 </i>
    <i name="e_wo_entrp">   -191.88695369 </i>
    <i name="e_0_energy">   -191.97517965 </i>
   </energy>
  </scstep>
  <scstep>
   <time name="dav">   32.90   32.98</time>
   <time name="total">   33.40   33.49</time>
   <energy>
    <i name="e_fr_energy">   -191.87538118 </i>
    <i name="e_wo_entrp">   -191.68866795 </i>
    <i name="e_0_energy">   -191.78202457 </i>
   </energy>
  </scstep>
  <scstep>
   <time name="dav">   29.21   29.28</time>
   <time name="total">   29.72   29.80</time>
   <energy>
    <i name="e_fr_energy">   -192.15532214 </i>
    <i name="e_wo_entrp">   -191.95457647 </i>
    <i name="e_0_energy">   -192.05494930 </i>
   </energy>
  </scstep>
  <scstep>
   <time name="dav">   31.77   31.85</time>
   <time name="total">   32.28   32.37</time>
   <energy>
    <i name="e_fr_energy">   -191.52747862 </i>
    <i name="e_wo_entrp">   -191.34405483 </i>
    <i name="e_0_energy">   -191.43576672 </i>
   </energy>
  </scstep>
  <scstep>
   <time name="dav">   32.12   32.19</time>
   <time name="total">   32.62   32.71</time>
   <energy>
    <i name="e_fr_energy">   -191.45398169 </i>
    <i name="e_wo_entrp">   -191.27430886 </i>
    <i name="e_0_energy">   -191.36414528 </i>
   </energy>
  </scstep>
  <scstep>
   <time name="dav">   32.14   32.22</time>
   <time name="total">   32.65   32.74</time>
   <energy>
    <i name="e_fr_energy">   -191.26498516 </i>
    <i name="e_wo_entrp">   -191.07926287 </i>
    <i name="e_0_energy">   -191.17212402 </i>
   </energy>
  </scstep>
  <scstep>
   <time name="dav">   31.92   31.99</time>
   <time name="total">   32.43   32.51</time>
   <energy>
    <i name="e_fr_energy">   -191.25847790 </i>
    <i name="e_wo_entrp">   -191.07372096 </i>
    <i name="e_0_energy">   -191.16609943 </i>
   </energy>
  </scstep>
  <scstep>
   <time name="dav">   28.44   28.51</time>
   <time name="total">   28.95   29.03</time>
   <energy>
    <i name="e_fr_energy">   -191.25361245 </i>
    <i name="e_wo_entrp">   -191.06881368 </i>
    <i name="e_0_energy">   -191.16121307 </i>
   </energy>
  </scstep>
  <scstep>
   <time name="dav">   33.02   33.10</time>
   <time name="total">   33.53   33.62</time>
   <energy>
    <i name="e_fr_energy">   -191.25441053 </i>
    <i name="e_wo_entrp">   -191.06960862 </i>
    <i name="e_0_energy">   -191.16200958 </i>
   </energy>
  </scstep>
  <scstep>
   <time name="dav">   29.87   29.94</time>
   <time name="total">   30.38   30.46</time>
   <energy>
    <i name="e_fr_energy">   -191.25359448 </i>
    <i name="e_wo_entrp">   -191.06877294 </i>
    <i name="e_0_energy">   -191.16118371 </i>
   </energy>
  </scstep>
  <scstep>
   <time name="dav">   28.57   28.64</time>
   <time name="total">   28.61   28.69</time>
   <energy>
    <i name="alphaZ">     90.35885915 </i>
    <i name="ewald">  44748.26082174 </i>
    <i name="hartreedc"> -50758.10063809 </i>
    <i name="XCdc">   -233.33781138 </i>
    <i name="pawpsdc">   4083.27409368 </i>
    <i name="pawaedc">  -3499.19098157 </i>
    <i name="eentropy">     -0.18493903 </i>
    <i name="bandstr">  -1383.77543804 </i>
    <i name="atom">   6761.44252427 </i>
    <i name="e_fr_energy">   -191.25350928 </i>
    <i name="e_wo_entrp">   -191.06857024 </i>
    <i name="e_0_energy">   -191.16103976 </i>
   </energy>
  </scstep>
  <structure>
   <crystal>
    <varray name="basis" >
     <v>       8.27064486       4.77568515       0.00000000 </v>
     <v>      -8.26959448       4.77387739       0.00000000 </v>
     <v>       0.00000000       0.00000000      30.00000000 </v>
    </varray>
    <i name="volume">   2369.28072086 </i>
    <varray name="rec_basis" >
     <v>       0.06044717       0.10471019       0.00000000 </v>
     <v>      -0.06047006       0.10472349       0.00000000 </v>
     <v>       0.00000000       0.00000000       0.03333333 </v>
    </varray>
   </crystal>
   <varray name="positions" >
    <v>       0.67186860       0.67224324       0.00047303 </v>
    <v>       0.67755402       0.33358491      -0.00000861 </v>
    <v>       0.32750006       0.66815261       0.00003107 </v>
    <v>       0.99369808       0.32711785      -0.00012044 </v>
    <v>       0.67752370       0.00886980       0.00022522 </v>
    <v>       0.00465206       0.66417052      -0.00030855 </v>
    <v>      -0.00260556       0.00629779       0.00003038 </v>
    <v>       0.32942986      -0.00714265      -0.00027912 </v>
    <v>       0.32210324       0.32730946       0.00010021 </v>
    <v>       0.11022332       0.22161884       0.94619145 </v>
    <v>       0.22123749       0.10962604       0.05271679 </v>
    <v>       0.11814261       0.55827558       0.94803175 </v>
    <v>       0.22514864       0.45066381       0.05142441 </v>
    <v>       0.11086525       0.88993086       0.94775205 </v>
    <v>       0.22607152       0.77455302       0.05253546 </v>
    <v>       0.45019373       0.22524588       0.94996995 </v>
    <v>       0.55790494       0.11766025       0.05114389 </v>
    <v>       0.44663302       0.56048529       0.95100433 </v>
    <v>       0.56010193       0.44635622       0.04836863 </v>
    <v>       0.44181471       0.88262438       0.94914166 </v>
    <v>       0.55256686       0.77205206       0.04934722 </v>
    <v>       0.77428621       0.22600015       0.94688969 </v>
    <v>       0.88975056       0.11139408       0.05417576 </v>
    <v>       0.77141713       0.55211956       0.95003479 </v>
    <v>       0.88202321       0.44109686       0.05205406 </v>
    <v>       0.77491547       0.88266233       0.94808638 </v>
    <v>       0.88319378       0.77524571       0.05098842 </v>
   </varray>
  </structure>
  <varray name="forces" >
   <v>       0.00792719       0.17677645       0.03184852 </v>
   <v>       0.25161198       0.23222978      -0.01508050 </v>
   <v>      -0.26173264      -0.08272233      -0.02248434 </v>
   <v>       0.19531947      -0.15618882      -0.00640716 </v>
   <v>       0.12316493       0.28070386      -0.02836831 </v>
   <v>       0.18365358       0.12084522      -0.01865089 </v>
   <v>      -0.26767848       0.21448541       0.03036493 </v>
   <v>      -0.05513898      -0.30799458       0.01275744 </v>
   <v>      -0.16903321      -0.33052876       0.01515152 </v>
   <v>      -0.11464813      -0.07403018      -0.26935615 </v>
   <v>       0.01089181      -0.11381641       0.12273532 </v>
   <v>       0.03081379      -0.13094436      -0.07087978 </v>
   <v>      -0.02998784      -0.11084066       0.03307375 </v>
   <v>      -0.08334478      -0.12096192      -0.01882017 </v>
   <v>      -0.01293133      -0.01598071       0.16995629 </v>
   <v>      -0.00897141      -0.04341756       0.15991299 </v>
   <v>       0.06253487      -0.04813943      -0.09323175 </v>
   <v>      -0.00950438      -0.09099309       0.10860993 </v>
   <v>      -0.00537126      -0.11583425      -0.18402590 </v>
   <v>       0.05311802       0.13720789       0.06506570 </v>
   <v>      -0.11218892       0.12340648      -0.06066373 </v>
   <v>       0.07141479       0.04198886      -0.15923612 </v>
   <v>      -0.03170920       0.00839507       0.25198335 </v>
   <v>       0.08100048       0.07890252      -0.01952983 </v>
   <v>       0.09077616       0.08131938       0.10067050 </v>
   <v>      -0.04508845       0.09785256      -0.08469328 </v>
   <v>       0.04510196       0.14827957      -0.05070232 </v>
  </varray>
  <varray name="stress" >
   <v>      -0.27249321      -0.00932819       0.05180309 </v>
   <v>      -0.00932818       0.01883897       0.06894781 </v>
   <v>       0.05180329       0.06894762      -0.41850360 </v>
  </varray>
  <energy>
   <i name="e_fr_energy">   -191.25350928 </i>
   <i name="e_wo_entrp">   -191.16103976 </i>
   <i name="e_0_energy">     -0.18493903 </i>
  </energy>
  <time name="totalsc">  382.96  383.97</time>
 </calculation>
 <calculation>
  <scstep>
   <time name="dav">   23.16   23.21</time>
   <time name="total">   23.67   23.73</time>
   <energy>
    <i name="alphaZ">     90.47248918 </i>
    <i name="ewald">  44780.17645352 </i>
    <i name="hartreedc"> -50792.12402795 </i>
    <i name="XCdc">   -233.34182760 </i>
    <i name="pawpsdc">   4083.72451605 </i>
    <i name="pawaedc">  -3499.63917659 </i>
    <i name="eentropy">     -0.19037086 </i>
    <i name="bandstr">  -1381.83732697 </i>
    <i name="atom">   6761.44252427 </i>
    <i name="e_fr_energy">   -191.31674694 </i>
    <i name="e_wo_entrp">   -191.12637608 </i>
    <i name="e_0_energy">   -191.22156151 </i>
   </energy>
  </scstep>
  <scstep>
   <time name="dav">   34.60   34.68</time>
   <time name="total">   35.11   35.20</time>
   <energy>
    <i name="e_fr_energy">   -191.37496156 </i>
    <i name="e_wo_entrp">   -191.17684762 </i>
    <i name="e_0_energy">   -191.27590459 </i>
   </energy>
  </scstep>
  <scstep>
   <time name="dav">   31.18   31.25</time>
   <time name="total">   31.69   31.77</time>
   <energy>
    <i name="e_fr_energy">   -191.32746192 </i>
    <i name="e_wo_entrp">   -191.13634606 </i>
    <i name="e_0_energy">   -191.23190399 </i>
   </energy>
  </scstep>
  <scstep>
   <time name="dav">   30.28   30.36</time>
   <time name="total">   30.79   30.87</time>
   <energy>
    <i name="e_fr_energy">   -191.32680531 </i>
    <i name="e_wo_entrp">   -191.13582199 </i>
    <i name="e_0_energy">   -191.23131365 </i>
   </energy>
  </scstep>
  <scstep>
   <time name="dav">   30.02   30.09</time>
   <time name="total">   30.53   30.61</time>
   <energy>
    <i name="e_fr_energy">   -191.32359028 </i>
    <i name="e_wo_entrp">   -191.13185192 </i>
    <i name="e_0_energy">   -191.22772110 </i>
   </energy>
  </scstep>
  <scstep>
   <time name="dav">   29.67   29.74</time>
   <time name="total">   30.18   30.26</time>
   <energy>
    <i name="e_fr_energy">   -191.32297691 </i>
    <i name="e_wo_entrp">   -191.13127288 </i>
    <i name="e_0_energy">   -191.22712489 </i>
   </energy>
  </scstep>
  <scstep>
   <time name="dav">   30.89   30.97</time>
   <time name="total">   31.40   31.49</time>
   <energy>
    <i name="e_fr_energy">   -191.32334992 </i>
    <i name="e_wo_entrp">   -191.13157080 </i>
    <i name="e_0_energy">   -191.22746036 </i>
   </energy>
  </scstep>
  <scstep>
   <time name="dav">   27.24   27.30</time>
   <time name="total">   27.75   27.82</time>
   <energy>
    <i name="e_fr_energy">   -191.32280872 </i>
    <i name="e_wo_entrp">   -191.13100901 </i>
    <i name="e_0_energy">   -191.22690887 </i>
   </energy>
  </scstep>
  <scstep>
   <time name="dav">   19.25   19.29</time>
   <time name="total">   19.29   19.34</time>
   <energy>
    <i name="alphaZ">     90.47248918 </i>
    <i name="ewald">  44780.17645352 </i>
    <i name="hartreedc"> -50792.17899734 </i>
    <i name="XCdc">   -233.36333562 </i>
    <i name="pawpsdc">   4082.24703214 </i>
    <i name="pawaedc">  -3498.12888630 </i>
    <i name="eentropy">     -0.19174779 </i>
    <i name="bandstr">  -1381.79829270 </i>
    <i name="atom">   6761.44252427 </i>
    <i name="e_fr_energy">   -191.32276062 </i>
    <i name="e_wo_entrp">   -191.13101283 </i>
    <i name="e_0_energy">   -191.22688673 </i>
   </energy>
  </scstep>
  <structure>
   <crystal>
    <varray name="basis" >
     <v>       8.26205289       4.77437815       0.00000000 </v>
     <v>      -8.26123653       4.77297428       0.00000000 </v>
     <v>       0.00000000       0.00000000      30.00000000 </v>
    </varray>
    <i name="volume">   2366.30499364 </i>
    <varray name="rec_basis" >
     <v>       0.06051174       0.10473591       0.00000000 </v>
     <v>      -0.06052954       0.10474626       0.00000000 </v>
     <v>       0.00000000       0.00000000       0.03333333 </v>
    </varray>
   </crystal>
   <varray name="positions" >
    <v>       0.67286372       0.67319483       0.00052979 </v>
    <v>       0.67961137       0.33403363      -0.00003005 </v>
    <v>       0.32622315       0.66852621      -0.00000946 </v>
    <v>       0.99341924       0.32563818      -0.00012881 </v>
    <v>       0.67946928       0.01005145       0.00017810 </v>
    <v>       0.00589423       0.66424430      -0.00034001 </v>
    <v>      -0.00229445       0.00830147       0.00008079 </v>
    <v>       0.32760638      -0.00864373      -0.00026299 </v>
    <v>       0.31975318       0.32601536       0.00012593 </v>
    <v>       0.10947389       0.22158023       0.94568792 </v>
    <v>       0.22066621       0.10898442       0.05296500 </v>
    <v>       0.11758139       0.55750495       0.94786598 </v>
    <v>       0.22447560       0.45020110       0.05152166 </v>
    <v>       0.10997223       0.88954534       0.94768096 </v>
    <v>       0.22595447       0.77448291       0.05287206 </v>
    <v>       0.44996911       0.22506283       0.95020755 </v>
    <v>       0.55786260       0.11725307       0.05102832 </v>
    <v>       0.44614036       0.56006215       0.95115623 </v>
    <v>       0.55950042       0.44577574       0.04808569 </v>
    <v>       0.44269742       0.88315391       0.94921404 </v>
    <v>       0.55286439       0.77302284       0.04928010 </v>
    <v>       0.77471036       0.22601776       0.94656459 </v>
    <v>       0.88969975       0.11154777       0.05465428 </v>
    <v>       0.77205410       0.55227480       0.94996266 </v>
    <v>       0.88269720       0.44123668       0.05226887 </v>
    <v>       0.77526614       0.88328268       0.94789885 </v>
    <v>       0.88408273       0.77586359       0.05094185 </v>
   </varray>
  </structure>
  <varray name="forces" >
   <v>       0.01655765       0.18625545       0.05381085 </v>
   <v>       0.23763385       0.29678294       0.00976013 </v>
   <v>      -0.25362057      -0.07356477      -0.03396231 </v>
   <v>       0.17579957      -0.14038512       0.02272776 </v>
   <v>       0.16130865       0.28703504      -0.00333598 </v>
   <v>       0.20365490       0.09648160       0.00065291 </v>
   <v>      -0.26954999       0.21076814       0.01967746 </v>
   <v>      -0.06912363      -0.35768825      -0.02409049 </v>
   <v>      -0.18782741      -0.35164682      -0.00730014 </v>
   <v>      -0.06926873      -0.05378531      -0.22830128 </v>
   <v>      -0.00080276      -0.08112127       0.10259333 </v>
   <v>       0.03928987      -0.08760742      -0.05451903 </v>
   <v>      -0.02364836      -0.07135642       0.03428921 </v>
   <v>      -0.07975386      -0.09596715       0.00418918 </v>
   <v>      -0.00382630      -0.01989482       0.15903477 </v>
   <v>      -0.00431862      -0.04688283       0.20391349 </v>
   <v>       0.02147413      -0.04194466      -0.15048499 </v>
   <v>      -0.00824672      -0.07674996       0.14155024 </v>
   <v>      -0.00263146      -0.09860477      -0.22402739 </v>
   <v>       0.02059388       0.08618455       0.10492735 </v>
   <v>      -0.08498874       0.07516952      -0.10538994 </v>
   <v>       0.05029904       0.03805107      -0.13122413 </v>
   <v>      -0.02184272       0.01312860       0.19896072 </v>
   <v>       0.06372343       0.04990559      -0.00333954 </v>
   <v>       0.07503886       0.05858511       0.05097654 </v>
   <v>      -0.01697699       0.07719019      -0.06419457 </v>
   <v>       0.03105303       0.12166177      -0.07689417 </v>
  </varray>
  <varray name="stress" >
   <v>       0.02050762       0.00488083      -0.00210818 </v>
   <v>       0.00488059       0.07562231       0.07281870 </v>
   <v>      -0.00210843       0.07281867      -1.13638189 </v>
  </varray>
  <energy>
   <i name="e_fr_energy">   -191.32276062 </i>
   <i name="e_wo_entrp">   -191.22688673 </i>
   <i name="e_0_energy">     -0.19174779 </i>
  </energy>
  <time name="totalsc">  305.16  305.97</time>
 </calculation>
 <calculation>
  <scstep>
   <time name="dav">   23.19   23.24</time>
   <time name="total">   23.70   23.76</time>
   <energy>
    <i name="alphaZ">     90.44293573 </i>
    <i name="ewald">  44766.41385409 </i>
    <i name="hartreedc"> -50778.13284718 </i>
    <i name="XCdc">   -233.38598559 </i>
    <i name="pawpsdc">   4082.29226283 </i>
    <i name="pawaedc">  -3498.17491056 </i>
    <i name="eentropy">     -0.19499905 </i>
    <i name="bandstr">  -1382.07129049 </i>
    <i name="atom">   6761.44252427 </i>
    <i name="e_fr_energy">   -191.36845594 </i>
    <i name="e_wo_entrp">   -191.17345689 </i>
    <i name="e_0_energy">   -191.27095642 </i>
   </energy>
  </scstep>
  <scstep>
   <time name="dav">   35.20   35.28</time>
   <time name="total">   35.71   35.80</time>
   <energy>
    <i name="e_fr_energy">   -191.39678225 </i>
    <i name="e_wo_entrp">   -191.19456104 </i>
    <i name="e_0_energy">   -191.29567165 </i>
   </energy>
  </scstep>
  <scstep>
   <time name="dav">   31.69   31.76</time>
   <time name="total">   32.20   32.28</time>
   <energy>
    <i name="e_fr_energy">   -191.37264384 </i>
    <i name="e_wo_entrp">   -191.17708729 </i>
    <i name="e_0_energy">   -191.27486556 </i>
   </energy>
  </scstep>
  <scstep>
   <time name="dav">   30.05   30.12</time>
   <time name="total">   30.57   30.64</time>
   <energy>
    <i name="e_fr_energy">   -191.37276770 </i>
    <i name="e_wo_entrp">   -191.17719951 </i>
    <i name="e_0_energy">   -191.27498360 </i>
   </energy>
  </scstep>
  <scstep>
   <time name="dav">   29.96   30.03</time>
   <time name="total">   30.46   30.55</time>
   <energy>
    <i name="e_fr_energy">   -191.37113793 </i>
    <i name="e_wo_entrp">   -191.17494207 </i>
    <i name="e_0_energy">   -191.27304000 </i>
   </energy>
  </scstep>
  <scstep>
   <time name="dav">   28.36   28.43</time>
   <time name="total">   28.87   28.95</time>
   <energy>
    <i name="e_fr_energy">   -191.37090052 </i>
    <i name="e_wo_entrp">   -191.17476856 </i>
    <i name="e_0_energy">   -191.27283454 </i>
   </energy>
  </scstep>
  <scstep>
   <time name="dav">   28.21   28.28</time>
   <time name="total">   28.72   28.80</time>
   <energy>
    <i name="e_fr_energy">   -191.37106253 </i>
    <i name="e_wo_entrp">   -191.17495175 </i>
    <i name="e_0_energy">   -191.27300714 </i>
   </energy>
  </scstep>
  <scstep>
   <time name="dav">   24.43   24.49</time>
   <time name="total">   24.94   25.00</time>
   <energy>
    <i name="e_fr_energy">   -191.37082387 </i>
    <i name="e_wo_entrp">   -191.17469459 </i>
    <i name="e_0_energy">   -191.27275923 </i>
   </energy>
  </scstep>
  <scstep>
[...]
      <set comment="kpoint 31">
       <r>  -17.5920    1.0000 </r>
       <r>  -17.2858    1.0000 </r>
       <r>  -16.8936    1.0000 </r>
       <r>  -16.7029    1.0000 </r>
       <r>  -16.5619    1.0000 </r>
       <r>  -16.4755    1.0000 </r>
       <r>  -16.3222    1.0000 </r>
       <r>  -16.2253    1.0000 </r>
       <r>  -16.1712    1.0000 </r>
       <r>  -16.0641    1.0000 </r>
       <r>  -15.9262    1.0000 </r>
       <r>  -15.8625    1.0000 </r>
       <r>  -15.7586    1.0000 </r>
       <r>  -15.5753    1.0000 </r>
       <r>  -15.5237    1.0000 </r>
       <r>  -15.4385    1.0000 </r>
       <r>  -15.3468    1.0000 </r>
       <r>  -15.2603    1.0000 </r>
       <r>   -9.8203    1.0000 </r>
       <r>   -9.5512    1.0000 </r>
       <r>   -9.3385    1.0000 </r>
       <r>   -9.0675    1.0000 </r>
       <r>   -8.8350    1.0000 </r>
       <r>   -8.7087    1.0000 </r>
       <r>   -8.5986    1.0000 </r>
       <r>   -8.5639    1.0000 </r>
       <r>   -8.4345    1.0000 </r>
       <r>   -8.3317    1.0000 </r>
       <r>   -8.2651    1.0000 </r>
       <r>   -8.2084    1.0000 </r>
       <r>   -8.1175    1.0000 </r>
       <r>   -8.0589    1.0000 </r>
       <r>   -7.9723    1.0000 </r>
       <r>   -7.9081    1.0000 </r>
       <r>   -7.8224    1.0000 </r>
       <r>   -7.7258    1.0000 </r>
       <r>   -7.5463    1.0000 </r>
       <r>   -7.5002    1.0000 </r>
       <r>   -7.4082    1.0000 </r>
       <r>   -7.2540    1.0000 </r>
       <r>   -7.1932    1.0000 </r>
       <r>   -7.0986    1.0000 </r>
       <r>   -6.9608    1.0000 </r>
       <r>   -6.8949    1.0000 </r>
       <r>   -6.8361    1.0000 </r>
       <r>   -6.7435    1.0000 </r>
       <r>   -6.6363    1.0000 </r>
       <r>   -6.5669    1.0000 </r>
       <r>   -6.5368    1.0000 </r>
       <r>   -6.5065    1.0000 </r>
       <r>   -6.4294    1.0000 </r>
       <r>   -6.3265    1.0000 </r>
       <r>   -6.3047    1.0000 </r>
       <r>   -6.2150    1.0000 </r>
       <r>   -6.1056    1.0000 </r>
       <r>   -6.0740    1.0000 </r>
       <r>   -5.9617    1.0000 </r>
       <r>   -5.8915    1.0000 </r>
       <r>   -5.8269    1.0000 </r>
       <r>   -5.7244    1.0000 </r>
       <r>   -5.6492    1.0000 </r>
       <r>   -5.4905    1.0000 </r>
       <r>   -5.4691    1.0000 </r>
       <r>   -5.4284    1.0000 </r>
       <r>   -5.1864    1.0000 </r>
       <r>   -5.0791    1.0000 </r>
       <r>   -5.0355    1.0000 </r>
       <r>   -4.9087    1.0000 </r>
       <r>   -4.7765    1.0000 </r>
       <r>   -4.7055    1.0000 </r>
       <r>   -4.6061    1.0000 </r>
       <r>   -4.4717    1.0000 </r>
       <r>   -4.2890    1.0000 </r>
       <r>   -4.1935    1.0000 </r>
       <r>   -4.1204    1.0000 </r>
       <r>   -3.9181    1.0000 </r>
       <r>   -3.8549    1.0000 </r>
       <r>   -3.7136    0.9998 </r>
       <r>   -3.6181    0.9975 </r>
       <r>   -3.1147    0.2271 </r>
       <r>   -3.0106    0.0688 </r>
       <r>   -2.8991    0.0115 </r>
       <r>   -2.6661    0.0000 </r>
       <r>   -2.5619    0.0000 </r>
       <r>   -2.5186    0.0000 </r>
       <r>   -2.4138    0.0000 </r>
       <r>   -2.2570    0.0000 </r>
       <r>   -2.0931    0.0000 </r>
       <r>   -2.0057    0.0000 </r>
       <r>   -1.8743    0.0000 </r>
       <r>   -1.7655    0.0000 </r>
       <r>   -1.4744    0.0000 </r>
       <r>   -1.3344    0.0000 </r>
       <r>   -1.2945    0.0000 </r>
       <r>   -1.1581    0.0000 </r>
       <r>   -1.1289    0.0000 </r>
       <r>   -1.0698    0.0000 </r>
       <r>   -0.9767    0.0000 </r>
       <r>   -0.9051    0.0000 </r>
       <r>   -0.8637    0.0000 </r>
       <r>   -0.7733    0.0000 </r>
       <r>   -0.7373    0.0000 </r>
       <r>   -0.7105    0.0000 </r>
       <r>   -0.5806    0.0000 </r>
       <r>   -0.5553    0.0000 </r>
       <r>   -0.2560    0.0000 </r>
       <r>   -0.1757    0.0000 </r>
       <r>   -0.0601    0.0000 </r>
       <r>    0.0250    0.0000 </r>
       <r>    0.1220    0.0000 </r>
       <r>    0.4534    0.0000 </r>
       <r>    0.5553    0.0000 </r>
       <r>    0.6928    0.0000 </r>
       <r>    0.8618    0.0000 </r>
       <r>    1.1729    0.0000 </r>
       <r>    1.2720    0.0000 </r>
       <r>    1.5815    0.0000 </r>
       <r>    2.1470    0.0000 </r>
       <r>    2.3035    0.0000 </r>
       <r>    2.3952    0.0000 </r>
      </set>
      <set comment="kpoint 32">
       <r>  -17.5970    1.0000 </r>
       <r>  -17.2435    1.0000 </r>
       <r>  -16.9839    1.0000 </r>
       <r>  -16.7028    1.0000 </r>
       <r>  -16.5500    1.0000 </r>
       <r>  -16.3810    1.0000 </r>
       <r>  -16.2827    1.0000 </r>
       <r>  -16.2463    1.0000 </r>
       <r>  -16.1809    1.0000 </r>
       <r>  -16.1267    1.0000 </r>
       <r>  -15.9505    1.0000 </r>
       <r>  -15.8595    1.0000 </r>
       <r>  -15.7534    1.0000 </r>
       <r>  -15.5629    1.0000 </r>
       <r>  -15.5255    1.0000 </r>
       <r>  -15.4370    1.0000 </r>
       <r>  -15.3431    1.0000 </r>
       <r>  -15.2588    1.0000 </r>
       <r>   -9.7793    1.0000 </r>
       <r>   -9.6228    1.0000 </r>
       <r>   -9.4014    1.0000 </r>
       <r>   -9.0602    1.0000 </r>
       <r>   -8.7008    1.0000 </r>
       <r>   -8.6497    1.0000 </r>
       <r>   -8.5897    1.0000 </r>
       <r>   -8.4962    1.0000 </r>
       <r>   -8.4225    1.0000 </r>
       <r>   -8.3549    1.0000 </r>
       <r>   -8.3063    1.0000 </r>
       <r>   -8.2127    1.0000 </r>
       <r>   -8.1744    1.0000 </r>
       <r>   -8.0979    1.0000 </r>
       <r>   -8.0188    1.0000 </r>
       <r>   -7.9803    1.0000 </r>
       <r>   -7.8535    1.0000 </r>
       <r>   -7.7028    1.0000 </r>
       <r>   -7.5165    1.0000 </r>
       <r>   -7.4508    1.0000 </r>
       <r>   -7.4287    1.0000 </r>
       <r>   -7.2671    1.0000 </r>
       <r>   -7.1658    1.0000 </r>
       <r>   -7.0630    1.0000 </r>
       <r>   -6.9535    1.0000 </r>
       <r>   -6.9017    1.0000 </r>
       <r>   -6.8566    1.0000 </r>
       <r>   -6.7273    1.0000 </r>
       <r>   -6.6739    1.0000 </r>
       <r>   -6.5578    1.0000 </r>
       <r>   -6.5161    1.0000 </r>
       <r>   -6.4882    1.0000 </r>
       <r>   -6.4474    1.0000 </r>
       <r>   -6.3853    1.0000 </r>
       <r>   -6.3400    1.0000 </r>
       <r>   -6.1633    1.0000 </r>
       <r>   -6.0877    1.0000 </r>
       <r>   -6.0318    1.0000 </r>
       <r>   -5.9940    1.0000 </r>
       <r>   -5.8469    1.0000 </r>
       <r>   -5.7614    1.0000 </r>
       <r>   -5.7238    1.0000 </r>
       <r>   -5.6515    1.0000 </r>
       <r>   -5.5700    1.0000 </r>
       <r>   -5.5031    1.0000 </r>
       <r>   -5.3871    1.0000 </r>
       <r>   -5.1746    1.0000 </r>
       <r>   -5.0616    1.0000 </r>
       <r>   -4.9928    1.0000 </r>
       <r>   -4.8639    1.0000 </r>
       <r>   -4.8141    1.0000 </r>
       <r>   -4.7855    1.0000 </r>
       <r>   -4.7111    1.0000 </r>
       <r>   -4.4740    1.0000 </r>
       <r>   -4.2816    1.0000 </r>
       <r>   -4.1812    1.0000 </r>
       <r>   -4.1107    1.0000 </r>
       <r>   -3.9032    1.0000 </r>
       <r>   -3.8453    1.0000 </r>
       <r>   -3.6840    0.9995 </r>
       <r>   -3.6210    0.9977 </r>
       <r>   -3.1415    0.2881 </r>
       <r>   -3.0067    0.0652 </r>
       <r>   -2.8394    0.0035 </r>
       <r>   -2.6848    0.0001 </r>
       <r>   -2.5639    0.0000 </r>
       <r>   -2.5148    0.0000 </r>
       <r>   -2.4278    0.0000 </r>
       <r>   -2.2809    0.0000 </r>
       <r>   -2.1051    0.0000 </r>
       <r>   -1.9810    0.0000 </r>
       <r>   -1.8885    0.0000 </r>
       <r>   -1.7633    0.0000 </r>
       <r>   -1.5041    0.0000 </r>
       <r>   -1.3281    0.0000 </r>
       <r>   -1.2707    0.0000 </r>
       <r>   -1.1893    0.0000 </r>
       <r>   -1.1365    0.0000 </r>
       <r>   -1.0267    0.0000 </r>
       <r>   -0.9834    0.0000 </r>
       <r>   -0.9067    0.0000 </r>
       <r>   -0.8163    0.0000 </r>
       <r>   -0.7669    0.0000 </r>
       <r>   -0.7360    0.0000 </r>
       <r>   -0.6651    0.0000 </r>
       <r>   -0.6215    0.0000 </r>
       <r>   -0.4870    0.0000 </r>
       <r>   -0.3166    0.0000 </r>
       <r>   -0.2157    0.0000 </r>
       <r>   -0.0676    0.0000 </r>
       <r>    0.0811    0.0000 </r>
       <r>    0.1384    0.0000 </r>
       <r>    0.4619    0.0000 </r>
       <r>    0.5702    0.0000 </r>
       <r>    0.6961    0.0000 </r>
       <r>    0.8102    0.0000 </r>
       <r>    1.1516    0.0000 </r>
       <r>    1.2599    0.0000 </r>
       <r>    1.5632    0.0000 </r>
       <r>    2.1171    0.0000 </r>
       <r>    2.2684    0.0000 </r>
       <r>    2.5686    0.0000 </r>
      </set>
      <set comment="kpoint 33">
       <r>  -17.5841    1.0000 </r>
       <r>  -17.2985    1.0000 </r>
       <r>  -16.8948    1.0000 </r>
       <r>  -16.7018    1.0000 </r>
       <r>  -16.5582    1.0000 </r>
       <r>  -16.4666    1.0000 </r>
       <r>  -16.3164    1.0000 </r>
       <r>  -16.2241    1.0000 </r>
       <r>  -16.1893    1.0000 </r>
       <r>  -16.0964    1.0000 </r>
       <r>  -15.8873    1.0000 </r>
       <r>  -15.8482    1.0000 </r>
       <r>  -15.7497    1.0000 </r>
       <r>  -15.6043    1.0000 </r>
       <r>  -15.5316    1.0000 </r>
       <r>  -15.4395    1.0000 </r>
       <r>  -15.3376    1.0000 </r>
       <r>  -15.2570    1.0000 </r>
       <r>   -9.8379    1.0000 </r>
       <r>   -9.5270    1.0000 </r>
       <r>   -9.3685    1.0000 </r>
       <r>   -9.0474    1.0000 </r>
       <r>   -8.7995    1.0000 </r>
       <r>   -8.7298    1.0000 </r>
       <r>   -8.6224    1.0000 </r>
       <r>   -8.6019    1.0000 </r>
       <r>   -8.4238    1.0000 </r>
       <r>   -8.3331    1.0000 </r>
       <r>   -8.2231    1.0000 </r>
       <r>   -8.1667    1.0000 </r>
       <r>   -8.1324    1.0000 </r>
       <r>   -8.0576    1.0000 </r>
       <r>   -7.9900    1.0000 </r>
       <r>   -7.9242    1.0000 </r>
       <r>   -7.8469    1.0000 </r>
       <r>   -7.7081    1.0000 </r>
       <r>   -7.5747    1.0000 </r>
       <r>   -7.5003    1.0000 </r>
       <r>   -7.4039    1.0000 </r>
       <r>   -7.2896    1.0000 </r>
       <r>   -7.1518    1.0000 </r>
       <r>   -7.0028    1.0000 </r>
       <r>   -6.9374    1.0000 </r>
       <r>   -6.8937    1.0000 </r>
       <r>   -6.8355    1.0000 </r>
       <r>   -6.7688    1.0000 </r>
       <r>   -6.6582    1.0000 </r>
       <r>   -6.6006    1.0000 </r>
       <r>   -6.5246    1.0000 </r>
       <r>   -6.4819    1.0000 </r>
       <r>   -6.4579    1.0000 </r>
       <r>   -6.3403    1.0000 </r>
       <r>   -6.2828    1.0000 </r>
       <r>   -6.1984    1.0000 </r>
       <r>   -6.0974    1.0000 </r>
       <r>   -6.0491    1.0000 </r>
       <r>   -6.0061    1.0000 </r>
       <r>   -5.9538    1.0000 </r>
       <r>   -5.8005    1.0000 </r>
       <r>   -5.7287    1.0000 </r>
       <r>   -5.6473    1.0000 </r>
       <r>   -5.5402    1.0000 </r>
       <r>   -5.4536    1.0000 </r>
       <r>   -5.4341    1.0000 </r>
       <r>   -5.1812    1.0000 </r>
       <r>   -5.0724    1.0000 </r>
       <r>   -5.0400    1.0000 </r>
       <r>   -4.8732    1.0000 </r>
       <r>   -4.7883    1.0000 </r>
       <r>   -4.6723    1.0000 </r>
       <r>   -4.6168    1.0000 </r>
       <r>   -4.4940    1.0000 </r>
       <r>   -4.2871    1.0000 </r>
       <r>   -4.1964    1.0000 </r>
       <r>   -4.1173    1.0000 </r>
       <r>   -3.9586    1.0000 </r>
       <r>   -3.8334    1.0000 </r>
       <r>   -3.7374    0.9999 </r>
       <r>   -3.5685    0.9931 </r>
       <r>   -3.1727    0.3673 </r>
       <r>   -2.9979    0.0577 </r>
       <r>   -2.8217    0.0024 </r>
       <r>   -2.6977    0.0001 </r>
       <r>   -2.5979    0.0000 </r>
       <r>   -2.5250    0.0000 </r>
       <r>   -2.3992    0.0000 </r>
       <r>   -2.2744    0.0000 </r>
       <r>   -2.0885    0.0000 </r>
       <r>   -1.9508    0.0000 </r>
       <r>   -1.8696    0.0000 </r>
       <r>   -1.7642    0.0000 </r>
       <r>   -1.5408    0.0000 </r>
       <r>   -1.3076    0.0000 </r>
       <r>   -1.2535    0.0000 </r>
       <r>   -1.1900    0.0000 </r>
       <r>   -1.1567    0.0000 </r>
       <r>   -1.0430    0.0000 </r>
       <r>   -0.9451    0.0000 </r>
       <r>   -0.9054    0.0000 </r>
       <r>   -0.8126    0.0000 </r>
       <r>   -0.7853    0.0000 </r>
       <r>   -0.7373    0.0000 </r>
       <r>   -0.6465    0.0000 </r>
       <r>   -0.5997    0.0000 </r>
       <r>   -0.5187    0.0000 </r>
       <r>   -0.3501    0.0000 </r>
       <r>   -0.2662    0.0000 </r>
       <r>   -0.0784    0.0000 </r>
       <r>    0.1267    0.0000 </r>
       <r>    0.2062    0.0000 </r>
       <r>    0.4197    0.0000 </r>
       <r>    0.6066    0.0000 </r>
       <r>    0.7440    0.0000 </r>
       <r>    0.7781    0.0000 </r>
       <r>    1.1501    0.0000 </r>
       <r>    1.2542    0.0000 </r>
       <r>    1.5391    0.0000 </r>
       <r>    2.1482    0.0000 </r>
       <r>    2.3019    0.0000 </r>
       <r>    2.3982    0.0000 </r>
      </set>
      <set comment="kpoint 34">
       <r>  -17.5713    1.0000 </r>
       <r>  -17.3397    1.0000 </r>
       <r>  -16.7760    1.0000 </r>
       <r>  -16.6986    1.0000 </r>
       <r>  -16.6325    1.0000 </r>
       <r>  -16.5280    1.0000 </r>
       <r>  -16.3173    1.0000 </r>
       <r>  -16.2259    1.0000 </r>
       <r>  -16.1906    1.0000 </r>
       <r>  -16.0775    1.0000 </r>
       <r>  -15.8618    1.0000 </r>
       <r>  -15.7748    1.0000 </r>
       <r>  -15.7630    1.0000 </r>
       <r>  -15.6608    1.0000 </r>
       <r>  -15.5348    1.0000 </r>
       <r>  -15.4416    1.0000 </r>
       <r>  -15.3350    1.0000 </r>
       <r>  -15.2562    1.0000 </r>
       <r>   -9.8703    1.0000 </r>
       <r>   -9.4488    1.0000 </r>
       <r>   -9.3172    1.0000 </r>
       <r>   -9.0482    1.0000 </r>
       <r>   -8.9117    1.0000 </r>
       <r>   -8.8041    1.0000 </r>
       <r>   -8.6470    1.0000 </r>
       <r>   -8.6241    1.0000 </r>
       <r>   -8.4214    1.0000 </r>
       <r>   -8.3330    1.0000 </r>
       <r>   -8.2063    1.0000 </r>
       <r>   -8.1609    1.0000 </r>
       <r>   -8.1261    1.0000 </r>
       <r>   -8.0228    1.0000 </r>
       <r>   -7.9435    1.0000 </r>
       <r>   -7.8391    1.0000 </r>
       <r>   -7.7787    1.0000 </r>
       <r>   -7.6789    1.0000 </r>
       <r>   -7.6024    1.0000 </r>
       <r>   -7.5651    1.0000 </r>
       <r>   -7.4759    1.0000 </r>
       <r>   -7.3135    1.0000 </r>
       <r>   -7.0874    1.0000 </r>
       <r>   -7.0264    1.0000 </r>
       <r>   -6.9397    1.0000 </r>
       <r>   -6.9016    1.0000 </r>
       <r>   -6.8478    1.0000 </r>
       <r>   -6.6868    1.0000 </r>
       <r>   -6.6349    1.0000 </r>
       <r>   -6.5671    1.0000 </r>
       <r>   -6.5336    1.0000 </r>
       <r>   -6.4784    1.0000 </r>
       <r>   -6.4543    1.0000 </r>
       <r>   -6.3979    1.0000 </r>
       <r>   -6.2675    1.0000 </r>
       <r>   -6.2529    1.0000 </r>
       <r>   -6.1769    1.0000 </r>
       <r>   -6.0714    1.0000 </r>
       <r>   -5.9898    1.0000 </r>
       <r>   -5.8754    1.0000 </r>
       <r>   -5.8406    1.0000 </r>
       <r>   -5.7348    1.0000 </r>
       <r>   -5.6595    1.0000 </r>
       <r>   -5.5572    1.0000 </r>
       <r>   -5.5138    1.0000 </r>
       <r>   -5.3912    1.0000 </r>
       <r>   -5.1881    1.0000 </r>
       <r>   -5.0542    1.0000 </r>
       <r>   -5.0274    1.0000 </r>
       <r>   -4.9194    1.0000 </r>
       <r>   -4.7892    1.0000 </r>
       <r>   -4.6012    1.0000 </r>
       <r>   -4.5163    1.0000 </r>
       <r>   -4.4635    1.0000 </r>
       <r>   -4.2832    1.0000 </r>
       <r>   -4.2200    1.0000 </r>
       <r>   -4.1645    1.0000 </r>
       <r>   -3.9940    1.0000 </r>
       <r>   -3.8312    1.0000 </r>
       <r>   -3.7666    0.9999 </r>
       <r>   -3.5462    0.9893 </r>
       <r>   -3.1858    0.4029 </r>
       <r>   -2.9948    0.0552 </r>
       <r>   -2.8298    0.0029 </r>
       <r>   -2.6936    0.0001 </r>
       <r>   -2.6226    0.0000 </r>
       <r>   -2.5308    0.0000 </r>
       <r>   -2.3786    0.0000 </r>
       <r>   -2.2619    0.0000 </r>
       <r>   -2.0719    0.0000 </r>
       <r>   -1.9426    0.0000 </r>
       <r>   -1.8489    0.0000 </r>
       <r>   -1.7658    0.0000 </r>
       <r>   -1.5576    0.0000 </r>
       <r>   -1.2986    0.0000 </r>
       <r>   -1.2363    0.0000 </r>
       <r>   -1.1897    0.0000 </r>
       <r>   -1.1750    0.0000 </r>
       <r>   -1.0573    0.0000 </r>
       <r>   -0.9308    0.0000 </r>
       <r>   -0.8805    0.0000 </r>
       <r>   -0.8238    0.0000 </r>
       <r>   -0.7840    0.0000 </r>
       <r>   -0.7652    0.0000 </r>
       <r>   -0.6298    0.0000 </r>
       <r>   -0.5943    0.0000 </r>
       <r>   -0.5755    0.0000 </r>
       <r>   -0.3444    0.0000 </r>
       <r>   -0.2694    0.0000 </r>
       <r>   -0.0911    0.0000 </r>
       <r>    0.1321    0.0000 </r>
       <r>    0.2444    0.0000 </r>
       <r>    0.4074    0.0000 </r>
       <r>    0.6138    0.0000 </r>
       <r>    0.7702    0.0000 </r>
       <r>    0.7802    0.0000 </r>
       <r>    1.1492    0.0000 </r>
       <r>    1.2598    0.0000 </r>
       <r>    1.5257    0.0000 </r>
       <r>    2.2258    0.0000 </r>
       <r>    2.2598    0.0000 </r>
       <r>    2.3908    0.0000 </r>
      </set>
     </set>
    </set>
   </array>
  </eigenvalues>
  <separator name="orbital magnetization" >
   <v name="MAGDIPOLOUT">      0.00000000      0.00000000      0.00000000</v>
  </separator>
 </calculation>
 <structure name="finalpos" >
  <crystal>
   <varray name="basis" >
    <v>       8.32381512       4.83348309       0.00000000 </v>
    <v>      -8.29583017       4.78508500       0.00000000 </v>
    <v>       0.00000000       0.00000000      30.00000000 </v>
   </varray>
   <i name="volume">   2397.83753139 </i>
   <varray name="rec_basis" >
    <v>       0.05986750       0.10379140       0.00000000 </v>
    <v>      -0.06047303       0.10414152       0.00000000 </v>
    <v>       0.00000000       0.00000000       0.03333333 </v>
   </varray>
  </crystal>
  <varray name="positions" >
   <v>       0.70204841       0.68903811      -0.00131766 </v>
   <v>       0.70174565       0.34539421      -0.00189096 </v>
   <v>       0.30001903       0.64964496       0.00188331 </v>
   <v>       0.99798657       0.33012820      -0.00019826 </v>
   <v>       0.70480883       0.02099254      -0.00168674 </v>
   <v>       0.00681701       0.65192288      -0.00046437 </v>
   <v>       0.00137803       0.01946461       0.00003409 </v>
   <v>       0.29237372      -0.02315982       0.00257801 </v>
   <v>       0.29894090       0.31893985       0.00105171 </v>
   <v>       0.10585349       0.22205327       0.94329421 </v>
   <v>       0.21704583       0.11067992       0.05646064 </v>
   <v>       0.11610806       0.55454152       0.94547370 </v>
   <v>       0.22280637       0.44912375       0.05492865 </v>
   <v>       0.09835595       0.88188037       0.94754202 </v>
   <v>       0.21961217       0.76896437       0.05599122 </v>
   <v>       0.44563733       0.22026868       0.95677634 </v>
   <v>       0.55376044       0.11286277       0.04436907 </v>
   <v>       0.44619012       0.55997839       0.95615756 </v>
   <v>       0.55784873       0.44621875       0.04195641 </v>
   <v>       0.44302672       0.88669573       0.95709442 </v>
   <v>       0.55442676       0.77532347       0.04313587 </v>
   <v>       0.78010266       0.22826182       0.94418074 </v>
   <v>       0.89476054       0.11687446       0.05623514 </v>
   <v>       0.77571727       0.55196560       0.94743096 </v>
   <v>       0.88534603       0.44071085       0.05374265 </v>
   <v>       0.78174948       0.88892392       0.94497380 </v>
   <v>       0.89374835       0.78052128       0.05026738 </v>
  </varray>
 </structure>
</modeling>
