unknown system                          
           1
     8.855686    5.106260    0.000000
    -8.854600    5.104393    0.000000
     0.000000    0.000000   30.000000
   V    Mo   W    S 
   3   3   3  18
Direct configuration=     1
   0.66666669  0.66666669  0.00000000
   0.66666669  0.33333334  0.00000000
   0.33333334  0.66666669  0.00000000
   1.00000000  0.33333334  0.00000000
   0.66666669  0.00000000  0.00000000
   0.00000000  0.66666669  0.00000000
   0.00000000  0.00000000  0.00000000
   0.33333334  0.00000000  0.00000000
   0.33333334  0.33333334  0.00000000
   0.11068511  0.22244981  0.95539999
   0.22244981  0.11068511  0.04460000
   0.11068511  0.55578315  0.95539999
   0.22244981  0.44401845  0.04460000
   0.11068511  0.88911647  0.95539999
   0.22244981  0.77735180  0.04460000
   0.44401845  0.22244981  0.95539999
   0.55578315  0.11068511  0.04460000
   0.44401845  0.55578315  0.95539999
   0.55578315  0.44401845  0.04460000
   0.44401845  0.88911647  0.95539999
   0.55578315  0.77735180  0.04460000
   0.77735180  0.22244981  0.95539999
   0.88911647  0.11068511  0.04460000
   0.77735180  0.55578315  0.95539999
   0.88911647  0.44401845  0.04460000
   0.77735180  0.88911647  0.95539999
   0.88911647  0.77735180  0.04460000
unknown system                          
           1
     8.667368    4.999793    0.000000
    -8.666450    4.998217    0.000000
     0.000000    0.000000   30.000000
   V    Mo   W    S 
   3   3   3  18
Direct configuration=     2
   0.66736357  0.66741410  0.00004229
   0.66905751  0.33370113 -0.00018230
   0.33255367  0.66671708  0.00019349
   0.99860852  0.33344201 -0.00021338
   0.66776843  0.00102638  0.00010455
  -0.00021534  0.66501272 -0.00012799
  -0.00179560 -0.00014253  0.00000203
   0.33366670 -0.00151925  0.00017813
   0.33247302  0.33399407  0.00003988
   0.11137417  0.22167319  0.95071250
   0.22206161  0.11091600  0.04930728
   0.11538714  0.55758066  0.95194489
   0.22495554  0.44855109  0.04807453
   0.11141181  0.88966009  0.95080391
   0.22518346  0.77625741  0.04808197
   0.44820304  0.22402452  0.95193160
   0.55662217  0.11498344  0.04803967
   0.44587272  0.55892271  0.95312106
   0.55891898  0.44585432  0.04683340
   0.44177291  0.88476373  0.95193082
   0.55341831  0.77323965  0.04685120
   0.77529691  0.22468316  0.95192179
   0.88928884  0.11052219  0.04925223
   0.77323032  0.55337013  0.95310682
   0.88433089  0.44222782  0.04810050
   0.77652794  0.88482807  0.95190106
   0.88487724  0.77651055  0.04804796
unknown system                          
           1
     8.486492    4.900140    0.000000
    -8.486097    4.899467    0.000000
     0.000000    0.000000   30.000000
   V    Mo   W    S 
   3   3   3  18
Direct configuration=     3
   0.66769308  0.66775886  0.00009334
   0.66981713  0.33377638 -0.00020634
   0.33224187  0.66679803  0.00021440
   0.99815022  0.33314977 -0.00023864
   0.66843066  0.00158433  0.00014741
  -0.00001200  0.66475859 -0.00017800
  -0.00209819  0.00011551  0.00000904
   0.33352271 -0.00197825  0.00014784
   0.33181894  0.33369082  0.00004786
   0.11145253  0.22157346  0.95068211
   0.22204377  0.11085578  0.04924889
   0.11554415  0.55766275  0.95189744
   0.22513752  0.44856360  0.04806547
   0.11154054  0.88993575  0.95086660
   0.22535706  0.77640668  0.04815268
   0.44806816  0.22398520  0.95205794
   0.55646589  0.11501141  0.04802554
   0.44581353  0.55875913  0.95320085
   0.55873892  0.44579059  0.04670209
   0.44160425  0.88476409  0.95196838
   0.55337129  0.77316529  0.04678951
   0.77523104  0.22476435  0.95179764
   0.88944353  0.11043591  0.04932979
   0.77313629  0.55328138  0.95312529
   0.88417538  0.44214822  0.04816655
   0.77665462  0.88481625  0.95186799
   0.88487158  0.77664058  0.04801822
unknown system                          
           1
     8.270645    4.775685    0.000000
    -8.269594    4.773877    0.000000
     0.000000    0.000000   30.000000
   V    Mo   W    S 
   3   3   3  18
Direct configuration=     4
   0.66909946  0.66926291  0.00026460
   0.67244226  0.33372805 -0.00020269
   0.33075377  0.66719366  0.00021288
   0.99658467  0.33145886 -0.00023356
   0.67125485  0.00393627  0.00023859
   0.00133997  0.66442769 -0.00027732
  -0.00246918  0.00177788  0.00002492
   0.33240527 -0.00360855 -0.00002960
   0.32867483  0.33160571  0.00006297
   0.11129309  0.22156967  0.94890742
   0.22190589  0.11054412  0.05067377
   0.11698164  0.55827563  0.95028989
   0.22557095  0.44970834  0.04948779
   0.11158459  0.89022935  0.94952544
   0.22584822  0.77566723  0.04992214
   0.44900988  0.22457319  0.95109195
   0.55707041  0.11632701  0.04941720
   0.44635643  0.55972653  0.95218696
   0.55956555  0.44622968  0.04750707
   0.44122261  0.88362682  0.95068913
   0.55282190  0.77220137  0.04784094
   0.77459181  0.22537516  0.94984466
   0.88968671  0.11068005  0.05126252
   0.77202333  0.55262721  0.95187885
   0.88291075  0.44152742  0.04982048
   0.77585329  0.88361496  0.95026843
   0.88383153  0.77592823  0.04932447
unknown system                          
           1
     8.262053    4.774378    0.000000
    -8.261237    4.772974    0.000000
     0.000000    0.000000   30.000000
   V    Mo   W    S 
   3   3   3  18
Direct configuration=     5
   0.67186860  0.67224324  0.00047303
   0.67755402  0.33358491 -0.00000861
   0.32750006  0.66815261  0.00003107
   0.99369808  0.32711785 -0.00012044
   0.67752370  0.00886980  0.00022522
   0.00465206  0.66417052 -0.00030855
  -0.00260556  0.00629779  0.00003038
   0.32942986 -0.00714265 -0.00027912
   0.32210324  0.32730946  0.00010021
   0.11022332  0.22161884  0.94619145
   0.22123749  0.10962604  0.05271679
   0.11814261  0.55827558  0.94803175
   0.22514864  0.45066381  0.05142441
   0.11086525  0.88993086  0.94775205
   0.22607152  0.77455302  0.05253546
   0.45019373  0.22524588  0.94996995
   0.55790494  0.11766025  0.05114389
   0.44663302  0.56048529  0.95100433
   0.56010193  0.44635622  0.04836863
   0.44181471  0.88262438  0.94914166
   0.55256686  0.77205206  0.04934722
   0.77428621  0.22600015  0.94688969
   0.88975056  0.11139408  0.05417576
   0.77141713  0.55211956  0.95003479
   0.88202321  0.44109686  0.05205406
   0.77491547  0.88266233  0.94808638
   0.88319378  0.77524571  0.05098842
unknown system                          
           1
     8.263013    4.775491    0.000000
    -8.262103    4.773925    0.000000
     0.000000    0.000000   30.000000
   V    Mo   W    S 
   3   3   3  18
Direct configuration=     6
   0.67286372  0.67319483  0.00052979
   0.67961137  0.33403363 -0.00003005
   0.32622315  0.66852621 -0.00000946
   0.99341924  0.32563818 -0.00012881
   0.67946928  0.01005145  0.00017810
   0.00589423  0.66424430 -0.00034001
  -0.00229445  0.00830147  0.00008079
   0.32760638 -0.00864373 -0.00026299
   0.31975318  0.32601536  0.00012593
   0.10947389  0.22158023  0.94568792
   0.22066621  0.10898442  0.05296500
   0.11758139  0.55750495  0.94786598
   0.22447560  0.45020110  0.05152166
   0.10997223  0.88954534  0.94768096
   0.22595447  0.77448291  0.05287206
   0.44996911  0.22506283  0.95020755
   0.55786260  0.11725307  0.05102832
   0.44614036  0.56006215  0.95115623
   0.55950042  0.44577574  0.04808569
   0.44269742  0.88315391  0.94921404
   0.55286439  0.77302284  0.04928010
   0.77471036  0.22601776  0.94656459
   0.88969975  0.11154777  0.05465428
   0.77205410  0.55227480  0.94996266
   0.88269720  0.44123668  0.05226887
   0.77526614  0.88328268  0.94789885
   0.88408273  0.77586359  0.05094185
unknown system                          
           1
     8.257708    4.770211    0.000000
    -8.257816    4.770408    0.000000
     0.000000    0.000000   30.000000
   V    Mo   W    S 
   3   3   3  18
Direct configuration=     7
   0.67360098  0.67385778  0.00059458
   0.68125125  0.33464652 -0.00001871
   0.32539608  0.66880139 -0.00005015
   0.99328303  0.32473231 -0.00010135
   0.68089743  0.01077113  0.00017435
   0.00669826  0.66416274 -0.00033887
  -0.00208407  0.00968357  0.00010458
   0.32609717 -0.00984521 -0.00029156
   0.31802108  0.32510434  0.00011666
   0.10912146  0.22152696  0.94542368
   0.22035795  0.10868123  0.05307938
   0.11732871  0.55708384  0.94781082
   0.22415354  0.44997636  0.05155374
   0.10943326  0.88935694  0.94769537
   0.22586891  0.77442085  0.05305289
   0.44977395  0.22488933  0.95046227
   0.55774449  0.11703924  0.05083582
   0.44582719  0.55978250  0.95133513
   0.55911444  0.44540377  0.04780777
   0.44306780  0.88344240  0.94935015
   0.55296462  0.77349764  0.04914384
   0.77496832  0.22604928  0.94641920
   0.88970188  0.11164283  0.05488184
   0.77238805  0.55232686  0.94996780
   0.88309068  0.44129680  0.05231942
   0.77552876  0.88361950  0.94783171
   0.88461922  0.77626355  0.05083953
unknown system                          
           1
     8.252553    4.766598    0.000000
    -8.254464    4.769917    0.000000
     0.000000    0.000000   30.000000
   V    Mo   W    S 
   3   3   3  18
Direct configuration=     8
   0.67251279  0.67292883  0.00050589
   0.67904854  0.33353704  0.00000548
   0.32637431  0.66850471 -0.00001149
   0.99332866  0.32548977 -0.00009971
   0.67916864  0.01011958  0.00019692
   0.00581155  0.66443279 -0.00031131
  -0.00224654  0.00828651  0.00006986
   0.32829810 -0.00817744 -0.00028078
   0.32007287  0.32611579  0.00010581
   0.10946613  0.22158623  0.94571451
   0.22062333  0.10889410  0.05298511
   0.11748164  0.55743462  0.94785179
   0.22430462  0.45010832  0.05151540
   0.11015037  0.88961782  0.94767588
   0.22595438  0.77452836  0.05286109
   0.44998145  0.22507816  0.95009491
   0.55797798  0.11723588  0.05116767
   0.44610479  0.56002984  0.95108690
   0.55953172  0.44578915  0.04818444
   0.44279661  0.88315687  0.94914252
   0.55295120  0.77316854  0.04935054
   0.77473407  0.22603367  0.94651179
   0.88963234  0.11156629  0.05463630
   0.77213969  0.55230877  0.94994527
   0.88266588  0.44124020  0.05223238
   0.77527635  0.88335357  0.94788285
   0.88407298  0.77584649  0.05097987
unknown system                          
           1
     8.248922    4.765785    0.000000
    -8.250115    4.767859    0.000000
     0.000000    0.000000   30.000000
   V    Mo   W    S 
   3   3   3  18
Direct configuration=     9
   0.67069236  0.67151344  0.00036182
   0.67516579  0.33102740  0.00001258
   0.32772616  0.66823147  0.00003119
   0.99325944  0.32578084 -0.00017807
   0.67672844  0.00960390  0.00012546
   0.00484949  0.66532192 -0.00032401
  -0.00261178  0.00660453  0.00002660
   0.33234198 -0.00545975 -0.00025187
   0.32284119  0.32732633  0.00017589
   0.10972235  0.22166071  0.94597888
   0.22089057  0.10895566  0.05286958
   0.11745555  0.55769244  0.94796019
   0.22424134  0.45014163  0.05145241
   0.11122752  0.89020851  0.94768817
   0.22628740  0.77482785  0.05262972
   0.45029180  0.22540037  0.94942454
   0.55845976  0.11738065  0.05189020
   0.44630951  0.56026399  0.95068058
   0.55999209  0.44621319  0.04875079
   0.44276282  0.88282329  0.94876971
   0.55303817  0.77305073  0.04967141
   0.77449008  0.22601940  0.94656670
   0.88942627  0.11133439  0.05445831
   0.77196261  0.55236170  0.94998043
   0.88223174  0.44119819  0.05212014
   0.77502638  0.88322102  0.94798592
   0.88340543  0.77551065  0.05114264
unknown system                          
           1
     8.252365    4.767952    0.000000
    -8.253780    4.770413    0.000000
     0.000000    0.000000   30.000000
   V    Mo   W    S 
   3   3   3  18
Direct configuration=    10
   0.67175995  0.67243323  0.00047687
   0.67715893  0.33156008  0.00003587
   0.32662623  0.66864953 -0.00001562
   0.99304257  0.32451510 -0.00010658
   0.67852199  0.01075784  0.00016489
   0.00599339  0.66526129 -0.00031939
  -0.00249672  0.00843799  0.00006886
   0.33064927 -0.00699527 -0.00026798
   0.32045263  0.32604140  0.00017836
   0.10941597  0.22158958  0.94563620
   0.22061144  0.10858987  0.05294354
   0.11719070  0.55719164  0.94793885
   0.22392130  0.44985391  0.05144534
   0.11069100  0.89016283  0.94778121
   0.22630364  0.77486505  0.05281812
   0.45003825  0.22519442  0.94981599
   0.55828769  0.11716302  0.05159329
   0.44585761  0.55979604  0.95097552
   0.55939810  0.44566137  0.04829765
   0.44315567  0.88318494  0.94896971
   0.55308536  0.77357776  0.04941065
   0.77477442  0.22610167  0.94639225
   0.88941624  0.11140332  0.05473116
   0.77226155  0.55230603  0.95006348
   0.88270727  0.44125459  0.05209148
   0.77534845  0.88361522  0.94791913
   0.88404156  0.77604200  0.05096106
unknown system                          
           1
     8.259401    4.772790    0.000000
    -8.261075    4.775698    0.000000
     0.000000    0.000000   30.000000
   V    Mo   W    S 
   3   3   3  18
Direct configuration=    11
   0.67206329  0.67269036  0.00050021
   0.67773308  0.33169533  0.00003314
   0.32629708  0.66878850 -0.00003387
   0.99299318  0.32410450 -0.00011185
   0.67902952  0.01108644  0.00015134
   0.00634714  0.66526792 -0.00032752
  -0.00247516  0.00900464  0.00007142
   0.33021877 -0.00745509 -0.00028055
   0.31971424  0.32565562  0.00017520
   0.10930975  0.22157165  0.94551477
   0.22050715  0.10846403  0.05298442
   0.11711938  0.55704513  0.94792176
   0.22382103  0.44979346  0.05146714
   0.11053468  0.89016667  0.94780004
   0.22631249  0.77485545  0.05289985
   0.44998166  0.22515123  0.94990562
   0.55825689  0.11712259  0.05155045
   0.44574126  0.55969149  0.95104492
   0.55924795  0.44550132  0.04818465
   0.44328695  0.88326457  0.94900299
   0.55308138  0.77371780  0.04935430
   0.77486361  0.22613537  0.94632945
   0.88939809  0.11141741  0.05485228
   0.77234435  0.55229606  0.95007922
   0.88283844  0.44126579  0.05210942
   0.77542345  0.88372361  0.94789315
   0.88422483  0.77619262  0.05092791
unknown system                          
           1
     8.259988    4.773347    0.000000
    -8.261451    4.775890    0.000000
     0.000000    0.000000   30.000000
   V    Mo   W    S 
   3   3   3  18
Direct configuration=    12
   0.67337858  0.67379998  0.00061238
   0.68027454  0.33264773  0.00003001
   0.32500203  0.66932751 -0.00009085
   0.99289950  0.32276797 -0.00010118
   0.68103181  0.01210622  0.00013473
   0.00768966  0.66515559 -0.00034989
  -0.00244286  0.01105682  0.00011447
   0.32817376 -0.00951166 -0.00031774
   0.31689257  0.32428655  0.00017596
   0.10887988  0.22146923  0.94509222
   0.22007646  0.10805881  0.05308957
   0.11689758  0.55655645  0.94786133
   0.22350900  0.44957368  0.05152254
   0.10980221  0.89006187  0.94788294
   0.22627409  0.77475744  0.05317508
   0.44969794  0.22493929  0.95032650
   0.55807597  0.11693594  0.05126895
   0.44532841  0.55932188  0.95135804
   0.55866774  0.44492500  0.04769912
   0.44371968  0.88356327  0.94918557
   0.55308008  0.77420042  0.04908916
   0.77520967  0.22620612  0.94613635
   0.88936155  0.11147647  0.05521777
   0.77268456  0.55231211  0.95013585
   0.88337046  0.44131557  0.05217419
   0.77573140  0.88412674  0.94782160
   0.88494818  0.77677746  0.05075523
unknown system                          
           1
     8.248363    4.765247    0.000000
    -8.252676    4.772722    0.000000
     0.000000    0.000000   30.000000
   V    Mo   W    S 
   3   3   3  18
Direct configuration=    13
   0.67356006  0.67393923  0.00062320
   0.68063506  0.33284711  0.00002442
   0.32486858  0.66934990 -0.00009755
   0.99289168  0.32270614 -0.00010363
   0.68125873  0.01218720  0.00013171
   0.00777801  0.66507066 -0.00035564
  -0.00243759  0.01122602  0.00011500
   0.32786235 -0.00975910 -0.00032284
   0.31661608  0.32416918  0.00017199
   0.10883963  0.22146429  0.94505611
   0.22005167  0.10804241  0.05310346
   0.11689124  0.55652039  0.94784647
   0.22350623  0.44957618  0.05153641
   0.10970605  0.89001875  0.94788277
   0.22625291  0.77473459  0.05321092
   0.44967908  0.22491650  0.95038100
   0.55804103  0.11693097  0.05122031
   0.44531064  0.55930462  0.95138700
   0.55862661  0.44488240  0.04765268
   0.44373784  0.88358912  0.94920553
   0.55306749  0.77421233  0.04907123
   0.77522894  0.22621205  0.94612743
   0.88937283  0.11150294  0.05525427
   0.77269935  0.55230395  0.95012877
   0.88341183  0.44131908  0.05219412
   0.77574367  0.88413559  0.94780470
   0.88501446  0.77681197  0.05075005
unknown system                          
           1
     8.263737    4.776195    0.000000
    -8.264894    4.778208    0.000000
     0.000000    0.000000   30.000000
   V    Mo   W    S 
   3   3   3  18
Direct configuration=    14
   0.67229673  0.67297163  0.00054340
   0.67890526  0.33116093  0.00004548
   0.32528702  0.66957621 -0.00009951
   0.99255551  0.32221965 -0.00014544
   0.68033193  0.01257790  0.00008756
   0.00787635  0.66555951 -0.00036706
  -0.00249012  0.01120806  0.00008271
   0.32991536 -0.00870373 -0.00032614
   0.31744791  0.32446358  0.00018180
   0.10908379  0.22150346  0.94514636
   0.22013186  0.10797007  0.05302286
   0.11693135  0.55662407  0.94800122
   0.22344870  0.44957413  0.05142597
   0.11037258  0.89053858  0.94797978
   0.22650863  0.77491973  0.05310973
   0.44978449  0.22507768  0.95012637
   0.55834391  0.11706388  0.05152929
   0.44514037  0.55925502  0.95126136
   0.55878479  0.44484761  0.04785219
   0.44371123  0.88341059  0.94908533
   0.55293668  0.77421999  0.04915477
   0.77518046  0.22635015  0.94617237
   0.88925019  0.11135590  0.05523132
   0.77263977  0.55220448  0.95026055
   0.88319960  0.44125866  0.05201280
   0.77577500  0.88424562  0.94785789
   0.88486509  0.77676106  0.05076694
unknown system                          
           1
     8.267748    4.778948    0.000000
    -8.268568    4.780381    0.000000
     0.000000    0.000000   30.000000
   V    Mo   W    S 
   3   3   3  18
Direct configuration=    15
   0.67452535  0.67473739  0.00071688
   0.68254770  0.33360025  0.00002256
   0.32395717  0.66976350 -0.00012942
   0.99283316  0.32179000 -0.00007938
   0.68265094  0.01288075  0.00013653
   0.00873284  0.66491818 -0.00037101
  -0.00251997  0.01266921  0.00015822
   0.32644330 -0.01132566 -0.00034506
   0.31460765  0.32326511  0.00018377
   0.10853127  0.22138976  0.94474837
   0.21976199  0.10777905  0.05315028
   0.11676286  0.55617999  0.94778884
   0.22331595  0.44945064  0.05157057
   0.10917006  0.88995116  0.94795718
   0.22623037  0.77466573  0.05342013
   0.44947567  0.22476302  0.95070514
   0.55790508  0.11682607  0.05100340
   0.44502872  0.55906191  0.95161091
   0.55821856  0.44446927  0.04729288
   0.44402899  0.88377784  0.94931767
   0.55303771  0.77450733  0.04887747
   0.77545578  0.22626370  0.94599082
   0.88933570  0.11156226  0.05550087
   0.77291709  0.55230101  0.95016544
   0.88379298  0.44134904  0.05224120
   0.77593791  0.88439406  0.94774803
   0.88552963  0.77722391  0.05061761
unknown system                          
           1
     8.265656    4.777944    0.000000
    -8.266306    4.779080    0.000000
     0.000000    0.000000   30.000000
   V    Mo   W    S 
   3   3   3  18
Direct configuration=    16
   0.67527244  0.67535833  0.00077700
   0.68392836  0.33417195  0.00000515
   0.32327870  0.67002928 -0.00015679
   0.99280387  0.32130476 -0.00007437
   0.68352608  0.01329736  0.00013034
   0.00941232  0.66474565 -0.00039461
  -0.00267649  0.01353550  0.00017753
   0.32545052 -0.01251654 -0.00036566
   0.31328442  0.32273642  0.00018597
   0.10830982  0.22133082  0.94454839
   0.21956034  0.10760362  0.05317535
   0.11670825  0.55596429  0.94775106
   0.22321069  0.44940392  0.05159981
   0.10878320  0.88989563  0.94801664
   0.22621051  0.77459459  0.05357139
   0.44936001  0.22466683  0.95094272
   0.55781609  0.11678739  0.05084906
   0.44484622  0.55891254  0.95176807
   0.55793965  0.44418616  0.04704488
   0.44421206  0.88388617  0.94939082
   0.55299266  0.77467595  0.04874931
   0.77560058  0.22628852  0.94591019
   0.88930984  0.11161401  0.05567744
   0.77305673  0.55229024  0.95018848
   0.88406194  0.44138242  0.05228968
   0.77606020  0.88456423  0.94770382
   0.88589542  0.77750443  0.05053824
unknown system                          
           1
     8.265665    4.777953    0.000000
    -8.266309    4.779080    0.000000
     0.000000    0.000000   30.000000
   V    Mo   W    S 
   3   3   3  18
Direct configuration=    17
   0.67494135  0.67508096  0.00073685
   0.68334052  0.33416996  0.00001759
   0.32356893  0.66983751 -0.00015217
   0.99294530  0.32170007 -0.00009754
   0.68320971  0.01293226  0.00011669
   0.00901561  0.66477626 -0.00038397
  -0.00245996  0.01303553  0.00015196
   0.32559606 -0.01197776 -0.00036269
   0.31395149  0.32300486  0.00016430
   0.10843156  0.22136755  0.94467549
   0.21968062  0.10774183  0.05320135
   0.11676667  0.55613348  0.94779540
   0.22329324  0.44945621  0.05159193
   0.10892391  0.88984129  0.94794431
   0.22618219  0.77457865  0.05346627
   0.44939661  0.22471413  0.95080295
   0.55782770  0.11675612  0.05089670
   0.44498420  0.55903901  0.95168871
   0.55812616  0.44440417  0.04720109
   0.44405163  0.88380971  0.94939694
   0.55300219  0.77452935  0.04882802
   0.77552472  0.22625308  0.94598239
   0.88937947  0.11158926  0.05557818
   0.77296322  0.55234241  0.95014823
   0.88391545  0.44135775  0.05228382
   0.77600750  0.88442926  0.94773173
   0.88564838  0.77731156  0.05059536
unknown system                          
           1
     8.258890    4.775253    0.000000
    -8.260150    4.777447    0.000000
     0.000000    0.000000   30.000000
   V    Mo   W    S 
   3   3   3  18
Direct configuration=    18
   0.67494163  0.67508135  0.00073687
   0.68334129  0.33417237  0.00001767
   0.32356881  0.66983691 -0.00015212
   0.99294587  0.32170082 -0.00009740
   0.68321152  0.01293120  0.00011683
   0.00901474  0.66477570 -0.00038387
  -0.00245900  0.01303491  0.00015211
   0.32559265 -0.01197784 -0.00036264
   0.31395204  0.32300502  0.00016428
   0.10843163  0.22136765  0.94467549
   0.21968097  0.10774243  0.05320160
   0.11676698  0.55613377  0.94779539
   0.22329366  0.44945662  0.05159192
   0.10892323  0.88984036  0.94794376
   0.22618182  0.77457820  0.05346613
   0.44939639  0.22471405  0.95080287
   0.55782735  0.11675557  0.05089616
   0.44498452  0.55903947  0.95168873
   0.55812646  0.44440485  0.04720129
   0.44405118  0.88380965  0.94939732
   0.55300203  0.77452876  0.04882804
   0.77552464  0.22625296  0.94598261
   0.88938018  0.11158942  0.05557788
   0.77296295  0.55234278  0.95014796
   0.88391549  0.44135772  0.05228394
   0.77600764  0.88442866  0.94773162
   0.88564779  0.77731110  0.05059544
unknown system                          
           1
     8.268395    4.780302    0.000000
    -8.267826    4.779329    0.000000
     0.000000    0.000000   30.000000
   V    Mo   W    S 
   3   3   3  18
Direct configuration=    19
   0.67629395  0.67637892  0.00081254
   0.68588740  0.33524678 -0.00000092
   0.32306029  0.66991458 -0.00017215
   0.99219468  0.32054570 -0.00006599
   0.68519792  0.01383128  0.00012995
   0.00917292  0.66390621 -0.00041140
  -0.00321219  0.01415369  0.00021248
   0.32397920 -0.01342646 -0.00036814
   0.31211344  0.32242556  0.00017001
   0.10819231  0.22134392  0.94444823
   0.21954625  0.10756357  0.05322308
   0.11673714  0.55585121  0.94773639
   0.22334494  0.44963427  0.05162379
   0.10833720  0.88961107  0.94795002
   0.22602141  0.77443657  0.05364456
   0.44926037  0.22458979  0.95112910
   0.55761674  0.11668848  0.05057701
   0.44495391  0.55899713  0.95187209
   0.55798345  0.44428085  0.04686644
   0.44424004  0.88398611  0.94953954
   0.55295626  0.77457868  0.04867743
   0.77563747  0.22628005  0.94593879
   0.88947643  0.11173205  0.05574284
   0.77299929  0.55242087  0.95014467
   0.88420098  0.44144706  0.05238584
   0.77604074  0.88430777  0.94766577
   0.88598191  0.77748874  0.05052793
unknown system                          
           1
     8.275497    4.786368    0.000000
    -8.272594    4.781359    0.000000
     0.000000    0.000000   30.000000
   V    Mo   W    S 
   3   3   3  18
Direct configuration=    20
   0.67623925  0.67611423  0.00083427
   0.68556630  0.33534595 -0.00000991
   0.32256691  0.67007026 -0.00018314
   0.99294148  0.32122565 -0.00005545
   0.68461320  0.01343418  0.00015189
   0.00983312  0.66444677 -0.00040062
  -0.00256138  0.01414303  0.00021640
   0.32369445 -0.01370643 -0.00037543
   0.31210110  0.32220365  0.00016933
   0.10809905  0.22127784  0.94441331
   0.21941141  0.10756241  0.05322936
   0.11667431  0.55584694  0.94769282
   0.22320349  0.44936548  0.05164324
   0.10824756  0.88958770  0.94798854
   0.22606731  0.77445029  0.05368286
   0.44919432  0.22451395  0.95121485
   0.55760869  0.11665679  0.05054969
   0.44476136  0.55881825  0.95195118
   0.55767965  0.44403066  0.04681035
   0.44426817  0.88402698  0.94954716
   0.55298887  0.77474976  0.04862016
   0.77572568  0.22625011  0.94591196
   0.88940837  0.11170286  0.05573933
   0.77319689  0.55234458  0.95015595
   0.88430838  0.44142404  0.05236108
   0.77618565  0.88463972  0.94766011
   0.88619089  0.77768880  0.05048059
unknown system                          
           1
     8.274538    4.785427    0.000000
    -8.272112    4.781243    0.000000
     0.000000    0.000000   30.000000
   V    Mo   W    S 
   3   3   3  18
Direct configuration=    21
   0.67796839  0.67746299  0.00090820
   0.68821815  0.33681403 -0.00008067
   0.32121494  0.67015587 -0.00022914
   0.99302810  0.32098193 -0.00005325
   0.68623887  0.01395293  0.00013918
   0.01079128  0.66399365 -0.00043945
  -0.00267327  0.01522019  0.00022205
   0.32120654 -0.01579471 -0.00038726
   0.30997002  0.32129965  0.00014433
   0.10765199  0.22113733  0.94415067
   0.21910058  0.10733852  0.05332300
   0.11658348  0.55555389  0.94755942
   0.22314258  0.44930645  0.05174236
   0.10738668  0.88920283  0.94800448
   0.22590354  0.77424771  0.05395589
   0.44904142  0.22428106  0.95170409
   0.55732435  0.11659306  0.05013886
   0.44453848  0.55858912  0.95226755
   0.55716661  0.44361103  0.04636775
   0.44447266  0.88428003  0.94973490
   0.55295663  0.77497148  0.04839654
   0.77595180  0.22621837  0.94584084
   0.88948560  0.11189256  0.05596705
   0.77349888  0.55234263  0.95013556
   0.88479021  0.44154989  0.05250229
   0.77637153  0.88490027  0.94756943
   0.88688442  0.77811171  0.05041523
unknown system                          
           1
     8.277492    4.784493    0.000000
    -8.277997    4.785379    0.000000
     0.000000    0.000000   30.000000
   V    Mo   W    S 
   3   3   3  18
Direct configuration=    22
   0.67768680  0.67723811  0.00089663
   0.68787182  0.33660556 -0.00007103
   0.32141305  0.67017565 -0.00022586
   0.99300163  0.32098103 -0.00005981
   0.68600769  0.01390411  0.00013622
   0.01067597  0.66406779 -0.00043617
  -0.00263395  0.01511768  0.00021469
   0.32156905 -0.01551561 -0.00038955
   0.31023735  0.32139990  0.00014295
   0.10771937  0.22115760  0.94418518
   0.21914255  0.10736574  0.05331358
   0.11659046  0.55559282  0.94757950
   0.22314452  0.44930679  0.05173125
   0.10751145  0.88926758  0.94800711
   0.22592921  0.77428303  0.05392294
   0.44905932  0.22431632  0.95163451
   0.55736793  0.11660178  0.05020232
   0.44455686  0.55861392  0.95222053
   0.55722954  0.44365177  0.04643174
   0.44445607  0.88424577  0.94970326
   0.55295709  0.77495071  0.04843173
   0.77592188  0.22622646  0.94585307
   0.88946492  0.11185806  0.05594391
   0.77345892  0.55233370  0.95014109
   0.88471821  0.44152441  0.05248082
   0.77635544  0.88487850  0.94758607
   0.88680133  0.77806527  0.05042321
unknown system                          
           1
     8.279420    4.789913    0.000000
    -8.274964    4.782217    0.000000
     0.000000    0.000000   30.000000
   V    Mo   W    S 
   3   3   3  18
Direct configuration=    23
   0.67660177  0.67639714  0.00089244
   0.68657778  0.33588355  0.00000749
   0.32266412  0.67029487 -0.00020389
   0.99274196  0.32095796 -0.00006607
   0.68496379  0.01358067  0.00013983
   0.00971267  0.66413942 -0.00042492
  -0.00274979  0.01445645  0.00020429
   0.32331120 -0.01422399 -0.00041421
   0.31148224  0.32198316  0.00017728
   0.10797222  0.22128294  0.94426971
   0.21927659  0.10748535  0.05326599
   0.11658113  0.55564064  0.94766843
   0.22308563  0.44927875  0.05167261
   0.10795557  0.88955615  0.94802998
   0.22603279  0.77442453  0.05379974
   0.44920717  0.22452766  0.95133453
   0.55762960  0.11672785  0.05047904
   0.44473037  0.55878958  0.95201385
   0.55761236  0.44390955  0.04665090
   0.44447495  0.88411969  0.94953111
   0.55304569  0.77482363  0.04856386
   0.77580807  0.22633078  0.94586810
   0.88939353  0.11172662  0.05589712
   0.77317173  0.55227484  0.95018813
   0.88439405  0.44132975  0.05239540
   0.77624710  0.88465265  0.94766283
   0.88629016  0.77786430  0.05039629
unknown system                          
           1
     8.281011    4.791467    0.000000
    -8.275689    4.782274    0.000000
     0.000000    0.000000   30.000000
   V    Mo   W    S 
   3   3   3  18
Direct configuration=    24
   0.67899928  0.67838082  0.00097614
   0.68966661  0.33766464 -0.00010364
   0.32081787  0.67021310 -0.00023536
   0.99298415  0.32082470 -0.00002589
   0.68708286  0.01410199  0.00015684
   0.01098156  0.66350733 -0.00046317
  -0.00301908  0.01563203  0.00025169
   0.32007166 -0.01685552 -0.00039449
   0.30895282  0.32103468  0.00017004
   0.10738335  0.22107262  0.94401687
   0.21892555  0.10724545  0.05331106
   0.11653650  0.55534361  0.94753312
   0.22308031  0.44929484  0.05175446
   0.10689979  0.88898894  0.94804142
   0.22579890  0.77412088  0.05403349
   0.44900342  0.22420385  0.95197335
   0.55721734  0.11660352  0.04990787
   0.44452585  0.55852102  0.95242840
   0.55699812  0.44349216  0.04609646
   0.44460279  0.88442508  0.94983508