   27   27  100    1
  0.9710400E+02  0.1002848E-08  0.1002848E-08  0.3000000E-08  0.5000000E-15
  1.000000000000000E-004
  CAR 
 unknown system                          
    159     34    120
 
  0.0000000E+00  0.0000000E+00  0.0000000E+00  0.1562500E-01
    1      -17.856920   1.000000
    2      -16.769645   1.000000
    3      -16.673193   1.000000
    4      -16.555136   1.000000
    5      -16.541797   1.000000
    6      -16.536139   1.000000
    7      -16.406483   1.000000
    8      -16.324483   1.000000
    9      -16.229667   1.000000
   10      -16.111478   1.000000
   11      -16.074306   1.000000
   12      -15.975510   1.000000
   13      -15.891311   1.000000
   14      -15.638024   1.000000
   15      -15.597080   1.000000
   16      -15.451503   1.000000
   17      -15.234303   1.000000
   18      -15.177955   1.000000
   19       -9.485625   1.000000
   20       -9.013489   1.000000
   21       -8.974335   1.000000
   22       -8.865762   1.000000
   23       -8.740189   1.000000
   24       -8.681674   1.000000
   25       -8.595005   1.000000
   26       -8.579093   1.000000
   27       -8.557827   1.000000
   28       -8.475594   1.000000
   29       -8.458969   1.000000
   30       -8.409019   1.000000
   31       -8.341942   1.000000
   32       -8.152088   1.000000
   33       -8.147302   1.000000
   34       -8.039260   1.000000
   35       -7.820962   1.000000
   36       -7.752438   1.000000
   37       -7.644890   1.000000
   38       -7.625685   1.000000
   39       -7.513369   1.000000
   40       -7.371779   1.000000
   41       -7.346503   1.000000
   42       -7.183270   1.000000
   43       -7.050676   1.000000
   44       -6.881251   1.000000
   45       -6.872870   1.000000
   46       -6.830593   1.000000
   47       -6.811147   1.000000
   48       -6.733796   1.000000
   49       -6.612609   1.000000
   50       -6.494650   1.000000
   51       -6.410057   1.000000
   52       -6.283370   1.000000
   53       -6.212952   1.000000
   54       -6.171554   1.000000
   55       -6.106591   1.000000
   56       -6.017619   1.000000
   57       -5.938956   1.000000
   58       -5.863007   1.000000
   59       -5.834322   1.000000
   60       -5.803966   1.000000
   61       -5.611047   1.000000
   62       -5.340735   1.000000
   63       -5.294688   1.000000
   64       -5.024267   1.000000
   65       -4.995146   1.000000
   66       -4.901014   1.000000
   67       -4.830118   1.000000
   68       -4.770100   1.000000
   69       -4.706789   1.000000
   70       -4.683917   1.000000
   71       -4.624128   1.000000
   72       -4.551254   1.000000
   73       -4.496635   1.000000
   74       -4.352968   1.000000
   75       -4.278824   1.000000
   76       -4.007186   1.000000
   77       -3.759614   0.999910
   78       -3.584331   0.993882
   79       -3.484169   0.963835
   80       -3.182386   0.368099
   81       -3.127510   0.234249
   82       -2.826158   0.002146
   83       -2.644624   0.000017
   84       -2.617317   0.000007
   85       -2.532899   0.000000
   86       -2.454498   0.000000
   87       -2.234692   0.000000
   88       -2.197307   0.000000
   89       -2.149007   0.000000
   90       -1.990510   0.000000
   91       -1.876298   0.000000
   92       -1.614161   0.000000
   93       -1.428038   0.000000
   94       -1.151672   0.000000
   95       -1.102550   0.000000
   96       -1.047285   0.000000
   97       -1.024378   0.000000
   98       -0.894752   0.000000
   99       -0.836609   0.000000
  100       -0.595779   0.000000
  101       -0.561247   0.000000
  102       -0.490501   0.000000
  103       -0.294295   0.000000
  104       -0.269603   0.000000
  105       -0.116868   0.000000
  106       -0.040018   0.000000
  107        0.005990   0.000000
  108        0.045452   0.000000
  109        0.138785   0.000000
  110        0.229609   0.000000
  111        0.391316   0.000000
  112        0.475324   0.000000
  113        0.534975   0.000000
  114        0.967874   0.000000
  115        1.025475   0.000000
  116        1.056514   0.000000
  117        1.139844   0.000000
  118        1.655975   0.000000
  119        1.846639   0.000000
  120        2.177645   0.000000
 
  0.1250000E+00  0.2775558E-16  0.0000000E+00  0.3125000E-01
    1      -17.832292   1.000000
    2      -16.801300   1.000000
    3      -16.760916   1.000000
    4      -16.611262   1.000000
    5      -16.559566   1.000000
    6      -16.432041   1.000000
    7      -16.380522   1.000000
    8      -16.353926   1.000000
    9      -16.279848   1.000000
   10      -16.047333   1.000000
   11      -16.010514   1.000000
   12      -15.970773   1.000000
   13      -15.870506   1.000000
   14      -15.635060   1.000000
   15      -15.590421   1.000000
   16      -15.461133   1.000000
   17      -15.253353   1.000000
   18      -15.182226   1.000000
   19       -9.486591   1.000000
   20       -9.159597   1.000000
   21       -9.055425   1.000000
   22       -8.999348   1.000000
   23       -8.734737   1.000000
   24       -8.710213   1.000000
   25       -8.623681   1.000000
   26       -8.571989   1.000000
   27       -8.535322   1.000000
   28       -8.466631   1.000000
   29       -8.432047   1.000000
   30       -8.323086   1.000000
   31       -8.283504   1.000000
   32       -8.067700   1.000000
   33       -7.994767   1.000000
   34       -7.941968   1.000000
   35       -7.826855   1.000000
   36       -7.776605   1.000000
   37       -7.711349   1.000000
   38       -7.544267   1.000000
   39       -7.439015   1.000000
   40       -7.372077   1.000000
   41       -7.319528   1.000000
   42       -7.224830   1.000000
   43       -7.102232   1.000000
   44       -6.953530   1.000000
   45       -6.925055   1.000000
   46       -6.850614   1.000000
   47       -6.799275   1.000000
   48       -6.662951   1.000000
   49       -6.594494   1.000000
   50       -6.501020   1.000000
   51       -6.410248   1.000000
   52       -6.296712   1.000000
   53       -6.233385   1.000000
   54       -6.156493   1.000000
   55       -6.126785   1.000000
   56       -6.053103   1.000000
   57       -5.905867   1.000000
   58       -5.866268   1.000000
   59       -5.820553   1.000000
   60       -5.672958   1.000000
   61       -5.563286   1.000000
   62       -5.361356   1.000000
   63       -5.310845   1.000000
   64       -5.201176   1.000000
   65       -5.056667   1.000000
   66       -5.021301   1.000000
   67       -4.917112   1.000000
   68       -4.839664   1.000000
   69       -4.688683   1.000000
   70       -4.642345   1.000000
   71       -4.519561   1.000000
   72       -4.452228   1.000000
   73       -4.418225   1.000000
   74       -4.303928   1.000000
   75       -4.263422   1.000000
   76       -3.918124   0.999999
   77       -3.797483   0.999970
   78       -3.697355   0.999524
   79       -3.474644   0.958157
   80       -3.382962   0.860238
   81       -2.949961   0.023830
   82       -2.825772   0.002128
   83       -2.667845   0.000035
   84       -2.613040   0.000006
   85       -2.538339   0.000001
   86       -2.457296   0.000000
   87       -2.237870   0.000000
   88       -2.170875   0.000000
   89       -2.102807   0.000000
   90       -1.984535   0.000000
   91       -1.824641   0.000000
   92       -1.610276   0.000000
   93       -1.421915   0.000000
   94       -1.165322   0.000000
   95       -1.101107   0.000000
   96       -1.060782   0.000000
   97       -1.006478   0.000000
   98       -0.903874   0.000000
   99       -0.841431   0.000000
  100       -0.646856   0.000000
  101       -0.608023   0.000000
  102       -0.521761   0.000000
  103       -0.378626   0.000000
  104       -0.329990   0.000000
  105       -0.177003   0.000000
  106       -0.118984   0.000000
  107       -0.082353   0.000000
  108        0.064039   0.000000
  109        0.134158   0.000000
  110        0.262684   0.000000
  111        0.428749   0.000000
  112        0.503912   0.000000
  113        0.599007   0.000000
  114        0.930799   0.000000
  115        1.004457   0.000000
  116        1.104050   0.000000
  117        1.213058   0.000000
  118        1.700874   0.000000
  119        1.884890   0.000000
  120        2.213059   0.000000
 
  0.2500000E+00  0.5551115E-16  0.0000000E+00  0.3125000E-01
    1      -17.760523   1.000000
    2      -17.004022   1.000000
    3      -16.758884   1.000000
    4      -16.661506   1.000000
    5      -16.594229   1.000000
    6      -16.455471   1.000000
    7      -16.362217   1.000000
    8      -16.300331   1.000000
    9      -16.246439   1.000000
   10      -16.035563   1.000000
   11      -15.969347   1.000000
   12      -15.855767   1.000000
   13      -15.832978   1.000000
   14      -15.614051   1.000000
   15      -15.580522   1.000000
   16      -15.476070   1.000000
   17      -15.293710   1.000000
   18      -15.202140   1.000000
   19       -9.600786   1.000000
   20       -9.308139   1.000000
   21       -9.183691   1.000000
   22       -9.132360   1.000000
   23       -8.816032   1.000000
   24       -8.747966   1.000000
   25       -8.626284   1.000000
   26       -8.576224   1.000000
   27       -8.504719   1.000000
   28       -8.416002   1.000000
   29       -8.323895   1.000000
   30       -8.255944   1.000000
   31       -8.137779   1.000000
   32       -8.059940   1.000000
   33       -7.985725   1.000000
   34       -7.803501   1.000000
   35       -7.770065   1.000000
   36       -7.669929   1.000000
   37       -7.559827   1.000000
   38       -7.508387   1.000000
   39       -7.432351   1.000000
   40       -7.370905   1.000000
   41       -7.306574   1.000000
   42       -7.206654   1.000000
   43       -7.139808   1.000000
   44       -7.016324   1.000000
   45       -6.949809   1.000000
   46       -6.820810   1.000000
   47       -6.794556   1.000000
   48       -6.661389   1.000000
   49       -6.546991   1.000000
   50       -6.459712   1.000000
   51       -6.385361   1.000000
   52       -6.308938   1.000000
   53       -6.298123   1.000000
   54       -6.159106   1.000000
   55       -6.115917   1.000000
   56       -6.065405   1.000000
   57       -5.875682   1.000000
   58       -5.826616   1.000000
   59       -5.788566   1.000000
   60       -5.643957   1.000000
   61       -5.567334   1.000000
   62       -5.505075   1.000000
   63       -5.443666   1.000000
   64       -5.267414   1.000000
   65       -5.152483   1.000000
   66       -5.131453   1.000000
   67       -5.017650   1.000000
   68       -4.863888   1.000000
   69       -4.702531   1.000000
   70       -4.596105   1.000000
   71       -4.431757   1.000000
   72       -4.347298   1.000000
   73       -4.298058   1.000000
   74       -4.240151   1.000000
   75       -4.127380   1.000000
   76       -4.013750   1.000000
   77       -3.906540   0.999999
   78       -3.763726   0.999920
   79       -3.505175   0.974147
   80       -3.399572   0.884706
   81       -2.928983   0.016639
   82       -2.796238   0.001080
   83       -2.708368   0.000113
   84       -2.597603   0.000004
   85       -2.517057   0.000000
   86       -2.437442   0.000000
   87       -2.260498   0.000000
   88       -2.083805   0.000000
   89       -2.039876   0.000000
   90       -1.942404   0.000000
   91       -1.764670   0.000000
   92       -1.537576   0.000000
   93       -1.415012   0.000000
   94       -1.217907   0.000000
   95       -1.116874   0.000000
   96       -1.076751   0.000000
   97       -0.999362   0.000000
   98       -0.947938   0.000000
   99       -0.846213   0.000000
  100       -0.745536   0.000000
  101       -0.708854   0.000000
  102       -0.611569   0.000000
  103       -0.513790   0.000000
  104       -0.427515   0.000000
  105       -0.320578   0.000000
  106       -0.232338   0.000000
  107       -0.186358   0.000000
  108        0.013684   0.000000
  109        0.116352   0.000000
  110        0.242561   0.000000
  111        0.388603   0.000000
  112        0.573319   0.000000
  113        0.733604   0.000000
  114        0.945163   0.000000
  115        1.042940   0.000000
  116        1.200917   0.000000
  117        1.308610   0.000000
  118        1.825691   0.000000
  119        1.995578   0.000000
  120        2.318034   0.000000
 
  0.3750000E+00  0.0000000E+00  0.0000000E+00  0.3125000E-01
    1      -17.651987   1.000000
    2      -17.207163   1.000000
    3      -16.763540   1.000000
    4      -16.683221   1.000000
    5      -16.620950   1.000000
    6      -16.517852   1.000000
    7      -16.332634   1.000000
    8      -16.249325   1.000000
    9      -16.211155   1.000000
   10      -16.034941   1.000000
   11      -15.874896   1.000000
   12      -15.839643   1.000000
   13      -15.781018   1.000000
   14      -15.623589   1.000000
   15      -15.578675   1.000000
   16      -15.439749   1.000000
   17      -15.322754   1.000000
   18      -15.240569   1.000000
   19       -9.790157   1.000000
   20       -9.379385   1.000000
   21       -9.256656   1.000000
   22       -9.131208   1.000000
   23       -8.895901   1.000000
   24       -8.797595   1.000000
   25       -8.586038   1.000000
   26       -8.572407   1.000000
   27       -8.484321   1.000000
   28       -8.345284   1.000000
   29       -8.286432   1.000000
   30       -8.193833   1.000000
   31       -8.145189   1.000000
   32       -8.004640   1.000000
   33       -7.944499   1.000000
   34       -7.834953   1.000000
   35       -7.749206   1.000000
   36       -7.681112   1.000000
   37       -7.548451   1.000000
   38       -7.511987   1.000000
   39       -7.472958   1.000000
   40       -7.300347   1.000000
   41       -7.150107   1.000000
   42       -7.122495   1.000000
   43       -7.050010   1.000000
   44       -6.960585   1.000000
   45       -6.923510   1.000000
   46       -6.813021   1.000000
   47       -6.724293   1.000000
   48       -6.647940   1.000000
   49       -6.478975   1.000000
   50       -6.429908   1.000000
   51       -6.341807   1.000000
   52       -6.284704   1.000000
   53       -6.223470   1.000000
   54       -6.184504   1.000000
   55       -6.165743   1.000000
   56       -6.066750   1.000000
   57       -6.016867   1.000000
   58       -5.951719   1.000000
   59       -5.842175   1.000000
   60       -5.731087   1.000000
   61       -5.641007   1.000000
   62       -5.555260   1.000000
   63       -5.448368   1.000000
   64       -5.340662   1.000000
   65       -5.168166   1.000000
   66       -5.105415   1.000000
   67       -5.003781   1.000000
   68       -4.816366   1.000000
   69       -4.768237   1.000000
   70       -4.635989   1.000000
   71       -4.513871   1.000000
   72       -4.389367   1.000000
   73       -4.262031   1.000000
   74       -4.160277   1.000000
   75       -4.057259   1.000000
   76       -4.002737   1.000000
   77       -3.935677   1.000000
   78       -3.746282   0.999869
   79       -3.545736   0.987205
   80       -3.302524   0.695888
   81       -2.981616   0.039497
   82       -2.774579   0.000640
   83       -2.725446   0.000180
   84       -2.618854   0.000008
   85       -2.506436   0.000000
   86       -2.370616   0.000000
   87       -2.251862   0.000000
   88       -2.049454   0.000000
   89       -1.981498   0.000000
   90       -1.854816   0.000000
   91       -1.743367   0.000000
   92       -1.454479   0.000000
   93       -1.392706   0.000000
   94       -1.266476   0.000000
   95       -1.167976   0.000000
   96       -1.133506   0.000000
   97       -1.072005   0.000000
   98       -0.954423   0.000000
   99       -0.855932   0.000000
  100       -0.799787   0.000000
  101       -0.753781   0.000000
  102       -0.709398   0.000000
  103       -0.615635   0.000000
  104       -0.505912   0.000000
  105       -0.440439   0.000000
  106       -0.311205   0.000000
  107       -0.271950   0.000000
  108       -0.099147   0.000000
  109        0.104036   0.000000
  110        0.174929   0.000000
  111        0.390201   0.000000
  112        0.631561   0.000000
  113        0.770566   0.000000
  114        0.981907   0.000000
  115        1.152662   0.000000
  116        1.262156   0.000000
  117        1.402890   0.000000
  118        2.012179   0.000000
  119        2.171372   0.000000
  120        2.483331   0.000000
 
  0.5000000E+00  0.1110223E-15  0.0000000E+00  0.1562500E-01
    1      -17.570317   1.000000
    2      -17.322428   1.000000
    3      -16.769501   1.000000
    4      -16.685778   1.000000
    5      -16.627239   1.000000
    6      -16.542887   1.000000
    7      -16.320017   1.000000
    8      -16.240696   1.000000
    9      -16.198474   1.000000
   10      -16.020741   1.000000
   11      -15.862481   1.000000
   12      -15.801217   1.000000
   13      -15.739315   1.000000
   14      -15.692651   1.000000
   15      -15.567071   1.000000
   16      -15.410343   1.000000
   17      -15.309099   1.000000
   18      -15.280679   1.000000
   19       -9.865451   1.000000
   20       -9.413379   1.000000
   21       -9.295035   1.000000
   22       -9.068259   1.000000
   23       -8.936743   1.000000
   24       -8.812447   1.000000
   25       -8.633153   1.000000
   26       -8.550833   1.000000
   27       -8.466796   1.000000
   28       -8.325876   1.000000
   29       -8.267559   1.000000
   30       -8.161181   1.000000
   31       -8.085241   1.000000
   32       -7.991085   1.000000
   33       -7.938419   1.000000
   34       -7.882382   1.000000
   35       -7.776303   1.000000
   36       -7.670842   1.000000
   37       -7.627650   1.000000
   38       -7.566102   1.000000
   39       -7.466898   1.000000
   40       -7.311822   1.000000
   41       -7.066408   1.000000
   42       -7.038780   1.000000
   43       -6.951811   1.000000
   44       -6.910901   1.000000
   45       -6.842138   1.000000
   46       -6.705151   1.000000
   47       -6.649722   1.000000
   48       -6.549916   1.000000
   49       -6.516917   1.000000
   50       -6.470191   1.000000
   51       -6.445847   1.000000
   52       -6.426571   1.000000
   53       -6.290737   1.000000
   54       -6.219309   1.000000
   55       -6.172161   1.000000
   56       -6.064573   1.000000
   57       -6.026138   1.000000
   58       -5.828977   1.000000
   59       -5.803769   1.000000
   60       -5.729239   1.000000
   61       -5.683533   1.000000
   62       -5.587536   1.000000
   63       -5.525258   1.000000
   64       -5.379141   1.000000
   65       -5.190195   1.000000
   66       -5.028261   1.000000
   67       -4.994019   1.000000
   68       -4.973408   1.000000
   69       -4.774857   1.000000
   70       -4.603772   1.000000
   71       -4.542983   1.000000
   72       -4.405263   1.000000
   73       -4.303487   1.000000
   74       -4.124173   1.000000
   75       -4.052749   1.000000
   76       -3.956189   1.000000
   77       -3.861520   0.999996
   78       -3.763699   0.999920
   79       -3.566424   0.991312
   80       -3.276360   0.628395
   81       -2.939827   0.020083
   82       -2.839023   0.002848
   83       -2.728089   0.000193
   84       -2.614053   0.000007
   85       -2.503199   0.000000
   86       -2.337388   0.000000
   87       -2.242925   0.000000
   88       -2.029038   0.000000
   89       -1.972181   0.000000
   90       -1.814314   0.000000
   91       -1.730433   0.000000
   92       -1.440417   0.000000
   93       -1.373780   0.000000
   94       -1.273182   0.000000
   95       -1.192633   0.000000
   96       -1.168852   0.000000
   97       -1.125938   0.000000
   98       -0.953334   0.000000
   99       -0.874220   0.000000
  100       -0.792957   0.000000
  101       -0.758153   0.000000
  102       -0.709174   0.000000
  103       -0.693682   0.000000
  104       -0.544527   0.000000
  105       -0.497857   0.000000
  106       -0.332159   0.000000
  107       -0.304294   0.000000
  108       -0.143732   0.000000
  109        0.087281   0.000000
  110        0.158389   0.000000
  111        0.392454   0.000000
  112        0.654304   0.000000
  113        0.774098   0.000000
  114        0.998397   0.000000
  115        1.203761   0.000000
  116        1.272458   0.000000
  117        1.447494   0.000000
  118        2.232174   0.000000
  119        2.265764   0.000000
  120        2.392050   0.000000
 
  0.0000000E+00  0.1250000E+00  0.0000000E+00  0.3125000E-01
    1      -17.832573   1.000000
    2      -16.807331   1.000000
    3      -16.744517   1.000000
    4      -16.622112   1.000000
    5      -16.548346   1.000000
    6      -16.452449   1.000000
    7      -16.398960   1.000000
    8      -16.340239   1.000000
    9      -16.254223   1.000000
   10      -16.067397   1.000000
   11      -16.006345   1.000000
   12      -15.975520   1.000000
   13      -15.859942   1.000000
   14      -15.636874   1.000000
   15      -15.591502   1.000000
   16      -15.457263   1.000000
   17      -15.254152   1.000000
   18      -15.183363   1.000000
   19       -9.489945   1.000000
   20       -9.147184   1.000000
   21       -9.043053   1.000000
   22       -8.992066   1.000000
   23       -8.760549   1.000000
   24       -8.693080   1.000000
   25       -8.654715   1.000000
   26       -8.572534   1.000000
   27       -8.521164   1.000000
   28       -8.493388   1.000000
   29       -8.455938   1.000000
   30       -8.313951   1.000000
   31       -8.243630   1.000000
   32       -8.085471   1.000000
   33       -8.013503   1.000000
   34       -7.900968   1.000000
   35       -7.842342   1.000000
   36       -7.760232   1.000000
   37       -7.710773   1.000000
   38       -7.516881   1.000000
   39       -7.449511   1.000000
   40       -7.378131   1.000000
   41       -7.329528   1.000000
   42       -7.209997   1.000000
   43       -7.115973   1.000000
   44       -6.953223   1.000000
   45       -6.898798   1.000000
   46       -6.880254   1.000000
   47       -6.798942   1.000000
   48       -6.696856   1.000000
   49       -6.601916   1.000000
   50       -6.505264   1.000000
   51       -6.390241   1.000000
   52       -6.299522   1.000000
   53       -6.237242   1.000000
   54       -6.160789   1.000000
   55       -6.121026   1.000000
   56       -5.999396   1.000000
   57       -5.940999   1.000000
   58       -5.850365   1.000000
   59       -5.827652   1.000000
   60       -5.668290   1.000000
   61       -5.561645   1.000000
   62       -5.369154   1.000000
   63       -5.310283   1.000000
   64       -5.196902   1.000000
   65       -5.066268   1.000000
   66       -4.993008   1.000000
   67       -4.909268   1.000000
   68       -4.836167   1.000000
   69       -4.719157   1.000000
   70       -4.660227   1.000000
   71       -4.504550   1.000000
   72       -4.489180   1.000000
   73       -4.355842   1.000000
   74       -4.327606   1.000000
   75       -4.260339   1.000000
   76       -3.923851   1.000000
   77       -3.820422   0.999985
   78       -3.671164   0.999094
   79       -3.475928   0.958962
   80       -3.379369   0.854513
   81       -2.954272   0.025594
   82       -2.829293   0.002301
   83       -2.673819   0.000042
   84       -2.597834   0.000004
   85       -2.538898   0.000001
   86       -2.457673   0.000000
   87       -2.238329   0.000000
   88       -2.179985   0.000000
   89       -2.084314   0.000000
   90       -2.003582   0.000000
   91       -1.838683   0.000000
   92       -1.596512   0.000000
   93       -1.427563   0.000000
   94       -1.151260   0.000000
   95       -1.092265   0.000000
   96       -1.059282   0.000000
   97       -1.022233   0.000000
   98       -0.893157   0.000000
   99       -0.836985   0.000000
  100       -0.633350   0.000000
  101       -0.609134   0.000000
  102       -0.562582   0.000000
  103       -0.417237   0.000000
  104       -0.300429   0.000000
  105       -0.177395   0.000000
  106       -0.106425   0.000000
  107       -0.046864   0.000000
  108        0.064952   0.000000
  109        0.128647   0.000000
  110        0.241507   0.000000
  111        0.362444   0.000000
  112        0.515049   0.000000
  113        0.600005   0.000000
  114        0.937155   0.000000
  115        1.029089   0.000000
  116        1.111447   0.000000
  117        1.223526   0.000000
  118        1.701551   0.000000
  119        1.885453   0.000000
  120        2.213205   0.000000
 
  0.1250000E+00  0.1250000E+00  0.0000000E+00  0.3125000E-01
    1      -17.783665   1.000000
    2      -16.939021   1.000000
    3      -16.747411   1.000000
    4      -16.709593   1.000000
    5      -16.525848   1.000000
    6      -16.451285   1.000000
    7      -16.384733   1.000000
    8      -16.315447   1.000000
    9      -16.238582   1.000000
   10      -16.067434   1.000000
   11      -16.012475   1.000000
   12      -15.868714   1.000000
   13      -15.822349   1.000000
   14      -15.616455   1.000000
   15      -15.570780   1.000000
   16      -15.459784   1.000000
   17      -15.293397   1.000000
   18      -15.205101   1.000000
   19       -9.555540   1.000000
   20       -9.262569   1.000000
   21       -9.223827   1.000000
   22       -9.041465   1.000000
   23       -8.792267   1.000000
   24       -8.717677   1.000000
   25       -8.637747   1.000000
   26       -8.540063   1.000000
   27       -8.475087   1.000000
   28       -8.446479   1.000000
   29       -8.406001   1.000000
   30       -8.333037   1.000000
   31       -8.205117   1.000000
   32       -8.079279   1.000000
   33       -7.983741   1.000000
   34       -7.849921   1.000000
   35       -7.715779   1.000000
   36       -7.649949   1.000000
   37       -7.595635   1.000000
   38       -7.495673   1.000000
   39       -7.379195   1.000000
   40       -7.346483   1.000000
   41       -7.298083   1.000000
   42       -7.250277   1.000000
   43       -7.148128   1.000000
   44       -7.047763   1.000000
   45       -6.990322   1.000000
   46       -6.890700   1.000000
   47       -6.774182   1.000000
   48       -6.680883   1.000000
   49       -6.569863   1.000000
   50       -6.509588   1.000000
   51       -6.381104   1.000000
   52       -6.322652   1.000000
   53       -6.274996   1.000000
   54       -6.186973   1.000000
   55       -6.115997   1.000000
   56       -5.972597   1.000000
   57       -5.887686   1.000000
   58       -5.771192   1.000000
   59       -5.756556   1.000000
   60       -5.662896   1.000000
   61       -5.541849   1.000000
   62       -5.473232   1.000000
   63       -5.299542   1.000000
   64       -5.256978   1.000000
   65       -5.189075   1.000000
   66       -5.169139   1.000000
   67       -5.042525   1.000000
   68       -4.833342   1.000000
   69       -4.710438   1.000000
   70       -4.668480   1.000000
   71       -4.442555   1.000000
   72       -4.348008   1.000000
   73       -4.276527   1.000000
   74       -4.233466   1.000000
   75       -4.152736   1.000000
   76       -3.988958   1.000000
   77       -3.858316   0.999996
   78       -3.700224   0.999558
   79       -3.586609   0.994156
   80       -3.395451   0.878940
   81       -2.944429   0.021718
   82       -2.831480   0.002415
   83       -2.720445   0.000157
   84       -2.565341   0.000001
   85       -2.521507   0.000000
   86       -2.462694   0.000000
   87       -2.303558   0.000000
   88       -2.100682   0.000000
   89       -2.055447   0.000000
   90       -1.986848   0.000000
   91       -1.761876   0.000000
   92       -1.530211   0.000000
   93       -1.434158   0.000000
   94       -1.183739   0.000000
   95       -1.079597   0.000000
   96       -1.055597   0.000000
   97       -1.022316   0.000000
   98       -0.898549   0.000000
   99       -0.849596   0.000000
  100       -0.683060   0.000000
  101       -0.657098   0.000000
  102       -0.620046   0.000000
  103       -0.513779   0.000000
  104       -0.409516   0.000000
  105       -0.288942   0.000000
  106       -0.181940   0.000000
  107       -0.139615   0.000000
  108        0.010972   0.000000
  109        0.062284   0.000000
  110        0.210957   0.000000
  111        0.353319   0.000000
  112        0.542569   0.000000
  113        0.713006   0.000000
  114        0.959171   0.000000
  115        1.042418   0.000000
  116        1.218403   0.000000
  117        1.348611   0.000000
  118        1.788682   0.000000
  119        1.957268   0.000000
  120        2.284219   0.000000
 
  0.2500000E+00  0.1250000E+00  0.0000000E+00  0.3125000E-01
    1      -17.691898   1.000000
    2      -17.115010   1.000000
    3      -16.845820   1.000000
    4      -16.702199   1.000000
    5      -16.528919   1.000000
    6      -16.471393   1.000000
    7      -16.333399   1.000000
    8      -16.278061   1.000000
    9      -16.213874   1.000000
   10      -16.072071   1.000000
   11      -15.949329   1.000000
   12      -15.839317   1.000000
   13      -15.785162   1.000000
   14      -15.589355   1.000000
   15      -15.551776   1.000000
   16      -15.443789   1.000000
   17      -15.325794   1.000000
   18      -15.244915   1.000000
   19       -9.712234   1.000000
   20       -9.440318   1.000000
   21       -9.224990   1.000000
   22       -9.157455   1.000000
   23       -8.796020   1.000000
   24       -8.731845   1.000000
   25       -8.566299   1.000000
   26       -8.540953   1.000000
   27       -8.474738   1.000000
   28       -8.372328   1.000000
   29       -8.318672   1.000000
   30       -8.253260   1.000000
   31       -8.149348   1.000000
   32       -8.144235   1.000000
   33       -7.973973   1.000000
   34       -7.908241   1.000000
   35       -7.802483   1.000000
   36       -7.541830   1.000000
   37       -7.486348   1.000000
   38       -7.417222   1.000000
   39       -7.384388   1.000000
   40       -7.336528   1.000000
   41       -7.230075   1.000000
   42       -7.193707   1.000000
   43       -7.128256   1.000000
   44       -6.971651   1.000000
   45       -6.900899   1.000000
   46       -6.881529   1.000000
   47       -6.775887   1.000000