       N       E                     dE             d eps       ncg     rms          rms(c)
DAV:   1     0.112438297966E+04    0.11244E+04   -0.35855E+04  8160   0.577E+02
DAV:   2     0.204885531730E+00   -0.11242E+04   -0.10813E+04 10920   0.173E+02
DAV:   3    -0.199449379010E+03   -0.19965E+03   -0.19105E+03 10920   0.822E+01
DAV:   4    -0.208984184707E+03   -0.95348E+01   -0.92133E+01 12200   0.263E+01
DAV:   5    -0.209313527500E+03   -0.32934E+00   -0.32833E+00 11600   0.360E+00    0.275E+01
DAV:   6    -0.237220300116E+03   -0.27907E+02   -0.10622E+02 12680   0.605E+01    0.595E+01
DAV:   7    -0.196473657044E+03    0.40747E+02   -0.17618E+02 13120   0.152E+02    0.200E+01
DAV:   8    -0.189424004947E+03    0.70497E+01   -0.17547E+01 11880   0.127E+01    0.125E+01
DAV:   9    -0.188228494319E+03    0.11955E+01   -0.35800E+00 12480   0.614E+00    0.929E+00
DAV:  10    -0.187079354813E+03    0.11491E+01   -0.20063E+00 13280   0.732E+00    0.319E+00
DAV:  11    -0.187029795970E+03    0.49559E-01   -0.72213E-01 13520   0.321E+00    0.342E+00
DAV:  12    -0.187173742841E+03   -0.14395E+00   -0.11487E+00 12680   0.556E+00    0.487E+00
DAV:  13    -0.186926952172E+03    0.24679E+00   -0.49582E-01 13200   0.360E+00    0.215E+00
DAV:  14    -0.186879732368E+03    0.47220E-01   -0.11145E-01 13480   0.163E+00    0.777E-01
DAV:  15    -0.186881677733E+03   -0.19454E-02   -0.42045E-02 12440   0.119E+00    0.118E+00
DAV:  16    -0.186872609572E+03    0.90682E-02   -0.20806E-02 13240   0.813E-01    0.565E-01
DAV:  17    -0.186869276493E+03    0.33331E-02   -0.98726E-03 12720   0.519E-01    0.220E-01
DAV:  18    -0.186869085518E+03    0.19097E-03   -0.20527E-03 11920   0.150E-01    0.153E-01
DAV:  19    -0.186868737690E+03    0.34783E-03   -0.89805E-04 11240   0.104E-01    0.510E-02
DAV:  20    -0.186869504544E+03   -0.76685E-03   -0.74323E-04  9320   0.627E-02    0.539E-02
DAV:  21    -0.186870109195E+03   -0.60465E-03   -0.20902E-04  8160   0.455E-02    0.323E-02
DAV:  22    -0.186871218270E+03   -0.11091E-02   -0.17899E-04  7520   0.419E-02    0.331E-02
DAV:  23    -0.186872446184E+03   -0.12279E-02   -0.13146E-04  7520   0.409E-02    0.120E-02
DAV:  24    -0.186873031742E+03   -0.58556E-03   -0.25110E-05  6800   0.134E-02    0.757E-03
DAV:  25    -0.186873410729E+03   -0.37899E-03   -0.15797E-05  5520   0.118E-02    0.489E-03
DAV:  26    -0.186873629131E+03   -0.21840E-03   -0.82852E-06  6840   0.713E-03    0.209E-03
DAV:  27    -0.186873733117E+03   -0.10399E-03   -0.38396E-06  6920   0.408E-03    0.127E-03
DAV:  28    -0.186873783406E+03   -0.50289E-04   -0.21004E-06  7160   0.299E-03
   1 F= -.18687378E+03 E0= -.18670211E+03  d E =-.186874E+03
       N       E                     dE             d eps       ncg     rms          rms(c)
DAV:   1    -0.187499216472E+03   -0.62548E+00   -0.27028E+02  8160   0.349E+01    0.465E+00
DAV:   2    -0.189500359608E+03   -0.20011E+01   -0.20289E+01 12240   0.156E+01    0.984E+00
DAV:   3    -0.189340577801E+03    0.15978E+00   -0.49346E+00 12440   0.126E+01    0.629E+00
DAV:   4    -0.188767371110E+03    0.57321E+00   -0.56110E-01 11920   0.439E+00    0.201E+00
DAV:   5    -0.188899809884E+03   -0.13244E+00   -0.48351E-01 12160   0.390E+00    0.550E+00
DAV:   6    -0.188742604674E+03    0.15721E+00   -0.78774E-01 12680   0.436E+00    0.229E+00
DAV:   7    -0.188712079340E+03    0.30525E-01   -0.21119E-01 11680   0.214E+00    0.202E+00
DAV:   8    -0.188695592515E+03    0.16487E-01   -0.11982E-01 12880   0.208E+00    0.174E+00
DAV:   9    -0.188670399244E+03    0.25193E-01   -0.48145E-02 11960   0.113E+00    0.506E-01
DAV:  10    -0.188668723522E+03    0.16757E-02   -0.58579E-03 11160   0.273E-01    0.259E-01
DAV:  11    -0.188668171600E+03    0.55192E-03   -0.28820E-03 13120   0.222E-01    0.139E-01
DAV:  12    -0.188668109226E+03    0.62373E-04   -0.10824E-03 11800   0.103E-01    0.104E-01
DAV:  13    -0.188668089908E+03    0.19318E-04   -0.27229E-04  7520   0.677E-02
   2 F= -.18866809E+03 E0= -.18852822E+03  d E =-.179431E+01
       N       E                     dE             d eps       ncg     rms          rms(c)
DAV:   1    -0.190590506053E+03   -0.19224E+01   -0.31015E+01  9200   0.142E+01    0.446E+00
DAV:   2    -0.190573120651E+03    0.17385E-01   -0.28211E+00 11120   0.969E+00    0.741E+00
DAV:   3    -0.190062427880E+03    0.51069E+00   -0.13093E+00 12280   0.867E+00    0.416E+00
DAV:   4    -0.189856198573E+03    0.20623E+00   -0.68901E-01 12760   0.413E+00    0.248E+00
DAV:   5    -0.189792306222E+03    0.63892E-01   -0.31333E-01 11080   0.237E+00    0.202E+00
DAV:   6    -0.189759770287E+03    0.32536E-01   -0.10680E-01 12720   0.195E+00    0.840E-01
DAV:   7    -0.189752325405E+03    0.74449E-02   -0.14938E-02 12520   0.585E-01    0.195E-01
DAV:   8    -0.189752341305E+03   -0.15900E-04   -0.26841E-03 10240   0.157E-01    0.138E-01
DAV:   9    -0.189752559735E+03   -0.21843E-03   -0.10294E-03 10480   0.104E-01    0.128E-01
DAV:  10    -0.189752430434E+03    0.12930E-03   -0.51647E-04  9040   0.825E-02    0.300E-02
DAV:  11    -0.189752446554E+03   -0.16120E-04   -0.98785E-05  7000   0.425E-02
   3 F= -.18975245E+03 E0= -.18963511E+03  d E =-.108436E+01
       N       E                     dE             d eps       ncg     rms          rms(c)
DAV:   1    -0.191296732540E+03   -0.15443E+01   -0.71120E+01  8160   0.193E+01    0.461E+00
DAV:   2    -0.191186413386E+03    0.11032E+00   -0.54085E+00 13400   0.838E+00    0.519E+00
DAV:   3    -0.191236446433E+03   -0.50033E-01   -0.15765E+00 11800   0.922E+00    0.686E+00
DAV:   4    -0.190907473806E+03    0.32897E+00   -0.15625E+00 12600   0.786E+00    0.408E+00
DAV:   5    -0.190896441612E+03    0.11032E-01   -0.86421E-01 11200   0.587E+00    0.360E+00
DAV:   6    -0.190713060188E+03    0.18338E+00   -0.20634E-01 11160   0.298E+00    0.604E-01
DAV:   7    -0.190712027433E+03    0.10328E-02   -0.37522E-02 11360   0.737E-01    0.506E-01
DAV:   8    -0.190710583814E+03    0.14436E-02   -0.11816E-02 11440   0.688E-01    0.516E-01
DAV:   9    -0.190708205180E+03    0.23786E-02   -0.40722E-03 11200   0.472E-01    0.146E-01
DAV:  10    -0.190708441233E+03   -0.23605E-03   -0.10994E-03 10480   0.128E-01    0.919E-02
DAV:  11    -0.190708359391E+03    0.81841E-04   -0.52926E-04  9480   0.812E-02
   4 F= -.19070836E+03 E0= -.19060997E+03  d E =-.955913E+00
       N       E                     dE             d eps       ncg     rms          rms(c)
DAV:   1    -0.192132006718E+03   -0.14236E+01   -0.14772E+02  8160   0.273E+01    0.583E+00
DAV:   2    -0.191961025857E+03    0.17098E+00   -0.96966E+00 12200   0.951E+00    0.554E+00
DAV:   3    -0.192410488113E+03   -0.44946E+00   -0.33128E+00 12240   0.126E+01    0.944E+00
DAV:   4    -0.191539481937E+03    0.87101E+00   -0.21972E+00 12280   0.106E+01    0.302E+00
DAV:   5    -0.191509827866E+03    0.29654E-01   -0.54572E-01 11840   0.486E+00    0.414E+00
DAV:   6    -0.191372965199E+03    0.13686E+00   -0.58745E-01 12200   0.513E+00    0.159E+00
DAV:   7    -0.191348304495E+03    0.24661E-01   -0.69663E-02 11920   0.145E+00    0.677E-01
DAV:   8    -0.191346922423E+03    0.13821E-02   -0.24089E-02 12080   0.109E+00    0.747E-01
DAV:   9    -0.191341465154E+03    0.54573E-02   -0.97546E-03 11440   0.744E-01    0.231E-01
DAV:  10    -0.191341588248E+03   -0.12309E-03   -0.27459E-03 11520   0.225E-01    0.119E-01
DAV:  11    -0.191341447350E+03    0.14090E-03   -0.87071E-04 10720   0.108E-01    0.656E-02
DAV:  12    -0.191341413778E+03    0.33572E-04   -0.13959E-04  7200   0.475E-02
   5 F= -.19134141E+03 E0= -.19124827E+03  d E =-.633054E+00
       N       E                     dE             d eps       ncg     rms          rms(c)
DAV:   1    -0.191388276725E+03   -0.46829E-01   -0.35430E+00  8160   0.400E+00    0.595E-01
DAV:   2    -0.191446771934E+03   -0.58495E-01   -0.22627E-01 12400   0.279E+00    0.229E+00
DAV:   3    -0.191397134722E+03    0.49637E-01   -0.10648E-01 12080   0.224E+00    0.479E-01
DAV:   4    -0.191397449740E+03   -0.31502E-03   -0.13231E-02 11480   0.786E-01    0.537E-01
DAV:   5    -0.191394514781E+03    0.29350E-02   -0.58855E-03 11520   0.548E-01    0.178E-01
DAV:   6    -0.191394631955E+03   -0.11717E-03   -0.20746E-03 11480   0.285E-01    0.227E-01
DAV:   7    -0.191394489379E+03    0.14258E-03   -0.21898E-03 10960   0.351E-01    0.182E-01
DAV:   8    -0.191394093227E+03    0.39615E-03   -0.67211E-04  9080   0.170E-01    0.273E-02
DAV:   9    -0.191394108702E+03   -0.15475E-04   -0.89416E-05  6400   0.360E-02
   6 F= -.19139411E+03 E0= -.19129860E+03  d E =-.526949E-01
       N       E                     dE             d eps       ncg     rms          rms(c)
DAV:   1    -0.191463905608E+03   -0.69812E-01   -0.10291E+01  8160   0.678E+00    0.901E-01
DAV:   2    -0.191564909266E+03   -0.10100E+00   -0.41624E-01 12520   0.314E+00    0.322E+00
DAV:   3    -0.191479223689E+03    0.85686E-01   -0.26976E-01 11960   0.324E+00    0.893E-01
DAV:   4    -0.191478657349E+03    0.56634E-03   -0.35977E-02 11440   0.126E+00    0.904E-01
DAV:   5    -0.191470244381E+03    0.84130E-02   -0.17851E-02 11680   0.980E-01    0.330E-01
DAV:   6    -0.191470079332E+03    0.16505E-03   -0.62230E-03 11440   0.501E-01    0.369E-01
DAV:   7    -0.191469460716E+03    0.61862E-03   -0.54823E-03 11200   0.560E-01    0.268E-01
DAV:   8    -0.191468637296E+03    0.82342E-03   -0.15862E-03 10320   0.269E-01    0.506E-02
DAV:   9    -0.191468614438E+03    0.22858E-04   -0.17363E-04  6720   0.566E-02
   7 F= -.19146861E+03 E0= -.19137122E+03  d E =-.745057E-01
       N       E                     dE             d eps       ncg     rms          rms(c)
DAV:   1    -0.191478953747E+03   -0.10316E-01   -0.22237E-01  8160   0.109E+00    0.252E-01
DAV:   2    -0.191479568319E+03   -0.61457E-03   -0.14929E-02 11480   0.553E-01    0.426E-01
DAV:   3    -0.191478196191E+03    0.13721E-02   -0.67593E-03 11480   0.602E-01    0.255E-01
DAV:   4    -0.191477932772E+03    0.26342E-03   -0.31733E-03 11200   0.364E-01    0.259E-01
DAV:   5    -0.191477459094E+03    0.47368E-03   -0.22631E-03  9720   0.338E-01    0.164E-01
DAV:   6    -0.191477203013E+03    0.25608E-03   -0.85397E-04  9480   0.180E-01    0.816E-02
DAV:   7    -0.191477165104E+03    0.37909E-04   -0.26634E-04  6720   0.116E-01
   8 F= -.19147717E+03 E0= -.19137948E+03  d E =-.855067E-02
       N       E                     dE             d eps       ncg     rms          rms(c)
DAV:   1    -0.191519167248E+03   -0.41964E-01   -0.34721E+00  8160   0.396E+00    0.511E-01
DAV:   2    -0.191555667100E+03   -0.36500E-01   -0.14513E-01 13160   0.205E+00    0.188E+00
DAV:   3    -0.191524357531E+03    0.31310E-01   -0.78722E-02 12040   0.184E+00    0.453E-01
DAV:   4    -0.191524834271E+03   -0.47674E-03   -0.10957E-02 11480   0.700E-01    0.516E-01
DAV:   5    -0.191522211551E+03    0.26227E-02   -0.58305E-03 11560   0.544E-01    0.187E-01
DAV:   6    -0.191522222159E+03   -0.10607E-04   -0.20028E-03 10520   0.297E-01    0.213E-01
DAV:   7    -0.191522037539E+03    0.18462E-03   -0.17968E-03 10200   0.323E-01    0.151E-01
DAV:   8    -0.191521742329E+03    0.29521E-03   -0.51000E-04  8400   0.154E-01    0.270E-02
DAV:   9    -0.191521739755E+03    0.25743E-05   -0.70437E-05  6800   0.355E-02
   9 F= -.19152174E+03 E0= -.19142412E+03  d E =-.445747E-01
       N       E                     dE             d eps       ncg     rms          rms(c)
DAV:   1    -0.191531558467E+03   -0.98161E-02   -0.16684E-01  8160   0.877E-01    0.123E-01
DAV:   2    -0.191533447274E+03   -0.18888E-02   -0.82110E-03 12640   0.500E-01    0.410E-01
DAV:   3    -0.191531782292E+03    0.16650E-02   -0.35242E-03 11560   0.416E-01    0.992E-02
DAV:   4    -0.191531855037E+03   -0.72745E-04   -0.60546E-04  8320   0.170E-01
  10 F= -.19153186E+03 E0= -.19143434E+03  d E =-.101153E-01
       N       E                     dE             d eps       ncg     rms          rms(c)
DAV:   1    -0.191552168669E+03   -0.20386E-01   -0.72934E-01  8160   0.185E+00    0.274E-01
DAV:   2    -0.191561861417E+03   -0.96927E-02   -0.38168E-02 12200   0.106E+00    0.101E+00
DAV:   3    -0.191552994657E+03    0.88668E-02   -0.21398E-02 10840   0.932E-01    0.223E-01
DAV:   4    -0.191553092924E+03   -0.98267E-04   -0.27622E-03 11240   0.349E-01    0.253E-01
DAV:   5    -0.191552460081E+03    0.63284E-03   -0.16382E-03 10480   0.299E-01    0.115E-01
DAV:   6    -0.191552400434E+03    0.59647E-04   -0.68400E-04  9520   0.165E-01
  11 F= -.19155240E+03 E0= -.19145535E+03  d E =-.205454E-01
       N       E                     dE             d eps       ncg     rms          rms(c)
DAV:   1    -0.191586330532E+03   -0.33870E-01   -0.33149E+00  8160   0.388E+00    0.585E-01
DAV:   2    -0.191658957822E+03   -0.72627E-01   -0.21620E-01 11960   0.267E+00    0.299E+00
DAV:   3    -0.191591278525E+03    0.67679E-01   -0.16726E-01 11640   0.240E+00    0.374E-01
DAV:   4    -0.191591811849E+03   -0.53332E-03   -0.86737E-03 11520   0.649E-01    0.484E-01
DAV:   5    -0.191589455520E+03    0.23563E-02   -0.56983E-03 11720   0.604E-01    0.203E-01
DAV:   6    -0.191589275806E+03    0.17971E-03   -0.19263E-03 10400   0.273E-01    0.158E-01
DAV:   7    -0.191589339333E+03   -0.63527E-04   -0.14739E-03 10600   0.302E-01    0.173E-01
DAV:   8    -0.191588934845E+03    0.40449E-03   -0.52906E-04  8520   0.171E-01    0.229E-02
DAV:   9    -0.191588942417E+03   -0.75720E-05   -0.67057E-05  5640   0.309E-02
  12 F= -.19158894E+03 E0= -.19149398E+03  d E =-.365420E-01
       N       E                     dE             d eps       ncg     rms          rms(c)
DAV:   1    -0.191594179217E+03   -0.52444E-02   -0.97306E-01  8160   0.209E+00    0.394E-01
DAV:   2    -0.191629198158E+03   -0.35019E-01   -0.99807E-02 12240   0.211E+00    0.184E+00
DAV:   3    -0.191594992549E+03    0.34206E-01   -0.51470E-02 11600   0.167E+00    0.185E-01
DAV:   4    -0.191595095086E+03   -0.10254E-03   -0.27901E-03 11400   0.334E-01    0.235E-01
DAV:   5    -0.191594607226E+03    0.48786E-03   -0.13706E-03 10560   0.277E-01    0.124E-01
DAV:   6    -0.191594459317E+03    0.14791E-03   -0.47804E-04  8680   0.125E-01    0.782E-02
DAV:   7    -0.191594569256E+03   -0.10994E-03   -0.58695E-04  9720   0.185E-01    0.129E-01
DAV:   8    -0.191594376907E+03    0.19235E-03   -0.30565E-04  7080   0.135E-01    0.204E-02
DAV:   9    -0.191594384415E+03   -0.75077E-05   -0.36677E-05  5680   0.242E-02
  13 F= -.19159438E+03 E0= -.19149928E+03  d E =-.544200E-02
       N       E                     dE             d eps       ncg     rms          rms(c)
DAV:   1    -0.191636135222E+03   -0.41758E-01   -0.31524E+00  8160   0.379E+00    0.409E-01
DAV:   2    -0.191649067514E+03   -0.12932E-01   -0.10040E-01 13080   0.126E+00    0.931E-01
DAV:   3    -0.191642389152E+03    0.66784E-02   -0.29404E-02 12040   0.114E+00    0.465E-01
DAV:   4    -0.191641599722E+03    0.78943E-03   -0.71797E-03 11200   0.575E-01    0.396E-01
DAV:   5    -0.191640016197E+03    0.15835E-02   -0.37499E-03 11240   0.472E-01    0.180E-01
DAV:   6    -0.191640024424E+03   -0.82264E-05   -0.18524E-03 10600   0.263E-01    0.171E-01
DAV:   7    -0.191639996614E+03    0.27810E-04   -0.14906E-03 10240   0.298E-01    0.169E-01
DAV:   8    -0.191639633489E+03    0.36313E-03   -0.51887E-04  8200   0.177E-01    0.219E-02
DAV:   9    -0.191639638852E+03   -0.53633E-05   -0.51901E-05  6360   0.289E-02
  14 F= -.19163964E+03 E0= -.19154753E+03  d E =-.452544E-01
       N       E                     dE             d eps       ncg     rms          rms(c)
DAV:   1    -0.191579673554E+03    0.59960E-01   -0.47617E+00  8160   0.466E+00    0.481E-01
DAV:   2    -0.191592292928E+03   -0.12619E-01   -0.13911E-01 12480   0.122E+00    0.728E-01
DAV:   3    -0.191590332585E+03    0.19603E-02   -0.27103E-02 12080   0.116E+00    0.700E-01
DAV:   4    -0.191587203744E+03    0.31288E-02   -0.13981E-02 12240   0.733E-01    0.429E-01
DAV:   5    -0.191585645780E+03    0.15580E-02   -0.54787E-03 11040   0.530E-01    0.249E-01
DAV:   6    -0.191585444107E+03    0.20167E-03   -0.30106E-03 10880   0.343E-01    0.192E-01
DAV:   7    -0.191585480525E+03   -0.36419E-04   -0.20285E-03 11240   0.335E-01    0.217E-01
DAV:   8    -0.191584924580E+03    0.55595E-03   -0.80973E-04  9160   0.225E-01    0.278E-02
DAV:   9    -0.191584934082E+03   -0.95019E-05   -0.63843E-05  6520   0.330E-02
  15 F= -.19158493E+03 E0= -.19148943E+03  d E =0.547048E-01
       N       E                     dE             d eps       ncg     rms          rms(c)
DAV:   1    -0.191586847179E+03   -0.19226E-02   -0.12385E+00  8160   0.242E+00    0.356E-01
DAV:   2    -0.191604370500E+03   -0.17523E-01   -0.61732E-02 12560   0.140E+00    0.138E+00
DAV:   3    -0.191587799433E+03    0.16571E-01   -0.35850E-02 12120   0.125E+00    0.267E-01
DAV:   4    -0.191588595805E+03   -0.79637E-03   -0.52883E-03 11200   0.482E-01    0.394E-01
DAV:   5    -0.191587094902E+03    0.15009E-02   -0.36742E-03 10480   0.446E-01    0.152E-01
DAV:   6    -0.191586893641E+03    0.20126E-03   -0.97983E-04 10040   0.178E-01    0.829E-02
DAV:   7    -0.191586907525E+03   -0.13884E-04   -0.48701E-04 10160   0.164E-01
  16 F= -.19158691E+03 E0= -.19149219E+03  d E =-.197344E-02
       N       E                     dE             d eps       ncg     rms          rms(c)
DAV:   1    -0.191581755477E+03    0.51382E-02   -0.16400E+00  8160   0.278E+00    0.368E-01
DAV:   2    -0.191590528260E+03   -0.87728E-02   -0.56276E-02 12280   0.117E+00    0.886E-01
DAV:   3    -0.191583752246E+03    0.67760E-02   -0.20547E-02 12440   0.105E+00    0.406E-01
DAV:   4    -0.191583373229E+03    0.37902E-03   -0.56292E-03 10720   0.514E-01    0.364E-01
DAV:   5    -0.191582252684E+03    0.11205E-02   -0.37288E-03 10560   0.469E-01    0.208E-01
DAV:   6    -0.191582017427E+03    0.23526E-03   -0.17559E-03 10680   0.282E-01    0.154E-01
DAV:   7    -0.191581959032E+03    0.58394E-04   -0.11561E-03 10320   0.257E-01    0.141E-01
DAV:   8    -0.191581720157E+03    0.23888E-03   -0.39137E-04  8520   0.141E-01    0.223E-02
DAV:   9    -0.191581720844E+03   -0.68770E-06   -0.38749E-05  6000   0.256E-02
  17 F= -.19158172E+03 E0= -.19148841E+03  d E =0.518668E-02
       N       E                     dE             d eps       ncg     rms          rms(c)
DAV:   1    -0.191614108231E+03   -0.32388E-01   -0.36461E+00  8160   0.410E+00    0.476E-01
DAV:   2    -0.191629435651E+03   -0.15327E-01   -0.12142E-01 13240   0.142E+00    0.103E+00
DAV:   3    -0.191621076719E+03    0.83589E-02   -0.34994E-02 12080   0.129E+00    0.547E-01
DAV:   4    -0.191620151859E+03    0.92486E-03   -0.11191E-02 12320   0.707E-01    0.501E-01
DAV:   5    -0.191617733751E+03    0.24181E-02   -0.62521E-03 11600   0.583E-01    0.226E-01
DAV:   6    -0.191617502148E+03    0.23160E-03   -0.26391E-03 10320   0.305E-01    0.180E-01
DAV:   7    -0.191617602829E+03   -0.10068E-03   -0.19492E-03 10720   0.344E-01    0.211E-01
DAV:   8    -0.191617059241E+03    0.54359E-03   -0.77836E-04  9200   0.222E-01    0.288E-02
DAV:   9    -0.191617058536E+03    0.70526E-06   -0.62107E-05  6280   0.331E-02
  18 F= -.19161706E+03 E0= -.19152431E+03  d E =-.353377E-01
       N       E                     dE             d eps       ncg     rms          rms(c)
DAV:   1    -0.191652085712E+03   -0.35026E-01   -0.31077E+00  8160   0.377E+00    0.428E-01
DAV:   2    -0.191668156478E+03   -0.16071E-01   -0.10739E-01 13000   0.138E+00    0.115E+00
DAV:   3    -0.191658012241E+03    0.10144E-01   -0.35689E-02 12040   0.124E+00    0.450E-01
DAV:   4    -0.191657498169E+03    0.51407E-03   -0.74378E-03 11280   0.589E-01    0.414E-01
DAV:   5    -0.191655700994E+03    0.17972E-02   -0.40906E-03 10800   0.495E-01    0.181E-01
DAV:   6    -0.191655745191E+03   -0.44197E-04   -0.19693E-03 11440   0.277E-01    0.181E-01
DAV:   7    -0.191655619627E+03    0.12556E-03   -0.14350E-03 10360   0.302E-01    0.155E-01
DAV:   8    -0.191655303472E+03    0.31616E-03   -0.45731E-04  8840   0.168E-01    0.234E-02
DAV:   9    -0.191655301911E+03    0.15609E-05   -0.50496E-05  6400   0.293E-02
  19 F= -.19165530E+03 E0= -.19156498E+03  d E =-.382434E-01
       N       E                     dE             d eps       ncg     rms          rms(c)
DAV:   1    -0.191658797703E+03   -0.34942E-02   -0.31216E-02  8160   0.383E-01    0.540E-02
DAV:   2    -0.191659107918E+03   -0.31022E-03   -0.15734E-03 12400   0.196E-01    0.172E-01
DAV:   3    -0.191658838972E+03    0.26895E-03   -0.58574E-04  8240   0.168E-01    0.448E-02
DAV:   4    -0.191658846908E+03   -0.79358E-05   -0.89119E-05  5520   0.690E-02
  20 F= -.19165885E+03 E0= -.19156887E+03  d E =-.354500E-02
       N       E                     dE             d eps       ncg     rms          rms(c)
DAV:   1    -0.191663976881E+03   -0.51379E-02   -0.50693E-01  8160   0.158E+00    0.305E-01
DAV:   2    -0.191672100524E+03   -0.81236E-02   -0.33202E-02 11960   0.118E+00    0.901E-01
DAV:   3    -0.191662870454E+03    0.92301E-02   -0.14719E-02 12120   0.962E-01    0.179E-01
DAV:   4    -0.191663366051E+03   -0.49560E-03   -0.28943E-03 10920   0.387E-01    0.299E-01
DAV:   5    -0.191662732395E+03    0.63366E-03   -0.27183E-03 10200   0.401E-01    0.208E-01
DAV:   6    -0.191662409553E+03    0.32284E-03   -0.13748E-03  9520   0.244E-01    0.128E-01
DAV:   7    -0.191662288477E+03    0.12108E-03   -0.52543E-04  8400   0.170E-01    0.642E-02
DAV:   8    -0.191662243300E+03    0.45176E-04   -0.91397E-05  6800   0.657E-02
  21 F= -.19166224E+03 E0= -.19157231E+03  d E =-.339639E-02
       N       E                     dE             d eps       ncg     rms          rms(c)
DAV:   1    -0.191668385155E+03   -0.60967E-02   -0.31808E-01  8160   0.122E+00    0.181E-01
DAV:   2    -0.191672563125E+03   -0.41780E-02   -0.15799E-02 12240   0.736E-01    0.635E-01
DAV:   3    -0.191668592664E+03    0.39705E-02   -0.74044E-03 11760   0.631E-01    0.126E-01
DAV:   4    -0.191668904423E+03   -0.31176E-03   -0.13282E-03  9960   0.252E-01    0.215E-01
DAV:   5    -0.191668446254E+03    0.45817E-03   -0.96022E-04  8960   0.229E-01    0.672E-02
DAV:   6    -0.191668447762E+03   -0.15085E-05   -0.23366E-04  6600   0.101E-01
  22 F= -.19166845E+03 E0= -.19157921E+03  d E =-.620446E-02
       N       E                     dE             d eps       ncg     rms          rms(c)
DAV:   1    -0.191698677344E+03   -0.30231E-01   -0.22369E+00  8160   0.327E+00    0.432E-01
DAV:   2    -0.191709817449E+03   -0.11140E-01   -0.84429E-02 12560   0.135E+00    0.917E-01
DAV:   3    -0.191701847097E+03    0.79704E-02   -0.22435E-02 11920   0.121E+00    0.410E-01
DAV:   4    -0.191701386446E+03    0.46065E-03   -0.69003E-03 11400   0.576E-01    0.401E-01
DAV:   5    -0.191700101292E+03    0.12852E-02   -0.47336E-03 10280   0.504E-01    0.259E-01
DAV:   6    -0.191699720948E+03    0.38034E-03   -0.28268E-03 11280   0.340E-01    0.187E-01
DAV:   7    -0.191699690293E+03    0.30655E-04   -0.17675E-03  9840   0.319E-01    0.181E-01
DAV:   8    -0.191699274356E+03    0.41594E-03   -0.61721E-04  9480   0.181E-01    0.256E-02
DAV:   9    -0.191699270013E+03    0.43427E-05   -0.51101E-05  6160   0.279E-02
  23 F= -.19169927E+03 E0= -.19161184E+03  d E =-.308223E-01
       N       E                     dE             d eps       ncg     rms          rms(c)
DAV:   1    -0.191726190900E+03   -0.26917E-01   -0.15461E+00  8160   0.264E+00    0.266E-01
DAV:   2    -0.191731145393E+03   -0.49545E-02   -0.46713E-02 11840   0.768E-01    0.506E-01
DAV:   3    -0.191729561006E+03    0.15844E-02   -0.97133E-03 12520   0.706E-01    0.326E-01
DAV:   4    -0.191728709265E+03    0.85174E-03   -0.22991E-03 11000   0.324E-01    0.187E-01
DAV:   5    -0.191728536909E+03    0.17236E-03   -0.13701E-03 10200   0.293E-01    0.154E-01
DAV:   6    -0.191728405794E+03    0.13111E-03   -0.83827E-04 10360   0.181E-01    0.736E-02
DAV:   7    -0.191728298655E+03    0.10714E-03   -0.24411E-04  6880   0.740E-02    0.207E-02
DAV:   8    -0.191728299496E+03   -0.84162E-06   -0.47851E-05  7920   0.446E-02
  24 F= -.19172830E+03 E0= -.19164359E+03  d E =-.290295E-01
       N       E                     dE             d eps       ncg     rms          rms(c)
DAV:   1    -0.191757630371E+03   -0.29332E-01   -0.12960E+00  8160   0.244E+00    0.273E-01
DAV:   2    -0.191762129941E+03   -0.44996E-02   -0.41491E-02 11840   0.790E-01    0.521E-01
DAV:   3    -0.191759881338E+03    0.22486E-02   -0.91847E-03 12400   0.702E-01    0.285E-01
DAV:   4    -0.191759555507E+03    0.32583E-03   -0.28723E-03 11400   0.374E-01    0.236E-01
DAV:   5    -0.191759118008E+03    0.43750E-03   -0.16180E-03  9960   0.329E-01    0.154E-01
DAV:   6    -0.191759000503E+03    0.11750E-03   -0.82309E-04 10360   0.200E-01    0.102E-01
DAV:   7    -0.191758997003E+03    0.35004E-05   -0.53679E-04  8960   0.190E-01
  25 F= -.19175900E+03 E0= -.19167684E+03  d E =-.306975E-01
       N       E                     dE             d eps       ncg     rms          rms(c)
DAV:   1    -0.191756648644E+03    0.23519E-02   -0.20855E-01  8160   0.999E-01    0.150E-01
DAV:   2    -0.191759607767E+03   -0.29591E-02   -0.98553E-03 12280   0.582E-01    0.554E-01
DAV:   3    -0.191756734555E+03    0.28732E-02   -0.53486E-03 11160   0.524E-01    0.967E-02
DAV:   4    -0.191756848124E+03   -0.11357E-03   -0.55665E-04  8720   0.169E-01    0.132E-01
DAV:   5    -0.191756661468E+03    0.18666E-03   -0.40127E-04  8840   0.167E-01    0.539E-02
DAV:   6    -0.191756664845E+03   -0.33772E-05   -0.11873E-04  5880   0.839E-02
  26 F= -.19175666E+03 E0= -.19167463E+03  d E =0.233216E-02
       N       E                     dE             d eps       ncg     rms          rms(c)
DAV:   1    -0.191801401489E+03   -0.44740E-01   -0.32936E+00  8160   0.392E+00    0.479E-01
DAV:   2    -0.191807877869E+03   -0.64764E-02   -0.11397E-01 12600   0.113E+00    0.528E-01
DAV:   3    -0.191807461020E+03    0.41685E-03   -0.15827E-02 12240   0.103E+00    0.527E-01
DAV:   4    -0.191804042589E+03    0.34184E-02   -0.71323E-03 11880   0.683E-01    0.273E-01
DAV:   5    -0.191804349984E+03   -0.30739E-03   -0.48739E-03 11440   0.506E-01    0.363E-01
DAV:   6    -0.191803282443E+03    0.10675E-02   -0.32976E-03 11240   0.452E-01    0.166E-01
DAV:   7    -0.191803010160E+03    0.27228E-03   -0.93417E-04  9680   0.198E-01    0.995E-02
DAV:   8    -0.191802923634E+03    0.86526E-04   -0.30560E-04  8400   0.141E-01
  27 F= -.19180292E+03 E0= -.19172400E+03  d E =-.462588E-01
       N       E                     dE             d eps       ncg     rms          rms(c)
DAV:   1    -0.191829964749E+03   -0.26955E-01   -0.96251E-01  8160   0.212E+00    0.290E-01
DAV:   2    -0.191836398878E+03   -0.64341E-02   -0.41100E-02 11480   0.101E+00    0.707E-01
DAV:   3    -0.191831203981E+03    0.51949E-02   -0.10652E-02 12040   0.816E-01    0.223E-01
DAV:   4    -0.191831276338E+03   -0.72357E-04   -0.24079E-03 11120   0.378E-01    0.254E-01
DAV:   5    -0.191830691173E+03    0.58517E-03   -0.15878E-03 10040   0.352E-01    0.141E-01
DAV:   6    -0.191830585198E+03    0.10598E-03   -0.74672E-04 11240   0.179E-01    0.941E-02
DAV:   7    -0.191830560337E+03    0.24861E-04   -0.45293E-04  9200   0.177E-01
  28 F= -.19183056E+03 E0= -.19175397E+03  d E =-.276367E-01
       N       E                     dE             d eps       ncg     rms          rms(c)
DAV:   1    -0.191870313847E+03   -0.39729E-01   -0.23570E+00  8160   0.328E+00    0.368E-01
DAV:   2    -0.191879462925E+03   -0.91491E-02   -0.79237E-02 12040   0.106E+00    0.700E-01
DAV:   3    -0.191875321980E+03    0.41409E-02   -0.15328E-02 11960   0.982E-01    0.399E-01
DAV:   4    -0.191874074211E+03    0.12478E-02   -0.37690E-03 11680   0.442E-01    0.217E-01
DAV:   5    -0.191873726498E+03    0.34771E-03   -0.18891E-03 10720   0.352E-01    0.180E-01
DAV:   6    -0.191873620010E+03    0.10649E-03   -0.11949E-03 10920   0.268E-01    0.129E-01
DAV:   7    -0.191873472535E+03    0.14748E-03   -0.66021E-04  9640   0.192E-01    0.970E-02
DAV:   8    -0.191873361149E+03    0.11139E-03   -0.17506E-04  7480   0.116E-01    0.208E-02
DAV:   9    -0.191873361009E+03    0.14021E-06   -0.32314E-05  6520   0.286E-02
  29 F= -.19187336E+03 E0= -.19179954E+03  d E =-.428007E-01
       N       E                     dE             d eps       ncg     rms          rms(c)
DAV:   1    -0.191949889556E+03   -0.76528E-01   -0.12497E+01  8160   0.756E+00    0.857E-01
DAV:   2    -0.192005124576E+03   -0.55235E-01   -0.43253E-01 11800   0.268E+00    0.170E+00
DAV:   3    -0.191975370172E+03    0.29754E-01   -0.78517E-02 12320   0.236E+00    0.771E-01
DAV:   4    -0.191970339760E+03    0.50304E-02   -0.16014E-02 12400   0.939E-01    0.473E-01
DAV:   5    -0.191968670653E+03    0.16691E-02   -0.85566E-03 12200   0.792E-01    0.390E-01
DAV:   6    -0.191968176596E+03    0.49406E-03   -0.56582E-03 12800   0.592E-01    0.289E-01
DAV:   7    -0.191967319624E+03    0.85697E-03   -0.32425E-03 11680   0.424E-01    0.210E-01
DAV:   8    -0.191966811401E+03    0.50822E-03   -0.88541E-04 10400   0.246E-01    0.446E-02
DAV:   9    -0.191966793350E+03    0.18051E-04   -0.11205E-04  6680   0.529E-02
  30 F= -.19196679E+03 E0= -.19189778E+03  d E =-.934323E-01
       N       E                     dE             d eps       ncg     rms          rms(c)
DAV:   1    -0.192028586058E+03   -0.61775E-01   -0.20117E+01  8160   0.956E+00    0.111E+00
DAV:   2    -0.192124867805E+03   -0.96282E-01   -0.78223E-01 12040   0.348E+00    0.206E+00
DAV:   3    -0.192079803279E+03    0.45065E-01   -0.11631E-01 12040   0.301E+00    0.103E+00
DAV:   4    -0.192069513383E+03    0.10290E-01   -0.25013E-02 12600   0.122E+00    0.531E-01
DAV:   5    -0.192067487007E+03    0.20264E-02   -0.11700E-02 12160   0.908E-01    0.447E-01
DAV:   6    -0.192067114745E+03    0.37226E-03   -0.80070E-03 12800   0.732E-01    0.353E-01
DAV:   7    -0.192065085705E+03    0.20290E-02   -0.38135E-03 11840   0.393E-01    0.131E-01
DAV:   8    -0.192064994413E+03    0.91292E-04   -0.72005E-04 11440   0.206E-01
  31 F= -.19206499E+03 E0= -.19200018E+03  d E =-.982011E-01
       N       E                     dE             d eps       ncg     rms          rms(c)
DAV:   1    -0.192088789318E+03   -0.23704E-01   -0.20302E+01  8160   0.957E+00    0.114E+00
DAV:   2    -0.192190043380E+03   -0.10125E+00   -0.78855E-01 11440   0.372E+00    0.216E+00
DAV:   3    -0.192137228274E+03    0.52815E-01   -0.12561E-01 12280   0.317E+00    0.938E-01
DAV:   4    -0.192129103377E+03    0.81249E-02   -0.24151E-02 12640   0.124E+00    0.573E-01
DAV:   5    -0.192126391796E+03    0.27116E-02   -0.11821E-02 11840   0.979E-01    0.439E-01
DAV:   6    -0.192125672404E+03    0.71939E-03   -0.74066E-03 12920   0.660E-01    0.299E-01
DAV:   7    -0.192123964923E+03    0.17075E-02   -0.31596E-03 12280   0.288E-01    0.693E-02
DAV:   8    -0.192124020679E+03   -0.55756E-04   -0.48264E-04 11000   0.151E-01
  32 F= -.19212402E+03 E0= -.19206189E+03  d E =-.590263E-01
       N       E                     dE             d eps       ncg     rms          rms(c)
DAV:   1    -0.192132289580E+03   -0.83247E-02   -0.10473E+00  8160   0.218E+00    0.267E-01
DAV:   2    -0.192136494388E+03   -0.42048E-02   -0.45883E-02 12200   0.720E-01    0.385E-01
DAV:   3    -0.192135777136E+03    0.71725E-03   -0.63500E-03 12120   0.703E-01    0.321E-01
DAV:   4    -0.192134576296E+03    0.12008E-02   -0.15505E-03 11920   0.340E-01    0.886E-02
DAV:   5    -0.192134617882E+03   -0.41586E-04   -0.65350E-04 10920   0.167E-01
  33 F= -.19213462E+03 E0= -.19207268E+03  d E =-.105972E-01
       N       E                     dE             d eps       ncg     rms          rms(c)
DAV:   1    -0.192139257530E+03   -0.46812E-02   -0.27597E-01  8160   0.113E+00    0.167E-01
DAV:   2    -0.192141611302E+03   -0.23538E-02   -0.12948E-02 12920   0.607E-01    0.384E-01
DAV:   3    -0.192139713302E+03    0.18980E-02   -0.29900E-03 12520   0.499E-01    0.935E-02
DAV:   4    -0.192139699673E+03    0.13628E-04   -0.37568E-04  9040   0.144E-01
  34 F= -.19213970E+03 E0= -.19207802E+03  d E =-.508179E-02
       N       E                     dE             d eps       ncg     rms          rms(c)
DAV:   1    -0.192147604407E+03   -0.78911E-02   -0.13506E+00  8160   0.247E+00    0.293E-01
DAV:   2    -0.192153171890E+03   -0.55675E-02   -0.48889E-02 12560   0.889E-01    0.511E-01
DAV:   3    -0.192150616423E+03    0.25555E-02   -0.75354E-03 12280   0.781E-01    0.269E-01
DAV:   4    -0.192149938754E+03    0.67767E-03   -0.16813E-03 11880   0.337E-01    0.153E-01
DAV:   5    -0.192149851385E+03    0.87369E-04   -0.99855E-04 11440   0.296E-01
  35 F= -.19214985E+03 E0= -.19208867E+03  d E =-.101517E-01
       N       E                     dE             d eps       ncg     rms          rms(c)
DAV:   1    -0.192156209577E+03   -0.62708E-02   -0.11921E+00  8160   0.233E+00    0.290E-01
DAV:   2    -0.192162753658E+03   -0.65441E-02   -0.45617E-02 12840   0.997E-01    0.604E-01
DAV:   3    -0.192158532691E+03    0.42210E-02   -0.82962E-03 12240   0.825E-01    0.208E-01
DAV:   4    -0.192158337397E+03    0.19529E-03   -0.12676E-03 11360   0.308E-01    0.185E-01
DAV:   5    -0.192158036029E+03    0.30137E-03   -0.81082E-04 11600   0.281E-01    0.101E-01
DAV:   6    -0.192157996351E+03    0.39678E-04   -0.40497E-04  9240   0.131E-01
  36 F= -.19215800E+03 E0= -.19209715E+03  d E =-.814497E-02
       N       E                     dE             d eps       ncg     rms          rms(c)
DAV:   1    -0.192159301463E+03   -0.12654E-02   -0.39853E-02  8640   0.459E-01    0.947E-02
DAV:   2    -0.192159582281E+03   -0.28082E-03   -0.26215E-03 13080   0.273E-01    0.179E-01
DAV:   3    -0.192159263408E+03    0.31887E-03   -0.81791E-04 10800   0.265E-01    0.835E-02
DAV:   4    -0.192159174804E+03    0.88604E-04   -0.17458E-04  7800   0.105E-01
  37 F= -.19215917E+03 E0= -.19209819E+03  d E =-.117845E-02
       N       E                     dE             d eps       ncg     rms          rms(c)
DAV:   1    -0.192162574250E+03   -0.33108E-02   -0.34945E-01  8160   0.126E+00    0.158E-01
DAV:   2    -0.192164600605E+03   -0.20264E-02   -0.12483E-02 12880   0.530E-01    0.341E-01
DAV:   3    -0.192163149248E+03    0.14514E-02   -0.28761E-03 12120   0.482E-01    0.115E-01
DAV:   4    -0.192163079747E+03    0.69501E-04   -0.42604E-04  8880   0.159E-01
  38 F= -.19216308E+03 E0= -.19210214E+03  d E =-.390494E-02
       N       E                     dE             d eps       ncg     rms          rms(c)
DAV:   1    -0.192165221452E+03   -0.20722E-02   -0.14670E-01  8160   0.823E-01    0.119E-01
DAV:   2    -0.192166316811E+03   -0.10954E-02   -0.56881E-03 13560   0.379E-01    0.279E-01
DAV:   3    -0.192165429949E+03    0.88686E-03   -0.15709E-03 11720   0.371E-01    0.934E-02
DAV:   4    -0.192165356487E+03    0.73462E-04   -0.25086E-04  8080   0.102E-01
  39 F= -.19216536E+03 E0= -.19210437E+03  d E =-.227674E-02
       N       E                     dE             d eps       ncg     rms          rms(c)
DAV:   1    -0.192167085021E+03   -0.16551E-02   -0.96639E-02  8160   0.668E-01    0.936E-02
DAV:   2    -0.192167847284E+03   -0.76226E-03   -0.40294E-03 12400   0.358E-01    0.234E-01
DAV:   3    -0.192167210692E+03    0.63659E-03   -0.98568E-04 11160   0.287E-01    0.573E-02
DAV:   4    -0.192167204487E+03    0.62045E-05   -0.97042E-05  6360   0.924E-02
  40 F= -.19216720E+03 E0= -.19210636E+03  d E =-.184800E-02
       N       E                     dE             d eps       ncg     rms          rms(c)
DAV:   1    -0.192171004421E+03   -0.37937E-02   -0.10945E+00  8160   0.222E+00    0.252E-01
DAV:   2    -0.192175466511E+03   -0.44621E-02   -0.39101E-02 12840   0.863E-01    0.453E-01
DAV:   3    -0.192173276864E+03    0.21896E-02   -0.60298E-03 12200   0.680E-01    0.212E-01
DAV:   4    -0.192172894098E+03    0.38277E-03   -0.13542E-03 10640   0.293E-01    0.145E-01
DAV:   5    -0.192172782763E+03    0.11133E-03   -0.76071E-04 11200   0.261E-01    0.127E-01
DAV:   6    -0.192172676462E+03    0.10630E-03   -0.51213E-04 10520   0.174E-01    0.612E-02
DAV:   7    -0.192172624023E+03    0.52440E-04   -0.13263E-04  6720   0.736E-02
  41 F= -.19217262E+03 E0= -.19211223E+03  d E =-.541954E-02
       N       E                     dE             d eps       ncg     rms          rms(c)
DAV:   1    -0.192173609713E+03   -0.93325E-03   -0.40099E-02  8160   0.432E-01    0.579E-02
DAV:   2    -0.192173750883E+03   -0.14117E-03   -0.15796E-03 11840   0.149E-01    0.879E-02
DAV:   3    -0.192173696101E+03    0.54783E-04   -0.29528E-04  9520   0.158E-01
  42 F= -.19217370E+03 E0= -.19211315E+03  d E =-.107208E-02
       N       E                     dE             d eps       ncg     rms          rms(c)
DAV:   1    -0.192176404193E+03   -0.26533E-02   -0.47664E-01  8160   0.148E+00    0.197E-01
DAV:   2    -0.192178209741E+03   -0.18055E-02   -0.15538E-02 12920   0.573E-01    0.362E-01
DAV:   3    -0.192176887095E+03    0.13226E-02   -0.37974E-03 12600   0.552E-01    0.176E-01
DAV:   4    -0.192176529870E+03    0.35722E-03   -0.81481E-04 10000   0.203E-01    0.824E-02
DAV:   5    -0.192176462681E+03    0.67190E-04   -0.45929E-04 10440   0.127E-01
  43 F= -.19217646E+03 E0= -.19211576E+03  d E =-.276658E-02
       N       E                     dE             d eps       ncg     rms          rms(c)
DAV:   1    -0.192176998735E+03   -0.46886E-03   -0.29565E-02  8160   0.402E-01    0.753E-02
DAV:   2    -0.192177716996E+03   -0.71826E-03   -0.22344E-03 12880   0.330E-01    0.243E-01
DAV:   3    -0.192177007615E+03    0.70938E-03   -0.87575E-04 10280   0.283E-01    0.404E-02
DAV:   4    -0.192177008744E+03   -0.11285E-05   -0.62588E-05  5880   0.526E-02
  44 F= -.19217701E+03 E0= -.19211636E+03  d E =-.546063E-03
       N       E                     dE             d eps       ncg     rms          rms(c)
DAV:   1    -0.192177671849E+03   -0.66423E-03   -0.32877E-02  8160   0.405E-01    0.594E-02
DAV:   2    -0.192177665983E+03    0.58658E-05   -0.10580E-03 10960   0.947E-02    0.457E-02
DAV:   3    -0.192177667230E+03   -0.12475E-05   -0.13502E-04  6680   0.996E-02
  45 F= -.19217767E+03 E0= -.19211727E+03  d E =-.658487E-03
       N       E                     dE             d eps       ncg     rms          rms(c)
DAV:   1    -0.192178770085E+03   -0.11041E-02   -0.13742E-01  8160   0.790E-01    0.976E-02
DAV:   2    -0.192179395410E+03   -0.62533E-03   -0.51870E-03 12000   0.302E-01    0.181E-01
DAV:   3    -0.192179036001E+03    0.35941E-03   -0.10046E-03 10720   0.274E-01    0.888E-02
DAV:   4    -0.192178965010E+03    0.70991E-04   -0.21925E-04  7400   0.117E-01
  46 F= -.19217897E+03 E0= -.19211870E+03  d E =-.129778E-02
       N       E                     dE             d eps       ncg     rms          rms(c)
DAV:   1    -0.192179218527E+03   -0.18253E-03   -0.40634E-03  9440   0.166E-01    0.668E-02
DAV:   2    -0.192179922816E+03   -0.70429E-03   -0.11160E-03 11240   0.330E-01    0.245E-01
DAV:   3    -0.192179155070E+03    0.76775E-03   -0.63567E-04  9960   0.270E-01    0.268E-02
DAV:   4    -0.192179173697E+03   -0.18627E-04   -0.37887E-05  5960   0.580E-02
  47 F= -.19217917E+03 E0= -.19211885E+03  d E =-.208687E-03
       N       E                     dE             d eps       ncg     rms          rms(c)
DAV:   1    -0.192180682630E+03   -0.15276E-02   -0.17075E-01  8160   0.920E-01    0.168E-01
DAV:   2    -0.192181293807E+03   -0.61118E-03   -0.85439E-03 11600   0.457E-01    0.279E-01
DAV:   3    -0.192180500862E+03    0.79294E-03   -0.20974E-03 11480   0.420E-01    0.131E-01
DAV:   4    -0.192180330292E+03    0.17057E-03   -0.65186E-04 10600   0.204E-01    0.109E-01
DAV:   5    -0.192180275653E+03    0.54639E-04   -0.49949E-04 10120   0.199E-01
  48 F= -.19218028E+03 E0= -.19211941E+03  d E =-.110196E-02
       N       E                     dE             d eps       ncg     rms          rms(c)
DAV:   1    -0.192180623919E+03   -0.29363E-03   -0.55591E-02  8160   0.507E-01    0.738E-02
DAV:   2    -0.192180809062E+03   -0.18514E-03   -0.22460E-03 11840   0.200E-01    0.115E-01
DAV:   3    -0.192180701611E+03    0.10745E-03   -0.40789E-04 10040   0.186E-01    0.714E-02
DAV:   4    -0.192180638771E+03    0.62841E-04   -0.10654E-04  6280   0.943E-02
  49 F= -.19218064E+03 E0= -.19211972E+03  d E =-.363118E-03
       N       E                     dE             d eps       ncg     rms          rms(c)
DAV:   1    -0.192181470618E+03   -0.76901E-03   -0.45360E-02  8160   0.465E-01    0.126E-01
DAV:   2    -0.192183269811E+03   -0.17992E-02   -0.49526E-03 11760   0.607E-01    0.393E-01
DAV:   3    -0.192181220209E+03    0.20496E-02   -0.21669E-03 11440   0.444E-01    0.495E-02
DAV:   4    -0.192181279641E+03   -0.59432E-04   -0.24211E-04  7520   0.124E-01
  50 F= -.19218128E+03 E0= -.19212061E+03  d E =-.640870E-03
       N       E                     dE             d eps       ncg     rms          rms(c)
DAV:   1    -0.192182121848E+03   -0.90164E-03   -0.62379E-02  8160   0.589E-01    0.127E-01
DAV:   2    -0.192181985212E+03    0.13664E-03   -0.36245E-03 10560   0.223E-01    0.120E-01
DAV:   3    -0.192181942406E+03    0.42807E-04   -0.98707E-04 10360   0.242E-01
  51 F= -.19218194E+03 E0= -.19212144E+03  d E =-.662765E-03
       N       E                     dE             d eps       ncg     rms          rms(c)
DAV:   1    -0.192182222967E+03   -0.23775E-03   -0.52081E-02  8160   0.520E-01    0.760E-02
DAV:   2    -0.192182666379E+03   -0.44341E-03   -0.25231E-03 12240   0.246E-01    0.176E-01
DAV:   3    -0.192182303208E+03    0.36317E-03   -0.77286E-04 10440   0.246E-01    0.685E-02
DAV:   4    -0.192182260225E+03    0.42984E-04   -0.11825E-04  6160   0.797E-02
  52 F= -.19218226E+03 E0= -.19212193E+03  d E =-.317819E-03
