<?xml version="1.0" encoding="ISO-8859-1"?>
<modeling>
 <generator>
  <i name="program" type="string">vasp </i>
  <i name="version" type="string">5.4.1  </i>
  <i name="subversion" type="string">05Feb16 (build Jul 05 2020 17:13:04) complex                          parallel </i>
  <i name="platform" type="string">IFC91_ompi </i>
  <i name="date" type="string">2024 04 26 </i>
  <i name="time" type="string">23:08:37 </i>
 </generator>
 <incar>
  <i type="int" name="ISTART">     0</i>
  <i type="string" name="PREC">normal</i>
  <i type="string" name="ALGO"> Normal</i>
  <i type="int" name="ISPIN">     1</i>
  <i type="int" name="ICHARG">     2</i>
  <i type="int" name="IBRION">     1</i>
  <i type="int" name="NSW">   100</i>
  <i type="int" name="ISIF">     3</i>
  <i type="int" name="ISYM">     0</i>
  <i name="SYMPREC">      0.00000001</i>
  <i name="POTIM">      0.50000000</i>
  <i type="logical" name="LREAL"> F  </i>
  <i type="logical" name="LPLANE"> F  </i>
  <i type="int" name="ISMEAR">     0</i>
  <i type="logical" name="LWAVE"> F  </i>
  <i type="logical" name="LCHARG"> F  </i>
  <v type="int" name="KPOINT_BSE">    -1     0     0     0</v>
 </incar>
 <kpoints>
  <generation param="Gamma">
   <v type="int" name="divisions">       8        8        1 </v>
   <v name="usershift">      0.00000000       0.00000000       0.00000000 </v>
   <v name="genvec1">      0.12500000       0.00000000       0.00000000 </v>
   <v name="genvec2">     -0.00000000       0.12500000       0.00000000 </v>
   <v name="genvec3">      0.00000000       0.00000000       1.00000000 </v>
   <v name="shift">      0.00000000       0.00000000       0.00000000 </v>
  </generation>
  <varray name="kpointlist" >
   <v>       0.00000000       0.00000000       0.00000000 </v>
   <v>       0.12500000       0.00000000       0.00000000 </v>
   <v>       0.25000000       0.00000000       0.00000000 </v>
   <v>       0.37500000       0.00000000       0.00000000 </v>
   <v>       0.50000000       0.00000000       0.00000000 </v>
   <v>       0.00000000       0.12500000       0.00000000 </v>
   <v>       0.12500000       0.12500000       0.00000000 </v>
   <v>       0.25000000       0.12500000       0.00000000 </v>
   <v>       0.37500000       0.12500000       0.00000000 </v>
   <v>       0.50000000       0.12500000       0.00000000 </v>
   <v>      -0.37500000       0.12500000       0.00000000 </v>
   <v>      -0.25000000       0.12500000       0.00000000 </v>
   <v>      -0.12500000       0.12500000       0.00000000 </v>
   <v>       0.00000000       0.25000000       0.00000000 </v>
   <v>       0.12500000       0.25000000       0.00000000 </v>
   <v>       0.25000000       0.25000000       0.00000000 </v>
   <v>       0.37500000       0.25000000       0.00000000 </v>
   <v>       0.50000000       0.25000000       0.00000000 </v>
   <v>      -0.37500000       0.25000000       0.00000000 </v>
   <v>      -0.25000000       0.25000000       0.00000000 </v>
   <v>      -0.12500000       0.25000000       0.00000000 </v>
   <v>      -0.00000000       0.37500000       0.00000000 </v>
   <v>       0.12500000       0.37500000       0.00000000 </v>
   <v>       0.25000000       0.37500000       0.00000000 </v>
   <v>       0.37500000       0.37500000       0.00000000 </v>
   <v>       0.50000000       0.37500000       0.00000000 </v>
   <v>      -0.37500000       0.37500000       0.00000000 </v>
   <v>      -0.25000000       0.37500000       0.00000000 </v>
   <v>      -0.12500000       0.37500000       0.00000000 </v>
   <v>       0.00000000       0.50000000       0.00000000 </v>
   <v>       0.12500000       0.50000000       0.00000000 </v>
   <v>       0.25000000       0.50000000       0.00000000 </v>
   <v>       0.37500000       0.50000000       0.00000000 </v>
   <v>       0.50000000       0.50000000       0.00000000 </v>
  </varray>
  <varray name="weights" >
   <v>       0.01562500 </v>
   <v>       0.03125000 </v>
   <v>       0.03125000 </v>
   <v>       0.03125000 </v>
   <v>       0.01562500 </v>
   <v>       0.03125000 </v>
   <v>       0.03125000 </v>
   <v>       0.03125000 </v>
   <v>       0.03125000 </v>
   <v>       0.03125000 </v>
   <v>       0.03125000 </v>
   <v>       0.03125000 </v>
   <v>       0.03125000 </v>
   <v>       0.03125000 </v>
   <v>       0.03125000 </v>
   <v>       0.03125000 </v>
   <v>       0.03125000 </v>
   <v>       0.03125000 </v>
   <v>       0.03125000 </v>
   <v>       0.03125000 </v>
   <v>       0.03125000 </v>
   <v>       0.03125000 </v>
   <v>       0.03125000 </v>
   <v>       0.03125000 </v>
   <v>       0.03125000 </v>
   <v>       0.03125000 </v>
   <v>       0.03125000 </v>
   <v>       0.03125000 </v>
   <v>       0.03125000 </v>
   <v>       0.01562500 </v>
   <v>       0.03125000 </v>
   <v>       0.03125000 </v>
   <v>       0.03125000 </v>
   <v>       0.01562500 </v>
  </varray>
 </kpoints>
 <parameters>
  <separator name="general" >
   <i type="string" name="SYSTEM">unknown system</i>
   <i type="logical" name="LCOMPAT"> F  </i>
  </separator>
  <separator name="electronic" >
   <i type="string" name="PREC">normal</i>
   <i name="ENMAX">    280.00000000</i>
   <i name="ENAUG">    373.43800000</i>
   <i name="EDIFF">      0.00010000</i>
   <i type="int" name="IALGO">    38</i>
   <i type="int" name="IWAVPR">    11</i>
   <i type="int" name="NBANDS">   120</i>
   <i name="NELECT">    159.00000000</i>
   <i type="int" name="TURBO">     0</i>
   <i type="int" name="IRESTART">     0</i>
   <i type="int" name="NREBOOT">     0</i>
   <i type="int" name="NMIN">     0</i>
   <i name="EREF">      0.00000000</i>
   <separator name="electronic smearing" >
    <i type="int" name="ISMEAR">     0</i>
    <i name="SIGMA">      0.20000000</i>
    <i name="KSPACING">      0.50000000</i>
    <i type="logical" name="KGAMMA"> T  </i>
   </separator>
   <separator name="electronic projectors" >
    <i type="logical" name="LREAL"> F  </i>
    <v name="ROPT">      0.00000000      0.00000000      0.00000000      0.00000000</v>
    <i type="int" name="LMAXPAW">  -100</i>
    <i type="int" name="LMAXMIX">     2</i>
    <i type="logical" name="NLSPLINE"> F  </i>
   </separator>
   <separator name="electronic startup" >
    <i type="int" name="ISTART">     0</i>
    <i type="int" name="ICHARG">     2</i>
    <i type="int" name="INIWAV">     1</i>
   </separator>
   <separator name="electronic spin" >
    <i type="int" name="ISPIN">     1</i>
    <i type="logical" name="LNONCOLLINEAR"> F  </i>
    <v name="MAGMOM">      1.00000000      1.00000000      1.00000000      1.00000000      1.00000000      1.00000000      1.00000000      1.00000000      1.00000000      1.00000000      1.00000000      1.00000000      1.00000000      1.00000000      1.00000000      1.00000000      1.00000000      1.00000000      1.00000000      1.00000000
      1.00000000      1.00000000      1.00000000      1.00000000      1.00000000      1.00000000      1.00000000</v>
    <i name="NUPDOWN">     -1.00000000</i>
    <i type="logical" name="LSORBIT"> F  </i>
    <v name="SAXIS">      0.00000000      0.00000000      1.00000000</v>
    <i type="logical" name="LSPIRAL"> F  </i>
    <v name="QSPIRAL">      0.00000000      0.00000000      0.00000000</v>
    <i type="logical" name="LZEROZ"> F  </i>
   </separator>
   <separator name="electronic exchange-correlation" >
    <i type="logical" name="LASPH"> F  </i>
    <i type="logical" name="LMETAGGA"> F  </i>
   </separator>
   <separator name="electronic convergence" >
    <i type="int" name="NELM">    60</i>
    <i type="int" name="NELMDL">    -5</i>
    <i type="int" name="NELMIN">     2</i>
    <i name="ENINI">    280.00000000</i>
    <separator name="electronic convergence detail" >
     <i type="logical" name="LDIAG"> T  </i>
     <i type="logical" name="LSUBROT"> F  </i>
     <i name="WEIMIN">      0.00100000</i>
     <i name="EBREAK">      0.00000021</i>
     <i name="DEPER">      0.30000000</i>
     <i type="int" name="NRMM">     4</i>
     <i name="TIME">      0.40000000</i>
    </separator>
   </separator>
   <separator name="electronic mixer" >
    <i name="AMIX">      0.40000000</i>
    <i name="BMIX">      1.00000000</i>
    <i name="AMIN">      0.10000000</i>
    <i name="AMIX_MAG">      1.60000000</i>
    <i name="BMIX_MAG">      1.00000000</i>
    <separator name="electronic mixer details" >
     <i type="int" name="IMIX">     4</i>
     <i type="logical" name="MIXFIRST"> F  </i>
     <i type="int" name="MAXMIX">   -45</i>
     <i name="WC">    100.00000000</i>
     <i type="int" name="INIMIX">     1</i>
     <i type="int" name="MIXPRE">     1</i>
     <i type="int" name="MREMOVE">     5</i>
    </separator>
   </separator>
   <separator name="electronic dipolcorrection" >
    <i type="logical" name="LDIPOL"> F  </i>
    <i type="logical" name="LMONO"> F  </i>
    <i type="int" name="IDIPOL">     0</i>
    <i name="EPSILON">      1.00000000</i>
    <v name="DIPOL">   -100.00000000   -100.00000000   -100.00000000</v>
    <i name="EFIELD">      0.00000000</i>
   </separator>
  </separator>
  <separator name="grids" >
   <i type="int" name="NGX">    42</i>
   <i type="int" name="NGY">    42</i>
   <i type="int" name="NGZ">   126</i>
   <i type="int" name="NGXF">    84</i>
   <i type="int" name="NGYF">    84</i>
   <i type="int" name="NGZF">   252</i>
   <i type="logical" name="ADDGRID"> F  </i>
  </separator>
  <separator name="ionic" >
   <i type="int" name="NSW">   100</i>
   <i type="int" name="IBRION">     1</i>
   <i type="int" name="ISIF">     3</i>
   <i name="PSTRESS">      0.00000000</i>
   <i name="EDIFFG">      0.00100000</i>
   <i type="int" name="NFREE">     0</i>
   <i name="POTIM">      0.50000000</i>
   <i name="SMASS">     -3.00000000</i>
   <i name="SCALEE">      1.00000000</i>
  </separator>
  <separator name="ionic md" >
   <i name="TEBEG">      0.00010000</i>
   <i name="TEEND">      0.00010000</i>
   <i type="int" name="NBLOCK">     1</i>
   <i type="int" name="KBLOCK">   100</i>
   <i type="int" name="NPACO">   256</i>
   <i name="APACO">     16.00000000</i>
  </separator>
  <separator name="symmetry" >
   <i type="int" name="ISYM">     0</i>
   <i name="SYMPREC">      0.00000001</i>
  </separator>
  <separator name="dos" >
   <i type="logical" name="LORBIT"> F  </i>
   <v name="RWIGS">     -1.00000000     -1.00000000     -1.00000000     -1.00000000</v>
   <i type="int" name="NEDOS">   301</i>
   <i name="EMIN">     10.00000000</i>
   <i name="EMAX">    -10.00000000</i>
   <i name="EFERMI">      0.00000000</i>
  </separator>
  <separator name="writing" >
   <i type="int" name="NWRITE">     2</i>
   <i type="logical" name="LWAVE"> F  </i>
   <i type="logical" name="LCHARG"> F  </i>
   <i type="logical" name="LPARD"> F  </i>
   <i type="logical" name="LVTOT"> F  </i>
   <i type="logical" name="LVHAR"> F  </i>
   <i type="logical" name="LELF"> F  </i>
   <i type="logical" name="LOPTICS"> F  </i>
   <v name="STM">      0.00000000      0.00000000      0.00000000      0.00000000      0.00000000      0.00000000      0.00000000</v>
  </separator>
  <separator name="performance" >
   <i type="int" name="NPAR">    40</i>
   <i type="int" name="NSIM">     4</i>
   <i type="int" name="NBLK">    -1</i>
   <i type="logical" name="LPLANE"> F  </i>
   <i type="logical" name="LSCALAPACK"> T  </i>
   <i type="logical" name="LSCAAWARE"> F  </i>
   <i type="logical" name="LSCALU"> F  </i>
   <i type="logical" name="LASYNC"> F  </i>
   <i type="logical" name="LORBITALREAL"> F  </i>
  </separator>
  <separator name="miscellaneous" >
   <i type="int" name="IDIOT">     3</i>
   <i type="logical" name="LMUSIC"> F  </i>
   <v name="POMASS">     50.94100000     95.94000000    183.85000000     32.06600000</v>
   <v name="DARWINR">      0.00000000      0.00000000      0.00000000      0.00000000</v>
   <v name="DARWINV">      1.00000000      1.00000000      1.00000000      1.00000000</v>
   <i type="logical" name="LCORR"> T  </i>
  </separator>
  <i type="logical" name="GGA_COMPAT"> T  </i>
  <i type="logical" name="LBERRY"> F  </i>
  <i type="int" name="ICORELEVEL">     0</i>
  <i type="logical" name="LDAU"> F  </i>
  <i type="int" name="I_CONSTRAINED_M">     0</i>
  <separator name="electronic exchange-correlation" >
   <i type="string" name="GGA">--</i>
   <i type="int" name="VOSKOWN">     0</i>
   <i type="logical" name="LHFCALC"> F  </i>
   <i type="string" name="PRECFOCK"></i>
   <i type="logical" name="LSYMGRAD"> F  </i>
   <i type="logical" name="LHFONE"> F  </i>
   <i type="logical" name="LRHFCALC"> F  </i>
   <i type="logical" name="LTHOMAS"> F  </i>
   <i type="logical" name="LMODELHF"> F  </i>
   <i name="ENCUT4O">     -1.00000000</i>
   <i type="int" name="EXXOEP">     0</i>
   <i type="int" name="FOURORBIT">     0</i>
   <i name="AEXX">      0.00000000</i>
   <i name="HFALPHA">      0.00000000</i>
   <i name="MCALPHA">      0.00000000</i>
   <i name="ALDAX">      1.00000000</i>
   <i name="AGGAX">      1.00000000</i>
   <i name="ALDAC">      1.00000000</i>
   <i name="AGGAC">      1.00000000</i>
   <i type="int" name="NKREDX">     1</i>
   <i type="int" name="NKREDY">     1</i>
   <i type="int" name="NKREDZ">     1</i>
   <i type="logical" name="SHIFTRED"> F  </i>
   <i type="logical" name="ODDONLY"> F  </i>
   <i type="logical" name="EVENONLY"> F  </i>
   <i type="int" name="LMAXFOCK">     0</i>
   <i type="int" name="NMAXFOCKAE">     0</i>
   <i type="logical" name="LFOCKAEDFT"> F  </i>
   <i name="HFSCREEN">      0.00000000</i>
   <i name="HFSCREENC">      0.00000000</i>
   <i type="int" name="NBANDSGWLOW">     0</i>
  </separator>
  <separator name="vdW DFT" >
   <i type="logical" name="LUSE_VDW"> F  </i>
   <i name="Zab_VDW">     -0.84910000</i>
   <i name="PARAM1">      0.12340000</i>
   <i name="PARAM2">      1.00000000</i>
   <i name="PARAM3">      0.00000000</i>
  </separator>
  <separator name="model GW" >
   <i type="int" name="MODEL_GW">     0</i>
   <i name="MODEL_EPS0">     58.26239943</i>
   <i name="MODEL_ALPHA">      1.00000000</i>
  </separator>
  <separator name="linear response parameters" >
   <i type="logical" name="LEPSILON"> F  </i>
   <i type="logical" name="LRPA"> F  </i>
   <i type="logical" name="LNABLA"> F  </i>
   <i type="logical" name="LVEL"> F  </i>
   <i type="int" name="KINTER">     0</i>
   <i name="CSHIFT">      0.10000000</i>
   <i name="OMEGAMAX">     -1.00000000</i>
   <i name="DEG_THRESHOLD">      0.00200000</i>
  </separator>
  <separator name="orbital magnetization" >
   <i type="logical" name="NUCIND"> F  </i>
   <v name="MAGPOS">      0.00000000      0.00000000      0.00000000</v>
   <i type="logical" name="LNICSALL"> T  </i>
   <i type="logical" name="ORBITALMAG"> F  </i>
   <i type="logical" name="LMAGBLOCH"> F  </i>
   <i type="logical" name="LCHIMAG"> F  </i>
   <i type="logical" name="LGAUGE"> T  </i>
   <i type="int" name="MAGATOM">     0</i>
   <v name="MAGDIPOL">      0.00000000      0.00000000      0.00000000</v>
   <v name="AVECCONST">      0.00000000      0.00000000      0.00000000</v>
  </separator>
  <separator name="response functions" >
   <i type="logical" name="LADDER"> F  </i>
   <i type="logical" name="LFXC"> F  </i>
   <i type="logical" name="LHARTREE"> T  </i>
   <i type="int" name="IBSE">     0</i>
   <v type="int" name="KPOINT">    -1     0     0     0</v>
   <i type="logical" name="LTCTE"> F  </i>
   <i type="logical" name="LTETE"> F  </i>
   <i type="logical" name="LTRIPLET"> F  </i>
   <i type="logical" name="LFXCEPS"> F  </i>
   <i type="logical" name="LFXHEG"> F  </i>
   <i type="int" name="NATURALO">     0</i>
   <i type="logical" name="L2ORDER"> F  </i>
   <i type="logical" name="LUSEW"> F  </i>
   <i name="ENCUTGW">     -2.00000000</i>
   <i name="ENCUTGWSOFT">     -2.00000000</i>
   <i name="ENCUTLF">     -1.00000000</i>
   <i type="int" name="LMAXMP2">    -1</i>
   <i name="SCISSOR">      0.00000000</i>
   <i type="int" name="NOMEGA">     0</i>
   <i type="int" name="NOMEGAR">     0</i>
   <i type="int" name="NBANDSGW">    -1</i>
   <i type="int" name="NBANDSO">    -1</i>
   <i type="int" name="NBANDSV">    -1</i>
   <i type="int" name="NELM">     1</i>
   <i type="int" name="NELMHF">     1</i>
   <i type="int" name="DIM">     3</i>
   <i type="int" name="ANTIRES">     0</i>
   <i name="OMEGAMAX">    -30.00000000</i>
   <i name="OMEGAMIN">    -30.00000000</i>
   <i name="OMEGATL">   -200.00000000</i>
   <i type="int" name="OMEGAGRID">     0</i>
   <i name="CSHIFT">     -0.10000000</i>
   <i type="logical" name="SELFENERGY"> F  </i>
   <i type="logical" name="LSPECTRAL"> F  </i>
   <i type="logical" name="LSPECTRALGW"> F  </i>
   <i type="logical" name="LSINGLES"> F  </i>
   <i type="logical" name="LFERMIGW"> F  </i>
   <i type="logical" name="ODDONLYGW"> F  </i>
   <i type="logical" name="EVENONLYGW"> F  </i>
   <i type="int" name="NKREDLFX">     1</i>
   <i type="int" name="NKREDLFY">     1</i>
   <i type="int" name="NKREDLFZ">     1</i>
   <i type="int" name="MAXMEM">  1800</i>
   <i type="int" name="TELESCOPE">     0</i>
   <i type="int" name="TAUPAR">     1</i>
   <i type="int" name="OMEGAPAR">    -1</i>
   <i name="LAMBDA">      1.00000000</i>
  </separator>
  <separator name="External order field" >
   <i name="OFIELD_KAPPA">      0.00000000</i>
   <v name="OFIELD_K">      0.00000000      0.00000000      0.00000000</v>
   <i name="OFIELD_Q6_NEAR">      0.00000000</i>
   <i name="OFIELD_Q6_FAR">      0.00000000</i>
   <i name="OFIELD_A">      0.00000000</i>
  </separator>
 </parameters>
 <atominfo>
  <atoms>      27 </atoms>
  <types>       4 </types>
  <array name="atoms" >
   <dimension dim="1">ion</dimension>
   <field type="string">element</field>
   <field type="int">atomtype</field>
   <set>
    <rc><c>V </c><c>   1</c></rc>
    <rc><c>V </c><c>   1</c></rc>
    <rc><c>V </c><c>   1</c></rc>
    <rc><c>Mo</c><c>   2</c></rc>
    <rc><c>Mo</c><c>   2</c></rc>
    <rc><c>Mo</c><c>   2</c></rc>
    <rc><c>W </c><c>   3</c></rc>
    <rc><c>W </c><c>   3</c></rc>
    <rc><c>W </c><c>   3</c></rc>
    <rc><c>S </c><c>   4</c></rc>
    <rc><c>S </c><c>   4</c></rc>
    <rc><c>S </c><c>   4</c></rc>
    <rc><c>S </c><c>   4</c></rc>
    <rc><c>S </c><c>   4</c></rc>
    <rc><c>S </c><c>   4</c></rc>
    <rc><c>S </c><c>   4</c></rc>
    <rc><c>S </c><c>   4</c></rc>
    <rc><c>S </c><c>   4</c></rc>
    <rc><c>S </c><c>   4</c></rc>
    <rc><c>S </c><c>   4</c></rc>
    <rc><c>S </c><c>   4</c></rc>
    <rc><c>S </c><c>   4</c></rc>
    <rc><c>S </c><c>   4</c></rc>
    <rc><c>S </c><c>   4</c></rc>
    <rc><c>S </c><c>   4</c></rc>
    <rc><c>S </c><c>   4</c></rc>
    <rc><c>S </c><c>   4</c></rc>
   </set>
  </array>
  <array name="atomtypes" >
   <dimension dim="1">type</dimension>
   <field type="int">atomspertype</field>
   <field type="string">element</field>
   <field>mass</field>
   <field>valence</field>
   <field type="string">pseudopotential</field>
   <set>
    <rc><c>   3</c><c>V </c><c>     50.94100000</c><c>      5.00000000</c><c> PAW_PBE V 08Apr2002                    </c></rc>
    <rc><c>   3</c><c>Mo</c><c>     95.94000000</c><c>      6.00000000</c><c> PAW_PBE Mo 08Apr2002                   </c></rc>
    <rc><c>   3</c><c>W </c><c>    183.85000000</c><c>      6.00000000</c><c> PAW_PBE W 08Apr2002                    </c></rc>
    <rc><c>  18</c><c>S </c><c>     32.06600000</c><c>      6.00000000</c><c>  PAW_PBE S 17Jan2003                   </c></rc>
   </set>
  </array>
 </atominfo>
 <structure name="initialpos" >
  <crystal>
   <varray name="basis" >
    <v>       8.66999996       5.03999989       0.00000000 </v>
    <v>      -8.66999982       5.04000013       0.00000000 </v>
    <v>       0.00000000       0.00000000      30.00000000 </v>
   </varray>
   <i name="volume">   2621.80797419 </i>
   <varray name="rec_basis" >
    <v>       0.05767013       0.09920635       0.00000000 </v>
    <v>      -0.05767013       0.09920635       0.00000000 </v>
    <v>       0.00000000       0.00000000       0.03333333 </v>
   </varray>
  </crystal>
  <varray name="positions" >
   <v>       0.33333334       0.00000000       0.00000000 </v>
   <v>       0.66666669       0.33333334       0.00000000 </v>
   <v>       1.00000000       0.33333334       0.00000000 </v>
   <v>       0.00000000       0.00000000       0.00000000 </v>
   <v>       0.33333334       0.33333334       0.00000000 </v>
   <v>       0.33333334       0.66666669       0.00000000 </v>
   <v>       0.00000000       0.66666669       0.00000000 </v>
   <v>       0.66666669       0.00000000       0.00000000 </v>
   <v>       0.66666669       0.66666669       0.00000000 </v>
   <v>       0.11068511       0.22244981       0.95539999 </v>
   <v>       0.22244981       0.11068511       0.04460000 </v>
   <v>       0.11068511       0.55578315       0.95539999 </v>
   <v>       0.22244981       0.44401845       0.04460000 </v>
   <v>       0.11068511       0.88911647       0.95539999 </v>
   <v>       0.22244981       0.77735180       0.04460000 </v>
   <v>       0.44401845       0.22244981       0.95539999 </v>
   <v>       0.55578315       0.11068511       0.04460000 </v>
   <v>       0.44401845       0.55578315       0.95539999 </v>
   <v>       0.55578315       0.44401845       0.04460000 </v>
   <v>       0.44401845       0.88911647       0.95539999 </v>
   <v>       0.55578315       0.77735180       0.04460000 </v>
   <v>       0.77735180       0.22244981       0.95539999 </v>
   <v>       0.88911647       0.11068511       0.04460000 </v>
   <v>       0.77735180       0.55578315       0.95539999 </v>
   <v>       0.88911647       0.44401845       0.04460000 </v>
   <v>       0.77735180       0.88911647       0.95539999 </v>
   <v>       0.88911647       0.77735180       0.04460000 </v>
  </varray>
 </structure>
 <calculation>
  <scstep>
   <time name="dav">   22.85   22.90</time>
   <time name="total">   22.89   22.96</time>
   <energy>
    <i name="alphaZ">     81.65567618 </i>
    <i name="ewald">  41890.23011115 </i>
    <i name="hartreedc"> -47722.86557403 </i>
    <i name="XCdc">   -242.92862445 </i>
    <i name="pawpsdc">   3467.42045192 </i>
    <i name="pawaedc">  -2871.19716117 </i>
    <i name="eentropy">     -0.54009456 </i>
    <i name="bandstr">   -238.83432964 </i>
    <i name="atom">   6761.44252427 </i>
    <i name="e_fr_energy">   1124.38297966 </i>
    <i name="e_wo_entrp">   1124.92307422 </i>
    <i name="e_0_energy">   1124.65302694 </i>
   </energy>
  </scstep>
  <scstep>
   <time name="dav">   28.90   28.97</time>
   <time name="total">   28.90   28.98</time>
   <energy>
    <i name="e_fr_energy">      0.20488553 </i>
    <i name="e_wo_entrp">      0.37077619 </i>
    <i name="e_0_energy">      0.28783086 </i>
   </energy>
  </scstep>
  <scstep>
   <time name="dav">   28.89   28.96</time>
   <time name="total">   28.89   28.97</time>
   <energy>
    <i name="e_fr_energy">   -199.44937901 </i>
    <i name="e_wo_entrp">   -199.18805263 </i>
    <i name="e_0_energy">   -199.31871582 </i>
   </energy>
  </scstep>
  <scstep>
   <time name="dav">   31.64   31.72</time>
   <time name="total">   31.64   31.73</time>
   <energy>
    <i name="e_fr_energy">   -208.98418471 </i>
    <i name="e_wo_entrp">   -208.70012967 </i>
    <i name="e_0_energy">   -208.84215719 </i>
   </energy>
  </scstep>
  <scstep>
   <time name="dav">   30.30   30.37</time>
   <time name="total">   30.76   30.84</time>
   <energy>
    <i name="e_fr_energy">   -209.31352750 </i>
    <i name="e_wo_entrp">   -209.03283624 </i>
    <i name="e_0_energy">   -209.17318187 </i>
   </energy>
  </scstep>
  <scstep>
   <time name="dav">   32.60   32.67</time>
   <time name="total">   33.10   33.18</time>
   <energy>
    <i name="e_fr_energy">   -237.22030012 </i>
    <i name="e_wo_entrp">   -236.94453837 </i>
    <i name="e_0_energy">   -237.08241924 </i>
   </energy>
  </scstep>
  <scstep>
   <time name="dav">   33.60   33.68</time>
   <time name="total">   34.10   34.19</time>
   <energy>
    <i name="e_fr_energy">   -196.47365704 </i>
    <i name="e_wo_entrp">   -196.14324372 </i>
    <i name="e_0_energy">   -196.30845038 </i>
   </energy>
  </scstep>
  <scstep>
   <time name="dav">   30.89   30.96</time>
   <time name="total">   31.40   31.48</time>
   <energy>
    <i name="e_fr_energy">   -189.42400495 </i>
    <i name="e_wo_entrp">   -189.13238722 </i>
    <i name="e_0_energy">   -189.27819608 </i>
   </energy>
  </scstep>
  <scstep>
   <time name="dav">   32.21   32.29</time>
   <time name="total">   32.73   32.82</time>
   <energy>
    <i name="e_fr_energy">   -188.22849432 </i>
    <i name="e_wo_entrp">   -187.90849388 </i>
    <i name="e_0_energy">   -188.06849410 </i>
   </energy>
  </scstep>
  <scstep>
   <time name="dav">   33.88   33.96</time>
   <time name="total">   34.41   34.50</time>
   <energy>
    <i name="e_fr_energy">   -187.07935481 </i>
    <i name="e_wo_entrp">   -186.73236181 </i>
    <i name="e_0_energy">   -186.90585831 </i>
   </energy>
  </scstep>
  <scstep>
   <time name="dav">   34.45   34.53</time>
   <time name="total">   34.99   35.08</time>
   <energy>
    <i name="e_fr_energy">   -187.02979597 </i>
    <i name="e_wo_entrp">   -186.68179749 </i>
    <i name="e_0_energy">   -186.85579673 </i>
   </energy>
  </scstep>
  <scstep>
   <time name="dav">   32.57   32.65</time>
   <time name="total">   33.10   33.20</time>
   <energy>
    <i name="e_fr_energy">   -187.17374284 </i>
    <i name="e_wo_entrp">   -186.83538180 </i>
    <i name="e_0_energy">   -187.00456232 </i>
   </energy>
  </scstep>
  <scstep>
   <time name="dav">   33.75   33.84</time>
   <time name="total">   34.29   34.38</time>
   <energy>
    <i name="e_fr_energy">   -186.92695217 </i>
    <i name="e_wo_entrp">   -186.59237931 </i>
    <i name="e_0_energy">   -186.75966574 </i>
   </energy>
  </scstep>
  <scstep>
   <time name="dav">   34.36   34.45</time>
   <time name="total">   34.90   34.99</time>
   <energy>
    <i name="e_fr_energy">   -186.87973237 </i>
    <i name="e_wo_entrp">   -186.53599919 </i>
    <i name="e_0_energy">   -186.70786578 </i>
   </energy>
  </scstep>
  <scstep>
   <time name="dav">   32.11   32.18</time>
   <time name="total">   32.64   32.73</time>
   <energy>
    <i name="e_fr_energy">   -186.88167773 </i>
    <i name="e_wo_entrp">   -186.53671936 </i>
    <i name="e_0_energy">   -186.70919855 </i>
   </energy>
  </scstep>
  <scstep>
   <time name="dav">   33.85   33.93</time>
   <time name="total">   34.38   34.47</time>
   <energy>
    <i name="e_fr_energy">   -186.87260957 </i>
    <i name="e_wo_entrp">   -186.52713465 </i>
    <i name="e_0_energy">   -186.69987211 </i>
   </energy>
  </scstep>
  <scstep>
   <time name="dav">   32.66   32.73</time>
   <time name="total">   33.19   33.28</time>
   <energy>
    <i name="e_fr_energy">   -186.86927649 </i>
    <i name="e_wo_entrp">   -186.52623712 </i>
    <i name="e_0_energy">   -186.69775681 </i>
   </energy>
  </scstep>
  <scstep>
   <time name="dav">   30.94   31.01</time>
   <time name="total">   31.47   31.56</time>
   <energy>
    <i name="e_fr_energy">   -186.86908552 </i>
    <i name="e_wo_entrp">   -186.52563367 </i>
    <i name="e_0_energy">   -186.69735960 </i>
   </energy>
  </scstep>
  <scstep>
   <time name="dav">   29.50   29.57</time>
   <time name="total">   30.04   30.12</time>
   <energy>
    <i name="e_fr_energy">   -186.86873769 </i>
    <i name="e_wo_entrp">   -186.52514931 </i>
    <i name="e_0_energy">   -186.69694350 </i>
   </energy>
  </scstep>
  <scstep>
   <time name="dav">   25.27   25.33</time>
   <time name="total">   25.81   25.88</time>
   <energy>
    <i name="e_fr_energy">   -186.86950454 </i>
    <i name="e_wo_entrp">   -186.52618533 </i>
    <i name="e_0_energy">   -186.69784494 </i>
   </energy>
  </scstep>
  <scstep>
   <time name="dav">   22.88   22.94</time>
   <time name="total">   23.42   23.48</time>
   <energy>
    <i name="e_fr_energy">   -186.87010920 </i>
    <i name="e_wo_entrp">   -186.52676170 </i>
    <i name="e_0_energy">   -186.69843545 </i>
   </energy>
  </scstep>
  <scstep>
   <time name="dav">   21.48   21.53</time>
   <time name="total">   22.02   22.08</time>
   <energy>
    <i name="e_fr_energy">   -186.87121827 </i>
    <i name="e_wo_entrp">   -186.52784124 </i>
    <i name="e_0_energy">   -186.69952975 </i>
   </energy>
  </scstep>
  <scstep>
   <time name="dav">   21.48   21.53</time>
   <time name="total">   22.01   22.07</time>
   <energy>
    <i name="e_fr_energy">   -186.87244618 </i>
    <i name="e_wo_entrp">   -186.52915265 </i>
    <i name="e_0_energy">   -186.70079942 </i>
   </energy>
  </scstep>
  <scstep>
   <time name="dav">   20.00   20.04</time>
   <time name="total">   20.53   20.59</time>
   <energy>
    <i name="e_fr_energy">   -186.87303174 </i>
    <i name="e_wo_entrp">   -186.52970930 </i>
    <i name="e_0_energy">   -186.70137052 </i>
   </energy>
  </scstep>
  <scstep>
   <time name="dav">   17.25   17.29</time>
   <time name="total">   17.79   17.84</time>
   <energy>
    <i name="e_fr_energy">   -186.87341073 </i>
    <i name="e_wo_entrp">   -186.53005144 </i>
    <i name="e_0_energy">   -186.70173109 </i>
   </energy>
  </scstep>
  <scstep>
   <time name="dav">   20.09   20.14</time>
   <time name="total">   20.63   20.68</time>
   <energy>
    <i name="e_fr_energy">   -186.87362913 </i>
    <i name="e_wo_entrp">   -186.53028412 </i>
    <i name="e_0_energy">   -186.70195663 </i>
   </energy>
  </scstep>
  <scstep>
   <time name="dav">   20.28   20.33</time>
   <time name="total">   20.82   20.87</time>
   <energy>
    <i name="e_fr_energy">   -186.87373312 </i>
    <i name="e_wo_entrp">   -186.53039247 </i>
    <i name="e_0_energy">   -186.70206279 </i>
   </energy>
  </scstep>
  <scstep>
   <time name="dav">   20.81   20.86</time>
   <time name="total">   20.85   20.90</time>
   <energy>
    <i name="alphaZ">     81.65567618 </i>
    <i name="ewald">  41890.23011115 </i>
    <i name="hartreedc"> -47833.03454226 </i>
    <i name="XCdc">   -231.60127549 </i>
    <i name="pawpsdc">   4192.08586264 </i>
    <i name="pawaedc">  -3610.10369429 </i>
    <i name="eentropy">     -0.34334102 </i>
    <i name="bandstr">  -1437.20510458 </i>
    <i name="atom">   6761.44252427 </i>
    <i name="e_fr_energy">   -186.87378341 </i>
    <i name="e_wo_entrp">   -186.53044238 </i>
    <i name="e_0_energy">   -186.70211289 </i>
   </energy>
  </scstep>
  <structure>
   <crystal>
    <varray name="basis" >
     <v>       8.66999996       5.03999989       0.00000000 </v>
     <v>      -8.66999982       5.04000013       0.00000000 </v>
     <v>       0.00000000       0.00000000      30.00000000 </v>
    </varray>
    <i name="volume">   2621.80797419 </i>
    <varray name="rec_basis" >
     <v>       0.05767013       0.09920635       0.00000000 </v>
     <v>      -0.05767013       0.09920635       0.00000000 </v>
     <v>       0.00000000       0.00000000       0.03333333 </v>
    </varray>
   </crystal>
   <varray name="positions" >
    <v>       0.33333334       0.00000000       0.00000000 </v>
    <v>       0.66666669       0.33333334       0.00000000 </v>
    <v>       1.00000000       0.33333334       0.00000000 </v>
    <v>       0.00000000       0.00000000       0.00000000 </v>
    <v>       0.33333334       0.33333334       0.00000000 </v>
    <v>       0.33333334       0.66666669       0.00000000 </v>
    <v>       0.00000000       0.66666669       0.00000000 </v>
    <v>       0.66666669       0.00000000       0.00000000 </v>
    <v>       0.66666669       0.66666669       0.00000000 </v>
    <v>       0.11068511       0.22244981       0.95539999 </v>
    <v>       0.22244981       0.11068511       0.04460000 </v>
    <v>       0.11068511       0.55578315       0.95539999 </v>
    <v>       0.22244981       0.44401845       0.04460000 </v>
    <v>       0.11068511       0.88911647       0.95539999 </v>
    <v>       0.22244981       0.77735180       0.04460000 </v>
    <v>       0.44401845       0.22244981       0.95539999 </v>
    <v>       0.55578315       0.11068511       0.04460000 </v>
    <v>       0.44401845       0.55578315       0.95539999 </v>
    <v>       0.55578315       0.44401845       0.04460000 </v>
    <v>       0.44401845       0.88911647       0.95539999 </v>
    <v>       0.55578315       0.77735180       0.04460000 </v>
    <v>       0.77735180       0.22244981       0.95539999 </v>
    <v>       0.88911647       0.11068511       0.04460000 </v>
    <v>       0.77735180       0.55578315       0.95539999 </v>
    <v>       0.88911647       0.44401845       0.04460000 </v>
    <v>       0.77735180       0.88911647       0.95539999 </v>
    <v>       0.88911647       0.77735180       0.04460000 </v>
   </varray>
  </structure>
  <varray name="forces" >
   <v>      -0.23314432      -0.05447720      -0.11879715 </v>
   <v>      -0.14064341      -0.14495390      -0.01462871 </v>
   <v>       0.36508441       0.19904418       0.10415129 </v>
   <v>      -0.00496220       0.27061978      -0.07666057 </v>
   <v>      -0.21570660      -0.16567699      -0.02233411 </v>
   <v>       0.26486126      -0.12134461       0.10080770 </v>
   <v>       0.10587095       0.27465044       0.04916749 </v>
   <v>       0.12857379      -0.07225043      -0.02351245 </v>
   <v>      -0.27178563      -0.20672794       0.01904464 </v>
   <v>      -0.73200945      -0.00648311      -2.13617995 </v>
   <v>       0.74361092       0.01465182       2.11223184 </v>
   <v>       0.35782462      -0.70698140      -2.14163454 </v>
   <v>      -0.54861989      -0.71244073       2.19744068 </v>
   <v>       0.61461171       0.57469202      -2.20841647 </v>
   <v>      -0.60160778       0.53669397       2.14787113 </v>
   <v>       0.91412016      -0.02206742      -1.46265698 </v>
   <v>      -0.74232614      -0.00268531       1.45574638 </v>
   <v>       0.23052159       0.16368612      -2.89561733 </v>
   <v>       0.65777874       0.16625900       2.10154226 </v>
   <v>      -0.69053807       0.16150080      -2.09122759 </v>
   <v>      -0.05046745       0.11393959       2.95833125 </v>
   <v>      -0.23707786       0.51614117      -1.39210601 </v>
   <v>      -0.64015382       0.57542881       2.15874720 </v>
   <v>       0.45422084      -0.56213954      -2.15397142 </v>
   <v>       0.25085320      -0.51659410       1.40959217 </v>
   <v>       0.07999163      -0.11900530      -2.92830309 </v>
   <v>      -0.05888120      -0.15347971       2.85137232 </v>
  </varray>
  <varray name="stress" >
   <v>       7.43252943       0.00215745      -1.61709874 </v>
   <v>       0.00215759       4.30860991       0.01840611 </v>
   <v>      -1.61709857       0.01840612      30.31166701 </v>
  </varray>
  <energy>
   <i name="e_fr_energy">   -186.87378341 </i>
   <i name="e_wo_entrp">   -186.70211289 </i>
   <i name="e_0_energy">     -0.34334102 </i>
  </energy>
  <time name="totalsc">  845.36  847.64</time>
 </calculation>
 <calculation>
  <scstep>
   <time name="dav">   22.79   22.85</time>
   <time name="total">   23.34   23.40</time>
   <energy>
    <i name="alphaZ">     78.92462295 </i>
    <i name="ewald">  39381.34274574 </i>
    <i name="hartreedc"> -45338.90602012 </i>
    <i name="XCdc">   -239.05454076 </i>
    <i name="pawpsdc">   4192.08578889 </i>
    <i name="pawaedc">  -3610.10364017 </i>
    <i name="eentropy">     -0.27942287 </i>
    <i name="bandstr">  -1412.95127441 </i>
    <i name="atom">   6761.44252427 </i>
    <i name="e_fr_energy">   -187.49921647 </i>
    <i name="e_wo_entrp">   -187.21979360 </i>
    <i name="e_0_energy">   -187.35950504 </i>
   </energy>
  </scstep>
  <scstep>
   <time name="dav">   31.71   31.78</time>
   <time name="total">   32.25   32.33</time>
   <energy>
    <i name="e_fr_energy">   -189.50035961 </i>
    <i name="e_wo_entrp">   -189.16658377 </i>
    <i name="e_0_energy">   -189.33347169 </i>
   </energy>
  </scstep>
  <scstep>
   <time name="dav">   32.03   32.10</time>
   <time name="total">   32.58   32.67</time>
   <energy>
    <i name="e_fr_energy">   -189.34057780 </i>
    <i name="e_wo_entrp">   -189.07694579 </i>
    <i name="e_0_energy">   -189.20876180 </i>
   </energy>
  </scstep>
  <scstep>
   <time name="dav">   30.85   30.93</time>
   <time name="total">   31.39   31.48</time>
   <energy>
    <i name="e_fr_energy">   -188.76737111 </i>
    <i name="e_wo_entrp">   -188.48481934 </i>
    <i name="e_0_energy">   -188.62609523 </i>
   </energy>
  </scstep>
  <scstep>
   <time name="dav">   31.42   31.49</time>
   <time name="total">   31.96   32.04</time>
   <energy>
    <i name="e_fr_energy">   -188.89980988 </i>
    <i name="e_wo_entrp">   -188.61315742 </i>
    <i name="e_0_energy">   -188.75648365 </i>
   </energy>
  </scstep>
  <scstep>
   <time name="dav">   32.53   32.61</time>
   <time name="total">   33.07   33.16</time>
   <energy>
    <i name="e_fr_energy">   -188.74260467 </i>
    <i name="e_wo_entrp">   -188.45878003 </i>
    <i name="e_0_energy">   -188.60069235 </i>
   </energy>
  </scstep>
  <scstep>
   <time name="dav">   30.43   30.50</time>
   <time name="total">   30.97   31.06</time>
   <energy>
    <i name="e_fr_energy">   -188.71207934 </i>
    <i name="e_wo_entrp">   -188.42717409 </i>
    <i name="e_0_energy">   -188.56962672 </i>
   </energy>
  </scstep>
  <scstep>
   <time name="dav">   32.99   33.07</time>
   <time name="total">   33.54   33.63</time>
   <energy>
    <i name="e_fr_energy">   -188.69559251 </i>
    <i name="e_wo_entrp">   -188.41505015 </i>
    <i name="e_0_energy">   -188.55532133 </i>
   </energy>
  </scstep>
  <scstep>
   <time name="dav">   31.03   31.11</time>
   <time name="total">   31.58   31.66</time>
   <energy>
    <i name="e_fr_energy">   -188.67039924 </i>
    <i name="e_wo_entrp">   -188.38868471 </i>
    <i name="e_0_energy">   -188.52954198 </i>
   </energy>
  </scstep>
  <scstep>
   <time name="dav">   29.28   29.35</time>
   <time name="total">   29.82   29.90</time>
   <energy>
    <i name="e_fr_energy">   -188.66872352 </i>
    <i name="e_wo_entrp">   -188.38841979 </i>
    <i name="e_0_energy">   -188.52857166 </i>
   </energy>
  </scstep>
  <scstep>
   <time name="dav">   33.56   33.64</time>
   <time name="total">   34.11   34.20</time>
   <energy>
    <i name="e_fr_energy">   -188.66817160 </i>
    <i name="e_wo_entrp">   -188.38860636 </i>
    <i name="e_0_energy">   -188.52838898 </i>
   </energy>
  </scstep>
  <scstep>
   <time name="dav">   30.72   30.79</time>
   <time name="total">   31.26   31.34</time>
   <energy>
    <i name="e_fr_energy">   -188.66810923 </i>
    <i name="e_wo_entrp">   -188.38871228 </i>
    <i name="e_0_energy">   -188.52841075 </i>
   </energy>
  </scstep>
  <scstep>
   <time name="dav">   21.62   21.68</time>
   <time name="total">   21.66   21.72</time>
   <energy>
    <i name="alphaZ">     78.92462295 </i>
    <i name="ewald">  39381.34274574 </i>
    <i name="hartreedc"> -45349.61612167 </i>
    <i name="XCdc">   -237.97298686 </i>
    <i name="pawpsdc">   3950.53720974 </i>
    <i name="pawaedc">  -3365.05021491 </i>
    <i name="eentropy">     -0.27973083 </i>
    <i name="bandstr">  -1407.99613834 </i>
    <i name="atom">   6761.44252427 </i>
    <i name="e_fr_energy">   -188.66808991 </i>
    <i name="e_wo_entrp">   -188.38835908 </i>
    <i name="e_0_energy">   -188.52822449 </i>
   </energy>
  </scstep>
  <structure>
   <crystal>
    <varray name="basis" >
     <v>       8.85844587       5.10354753       0.00000000 </v>
     <v>      -8.85838214       5.10343838       0.00000000 </v>
     <v>       0.00000000       0.00000000      30.00000000 </v>
    </varray>
    <i name="volume">   2712.53120917 </i>
    <varray name="rec_basis" >
     <v>       0.05644291       0.09797176       0.00000000 </v>
     <v>      -0.05644412       0.09797247       0.00000000 </v>
     <v>       0.00000000       0.00000000       0.03333333 </v>
    </varray>
   </crystal>
   <varray name="positions" >
    <v>       0.33242397       0.00038792      -0.00019104 </v>
    <v>       0.66558165       0.33303089      -0.00002352 </v>
    <v>       1.00196834       0.33327024       0.00016748 </v>
    <v>       0.00128137       0.00130899      -0.00012328 </v>
    <v>       0.33194029       0.33314055      -0.00003592 </v>
    <v>       0.33348948       0.66534905       0.00016211 </v>
    <v>       0.00160902       0.66768661       0.00007907 </v>
    <v>       0.66667861      -0.00070350      -0.00003781 </v>
    <v>       0.66492114       0.66643344       0.00003063 </v>
    <v>       0.10861751       0.22445535       0.95196482 </v>
    <v>       0.22458878       0.10868639       0.04799665 </v>
    <v>       0.10829704       0.55140403       0.95195605 </v>
    <v>       0.21751374       0.44213508       0.04813368 </v>
    <v>       0.11514552       0.89015698       0.95184866 </v>
    <v>       0.22334465       0.78159417       0.04805397 </v>
    <v>       0.44645607       0.21980097       0.95304791 </v>
    <v>       0.55370503       0.11273753       0.04694097 </v>
    <v>       0.44544320       0.55592520       0.95074358 </v>
    <v>       0.55840891       0.44298412       0.04797946 </v>
    <v>       0.44287021       0.89181059       0.95203711 </v>
    <v>       0.55618806       0.77803752       0.04935726 </v>
    <v>       0.77916245       0.22557964       0.95316136 </v>
    <v>       0.89008945       0.11522011       0.04807146 </v>
    <v>       0.77592512       0.55182905       0.95193621 </v>
    <v>       0.88734197       0.44084813       0.04686675 </v>
    <v>       0.77700479       0.88832436       0.95069102 </v>
    <v>       0.88821810       0.77678106       0.04918526 </v>
   </varray>
  </structure>
  <varray name="forces" >
   <v>      -0.24548228      -0.11252813      -0.04123892 </v>
   <v>      -0.13311565      -0.08430105      -0.01710202 </v>
   <v>       0.32210345       0.21150752       0.03050828 </v>
   <v>       0.03477942       0.12557895       0.04213084 </v>
   <v>      -0.31048410      -0.06273358       0.00494920 </v>
   <v>       0.40924085      -0.00451269      -0.03633527 </v>
   <v>      -0.02660923       0.27834530       0.08585874 </v>
   <v>       0.37318889      -0.22927453      -0.09927236 </v>
   <v>      -0.43129728      -0.11827619       0.00559823 </v>
   <v>      -0.07214473       0.00008601      -0.16489916 </v>
   <v>       0.06109143       0.01506761       0.05402941 </v>
   <v>      -0.10833864      -0.06530856       0.07333797 </v>
   <v>      -0.02845452      -0.09211859       0.19753976 </v>
   <v>       0.08942779      -0.02640402      -0.09651957 </v>
   <v>      -0.07651195      -0.04462981      -0.03227720 </v>
   <v>       0.02919937      -0.01257918       0.06088164 </v>
   <v>       0.10204487      -0.00445373      -0.17962949 </v>
   <v>       0.05507715       0.09753465      -0.14596403 </v>
   <v>      -0.02005073       0.08970946      -0.02454204 </v>
   <v>       0.02740149       0.10942216       0.09294284 </v>
   <v>       0.07398421       0.09181005       0.14256537 </v>
   <v>       0.06625766      -0.06999255       0.22881070 </v>
   <v>      -0.09472490      -0.03820698      -0.02214304 </v>
   <v>      -0.05410523       0.07032562       0.16852456 </v>
   <v>      -0.05101069       0.07717339      -0.19081412 </v>
   <v>      -0.06617791      -0.09752632      -0.02524126 </v>
   <v>       0.07471128      -0.10371480      -0.11169908 </v>
  </varray>
  <varray name="stress" >
   <v>     -19.94130345       0.01048366       0.06869095 </v>
   <v>       0.01048389     -19.46688836      -0.01178926 </v>
   <v>       0.06869117      -0.01178906      -1.73860881 </v>
  </varray>
  <energy>
   <i name="e_fr_energy">   -188.66808991 </i>
   <i name="e_wo_entrp">   -188.52822449 </i>
   <i name="e_0_energy">     -0.27973083 </i>
  </energy>
  <time name="totalsc">  441.18  442.35</time>
 </calculation>
 <calculation>
  <scstep>
   <time name="dav">   25.01   25.07</time>
   <time name="total">   25.55   25.61</time>
   <energy>
    <i name="alphaZ">     82.35844535 </i>
    <i name="ewald">  41309.99371723 </i>
    <i name="hartreedc"> -47308.94866806 </i>
    <i name="XCdc">   -233.83838238 </i>
    <i name="pawpsdc">   3950.05738605 </i>
    <i name="pawaedc">  -3364.56566724 </i>
    <i name="eentropy">     -0.23298373 </i>
    <i name="bandstr">  -1386.85687754 </i>
    <i name="atom">   6761.44252427 </i>
    <i name="e_fr_energy">   -190.59050605 </i>
    <i name="e_wo_entrp">   -190.35752233 </i>
    <i name="e_0_energy">   -190.47401419 </i>
   </energy>
  </scstep>
  <scstep>
   <time name="dav">   29.15   29.22</time>
   <time name="total">   29.68   29.76</time>
   <energy>
    <i name="e_fr_energy">   -190.57312065 </i>
    <i name="e_wo_entrp">   -190.34513248 </i>
    <i name="e_0_energy">   -190.45912657 </i>
   </energy>
  </scstep>
  <scstep>
   <time name="dav">   31.62   31.69</time>
   <time name="total">   32.15   32.23</time>
   <energy>
    <i name="e_fr_energy">   -190.06242788 </i>
    <i name="e_wo_entrp">   -189.81383083 </i>
    <i name="e_0_energy">   -189.93812935 </i>
   </energy>
  </scstep>
  <scstep>
   <time name="dav">   32.71   32.78</time>
   <time name="total">   33.24   33.33</time>
   <energy>
    <i name="e_fr_energy">   -189.85619857 </i>
    <i name="e_wo_entrp">   -189.62780014 </i>
    <i name="e_0_energy">   -189.74199936 </i>
   </energy>
  </scstep>
  <scstep>
   <time name="dav">   29.05   29.12</time>
   <time name="total">   29.58   29.66</time>
   <energy>
    <i name="e_fr_energy">   -189.79230622 </i>
    <i name="e_wo_entrp">   -189.54972194 </i>
    <i name="e_0_energy">   -189.67101408 </i>
   </energy>
  </scstep>
  <scstep>
   <time name="dav">   32.62   32.70</time>
   <time name="total">   33.16   33.25</time>
   <energy>
    <i name="e_fr_energy">   -189.75977029 </i>
    <i name="e_wo_entrp">   -189.52723165 </i>
    <i name="e_0_energy">   -189.64350097 </i>
   </energy>
  </scstep>
  <scstep>
   <time name="dav">   32.18   32.25</time>
   <time name="total">   32.71   32.80</time>
   <energy>
    <i name="e_fr_energy">   -189.75232540 </i>
    <i name="e_wo_entrp">   -189.51765840 </i>
    <i name="e_0_energy">   -189.63499190 </i>
   </energy>
  </scstep>
  <scstep>
   <time name="dav">   27.28   27.34</time>
   <time name="total">   27.81   27.89</time>
   <energy>
    <i name="e_fr_energy">   -189.75234130 </i>
    <i name="e_wo_entrp">   -189.51788396 </i>
    <i name="e_0_energy">   -189.63511263 </i>
   </energy>
  </scstep>
  <scstep>
   <time name="dav">   27.80   27.86</time>
   <time name="total">   28.33   28.41</time>
   <energy>
    <i name="e_fr_energy">   -189.75255973 </i>
    <i name="e_wo_entrp">   -189.51801199 </i>
    <i name="e_0_energy">   -189.63528586 </i>
   </energy>
  </scstep>
  <scstep>
   <time name="dav">   24.70   24.76</time>
   <time name="total">   25.24   25.31</time>
   <energy>
    <i name="e_fr_energy">   -189.75243043 </i>
    <i name="e_wo_entrp">   -189.51770233 </i>
    <i name="e_0_energy">   -189.63506638 </i>
   </energy>
  </scstep>
  <scstep>
   <time name="dav">   20.52   20.57</time>
   <time name="total">   20.56   20.62</time>
   <energy>
    <i name="alphaZ">     82.35844535 </i>
    <i name="ewald">  41309.99371723 </i>
    <i name="hartreedc"> -47282.17840765 </i>
    <i name="XCdc">   -235.23572569 </i>
    <i name="pawpsdc">   4038.74032844 </i>
    <i name="pawaedc">  -3454.44824766 </i>
    <i name="eentropy">     -0.23466411 </i>
    <i name="bandstr">  -1410.19041673 </i>
    <i name="atom">   6761.44252427 </i>
    <i name="e_fr_energy">   -189.75244655 </i>
    <i name="e_wo_entrp">   -189.51778244 </i>
    <i name="e_0_energy">   -189.63511450 </i>
   </energy>
  </scstep>
  <structure>
   <crystal>
    <varray name="basis" >
     <v>       8.66962008       4.99741602       0.00000000 </v>
     <v>      -8.66944329       4.99711055       0.00000000 </v>
     <v>       0.00000000       0.00000000      30.00000000 </v>
    </varray>
    <i name="volume">   2599.43594146 </i>
    <varray name="rec_basis" >
     <v>       0.05767148       0.10005374       0.00000000 </v>
     <v>      -0.05767500       0.10005578       0.00000000 </v>
     <v>       0.00000000       0.00000000       0.03333333 </v>
    </varray>
   </crystal>
   <varray name="positions" >
    <v>       0.33199971       0.00043620      -0.00021448 </v>
    <v>       0.66531269       0.33301818      -0.00003325 </v>
    <v>       1.00263171       0.33331357       0.00018483 </v>
    <v>       0.00152465       0.00148531      -0.00009933 </v>
    <v>       0.33153665       0.33333458      -0.00003310 </v>
    <v>       0.33387582       0.66494761       0.00014145 </v>
    <v>       0.00204842       0.66817724       0.00012787 </v>
    <v>       0.66665476      -0.00144573      -0.00009424 </v>
    <v>       0.66430843       0.66665097       0.00003381 </v>
    <v>       0.10854822       0.22452493       0.95187109 </v>
    <v>       0.22467275       0.10865276       0.04802737 </v>
    <v>       0.10808366       0.55139920       0.95199774 </v>
    <v>       0.21733245       0.44200857       0.04824596 </v>
    <v>       0.11518748       0.89002680       0.95179380 </v>
    <v>       0.22319644       0.78159325       0.04803562 </v>
    <v>       0.44646316       0.21975185       0.95308251 </v>
    <v>       0.55379581       0.11263187       0.04683886 </v>
    <v>       0.44565916       0.55603514       0.95066061 </v>
    <v>       0.55853948       0.44315329       0.04796551 </v>
    <v>       0.44307938       0.89196702       0.95208994 </v>
    <v>       0.55641265       0.77811969       0.04943829 </v>
    <v>       0.77910929       0.22539893       0.95329142 </v>
    <v>       0.88993444       0.11524745       0.04805887 </v>
    <v>       0.77599054       0.55199862       0.95203200 </v>
    <v>       0.88742180       0.44102616       0.04675829 </v>
    <v>       0.77677816       0.88822512       0.95067667 </v>
    <v>       0.88811674       0.77653588       0.04912177 </v>
   </varray>
  </structure>
  <varray name="forces" >
   <v>      -0.25991419      -0.15951919      -0.01288836 </v>
   <v>      -0.14707188      -0.05625223      -0.01239425 </v>
   <v>       0.32513861       0.21381845       0.00518603 </v>
   <v>       0.05457083       0.06836400       0.05264774 </v>
   <v>      -0.33468321      -0.02332191       0.01141197 </v>
   <v>       0.46283186       0.04545834      -0.05122441 </v>
   <v>      -0.08297601       0.27711990       0.06805215 </v>
   <v>       0.45309957      -0.28566163      -0.08533119 </v>
   <v>      -0.48289242      -0.08611304       0.00279129 </v>
   <v>      -0.14539628       0.00056933      -0.66445138 </v>
   <v>       0.13300361       0.02716474       0.54080109 </v>
   <v>       0.00540943      -0.12312626      -0.41723784 </v>
   <v>      -0.06092117      -0.15120408       0.71446351 </v>
   <v>       0.08172850       0.10544861      -0.61759158 </v>
   <v>      -0.05672511       0.10609085       0.46372023 </v>
   <v>       0.08779330      -0.01311021      -0.39096627 </v>
   <v>      -0.04281493      -0.00950647       0.26623306 </v>
   <v>       0.02619287       0.01609208      -0.71362889 </v>
   <v>       0.08261103       0.01220217       0.46823632 </v>
   <v>      -0.08449970       0.03287031      -0.40004610 </v>
   <v>       0.02512493       0.02906352       0.73608650 </v>
   <v>      -0.00669551       0.06605219      -0.21607984 </v>
   <v>      -0.09407625       0.08390592       0.47786050 </v>
   <v>       0.01471337      -0.04206602      -0.32174150 </v>
   <v>       0.02712750      -0.05684970       0.26105914 </v>
   <v>      -0.00983378      -0.02900905      -0.59455296 </v>
   <v>       0.02915504      -0.04848061       0.42958504 </v>
  </varray>
  <varray name="stress" >
   <v>     -10.17714933      -0.00004115       0.07197727 </v>
   <v>      -0.00004116      -9.78974479      -0.01313139 </v>
   <v>       0.07197729      -0.01313153       6.55377993 </v>
  </varray>
  <energy>
   <i name="e_fr_energy">   -189.75244655 </i>
   <i name="e_wo_entrp">   -189.63511450 </i>
   <i name="e_0_energy">     -0.23466411 </i>
  </energy>
  <time name="totalsc">  361.77  362.73</time>
 </calculation>
 <calculation>
  <scstep>
   <time name="dav">   22.81   22.87</time>
   <time name="total">   23.33   23.39</time>
   <energy>
    <i name="alphaZ">     85.83447358 </i>
    <i name="ewald">  42838.29902940 </i>
    <i name="hartreedc"> -48855.00239742 </i>
    <i name="XCdc">   -232.95852388 </i>
    <i name="pawpsdc">   4038.91103430 </i>
    <i name="pawaedc">  -3454.61807822 </i>
    <i name="eentropy">     -0.19133556 </i>
    <i name="bandstr">  -1373.01345902 </i>
    <i name="atom">   6761.44252427 </i>
    <i name="e_fr_energy">   -191.29673254 </i>
    <i name="e_wo_entrp">   -191.10539698 </i>
    <i name="e_0_energy">   -191.20106476 </i>
   </energy>
  </scstep>
  <scstep>
   <time name="dav">   34.19   34.27</time>
   <time name="total">   34.70   34.79</time>
   <energy>
    <i name="e_fr_energy">   -191.18641339 </i>
    <i name="e_wo_entrp">   -190.98820602 </i>
    <i name="e_0_energy">   -191.08730970 </i>
   </energy>
  </scstep>
  <scstep>
   <time name="dav">   30.61   30.68</time>
   <time name="total">   31.12   31.21</time>
   <energy>
    <i name="e_fr_energy">   -191.23644643 </i>
    <i name="e_wo_entrp">   -191.02465263 </i>
    <i name="e_0_energy">   -191.13054953 </i>
   </energy>
  </scstep>
  <scstep>
   <time name="dav">   32.38   32.46</time>
   <time name="total">   32.90   32.99</time>
   <energy>
    <i name="e_fr_energy">   -190.90747381 </i>
    <i name="e_wo_entrp">   -190.69845629 </i>
    <i name="e_0_energy">   -190.80296505 </i>
   </energy>
  </scstep>
  <scstep>
   <time name="dav">   29.28   29.35</time>
   <time name="total">   29.80   29.88</time>
   <energy>
    <i name="e_fr_energy">   -190.89644161 </i>
    <i name="e_wo_entrp">   -190.71096443 </i>
    <i name="e_0_energy">   -190.80370302 </i>
   </energy>
  </scstep>
  <scstep>
   <time name="dav">   29.22   29.29</time>
   <time name="total">   29.74   29.82</time>
   <energy>
    <i name="e_fr_energy">   -190.71306019 </i>
    <i name="e_wo_entrp">   -190.51564838 </i>
    <i name="e_0_energy">   -190.61435429 </i>
   </energy>
  </scstep>
  <scstep>
   <time name="dav">   29.71   29.78</time>
   <time name="total">   30.22   30.30</time>
   <energy>
    <i name="e_fr_energy">   -190.71202743 </i>
    <i name="e_wo_entrp">   -190.51578853 </i>
    <i name="e_0_energy">   -190.61390798 </i>
   </energy>
  </scstep>
  <scstep>
   <time name="dav">   29.84   29.91</time>
   <time name="total">   30.36   30.44</time>
   <energy>
    <i name="e_fr_energy">   -190.71058381 </i>
    <i name="e_wo_entrp">   -190.51376833 </i>
    <i name="e_0_energy">   -190.61217607 </i>
   </energy>
  </scstep>
  <scstep>
   <time name="dav">   29.34   29.41</time>
   <time name="total">   29.86   29.94</time>
   <energy>
    <i name="e_fr_energy">   -190.70820518 </i>
    <i name="e_wo_entrp">   -190.51138278 </i>
    <i name="e_0_energy">   -190.60979398 </i>
   </energy>
  </scstep>
  <scstep>
   <time name="dav">   27.79   27.86</time>
   <time name="total">   28.31   28.39</time>
   <energy>
    <i name="e_fr_energy">   -190.70844123 </i>
    <i name="e_wo_entrp">   -190.51166273 </i>
    <i name="e_0_energy">   -190.61005198 </i>
   </energy>
  </scstep>
  <scstep>
   <time name="dav">   25.68   25.74</time>
   <time name="total">   25.71   25.78</time>
   <energy>
    <i name="alphaZ">     85.83447358 </i>
    <i name="ewald">  42838.29902940 </i>
    <i name="hartreedc"> -48826.26641234 </i>
    <i name="XCdc">   -234.29321667 </i>
    <i name="pawpsdc">   4062.70565424 </i>
    <i name="pawaedc">  -3478.57552275 </i>
    <i name="eentropy">     -0.19678776 </i>
    <i name="bandstr">  -1399.65810138 </i>
    <i name="atom">   6761.44252427 </i>
    <i name="e_fr_energy">   -190.70835939 </i>
    <i name="e_wo_entrp">   -190.51157163 </i>
    <i name="e_0_energy">   -190.60996551 </i>
   </energy>
  </scstep>
  <structure>
   <crystal>
    <varray name="basis" >
     <v>       8.48675886       4.89814957       0.00000000 </v>
     <v>      -8.48676198       4.89815580       0.00000000 </v>
     <v>       0.00000000       0.00000000      30.00000000 </v>
    </varray>
    <i name="volume">   2494.16690049 </i>
    <varray name="rec_basis" >
     <v>       0.05891533       0.10207932       0.00000000 </v>
     <v>      -0.05891526       0.10207928       0.00000000 </v>
     <v>       0.00000000       0.00000000       0.03333333 </v>
    </varray>
   </crystal>
   <varray name="positions" >
    <v>       0.32992305       0.00027944      -0.00021718 </v>
    <v>       0.66447838       0.33328683      -0.00005493 </v>
    <v>       1.00515699       0.33348020       0.00017414 </v>
    <v>       0.00203644       0.00154599       0.00001858 </v>
    <v>       0.33024436       0.33453060      -0.00000400 </v>
    <v>       0.33603432       0.66360739       0.00002279 </v>
    <v>       0.00340179       0.67029187       0.00025371 </v>
    <v>       0.66647583      -0.00512851      -0.00025913 </v>
    <v>       0.66202971       0.66801024       0.00003721 </v>
    <v>       0.10792264       0.22516010       0.95007261 </v>
    <v>       0.22545676       0.10826943       0.04955900 </v>
    <v>       0.10735062       0.55030113       0.95071874 </v>
    <v>       0.21597110       0.44118053       0.05016270 </v>
    <v>       0.11646063       0.89073132       0.95007414 </v>
    <v>       0.22405958       0.78280971       0.04941545 </v>
    <v>       0.44678086       0.21926712       0.95189068 </v>
    <v>       0.55336141       0.11292198       0.04776736 </v>
    <v>       0.44561077       0.55588021       0.94870268 </v>
    <v>       0.55886884       0.44259141       0.04935197 </v>
    <v>       0.44262939       0.89244840       0.95084450 </v>
    <v>       0.55645959       0.77812503       0.05146461 </v>
    <v>       0.77973290       0.22627998       0.95246760 </v>
    <v>       0.89042500       0.11641611       0.04947137 </v>
    <v>       0.77559914       0.55130369       0.95095101 </v>
    <v>       0.88694217       0.44012656       0.04768115 </v>
    <v>       0.77681189       0.88816849       0.94896391 </v>
    <v>       0.88799030       0.77632924       0.05046923 </v>
   </varray>
  </structure>
  <varray name="forces" >
   <v>      -0.31693151      -0.17859874       0.04310042 </v>
   <v>      -0.12419697      -0.02946886      -0.00359082 </v>
   <v>       0.27638294       0.19019059      -0.04789069 </v>
   <v>       0.08653957       0.03357326       0.03115583 </v>
   <v>      -0.32693352       0.01603598       0.01259039 </v>
   <v>       0.53454113       0.10552819      -0.02448913 </v>
   <v>      -0.11262248       0.25961797       0.01979528 </v>
   <v>       0.46452703      -0.31332075      -0.02169347 </v>
   <v>      -0.52948977      -0.09105373      -0.01048714 </v>
   <v>      -0.03754808       0.00050825      -0.44252621 </v>
   <v>       0.00706375       0.04375699       0.37230088 </v>
   <v>       0.02800471      -0.00464428      -0.21637537 </v>
   <v>      -0.02271461      -0.03372642       0.54578115 </v>
   <v>       0.00235868       0.07191230      -0.46661989 </v>
   <v>       0.04460796       0.07372263       0.25822653 </v>
   <v>      -0.03298171      -0.02610935      -0.31930972 </v>
   <v>       0.02297528      -0.02993948       0.13458376 </v>
   <v>       0.03645429      -0.04202324      -0.54404495 </v>
   <v>      -0.03615739      -0.01830142       0.29913968 </v>
   <v>       0.00242142      -0.02119820      -0.24410707 </v>
   <v>      -0.02043138      -0.03151236       0.59898651 </v>
   <v>       0.05557621       0.00452023      -0.09493050 </v>
   <v>      -0.02616159       0.02232296       0.30222494 </v>
   <v>      -0.03666466       0.01088802      -0.16788255 </v>
   <v>       0.02484600       0.00249702       0.17761274 </v>
   <v>       0.06908175       0.01452616      -0.46015678 </v>
   <v>      -0.03254706      -0.02970374       0.26860616 </v>
  </varray>
  <varray name="stress" >
   <v>      -5.74073342       0.02001320      -0.12571309 </v>
   <v>       0.02001307      -5.94847175      -0.00814256 </v>
   <v>      -0.12571321      -0.00814251       4.55052971 </v>
  </varray>
  <energy>
   <i name="e_fr_energy">   -190.70835939 </i>
   <i name="e_wo_entrp">   -190.60996551 </i>
   <i name="e_0_energy">     -0.19678776 </i>
  </energy>
  <time name="totalsc">  369.83  370.81</time>
 </calculation>
 <calculation>
  <scstep>
   <time name="dav">   22.79   22.84</time>
   <time name="total">   23.30   23.36</time>
   <energy>
    <i name="alphaZ">     90.31948178 </i>
    <i name="ewald">  44738.45392393 </i>
    <i name="hartreedc"> -50783.00068742 </i>
    <i name="XCdc">   -231.71020198 </i>
    <i name="pawpsdc">   4063.11281780 </i>
    <i name="pawaedc">  -3478.98181343 </i>
    <i name="eentropy">     -0.17736700 </i>
    <i name="bandstr">  -1351.59068467 </i>
    <i name="atom">   6761.44252427 </i>
    <i name="e_fr_energy">   -192.13200672 </i>
    <i name="e_wo_entrp">   -191.95463972 </i>
    <i name="e_0_energy">   -192.04332322 </i>
   </energy>
  </scstep>
  <scstep>
   <time name="dav">   31.54   31.61</time>
   <time name="total">   32.04   32.12</time>
   <energy>
    <i name="e_fr_energy">   -191.96102586 </i>
    <i name="e_wo_entrp">   -191.76230458 </i>
    <i name="e_0_energy">   -191.86166522 </i>
   </energy>
  </scstep>
  <scstep>
   <time name="dav">   31.55   31.62</time>
   <time name="total">   32.05   32.14</time>
   <energy>
    <i name="e_fr_energy">   -192.41048811 </i>
    <i name="e_wo_entrp">   -192.21915363 </i>
    <i name="e_0_energy">   -192.31482087 </i>
   </energy>
  </scstep>
  <scstep>
   <time name="dav">   31.65   31.73</time>
   <time name="total">   32.16   32.24</time>
   <energy>
    <i name="e_fr_energy">   -191.53948194 </i>
    <i name="e_wo_entrp">   -191.35929702 </i>
    <i name="e_0_energy">   -191.44938948 </i>
   </energy>
  </scstep>
  <scstep>
   <time name="dav">   30.73   30.80</time>
   <time name="total">   31.24   31.32</time>
   <energy>
    <i name="e_fr_energy">   -191.50982787 </i>
    <i name="e_wo_entrp">   -191.31300451 </i>
    <i name="e_0_energy">   -191.41141619 </i>
   </energy>
  </scstep>
  <scstep>
   <time name="dav">   31.50   31.58</time>
   <time name="total">   32.01   32.09</time>
   <energy>
    <i name="e_fr_energy">   -191.37296520 </i>
    <i name="e_wo_entrp">   -191.19055720 </i>
    <i name="e_0_energy">   -191.28176120 </i>
   </energy>
  </scstep>
  <scstep>
   <time name="dav">   30.91   30.98</time>
   <time name="total">   31.41   31.50</time>
   <energy>
    <i name="e_fr_energy">   -191.34830449 </i>
    <i name="e_wo_entrp">   -191.16327925 </i>
    <i name="e_0_energy">   -191.25579187 </i>
   </energy>
  </scstep>
  <scstep>
   <time name="dav">   31.21   31.29</time>
   <time name="total">   31.72   31.80</time>
   <energy>
    <i name="e_fr_energy">   -191.34692242 </i>
    <i name="e_wo_entrp">   -191.16027039 </i>
    <i name="e_0_energy">   -191.25359641 </i>
   </energy>
  </scstep>
  <scstep>
   <time name="dav">   29.83   29.91</time>
   <time name="total">   30.34   30.42</time>
   <energy>
    <i name="e_fr_energy">   -191.34146515 </i>
    <i name="e_wo_entrp">   -191.15568552 </i>
    <i name="e_0_energy">   -191.24857534 </i>
   </energy>
  </scstep>
  <scstep>
   <time name="dav">   30.01   30.08</time>
   <time name="total">   30.51   30.59</time>
   <energy>
    <i name="e_fr_energy">   -191.34158825 </i>
    <i name="e_wo_entrp">   -191.15548771 </i>
    <i name="e_0_energy">   -191.24853798 </i>
   </energy>
  </scstep>
  <scstep>
   <time name="dav">   28.31   28.38</time>
   <time name="total">   28.81   28.89</time>
   <energy>
    <i name="e_fr_energy">   -191.34144735 </i>
    <i name="e_wo_entrp">   -191.15505966 </i>
    <i name="e_0_energy">   -191.24825351 </i>
   </energy>
  </scstep>
  <scstep>
   <time name="dav">   20.90   20.95</time>
   <time name="total">   20.94   20.99</time>
   <energy>
    <i name="alphaZ">     90.31948178 </i>
    <i name="ewald">  44738.45392393 </i>
    <i name="hartreedc"> -50748.12522395 </i>
    <i name="XCdc">   -233.29779436 </i>
    <i name="pawpsdc">   4086.58486976 </i>
    <i name="pawaedc">  -3502.55075601 </i>
    <i name="eentropy">     -0.18628233 </i>
    <i name="bandstr">  -1383.98215688 </i>
    <i name="atom">   6761.44252427 </i>
    <i name="e_fr_energy">   -191.34141378 </i>
    <i name="e_wo_entrp">   -191.15513145 </i>
    <i name="e_0_energy">   -191.24827261 </i>
   </energy>
  </scstep>
  <structure>
   <crystal>
    <varray name="basis" >
     <v>       8.27859048       4.77310302       0.00000000 </v>
     <v>      -8.27761310       4.77141077       0.00000000 </v>
     <v>       0.00000000       0.00000000      30.00000000 </v>
    </varray>
    <i name="volume">   2370.31367676 </i>
    <varray name="rec_basis" >
     <v>       0.06038961       0.10476605       0.00000000 </v>
     <v>      -0.06041103       0.10477842       0.00000000 </v>
     <v>       0.00000000       0.00000000       0.03333333 </v>
    </varray>
   </crystal>
   <varray name="positions" >
    <v>       0.32537694       0.00019694      -0.00004569 </v>
    <v>       0.66321773       0.33389116      -0.00006950 </v>
    <v>       1.00958280       0.33385388      -0.00001524 </v>
    <v>       0.00296405       0.00123356       0.00016621 </v>
    <v>       0.32810847       0.33715994       0.00005250 </v>
    <v>       0.34122110       0.66112011      -0.00010513 </v>
    <v>       0.00577011       0.67439988       0.00034199 </v>
    <v>       0.66592158      -0.01256248      -0.00036721 </v>
    <v>       0.65718301       0.67080763      -0.00000065 </v>
    <v>       0.10743462       0.22566374       0.94767426 </v>
    <v>       0.22629887       0.10852453       0.05163272 </v>
    <v>       0.10729380       0.54950698       0.94925224 </v>
    <v>       0.21493002       0.44064701       0.05296563 </v>
    <v>       0.11787171       0.89198010       0.94759577 </v>
    <v>       0.22571795       0.78396187       0.05105852 </v>
    <v>       0.44645839       0.21898424       0.95011754 </v>
    <v>       0.55286797       0.11271407       0.04882245 </v>
    <v>       0.44515378       0.55501939       0.94585602 </v>
    <v>       0.55849777       0.44216145       0.05113707 </v>
    <v>       0.44198072       0.89230942       0.94928814 </v>
    <v>       0.55580581       0.77783820       0.05454073 </v>
    <v>       0.78050239       0.22662151       0.95157899 </v>
    <v>       0.89090853       0.11740325       0.05127959 </v>
    <v>       0.77522109       0.55111857       0.94970572 </v>
    <v>       0.88679366       0.43935682       0.04888955 </v>
    <v>       0.77762852       0.88796320       0.94647280 </v>
    <v>       0.88750308       0.77633950       0.05217487 </v>
   </varray>
  </structure>
  <varray name="forces" >
   <v>      -0.41055118      -0.06723925       0.01256584 </v>
   <v>      -0.08216165      -0.03021804       0.00083984 </v>
   <v>       0.15941098       0.11628787       0.00226889 </v>
   <v>       0.11905857       0.00189843      -0.03114323 </v>
   <v>      -0.09112822       0.05227207      -0.02047654 </v>
   <v>       0.32774995       0.08532095       0.05726943 </v>
   <v>      -0.16472519       0.12994075       0.01155580 </v>
   <v>       0.27031922      -0.19887507       0.02195294 </v>
   <v>      -0.23797563      -0.07764517      -0.07978262 </v>
   <v>       0.05510165      -0.00287141      -0.09817539 </v>
   <v>      -0.13668241       0.05099815       0.12116910 </v>
   <v>       0.03232944       0.16056459       0.06342791 </v>
   <v>       0.01390312       0.08166919       0.16866361 </v>
   <v>      -0.07115675       0.02594582      -0.17366424 </v>
   <v>       0.14725114       0.02937481      -0.07500292 </v>
   <v>      -0.13065880      -0.05370714      -0.04593946 </v>
   <v>       0.10563428      -0.06862673      -0.10374539 </v>
   <v>       0.07928771      -0.05820997      -0.25198002 </v>
   <v>      -0.17157444       0.01029086       0.02713500 </v>
   <v>       0.11064196      -0.06112097       0.08444309 </v>
   <v>      -0.02080256      -0.07714188       0.35153819 </v>
   <v>       0.14427900      -0.09526442       0.12046076 </v>
   <v>       0.04776212      -0.06182648       0.01392926 </v>
   <v>      -0.15198714       0.08397225       0.06544445 </v>
   <v>       0.01649141       0.08648269      -0.06031437 </v>
   <v>       0.12983204       0.01414911      -0.19404515 </v>
   <v>      -0.08964861      -0.07642099       0.01160523 </v>
  </varray>
  <varray name="stress" >
   <v>       0.36924841      -0.03128683      -0.31839400 </v>
   <v>      -0.03128696      -0.13289895      -0.04227785 </v>
   <v>      -0.31839409      -0.04227777      -0.20393535 </v>
  </varray>
  <energy>
   <i name="e_fr_energy">   -191.34141378 </i>
   <i name="e_wo_entrp">   -191.24827261 </i>
   <i name="e_0_energy">     -0.18628233 </i>
  </energy>
  <time name="totalsc">  400.04  401.10</time>
 </calculation>
 <calculation>
  <scstep>
   <time name="dav">   22.78   22.83</time>
   <time name="total">   23.29   23.34</time>
   <energy>
    <i name="alphaZ">     90.22242105 </i>
    <i name="ewald">  44671.32571415 </i>
    <i name="hartreedc"> -50680.74587416 </i>
    <i name="XCdc">   -233.45888590 </i>
    <i name="pawpsdc">   4086.46795301 </i>
    <i name="pawaedc">  -3502.42929976 </i>
    <i name="eentropy">     -0.18943266 </i>
    <i name="bandstr">  -1384.02339672 </i>
    <i name="atom">   6761.44252427 </i>
    <i name="e_fr_energy">   -191.38827673 </i>
    <i name="e_wo_entrp">   -191.19884406 </i>
    <i name="e_0_energy">   -191.29356039 </i>
   </energy>
  </scstep>
  <scstep>
   <time name="dav">   31.91   31.99</time>
   <time name="total">   32.41   32.50</time>
   <energy>
    <i name="e_fr_energy">   -191.44677193 </i>
    <i name="e_wo_entrp">   -191.24610393 </i>
    <i name="e_0_energy">   -191.34643793 </i>
   </energy>
  </scstep>
  <scstep>
   <time name="dav">   31.19   31.27</time>
   <time name="total">   31.70   31.78</time>
   <energy>
    <i name="e_fr_energy">   -191.39713472 </i>
    <i name="e_wo_entrp">   -191.20732412 </i>
    <i name="e_0_energy">   -191.30222942 </i>
   </energy>
  </scstep>
  <scstep>
   <time name="dav">   29.90   29.98</time>
   <time name="total">   30.41   30.49</time>
   <energy>
    <i name="e_fr_energy">   -191.39744974 </i>
    <i name="e_wo_entrp">   -191.20605534 </i>
    <i name="e_0_energy">   -191.30175254 </i>
   </energy>
  </scstep>
  <scstep>
   <time name="dav">   30.03   30.10</time>
   <time name="total">   30.54   30.62</time>
   <energy>
    <i name="e_fr_energy">   -191.39451478 </i>
    <i name="e_wo_entrp">   -191.20342440 </i>
    <i name="e_0_energy">   -191.29896959 </i>
   </energy>
  </scstep>
  <scstep>
   <time name="dav">   29.94   30.02</time>
   <time name="total">   30.45   30.53</time>
   <energy>
    <i name="e_fr_energy">   -191.39463195 </i>
    <i name="e_wo_entrp">   -191.20336909 </i>
    <i name="e_0_energy">   -191.29900052 </i>
   </energy>
  </scstep>
  <scstep>
   <time name="dav">   28.82   28.89</time>
   <time name="total">   29.32   29.40</time>
   <energy>
    <i name="e_fr_energy">   -191.39448938 </i>
    <i name="e_wo_entrp">   -191.20351090 </i>
    <i name="e_0_energy">   -191.29900014 </i>
   </energy>
  </scstep>
  <scstep>
   <time name="dav">   24.87   24.93</time>
   <time name="total">   25.37   25.44</time>
   <energy>
    <i name="e_fr_energy">   -191.39409323 </i>
    <i name="e_wo_entrp">   -191.20312107 </i>
    <i name="e_0_energy">   -191.29860715 </i>
   </energy>
  </scstep>
  <scstep>
   <time name="dav">   19.17   19.22</time>
   <time name="total">   19.21   19.26</time>
   <energy>
    <i name="alphaZ">     90.22242105 </i>
    <i name="ewald">  44671.32571415 </i>
    <i name="hartreedc"> -50682.47589488 </i>
    <i name="XCdc">   -233.40478792 </i>
    <i name="pawpsdc">   4082.53183356 </i>
    <i name="pawaedc">  -3498.43596765 </i>
    <i name="eentropy">     -0.19100933 </i>
    <i name="bandstr">  -1382.40894195 </i>
    <i name="atom">   6761.44252427 </i>
    <i name="e_fr_energy">   -191.39410870 </i>
    <i name="e_wo_entrp">   -191.20309937 </i>
    <i name="e_0_energy">   -191.29860404 </i>
   </energy>
  </scstep>
  <structure>
   <crystal>
    <varray name="basis" >
     <v>       8.28794764       4.77194150       0.00000000 </v>
     <v>      -8.28774963       4.77160331       0.00000000 </v>
     <v>       0.00000000       0.00000000      30.00000000 </v>
    </varray>
    <i name="volume">   2372.86364568 </i>
    <varray name="rec_basis" >
     <v>       0.06032715       0.10478162       0.00000000 </v>
     <v>      -0.06033142       0.10478412       0.00000000 </v>
     <v>       0.00000000       0.00000000       0.03333333 </v>
    </varray>
   </crystal>
   <varray name="positions" >
    <v>       0.32395123       0.00103428      -0.00002861 </v>
    <v>       0.66285521       0.33396548      -0.00006796 </v>
    <v>       1.01053874       0.33396824      -0.00000881 </v>
    <v>       0.00329815       0.00091076       0.00011491 </v>
    <v>       0.32814015       0.33763464       0.00001949 </v>
    <v>       0.34249102       0.66064774      -0.00001313 </v>
    <v>       0.00590630       0.67544336       0.00035866 </v>
    <v>       0.66571803      -0.01419253      -0.00033094 </v>
    <v>       0.65619922       0.67105639      -0.00012512 </v>
    <v>       0.10758673       0.22548302       0.94756364 </v>
    <v>       0.22614647       0.10916232       0.05178479 </v>
    <v>       0.10817921       0.55022373       0.94938028 </v>
    <v>       0.21539245       0.44102085       0.05318058 </v>
    <v>       0.11777058       0.89228686       0.94736793 </v>
    <v>       0.22625068       0.78366493       0.05090954 </v>
    <v>       0.44582556       0.21909711       0.95007783 </v>
    <v>       0.55284041       0.11207597       0.04863840 </v>
    <v>       0.44510125       0.55452164       0.94551172 </v>
    <v>       0.55806596       0.44271070       0.05114618 </v>
    <v>       0.44200792       0.89169490       0.94945027 </v>
    <v>       0.55537814       0.77752218       0.05503742 </v>
    <v>       0.78042771       0.22573037       0.95178659 </v>
    <v>       0.89072816       0.11694254       0.05126754 </v>
    <v>       0.77521157       0.55197254       0.94983325 </v>
    <v>       0.88727230       0.43975416       0.04877140 </v>
    <v>       0.77805269       0.88766626       0.94621362 </v>
    <v>       0.88687861       0.77621604       0.05216043 </v>
   </varray>
  </structure>
  <varray name="forces" >
   <v>      -0.42543886      -0.04599878       0.01998110 </v>
   <v>      -0.07676053      -0.03753286       0.02112004 </v>
   <v>       0.15810297       0.12549361      -0.00572625 </v>
   <v>       0.12688013       0.00289932      -0.01497557 </v>
   <v>      -0.09682164       0.04478879      -0.01391394 </v>
   <v>       0.37850540       0.07029717       0.01607419 </v>
   <v>      -0.18778138       0.14061604       0.03066185 </v>
   <v>       0.31853008      -0.20583070       0.00599244 </v>
   <v>      -0.28068039      -0.07770764      -0.02899986 </v>
   <v>       0.02548178      -0.00524625      -0.06085916 </v>
   <v>      -0.09755314       0.02923978       0.09804218 </v>
   <v>       0.01102371       0.11376321       0.10192859 </v>
   <v>       0.02484628       0.04433581       0.12825926 </v>
   <v>      -0.05032642       0.02472083      -0.14941615 </v>
   <v>       0.08346299       0.03631884      -0.11185715 </v>
   <v>      -0.08271409      -0.03760117      -0.04074226 </v>
   <v>       0.06452607      -0.05480119      -0.12711689 </v>
   <v>       0.05032870      -0.04552307      -0.18145054 </v>
   <v>      -0.10596460       0.01334424       0.00480890 </v>
   <v>       0.05796343      -0.04890810       0.12551529 </v>
   <v>       0.02555056      -0.04728457       0.23231020 </v>
   <v>       0.10127610      -0.06708396       0.14472206 </v>
   <v>       0.04295048      -0.03600655      -0.00910118 </v>
   <v>      -0.09461991       0.05279965       0.04608375 </v>
   <v>       0.00881401       0.06305685      -0.09575056 </v>
   <v>       0.08121080       0.00713416      -0.12076265 </v>
   <v>      -0.06079252      -0.05928346      -0.01482769 </v>
  </varray>
  <varray name="stress" >
   <v>      -0.18526286       0.01553266      -0.12181511 </v>
   <v>       0.01553251      -0.26831146      -0.00595940 </v>
   <v>      -0.12181511      -0.00595929      -0.98664302 </v>
  </varray>
  <energy>
   <i name="e_fr_energy">   -191.39410870 </i>
   <i name="e_wo_entrp">   -191.29860404 </i>
   <i name="e_0_energy">     -0.19100933 </i>
  </energy>
  <time name="totalsc">  296.28  297.06</time>
 </calculation>
 <calculation>
  <scstep>
   <time name="dav">   22.75   22.81</time>
   <time name="total">   23.26   23.32</time>
   <energy>
    <i name="alphaZ">     90.45929691 </i>
    <i name="ewald">  44767.95321911 </i>
    <i name="hartreedc"> -50781.96263542 </i>
    <i name="XCdc">   -233.28728885 </i>
    <i name="pawpsdc">   4082.36934832 </i>
    <i name="pawaedc">  -3498.27123948 </i>
    <i name="eentropy">     -0.19068066 </i>
    <i name="bandstr">  -1379.97644981 </i>
    <i name="atom">   6761.44252427 </i>
    <i name="e_fr_energy">   -191.46390561 </i>
    <i name="e_wo_entrp">   -191.27322494 </i>
    <i name="e_0_energy">   -191.36856528 </i>
   </energy>
  </scstep>
  <scstep>
   <time name="dav">   32.15   32.23</time>
   <time name="total">   32.66   32.74</time>
   <energy>
    <i name="e_fr_energy">   -191.56490927 </i>
    <i name="e_wo_entrp">   -191.34844607 </i>
    <i name="e_0_energy">   -191.45667767 </i>
   </energy>
  </scstep>
  <scstep>
   <time name="dav">   30.96   31.03</time>
   <time name="total">   31.46   31.55</time>
   <energy>
    <i name="e_fr_energy">   -191.47922369 </i>
    <i name="e_wo_entrp">   -191.28768704 </i>
    <i name="e_0_energy">   -191.38345536 </i>
   </energy>
  </scstep>
  <scstep>
   <time name="dav">   29.80   29.87</time>
   <time name="total">   30.30   30.38</time>
   <energy>
    <i name="e_fr_energy">   -191.47865735 </i>
    <i name="e_wo_entrp">   -191.28541033 </i>
    <i name="e_0_energy">   -191.38203384 </i>
   </energy>
  </scstep>
  <scstep>
   <time name="dav">   30.36   30.44</time>
   <time name="total">   30.87   30.95</time>
   <energy>
    <i name="e_fr_energy">   -191.47024438 </i>
    <i name="e_wo_entrp">   -191.27629243 </i>
    <i name="e_0_energy">   -191.37326841 </i>
   </energy>
  </scstep>
  <scstep>
   <time name="dav">   29.81   29.88</time>
   <time name="total">   30.31   30.39</time>
   <energy>
    <i name="e_fr_energy">   -191.47007933 </i>
    <i name="e_wo_entrp">   -191.27530913 </i>
    <i name="e_0_energy">   -191.37269423 </i>
   </energy>
  </scstep>
  <scstep>
   <time name="dav">   29.32   29.39</time>
   <time name="total">   29.83   29.91</time>
   <energy>
    <i name="e_fr_energy">   -191.46946072 </i>
    <i name="e_wo_entrp">   -191.27493265 </i>
    <i name="e_0_energy">   -191.37219668 </i>
   </energy>
  </scstep>
  <scstep>
   <time name="dav">   27.41   27.47</time>
   <time name="total">   27.91   27.99</time>
   <energy>
    <i name="e_fr_energy">   -191.46863730 </i>
    <i name="e_wo_entrp">   -191.27383231 </i>
    <i name="e_0_energy">   -191.37123480 </i>
   </energy>
  </scstep>
  <scstep>
[...]
      <set comment="kpoint 31">
       <r>  -17.5944    1.0000 </r>
       <r>  -17.2490    1.0000 </r>
       <r>  -16.9285    1.0000 </r>
       <r>  -16.6819    1.0000 </r>
       <r>  -16.5274    1.0000 </r>
       <r>  -16.4820    1.0000 </r>
       <r>  -16.3540    1.0000 </r>
       <r>  -16.2301    1.0000 </r>
       <r>  -16.1655    1.0000 </r>
       <r>  -16.0152    1.0000 </r>
       <r>  -15.9396    1.0000 </r>
       <r>  -15.8739    1.0000 </r>
       <r>  -15.7148    1.0000 </r>
       <r>  -15.6411    1.0000 </r>
       <r>  -15.5711    1.0000 </r>
       <r>  -15.4118    1.0000 </r>
       <r>  -15.3411    1.0000 </r>
       <r>  -15.2406    1.0000 </r>
       <r>   -9.8066    1.0000 </r>
       <r>   -9.4955    1.0000 </r>
       <r>   -9.3902    1.0000 </r>
       <r>   -9.0754    1.0000 </r>
       <r>   -8.8521    1.0000 </r>
       <r>   -8.7138    1.0000 </r>
       <r>   -8.5964    1.0000 </r>
       <r>   -8.5053    1.0000 </r>
       <r>   -8.3860    1.0000 </r>
       <r>   -8.3464    1.0000 </r>
       <r>   -8.2592    1.0000 </r>
       <r>   -8.2282    1.0000 </r>
       <r>   -8.1456    1.0000 </r>
       <r>   -8.0502    1.0000 </r>
       <r>   -7.9332    1.0000 </r>
       <r>   -7.8818    1.0000 </r>
       <r>   -7.8545    1.0000 </r>
       <r>   -7.6902    1.0000 </r>
       <r>   -7.6042    1.0000 </r>
       <r>   -7.5494    1.0000 </r>
       <r>   -7.4124    1.0000 </r>
       <r>   -7.2237    1.0000 </r>
       <r>   -7.1623    1.0000 </r>
       <r>   -7.0724    1.0000 </r>
       <r>   -7.0020    1.0000 </r>
       <r>   -6.9652    1.0000 </r>
       <r>   -6.9215    1.0000 </r>
       <r>   -6.7548    1.0000 </r>
       <r>   -6.6424    1.0000 </r>
       <r>   -6.5818    1.0000 </r>
       <r>   -6.5336    1.0000 </r>
       <r>   -6.4431    1.0000 </r>
       <r>   -6.3828    1.0000 </r>
       <r>   -6.3233    1.0000 </r>
       <r>   -6.2208    1.0000 </r>
       <r>   -6.1500    1.0000 </r>
       <r>   -6.0915    1.0000 </r>
       <r>   -6.0276    1.0000 </r>
       <r>   -5.9736    1.0000 </r>
       <r>   -5.9140    1.0000 </r>
       <r>   -5.8922    1.0000 </r>
       <r>   -5.7014    1.0000 </r>
       <r>   -5.6475    1.0000 </r>
       <r>   -5.5245    1.0000 </r>
       <r>   -5.4815    1.0000 </r>
       <r>   -5.3941    1.0000 </r>
       <r>   -5.2648    1.0000 </r>
       <r>   -5.2329    1.0000 </r>
       <r>   -4.9434    1.0000 </r>
       <r>   -4.8485    1.0000 </r>
       <r>   -4.7671    1.0000 </r>
       <r>   -4.7334    1.0000 </r>
       <r>   -4.4875    1.0000 </r>
       <r>   -4.4307    1.0000 </r>
       <r>   -4.3196    1.0000 </r>
       <r>   -4.1273    1.0000 </r>
       <r>   -4.0816    1.0000 </r>
       <r>   -3.9927    1.0000 </r>
       <r>   -3.8629    1.0000 </r>
       <r>   -3.7035    0.9996 </r>
       <r>   -3.6180    0.9970 </r>
       <r>   -3.1438    0.2710 </r>
       <r>   -3.0092    0.0592 </r>
       <r>   -2.8788    0.0065 </r>
       <r>   -2.6604    0.0000 </r>
       <r>   -2.5416    0.0000 </r>
       <r>   -2.4962    0.0000 </r>
       <r>   -2.3469    0.0000 </r>
       <r>   -2.2010    0.0000 </r>
       <r>   -2.0371    0.0000 </r>
       <r>   -1.9788    0.0000 </r>
       <r>   -1.8845    0.0000 </r>
       <r>   -1.7441    0.0000 </r>
       <r>   -1.4915    0.0000 </r>
       <r>   -1.3401    0.0000 </r>
       <r>   -1.2766    0.0000 </r>
       <r>   -1.1988    0.0000 </r>
       <r>   -1.1664    0.0000 </r>
       <r>   -1.0439    0.0000 </r>
       <r>   -0.9420    0.0000 </r>
       <r>   -0.9075    0.0000 </r>
       <r>   -0.8757    0.0000 </r>
       <r>   -0.8177    0.0000 </r>
       <r>   -0.7565    0.0000 </r>
       <r>   -0.6706    0.0000 </r>
       <r>   -0.5791    0.0000 </r>
       <r>   -0.4895    0.0000 </r>
       <r>   -0.2304    0.0000 </r>
       <r>   -0.1935    0.0000 </r>
       <r>   -0.1355    0.0000 </r>
       <r>    0.0231    0.0000 </r>
       <r>    0.1260    0.0000 </r>
       <r>    0.3382    0.0000 </r>
       <r>    0.6333    0.0000 </r>
       <r>    0.6899    0.0000 </r>
       <r>    1.0811    0.0000 </r>
       <r>    1.1549    0.0000 </r>
       <r>    1.3324    0.0000 </r>
       <r>    1.4341    0.0000 </r>
       <r>    2.1479    0.0000 </r>
       <r>    2.3146    0.0000 </r>
       <r>    2.4094    0.0000 </r>
      </set>
      <set comment="kpoint 32">
       <r>  -17.6074    1.0000 </r>
       <r>  -17.1589    1.0000 </r>
       <r>  -17.0588    1.0000 </r>
       <r>  -16.6957    1.0000 </r>
       <r>  -16.4869    1.0000 </r>
       <r>  -16.3961    1.0000 </r>
       <r>  -16.3021    1.0000 </r>
       <r>  -16.2599    1.0000 </r>
       <r>  -16.1995    1.0000 </r>
       <r>  -16.0363    1.0000 </r>
       <r>  -15.9531    1.0000 </r>
       <r>  -15.8700    1.0000 </r>
       <r>  -15.7241    1.0000 </r>
       <r>  -15.6388    1.0000 </r>
       <r>  -15.5996    1.0000 </r>
       <r>  -15.4583    1.0000 </r>
       <r>  -15.3202    1.0000 </r>
       <r>  -15.1977    1.0000 </r>
       <r>   -9.7030    1.0000 </r>
       <r>   -9.5742    1.0000 </r>
       <r>   -9.5001    1.0000 </r>
       <r>   -9.1170    1.0000 </r>
       <r>   -8.7852    1.0000 </r>
       <r>   -8.5915    1.0000 </r>
       <r>   -8.4812    1.0000 </r>
       <r>   -8.4161    1.0000 </r>
       <r>   -8.3831    1.0000 </r>
       <r>   -8.3526    1.0000 </r>
       <r>   -8.3223    1.0000 </r>
       <r>   -8.2847    1.0000 </r>
       <r>   -8.2158    1.0000 </r>
       <r>   -8.1006    1.0000 </r>
       <r>   -7.9580    1.0000 </r>
       <r>   -7.9277    1.0000 </r>
       <r>   -7.8576    1.0000 </r>
       <r>   -7.7328    1.0000 </r>
       <r>   -7.5506    1.0000 </r>
       <r>   -7.4816    1.0000 </r>
       <r>   -7.4005    1.0000 </r>
       <r>   -7.2406    1.0000 </r>
       <r>   -7.1506    1.0000 </r>
       <r>   -7.1136    1.0000 </r>
       <r>   -7.0638    1.0000 </r>
       <r>   -6.9561    1.0000 </r>
       <r>   -6.8995    1.0000 </r>
       <r>   -6.7689    1.0000 </r>
       <r>   -6.6580    1.0000 </r>
       <r>   -6.5500    1.0000 </r>
       <r>   -6.4719    1.0000 </r>
       <r>   -6.4038    1.0000 </r>
       <r>   -6.3281    1.0000 </r>
       <r>   -6.3086    1.0000 </r>
       <r>   -6.2733    1.0000 </r>
       <r>   -6.1885    1.0000 </r>
       <r>   -6.1044    1.0000 </r>
       <r>   -6.0428    1.0000 </r>
       <r>   -5.9736    1.0000 </r>
       <r>   -5.8797    1.0000 </r>
       <r>   -5.8088    1.0000 </r>
       <r>   -5.7064    1.0000 </r>
       <r>   -5.6342    1.0000 </r>
       <r>   -5.5613    1.0000 </r>
       <r>   -5.5069    1.0000 </r>
       <r>   -5.4153    1.0000 </r>
       <r>   -5.3553    1.0000 </r>
       <r>   -5.2137    1.0000 </r>
       <r>   -5.1446    1.0000 </r>
       <r>   -4.8047    1.0000 </r>
       <r>   -4.7085    1.0000 </r>
       <r>   -4.6690    1.0000 </r>
       <r>   -4.4842    1.0000 </r>
       <r>   -4.3514    1.0000 </r>
       <r>   -4.3179    1.0000 </r>
       <r>   -4.1990    1.0000 </r>
       <r>   -4.1026    1.0000 </r>
       <r>   -4.0437    1.0000 </r>
       <r>   -3.9941    1.0000 </r>
       <r>   -3.6810    0.9993 </r>
       <r>   -3.5393    0.9856 </r>
       <r>   -3.1251    0.2291 </r>
       <r>   -2.9431    0.0212 </r>
       <r>   -2.7817    0.0008 </r>
       <r>   -2.6793    0.0000 </r>
       <r>   -2.5113    0.0000 </r>
       <r>   -2.4753    0.0000 </r>
       <r>   -2.3447    0.0000 </r>
       <r>   -2.1105    0.0000 </r>
       <r>   -2.0158    0.0000 </r>
       <r>   -1.9408    0.0000 </r>
       <r>   -1.8916    0.0000 </r>
       <r>   -1.7543    0.0000 </r>
       <r>   -1.5599    0.0000 </r>
       <r>   -1.3765    0.0000 </r>
       <r>   -1.3408    0.0000 </r>
       <r>   -1.2476    0.0000 </r>
       <r>   -1.2118    0.0000 </r>
       <r>   -1.0257    0.0000 </r>
       <r>   -0.9686    0.0000 </r>
       <r>   -0.9262    0.0000 </r>
       <r>   -0.8852    0.0000 </r>
       <r>   -0.8256    0.0000 </r>
       <r>   -0.7834    0.0000 </r>
       <r>   -0.6458    0.0000 </r>
       <r>   -0.5716    0.0000 </r>
       <r>   -0.4062    0.0000 </r>
       <r>   -0.2053    0.0000 </r>
       <r>   -0.1416    0.0000 </r>
       <r>   -0.0869    0.0000 </r>
       <r>    0.0970    0.0000 </r>
       <r>    0.1643    0.0000 </r>
       <r>    0.3639    0.0000 </r>
       <r>    0.5928    0.0000 </r>
       <r>    0.6775    0.0000 </r>
       <r>    1.0192    0.0000 </r>
       <r>    1.1073    0.0000 </r>
       <r>    1.2639    0.0000 </r>
       <r>    1.3187    0.0000 </r>
       <r>    2.1063    0.0000 </r>
       <r>    2.2856    0.0000 </r>
       <r>    2.5542    0.0000 </r>
      </set>
      <set comment="kpoint 33">
       <r>  -17.6026    1.0000 </r>
       <r>  -17.2493    1.0000 </r>
       <r>  -16.9156    1.0000 </r>
       <r>  -16.7058    1.0000 </r>
       <r>  -16.5023    1.0000 </r>
       <r>  -16.4356    1.0000 </r>
       <r>  -16.3865    1.0000 </r>
       <r>  -16.2614    1.0000 </r>
       <r>  -16.1102    1.0000 </r>
       <r>  -16.0077    1.0000 </r>
       <r>  -15.9310    1.0000 </r>
       <r>  -15.8605    1.0000 </r>
       <r>  -15.7388    1.0000 </r>
       <r>  -15.6460    1.0000 </r>
       <r>  -15.6144    1.0000 </r>
       <r>  -15.5273    1.0000 </r>
       <r>  -15.2789    1.0000 </r>
       <r>  -15.1921    1.0000 </r>
       <r>   -9.7469    1.0000 </r>
       <r>   -9.4740    1.0000 </r>
       <r>   -9.4270    1.0000 </r>
       <r>   -9.1380    1.0000 </r>
       <r>   -8.9496    1.0000 </r>
       <r>   -8.7396    1.0000 </r>
       <r>   -8.5162    1.0000 </r>
       <r>   -8.3897    1.0000 </r>
       <r>   -8.3605    1.0000 </r>
       <r>   -8.3322    1.0000 </r>
       <r>   -8.2773    1.0000 </r>
       <r>   -8.2154    1.0000 </r>
       <r>   -8.1731    1.0000 </r>
       <r>   -8.1207    1.0000 </r>
       <r>   -8.0059    1.0000 </r>
       <r>   -7.8988    1.0000 </r>
       <r>   -7.7645    1.0000 </r>
       <r>   -7.6971    1.0000 </r>
       <r>   -7.6371    1.0000 </r>
       <r>   -7.4042    1.0000 </r>
       <r>   -7.3161    1.0000 </r>
       <r>   -7.2631    1.0000 </r>
       <r>   -7.2192    1.0000 </r>
       <r>   -7.1109    1.0000 </r>
       <r>   -7.0667    1.0000 </r>
       <r>   -6.8806    1.0000 </r>
       <r>   -6.8483    1.0000 </r>
       <r>   -6.7504    1.0000 </r>
       <r>   -6.6487    1.0000 </r>
       <r>   -6.5735    1.0000 </r>
       <r>   -6.4771    1.0000 </r>
       <r>   -6.4063    1.0000 </r>
       <r>   -6.3873    1.0000 </r>
       <r>   -6.3368    1.0000 </r>
       <r>   -6.2601    1.0000 </r>
       <r>   -6.1946    1.0000 </r>
       <r>   -6.1213    1.0000 </r>
       <r>   -6.0856    1.0000 </r>
       <r>   -6.0021    1.0000 </r>
       <r>   -5.9212    1.0000 </r>
       <r>   -5.8375    1.0000 </r>
       <r>   -5.8038    1.0000 </r>
       <r>   -5.6761    1.0000 </r>
       <r>   -5.5669    1.0000 </r>
       <r>   -5.5176    1.0000 </r>
       <r>   -5.3919    1.0000 </r>
       <r>   -5.3126    1.0000 </r>
       <r>   -5.2118    1.0000 </r>
       <r>   -5.0904    1.0000 </r>
       <r>   -4.7781    1.0000 </r>
       <r>   -4.7369    1.0000 </r>
       <r>   -4.5650    1.0000 </r>
       <r>   -4.5017    1.0000 </r>
       <r>   -4.3431    1.0000 </r>
       <r>   -4.3137    1.0000 </r>
       <r>   -4.1753    1.0000 </r>
       <r>   -4.1169    1.0000 </r>
       <r>   -4.0865    1.0000 </r>
       <r>   -4.0592    1.0000 </r>
       <r>   -3.7198    0.9997 </r>
       <r>   -3.5448    0.9870 </r>
       <r>   -3.0710    0.1303 </r>
       <r>   -2.9532    0.0251 </r>
       <r>   -2.7022    0.0001 </r>
       <r>   -2.6539    0.0000 </r>
       <r>   -2.5049    0.0000 </r>
       <r>   -2.4016    0.0000 </r>
       <r>   -2.3456    0.0000 </r>
       <r>   -2.0343    0.0000 </r>
       <r>   -1.9879    0.0000 </r>
       <r>   -1.9317    0.0000 </r>
       <r>   -1.8294    0.0000 </r>
       <r>   -1.7416    0.0000 </r>
       <r>   -1.6071    0.0000 </r>
       <r>   -1.4874    0.0000 </r>
       <r>   -1.3820    0.0000 </r>
       <r>   -1.2763    0.0000 </r>
       <r>   -1.2490    0.0000 </r>
       <r>   -1.0754    0.0000 </r>
       <r>   -0.9682    0.0000 </r>
       <r>   -0.9244    0.0000 </r>
       <r>   -0.8918    0.0000 </r>
       <r>   -0.8551    0.0000 </r>
       <r>   -0.8036    0.0000 </r>
       <r>   -0.6442    0.0000 </r>
       <r>   -0.5546    0.0000 </r>
       <r>   -0.3376    0.0000 </r>
       <r>   -0.2341    0.0000 </r>
       <r>   -0.0948    0.0000 </r>
       <r>   -0.0124    0.0000 </r>
       <r>    0.0957    0.0000 </r>
       <r>    0.2195    0.0000 </r>
       <r>    0.4196    0.0000 </r>
       <r>    0.5860    0.0000 </r>
       <r>    0.6716    0.0000 </r>
       <r>    0.9882    0.0000 </r>
       <r>    1.0781    0.0000 </r>
       <r>    1.1406    0.0000 </r>
       <r>    1.3134    0.0000 </r>
       <r>    2.1220    0.0000 </r>
       <r>    2.3162    0.0000 </r>
       <r>    2.3866    0.0000 </r>
      </set>
      <set comment="kpoint 34">
       <r>  -17.5947    1.0000 </r>
       <r>  -17.2975    1.0000 </r>
       <r>  -16.7428    1.0000 </r>
       <r>  -16.7076    1.0000 </r>
       <r>  -16.6719    1.0000 </r>
       <r>  -16.4383    1.0000 </r>
       <r>  -16.3766    1.0000 </r>
       <r>  -16.2852    1.0000 </r>
       <r>  -16.0661    1.0000 </r>
       <r>  -16.0110    1.0000 </r>
       <r>  -15.8814    1.0000 </r>
       <r>  -15.8496    1.0000 </r>
       <r>  -15.7296    1.0000 </r>
       <r>  -15.6871    1.0000 </r>
       <r>  -15.6005    1.0000 </r>
       <r>  -15.5716    1.0000 </r>
       <r>  -15.2513    1.0000 </r>
       <r>  -15.2047    1.0000 </r>
       <r>   -9.7846    1.0000 </r>
       <r>   -9.3893    1.0000 </r>
       <r>   -9.2975    1.0000 </r>
       <r>   -9.1492    1.0000 </r>
       <r>   -9.0729    1.0000 </r>
       <r>   -8.9048    1.0000 </r>
       <r>   -8.5261    1.0000 </r>
       <r>   -8.4019    1.0000 </r>
       <r>   -8.3757    1.0000 </r>
       <r>   -8.3242    1.0000 </r>
       <r>   -8.2623    1.0000 </r>
       <r>   -8.1878    1.0000 </r>
       <r>   -8.1478    1.0000 </r>
       <r>   -8.0552    1.0000 </r>
       <r>   -7.9955    1.0000 </r>
       <r>   -7.8694    1.0000 </r>
       <r>   -7.8123    1.0000 </r>
       <r>   -7.7482    1.0000 </r>
       <r>   -7.5147    1.0000 </r>
       <r>   -7.3836    1.0000 </r>
       <r>   -7.3009    1.0000 </r>
       <r>   -7.2494    1.0000 </r>
       <r>   -7.1325    1.0000 </r>
       <r>   -7.1003    1.0000 </r>
       <r>   -7.0598    1.0000 </r>
       <r>   -7.0183    1.0000 </r>
       <r>   -6.8482    1.0000 </r>
       <r>   -6.6969    1.0000 </r>
       <r>   -6.6098    1.0000 </r>
       <r>   -6.5729    1.0000 </r>
       <r>   -6.5264    1.0000 </r>
       <r>   -6.4481    1.0000 </r>
       <r>   -6.3746    1.0000 </r>
       <r>   -6.3435    1.0000 </r>
       <r>   -6.2495    1.0000 </r>
       <r>   -6.2217    1.0000 </r>
       <r>   -6.1540    1.0000 </r>
       <r>   -6.1053    1.0000 </r>
       <r>   -6.0604    1.0000 </r>
       <r>   -5.9129    1.0000 </r>
       <r>   -5.8207    1.0000 </r>
       <r>   -5.8025    1.0000 </r>
       <r>   -5.7121    1.0000 </r>
       <r>   -5.6675    1.0000 </r>
       <r>   -5.4649    1.0000 </r>
       <r>   -5.4089    1.0000 </r>
       <r>   -5.2988    1.0000 </r>
       <r>   -5.2315    1.0000 </r>
       <r>   -4.9058    1.0000 </r>
       <r>   -4.8423    1.0000 </r>
       <r>   -4.6875    1.0000 </r>
       <r>   -4.5835    1.0000 </r>
       <r>   -4.5187    1.0000 </r>
       <r>   -4.3646    1.0000 </r>
       <r>   -4.2868    1.0000 </r>
       <r>   -4.2051    1.0000 </r>
       <r>   -4.1327    1.0000 </r>
       <r>   -4.0853    1.0000 </r>
       <r>   -3.9946    1.0000 </r>
       <r>   -3.7647    0.9999 </r>
       <r>   -3.5677    0.9915 </r>
       <r>   -3.0658    0.1227 </r>
       <r>   -2.9600    0.0281 </r>
       <r>   -2.6736    0.0000 </r>
       <r>   -2.6344    0.0000 </r>
       <r>   -2.4924    0.0000 </r>
       <r>   -2.3859    0.0000 </r>
       <r>   -2.3264    0.0000 </r>
       <r>   -2.0100    0.0000 </r>
       <r>   -1.9724    0.0000 </r>
       <r>   -1.9001    0.0000 </r>
       <r>   -1.8525    0.0000 </r>
       <r>   -1.6861    0.0000 </r>
       <r>   -1.6176    0.0000 </r>
       <r>   -1.5465    0.0000 </r>
       <r>   -1.4096    0.0000 </r>
       <r>   -1.2868    0.0000 </r>
       <r>   -1.2729    0.0000 </r>
       <r>   -1.0912    0.0000 </r>
       <r>   -0.9828    0.0000 </r>
       <r>   -0.9233    0.0000 </r>
       <r>   -0.8801    0.0000 </r>
       <r>   -0.8617    0.0000 </r>
       <r>   -0.8211    0.0000 </r>
       <r>   -0.6515    0.0000 </r>
       <r>   -0.5509    0.0000 </r>
       <r>   -0.3039    0.0000 </r>
       <r>   -0.2456    0.0000 </r>
       <r>   -0.0873    0.0000 </r>
       <r>    0.0019    0.0000 </r>
       <r>    0.0831    0.0000 </r>
       <r>    0.2549    0.0000 </r>
       <r>    0.4444    0.0000 </r>
       <r>    0.5877    0.0000 </r>
       <r>    0.6801    0.0000 </r>
       <r>    1.0041    0.0000 </r>
       <r>    1.0177    0.0000 </r>
       <r>    1.1321    0.0000 </r>
       <r>    1.3198    0.0000 </r>
       <r>    2.1631    0.0000 </r>
       <r>    2.2746    0.0000 </r>
       <r>    2.4081    0.0000 </r>
      </set>
     </set>
    </set>
   </array>
  </eigenvalues>
  <separator name="orbital magnetization" >
   <v name="MAGDIPOLOUT">      0.00000000      0.00000000      0.00000000</v>
  </separator>
 </calculation>
 <structure name="finalpos" >
  <crystal>
   <varray name="basis" >
    <v>       8.34462567       4.79252391       0.00000000 </v>
    <v>      -8.33379453       4.77364563       0.00000000 </v>
    <v>       0.00000000       0.00000000      30.00000000 </v>
   </varray>
   <i name="volume">   2393.22586110 </i>
   <varray name="rec_basis" >
    <v>       0.05983947       0.10446730       0.00000000 </v>
    <v>      -0.06007612       0.10460307       0.00000000 </v>
    <v>       0.00000000       0.00000000       0.03333333 </v>
   </varray>
  </crystal>
  <varray name="positions" >
   <v>       0.31409285       0.01721404      -0.00237180 </v>
   <v>       0.64663338       0.34504147      -0.00151998 </v>
   <v>       1.02433741       0.32395739       0.00206588 </v>
   <v>       0.01442749       0.01231523       0.00002023 </v>
   <v>       0.32946558       0.33591209      -0.00022944 </v>
   <v>       0.35436358       0.64850360       0.00219413 </v>
   <v>      -0.01536422       0.69007589      -0.00212186 </v>
   <v>       0.67760545      -0.02701272       0.00209209 </v>
   <v>       0.65005034       0.65665679      -0.00023773 </v>
   <v>       0.11030393       0.22689819       0.94583854 </v>
   <v>       0.22636730       0.11206271       0.05360623 </v>
   <v>       0.11019027       0.55495234       0.95593065 </v>
   <v>       0.21955694       0.43944240       0.05621609 </v>
   <v>       0.11584640       0.89795936       0.94383169 </v>
   <v>       0.22468843       0.78158677       0.04330788 </v>
   <v>       0.44386729       0.22071701       0.94632913 </v>
   <v>       0.55176367       0.10897415       0.04321673 </v>
   <v>       0.44537664       0.55021964       0.94392069 </v>
   <v>       0.55518636       0.44136825       0.05360801 </v>
   <v>       0.44263732       0.88962320       0.95567713 </v>
   <v>       0.55739187       0.77039324       0.05813628 </v>
   <v>       0.77926170       0.22281016       0.95854337 </v>
   <v>       0.89367427       0.11726508       0.05415821 </v>
   <v>       0.77165621       0.55013277       0.94571070 </v>
   <v>       0.88870301       0.44440371       0.04242870 </v>
   <v>       0.78128331       0.88324620       0.94673351 </v>
   <v>       0.88484767       0.78349554       0.05291483 </v>
  </varray>
 </structure>
</modeling>
