unknown system                          
           1
     8.858446    5.103548    0.000000
    -8.858382    5.103438    0.000000
     0.000000    0.000000   30.000000
   V    Mo   W    S 
   3   3   3  18
Direct configuration=     1
   0.33333334  0.00000000  0.00000000
   0.66666669  0.33333334  0.00000000
   1.00000000  0.33333334  0.00000000
   0.00000000  0.00000000  0.00000000
   0.33333334  0.33333334  0.00000000
   0.33333334  0.66666669  0.00000000
   0.00000000  0.66666669  0.00000000
   0.66666669  0.00000000  0.00000000
   0.66666669  0.66666669  0.00000000
   0.11068511  0.22244981  0.95539999
   0.22244981  0.11068511  0.04460000
   0.11068511  0.55578315  0.95539999
   0.22244981  0.44401845  0.04460000
   0.11068511  0.88911647  0.95539999
   0.22244981  0.77735180  0.04460000
   0.44401845  0.22244981  0.95539999
   0.55578315  0.11068511  0.04460000
   0.44401845  0.55578315  0.95539999
   0.55578315  0.44401845  0.04460000
   0.44401845  0.88911647  0.95539999
   0.55578315  0.77735180  0.04460000
   0.77735180  0.22244981  0.95539999
   0.88911647  0.11068511  0.04460000
   0.77735180  0.55578315  0.95539999
   0.88911647  0.44401845  0.04460000
   0.77735180  0.88911647  0.95539999
   0.88911647  0.77735180  0.04460000
unknown system                          
           1
     8.669620    4.997416    0.000000
    -8.669443    4.997111    0.000000
     0.000000    0.000000   30.000000
   V    Mo   W    S 
   3   3   3  18
Direct configuration=     2
   0.33242397  0.00038792 -0.00019104
   0.66558165  0.33303089 -0.00002352
   1.00196834  0.33327024  0.00016748
   0.00128137  0.00130899 -0.00012328
   0.33194029  0.33314055 -0.00003592
   0.33348948  0.66534905  0.00016211
   0.00160902  0.66768661  0.00007907
   0.66667861 -0.00070350 -0.00003781
   0.66492114  0.66643344  0.00003063
   0.10861751  0.22445535  0.95196482
   0.22458878  0.10868639  0.04799665
   0.10829704  0.55140403  0.95195605
   0.21751374  0.44213508  0.04813368
   0.11514552  0.89015698  0.95184866
   0.22334465  0.78159417  0.04805397
   0.44645607  0.21980097  0.95304791
   0.55370503  0.11273753  0.04694097
   0.44544320  0.55592520  0.95074358
   0.55840891  0.44298412  0.04797946
   0.44287021  0.89181059  0.95203711
   0.55618806  0.77803752  0.04935726
   0.77916245  0.22557964  0.95316136
   0.89008945  0.11522011  0.04807146
   0.77592512  0.55182905  0.95193621
   0.88734197  0.44084813  0.04686675
   0.77700479  0.88832436  0.95069102
   0.88821810  0.77678106  0.04918526
unknown system                          
           1
     8.486759    4.898150    0.000000
    -8.486762    4.898156    0.000000
     0.000000    0.000000   30.000000
   V    Mo   W    S 
   3   3   3  18
Direct configuration=     3
   0.33199971  0.00043620 -0.00021448
   0.66531269  0.33301818 -0.00003325
   1.00263171  0.33331357  0.00018483
   0.00152465  0.00148531 -0.00009933
   0.33153665  0.33333458 -0.00003310
   0.33387582  0.66494761  0.00014145
   0.00204842  0.66817724  0.00012787
   0.66665476 -0.00144573 -0.00009424
   0.66430843  0.66665097  0.00003381
   0.10854822  0.22452493  0.95187109
   0.22467275  0.10865276  0.04802737
   0.10808366  0.55139920  0.95199774
   0.21733245  0.44200857  0.04824596
   0.11518748  0.89002680  0.95179380
   0.22319644  0.78159325  0.04803562
   0.44646316  0.21975185  0.95308251
   0.55379581  0.11263187  0.04683886
   0.44565916  0.55603514  0.95066061
   0.55853948  0.44315329  0.04796551
   0.44307938  0.89196702  0.95208994
   0.55641265  0.77811969  0.04943829
   0.77910929  0.22539893  0.95329142
   0.88993444  0.11524745  0.04805887
   0.77599054  0.55199862  0.95203200
   0.88742180  0.44102616  0.04675829
   0.77677816  0.88822512  0.95067667
   0.88811674  0.77653588  0.04912177
unknown system                          
           1
     8.278590    4.773103    0.000000
    -8.277613    4.771411    0.000000
     0.000000    0.000000   30.000000
   V    Mo   W    S 
   3   3   3  18
Direct configuration=     4
   0.32992305  0.00027944 -0.00021718
   0.66447838  0.33328683 -0.00005493
   1.00515699  0.33348020  0.00017414
   0.00203644  0.00154599  0.00001858
   0.33024436  0.33453060 -0.00000400
   0.33603432  0.66360739  0.00002279
   0.00340179  0.67029187  0.00025371
   0.66647583 -0.00512851 -0.00025913
   0.66202971  0.66801024  0.00003721
   0.10792264  0.22516010  0.95007261
   0.22545676  0.10826943  0.04955900
   0.10735062  0.55030113  0.95071874
   0.21597110  0.44118053  0.05016270
   0.11646063  0.89073132  0.95007414
   0.22405958  0.78280971  0.04941545
   0.44678086  0.21926712  0.95189068
   0.55336141  0.11292198  0.04776736
   0.44561077  0.55588021  0.94870268
   0.55886884  0.44259141  0.04935197
   0.44262939  0.89244840  0.95084450
   0.55645959  0.77812503  0.05146461
   0.77973290  0.22627998  0.95246760
   0.89042500  0.11641611  0.04947137
   0.77559914  0.55130369  0.95095101
   0.88694217  0.44012656  0.04768115
   0.77681189  0.88816849  0.94896391
   0.88799030  0.77632924  0.05046923
unknown system                          
           1
     8.287948    4.771942    0.000000
    -8.287750    4.771603    0.000000
     0.000000    0.000000   30.000000
   V    Mo   W    S 
   3   3   3  18
Direct configuration=     5
   0.32537694  0.00019694 -0.00004569
   0.66321773  0.33389116 -0.00006950
   1.00958280  0.33385388 -0.00001524
   0.00296405  0.00123356  0.00016621
   0.32810847  0.33715994  0.00005250
   0.34122110  0.66112011 -0.00010513
   0.00577011  0.67439988  0.00034199
   0.66592158 -0.01256248 -0.00036721
   0.65718301  0.67080763 -0.00000065
   0.10743462  0.22566374  0.94767426
   0.22629887  0.10852453  0.05163272
   0.10729380  0.54950698  0.94925224
   0.21493002  0.44064701  0.05296563
   0.11787171  0.89198010  0.94759577
   0.22571795  0.78396187  0.05105852
   0.44645839  0.21898424  0.95011754
   0.55286797  0.11271407  0.04882245
   0.44515378  0.55501939  0.94585602
   0.55849777  0.44216145  0.05113707
   0.44198072  0.89230942  0.94928814
   0.55580581  0.77783820  0.05454073
   0.78050239  0.22662151  0.95157899
   0.89090853  0.11740325  0.05127959
   0.77522109  0.55111857  0.94970572
   0.88679366  0.43935682  0.04888955
   0.77762852  0.88796320  0.94647280
   0.88750308  0.77633950  0.05217487
unknown system                          
           1
     8.279062    4.765177    0.000000
    -8.278325    4.763904    0.000000
     0.000000    0.000000   30.000000
   V    Mo   W    S 
   3   3   3  18
Direct configuration=     6
   0.32395123  0.00103428 -0.00002861
   0.66285521  0.33396548 -0.00006796
   1.01053874  0.33396824 -0.00000881
   0.00329815  0.00091076  0.00011491
   0.32814015  0.33763464  0.00001949
   0.34249102  0.66064774 -0.00001313
   0.00590630  0.67544336  0.00035866
   0.66571803 -0.01419253 -0.00033094
   0.65619922  0.67105639 -0.00012512
   0.10758673  0.22548302  0.94756364
   0.22614647  0.10916232  0.05178479
   0.10817921  0.55022373  0.94938028
   0.21539245  0.44102085  0.05318058
   0.11777058  0.89228686  0.94736793
   0.22625068  0.78366493  0.05090954
   0.44582556  0.21909711  0.95007783
   0.55284041  0.11207597  0.04863840
   0.44510125  0.55452164  0.94551172
   0.55806596  0.44271070  0.05114618
   0.44200792  0.89169490  0.94945027
   0.55537814  0.77752218  0.05503742
   0.78042771  0.22573037  0.95178659
   0.89072816  0.11694254  0.05126754
   0.77521157  0.55197254  0.94983325
   0.88727230  0.43975416  0.04877140
   0.77805269  0.88766626  0.94621362
   0.88687861  0.77621604  0.05216043
unknown system                          
           1
     8.289896    4.769496    0.000000
    -8.288973    4.767900    0.000000
     0.000000    0.000000   30.000000
   V    Mo   W    S 
   3   3   3  18
Direct configuration=     7
   0.32163890  0.00250168  0.00002338
   0.66220846  0.33403846 -0.00002012
   1.01228843  0.33423364 -0.00002754
   0.00388876  0.00037753  0.00008318
   0.32799455  0.33846827 -0.00001211
   0.34479589  0.65948326  0.00002377
   0.00622217  0.67741865  0.00043258
   0.66552838 -0.01731778 -0.00031923
   0.65427433  0.67176491 -0.00019912
   0.10764201  0.22535144  0.94732869
   0.22597744  0.10981267  0.05209556
   0.10908264  0.55099617  0.94956016
   0.21579482  0.44123332  0.05358776
   0.11779073  0.89273684  0.94692228
   0.22694719  0.78361373  0.05071170
   0.44517465  0.21916184  0.94991540
   0.55269027  0.11138205  0.04838307
   0.44496078  0.55393086  0.94497368
   0.55769123  0.44325016  0.05122728
   0.44186842  0.89106993  0.94968342
   0.55509795  0.77705013  0.05570728
   0.78039220  0.22480810  0.95208887
   0.89066149  0.11652480  0.05131672
   0.77518154  0.55276995  0.94989322
   0.88777458  0.44015363  0.04859571
   0.77849150  0.88736166  0.94583050
   0.88615518  0.77603856  0.05219381
unknown system                          
           1
     8.294771    4.769472    0.000000
    -8.293295    4.766914    0.000000
     0.000000    0.000000   30.000000
   V    Mo   W    S 
   3   3   3  18
Direct configuration=     8
   0.32148470  0.00288284  0.00001680
   0.66208243  0.33400940 -0.00001391
   1.01247342  0.33425049 -0.00002458
   0.00398916  0.00032724  0.00008008
   0.32804987  0.33839504 -0.00002656
   0.34479357  0.65930209  0.00004772
   0.00612150  0.67768371  0.00043441
   0.66562712 -0.01741356 -0.00030753
   0.65430290  0.67164152 -0.00024442
   0.10763824  0.22532650  0.94737717
   0.22589668  0.10986809  0.05208894
   0.10915935  0.55108799  0.94965461
   0.21584215  0.44124583  0.05355070
   0.11776008  0.89274441  0.94693348
   0.22699668  0.78365003  0.05059870
   0.44517156  0.21916166  0.94993677
   0.55264946  0.11132609  0.04829556
   0.44500103  0.55385904  0.94498864
   0.55771342  0.44330499  0.05119224
   0.44182370  0.89104259  0.94979920
   0.55507354  0.77700074  0.05570415
   0.78036720  0.22471567  0.95218699
   0.89063008  0.11648247  0.05126155
   0.77518278  0.55277915  0.94993833
   0.88780932  0.44022001  0.04850994
   0.77851702  0.88730310  0.94586035
   0.88605749  0.77601734  0.05216060
unknown system                          
           1
     8.297398    4.770217    0.000000
    -8.295788    4.767428    0.000000
     0.000000    0.000000   30.000000
   V    Mo   W    S 
   3   3   3  18
Direct configuration=     9
   0.32023240  0.00420802  0.00002151
   0.66154724  0.33402258  0.00002964
   1.01367578  0.33439968 -0.00003244
   0.00439940  0.00000507  0.00006683
   0.32801668  0.33866570 -0.00005689
   0.34586538  0.65836051  0.00008802
   0.00602274  0.67906558  0.00048097
   0.66575348 -0.01901744 -0.00029253
   0.65347501  0.67178989 -0.00032253
   0.10763683  0.22524556  0.94732874
   0.22569720  0.11021813  0.05224579
   0.10959573  0.55153150  0.94988872
   0.21605832  0.44129890  0.05369338
   0.11772212  0.89296297  0.94673247
   0.22737447  0.78373651  0.05032425
   0.44492019  0.21919250  0.94986351
   0.55249626  0.11092903  0.04804881
   0.44498200  0.55348484  0.94477082
   0.55760704  0.44358412  0.05118388
   0.44168321  0.89076383  0.95010757
   0.55494879  0.77668162  0.05596842
   0.78033427  0.22422159  0.95248111
   0.89056264  0.11627561  0.05121417
   0.77517864  0.55306603  0.95000444
   0.88807574  0.44050588  0.04828644
   0.77873476  0.88709171  0.94573157
   0.88561812  0.77592454  0.05214323
unknown system                          
           1
     8.302328    4.771752    0.000000
    -8.300680    4.768897    0.000000
     0.000000    0.000000   30.000000
   V    Mo   W    S 
   3   3   3  18
Direct configuration=    10
   0.31997614  0.00451105  0.00002015
   0.66138824  0.33402900  0.00003948
   1.01394672  0.33441738 -0.00003371
   0.00449695 -0.00005977  0.00006623
   0.32803185  0.33870146 -0.00006463
   0.34606782  0.65815600  0.00010048
   0.00597305  0.67939435  0.00048974
   0.66580072 -0.01934031 -0.00028641
   0.65333651  0.67178847 -0.00034580
   0.10763533  0.22522419  0.94730710
   0.22565122  0.11029356  0.05228833
   0.10968407  0.55162162  0.94993532
   0.21610122  0.44130406  0.05373642
   0.11771896  0.89301868  0.94668054
   0.22746622  0.78376988  0.05026414
   0.44487208  0.21919961  0.94983736
   0.55245440  0.11084561  0.04799751
   0.44498099  0.55339200  0.94471359
   0.55758680  0.44363067  0.05119366
   0.44163783  0.89071056  0.95017227
   0.55491658  0.77660864  0.05603485
   0.78032925  0.22412742  0.95254338
   0.89054761  0.11624085  0.05121325
   0.77517402  0.55310187  0.95000838
   0.88812601  0.44056420  0.04823968
   0.77878959  0.88704642  0.94569401
   0.88552429  0.77591700  0.05215457
unknown system                          
           1
     8.303046    4.772546    0.000000
    -8.302556    4.771705    0.000000
     0.000000    0.000000   30.000000
   V    Mo   W    S 
   3   3   3  18
Direct configuration=    11
   0.31938221  0.00515114  0.00001717
   0.66113643  0.33399001  0.00005921
   1.01455476  0.33450124 -0.00003569
   0.00475570 -0.00015163  0.00006515
   0.32796557  0.33875472 -0.00007914
   0.34643124  0.65765577  0.00012570
   0.00593580  0.68007821  0.00050816
   0.66590393 -0.01998675 -0.00027416
   0.65303188  0.67181070 -0.00039149
   0.10761327  0.22519924  0.94727716
   0.22556275  0.11043702  0.05236868
   0.10986161  0.55178786  0.95004596
   0.21615906  0.44129986  0.05381412
   0.11773074  0.89313846  0.94658202
   0.22767013  0.78387008  0.05012596
   0.44474641  0.21918255  0.94979321
   0.55233031  0.11064279  0.04788551
   0.44497520  0.55319913  0.94459453
   0.55754350  0.44373949  0.05120443
   0.44152796  0.89061133  0.95032579
   0.55485265  0.77646385  0.05617192
   0.78035849  0.22393376  0.95267848
   0.89052967  0.11619154  0.05119389
   0.77517487  0.55320604  0.95002475
   0.88826306  0.44067843  0.04813542
   0.77889873  0.88694860  0.94562057
   0.88531851  0.77588102  0.05216260
unknown system                          
           1
     8.309041    4.773088    0.000000
    -8.306476    4.768640    0.000000
     0.000000    0.000000   30.000000
   V    Mo   W    S 
   3   3   3  18
Direct configuration=    12
   0.31767947  0.00607352 -0.00004734
   0.66077098  0.33339192  0.00009232
   1.01613908  0.33501238 -0.00000480
   0.00596518  0.00003379  0.00008512
   0.32731135  0.33855113 -0.00011750
   0.34650054  0.65639920  0.00018900
   0.00652515  0.68177858  0.00054718
   0.66606703 -0.02098322 -0.00023704
   0.65239990  0.67183405 -0.00049034
   0.10745931  0.22528659  0.94724086
   0.22554336  0.11053760  0.05247474
   0.11010661  0.55188610  0.95032443
   0.21602720  0.44117871  0.05393580
   0.11803274  0.89350040  0.94646634
   0.22823065  0.78447896  0.04974902
   0.44423385  0.21876973  0.94977284
   0.55162975  0.10996186  0.04763115
   0.44495023  0.55285320  0.94441417
   0.55744015  0.44396881  0.05120696
   0.44110563  0.89057346  0.95078661
   0.55473178  0.77617756  0.05635542
   0.78075224  0.22362395  0.95295542
   0.89052496  0.11634570  0.05107092
   0.77529925  0.55348403  0.95007452
   0.88881823  0.44095657  0.04787000
   0.77898873  0.88676261  0.94553019
   0.88498109  0.77577726  0.05212391
unknown system                          
           1
     8.315560    4.774293    0.000000
    -8.312423    4.768850    0.000000
     0.000000    0.000000   30.000000
   V    Mo   W    S 
   3   3   3  18
Direct configuration=    13
   0.31839922  0.00646957 -0.00000627
   0.66029823  0.33404867  0.00011352
   1.01569773  0.33454002 -0.00003676
   0.00515346 -0.00047954  0.00006498
   0.32816360  0.33886458 -0.00011489
   0.34727838  0.65682672  0.00017346
   0.00559012  0.68154902  0.00055509
   0.66613817 -0.02131146 -0.00025023
   0.65252633  0.67172062 -0.00047653
   0.10762982  0.22508868  0.94722060
   0.22534806  0.11073283  0.05251493
   0.11018478  0.55219067  0.95029222
   0.21638131  0.44130812  0.05394419
   0.11768431  0.89335597  0.94641377
   0.22800044  0.78401891  0.04980731
   0.44458796  0.21922472  0.94970317
   0.55215579  0.11029800  0.04762654
   0.44497931  0.55283677  0.94444501
   0.55748942  0.44391096  0.05121010
   0.44135295  0.89041328  0.95066870
   0.55476639  0.77611370  0.05632903
   0.78029061  0.22354737  0.95298363
   0.89042981  0.11602534  0.05116225
   0.77517298  0.55327039  0.95005189
   0.88845946  0.44099276  0.04788235
   0.77907653  0.88677236  0.94553527
   0.88497930  0.77588544  0.05218657
unknown system                          
           1
     8.308433    4.772823    0.000000
    -8.305830    4.768308    0.000000
     0.000000    0.000000   30.000000
   V    Mo   W    S 
   3   3   3  18
Direct configuration=    14
   0.31764453  0.00775267 -0.00002987
   0.65927033  0.33427301  0.00016425
   1.01701294  0.33440322 -0.00004304
   0.00544761 -0.00065307  0.00007885
   0.32826223  0.33892633 -0.00014317
   0.34796987  0.65589735  0.00022678
   0.00494331  0.68303657  0.00059047
   0.66655284 -0.02248257 -0.00022480
   0.65227386  0.67149103 -0.00057841
   0.10765684  0.22498783  0.94716765
   0.22509969  0.11105918  0.05267405
   0.11044593  0.55255715  0.95057545
   0.21658329  0.44125604  0.05406494
   0.11759519  0.89357067  0.94621772
   0.22831320  0.78415165  0.04947043
   0.44447588  0.21932768  0.94955788
   0.55198216  0.10993029  0.04736799
   0.44499833  0.55245153  0.94428897
   0.55743919  0.44403032  0.05126688
   0.44116504  0.89025837  0.95100983
   0.55470158  0.77573116  0.05649156
   0.78023638  0.22322028  0.95332602
   0.89035900  0.11592311  0.05114350
   0.77518980  0.55323812  0.95002576
   0.88865431  0.44131026  0.04759988
   0.77928834  0.88659395  0.94543945
   0.88465278  0.77597233  0.05227088
unknown system                          
           1
     8.316881    4.774442    0.000000
    -8.313692    4.768909    0.000000
     0.000000    0.000000   30.000000
   V    Mo   W    S 
   3   3   3  18
Direct configuration=    15
   0.31841373  0.00636954  0.00001783
   0.66080035  0.33376619  0.00010990
   1.01542156  0.33478241 -0.00004395
   0.00516097 -0.00051492  0.00005371
   0.32805034  0.33889797 -0.00010559
   0.34716168  0.65690266  0.00016348
   0.00600553  0.68123508  0.00055780
   0.66600578 -0.02118757 -0.00026183
   0.65233414  0.67192730 -0.00047256
   0.10758426  0.22510649  0.94725890
   0.22537583  0.11070842  0.05251236
   0.11020548  0.55214746  0.95020123
   0.21635683  0.44133908  0.05391412
   0.11768389  0.89328873  0.94641626
   0.22802609  0.78404433  0.04990710
   0.44458843  0.21920353  0.94975049
   0.55215173  0.11035989  0.04768685
   0.44495240  0.55287981  0.94445151
   0.55751195  0.44394079  0.05114433
   0.44136815  0.89041050  0.95060268
   0.55471373  0.77621755  0.05634825
   0.78031089  0.22355090  0.95288467
   0.89043663  0.11597401  0.05113184
   0.77513199  0.55337152  0.95012746
   0.88843133  0.44092688  0.04797354
   0.77905217  0.88680579  0.94555568
   0.88497860  0.77576009  0.05211382
unknown system                          
           1
     8.311075    4.770461    0.000000
    -8.308132    4.765359    0.000000
     0.000000    0.000000   30.000000
   V    Mo   W    S 
   3   3   3  18
Direct configuration=    16
   0.31797827  0.00690610 -0.00000917
   0.66166222  0.33269975  0.00012939
   1.01544923  0.33562831 -0.00004415
   0.00549207 -0.00076308  0.00005321
   0.32782317  0.33895763 -0.00010511
   0.34710074  0.65663836  0.00019539
   0.00708216  0.68144144  0.00055407
   0.66578954 -0.02155017 -0.00023530
   0.65155932  0.67236371 -0.00047652
   0.10743923  0.22508811  0.94731125
   0.22520928  0.11091011  0.05261631
   0.11046620  0.55225474  0.95011954
   0.21630285  0.44131969  0.05394125
   0.11770474  0.89327642  0.94636306
   0.22833564  0.78429003  0.04992532
   0.44448057  0.21920239  0.94982271
   0.55194366  0.11022081  0.04769525
   0.44485771  0.55265648  0.94433086
   0.55759550  0.44416598  0.05095295
   0.44123728  0.89036937  0.95071228
   0.55449408  0.77620906  0.05646537
   0.78037848  0.22330938  0.95281157
   0.89038843  0.11580939  0.05100326
   0.77505493  0.55363612  0.95036491
   0.88856596  0.44098089  0.04805577
   0.77917036  0.88679367  0.94549886
   0.88465282  0.77539976  0.05194757
unknown system                          
           1
     8.320046    4.774015    0.000000
    -8.316833    4.768444    0.000000
     0.000000    0.000000   30.000000
   V    Mo   W    S 
   3   3   3  18
Direct configuration=    17
   0.31787135  0.00718815 -0.00000990
   0.66281865  0.33128117  0.00013913
   1.01522154  0.33663076 -0.00003839
   0.00568306 -0.00102771  0.00004916
   0.32749510  0.33910837 -0.00009452
   0.34684819  0.65645382  0.00017413
   0.00822649  0.68127824  0.00054414
   0.66557030 -0.02160167 -0.00025845
   0.65082054  0.67290832 -0.00052003
   0.10727917  0.22506858  0.94740855
   0.22509276  0.11102409  0.05264491
   0.11063523  0.55230198  0.94996319
   0.21620791  0.44127791  0.05392992
   0.11768336  0.89322874  0.94635191
   0.22852208  0.78453132  0.05001923
   0.44443146  0.21927118  0.94991952
   0.55175750  0.11013419  0.04780037
   0.44474882  0.55260859  0.94433957
   0.55771335  0.44432148  0.05071150
   0.44116935  0.89040561  0.95076398
   0.55425320  0.77623402  0.05651658
   0.78047710  0.22316353  0.95264296
   0.89033299  0.11567514  0.05086701
   0.77502881  0.55388016  0.95066083
   0.88869432  0.44102456  0.04819661
   0.77915299  0.88683895  0.94554560
   0.88447884  0.77500498  0.05173237
unknown system                          
           1
     8.327858    4.776469    0.000000
    -8.324331    4.770353    0.000000
     0.000000    0.000000   30.000000
   V    Mo   W    S 
   3   3   3  18
Direct configuration=    18
   0.31734241  0.00823112 -0.00005083
   0.66127444  0.33185432  0.00017973
   1.01658815  0.33613256 -0.00002993
   0.00587852 -0.00105470  0.00007429
   0.32771070  0.33909103 -0.00012377
   0.34746009  0.65565074  0.00023360
   0.00706360  0.68276711  0.00056427
   0.66608307 -0.02253896 -0.00021932
   0.65101914  0.67239638 -0.00059980
   0.10736238  0.22497271  0.94730074
   0.22492192  0.11126141  0.05276073
   0.11076077  0.55260205  0.95028771
   0.21639021  0.44121433  0.05406782
   0.11762936  0.89349945  0.94618606
   0.22871484  0.78459323  0.04965108
   0.44436854  0.21936748  0.94972986
   0.55163512  0.10979653  0.04754472
   0.44480135  0.55229686  0.94421356
   0.55764609  0.44432862  0.05086784
   0.44099362  0.89030531  0.95107488
   0.55428742  0.77581084  0.05660793
   0.78043166  0.22297268  0.95302038
   0.89028324  0.11571064  0.05092055
   0.77509209  0.55366107  0.95050551
   0.88885610  0.44132974  0.04786254
   0.77933972  0.88667325  0.94544275
   0.88427991  0.77528867  0.05192698
unknown system                          
           1
     8.329263    4.776921    0.000000
    -8.325719    4.770777    0.000000
     0.000000    0.000000   30.000000
   V    Mo   W    S 
   3   3   3  18
Direct configuration=    19
   0.31675140  0.00948963 -0.00010917
   0.66007797  0.33155011  0.00024792
   1.01801041  0.33608590 -0.00002851
   0.00619559 -0.00119884  0.00009607
   0.32782241  0.33913864 -0.00015020
   0.34793767  0.65470185  0.00030087
   0.00636721  0.68439654  0.00058652
   0.66651057 -0.02354545 -0.00018389
   0.65090993  0.67212385 -0.00068978
   0.10736163  0.22487625  0.94723572
   0.22469452  0.11157571  0.05289784
   0.11097949  0.55294153  0.95056447
   0.21654396  0.44112991  0.05421813
   0.11758081  0.89381662  0.94600588
   0.22904022  0.78482477  0.04928089
   0.44426689  0.21951037  0.94956934
   0.55133661  0.10934392  0.04733293
   0.44478892  0.55192195  0.94407930
   0.55765442  0.44440712  0.05089899
   0.44074335  0.89022864  0.95145955
   0.55420337  0.77532673  0.05670254
   0.78048207  0.22270209  0.95334035
   0.89018886  0.11570021  0.05091476
   0.77512800  0.55349888  0.95047446
   0.88910603  0.44171610  0.04755894
   0.77954580  0.88653181  0.94535628
   0.88398633  0.77541961  0.05203969
unknown system                          
           1
     8.319841    4.772313    0.000000
    -8.316973    4.767347    0.000000
     0.000000    0.000000   30.000000
   V    Mo   W    S 
   3   3   3  18
Direct configuration=    20
   0.31669366  0.00962749 -0.00011897
   0.65998748  0.33138367  0.00025555
   1.01815115  0.33613192 -0.00002536
   0.00623787 -0.00122188  0.00010143
   0.32781885  0.33914874 -0.00015181
   0.34796053  0.65459775  0.00030920
   0.00634117  0.68457057  0.00058311
   0.66654395 -0.02363121 -0.00017944
   0.65087932  0.67211791 -0.00070489
   0.10735689  0.22486708  0.94723108
   0.22466723  0.11161747  0.05291309
   0.11100843  0.55298175  0.95058624
   0.21655425  0.44111822  0.05423570
   0.11758069  0.89385841  0.94598415
   0.22908454  0.78486461  0.04924481
   0.44425809  0.21953411  0.94955553
   0.55128259  0.10928241  0.04732187
   0.44478550  0.55188250  0.94406542
   0.55766723  0.44442035  0.05088881
   0.44070769  0.89022810  0.95150456
   0.55418023  0.77527116  0.05671539
   0.78050202  0.22267018  0.95336318
   0.89017525  0.11570000  0.05090756
   0.77513118  0.55347963  0.95048797
   0.88914290  0.44176697  0.04753076
   0.77956972  0.88652090  0.94534775
   0.88394605  0.77542564  0.05204722
unknown system                          
           1
     8.323376    4.773350    0.000000
    -8.320331    4.768076    0.000000
     0.000000    0.000000   30.000000
   V    Mo   W    S 
   3   3   3  18
Direct configuration=    21
   0.31668065  0.00951501 -0.00009090
   0.65979105  0.33271985  0.00022987
   1.01849488  0.33571543 -0.00004324
   0.00621785 -0.00088393  0.00009965
   0.32768017  0.33909423 -0.00015900
   0.34784958  0.65441046  0.00029404
   0.00594820  0.68439253  0.00060970
   0.66670721 -0.02361055 -0.00018489
   0.65110281  0.67176144 -0.00071343
   0.10732968  0.22492069  0.94720617
   0.22472747  0.11151114  0.05291363
   0.11089527  0.55280191  0.95063650
   0.21645731  0.44107286  0.05421997
   0.11757693  0.89373692  0.94599719
   0.22902839  0.78476949  0.04925596
   0.44426013  0.21943343  0.94952356
   0.55145977  0.10940926  0.04724537
   0.44482614  0.55190483  0.94404966
   0.55756416  0.44431605  0.05103866
   0.44077350  0.89021334  0.95143813
   0.55427653  0.77537168  0.05674381
   0.78046673  0.22277166  0.95345776
   0.89026837  0.11582917  0.05095017
   0.77517158  0.55350170  0.95034070
   0.88908447  0.44158087  0.04751363
   0.77954651  0.88645672  0.94532032
   0.88402911  0.77549824  0.05210688
unknown system                          
           1
     8.331406    4.778467    0.000000
    -8.327162    4.771102    0.000000
     0.000000    0.000000   30.000000
   V    Mo   W    S 
   3   3   3  18
Direct configuration=    22
   0.31655642  0.00986377 -0.00011901
   0.65962440  0.33166871  0.00026322
   1.01862729  0.33597025 -0.00003498
   0.00630489 -0.00112356  0.00010951
   0.32776699  0.33917248 -0.00015695
   0.34801086  0.65425738  0.00031404
   0.00600635  0.68490255  0.00058796
   0.66670883 -0.02381255 -0.00017722
   0.65095208  0.67194951 -0.00074869
   0.10735413  0.22488785  0.94723335
   0.22463865  0.11163293  0.05292659
   0.11101629  0.55299561  0.95068543
   0.21655551  0.44107924  0.05423895
   0.11757148  0.89389235  0.94595319
   0.22911394  0.78487715  0.04915651
   0.44424185  0.21953012  0.94951258
   0.55125963  0.10921365  0.04725487
   0.44482238  0.55183835  0.94404700
   0.55764719  0.44439929  0.05093738
   0.44069058  0.89021912  0.95156948
   0.55420424  0.77521144  0.05675153
   0.78050893  0.22264817  0.95346788
   0.89018198  0.11574307  0.05090800
   0.77515498  0.55344747  0.95044637
   0.88917714  0.44179599  0.04744696
   0.77959686  0.88646737  0.94533039
   0.88392058  0.77548674  0.05209557
unknown system                          
           1
     8.334729    4.778741    0.000000
    -8.330284    4.771028    0.000000
     0.000000    0.000000   30.000000
   V    Mo   W    S 
   3   3   3  18
Direct configuration=    23
   0.31636220  0.01014392 -0.00014022
   0.65861688  0.33380764  0.00025114
   1.01948275  0.33520086 -0.00002719
   0.00627948 -0.00084102  0.00011401
   0.32792630  0.33897909 -0.00020036
   0.34837710  0.65407314  0.00033330
   0.00508086  0.68538246  0.00066249
   0.66709071 -0.02442625 -0.00016824
   0.65122183  0.67123395 -0.00073797
   0.10738900  0.22478132  0.94703693
   0.22460572  0.11174757  0.05304229
   0.11094014  0.55299595  0.95083769
   0.21659633  0.44102153  0.05440007
   0.11749602  0.89388782  0.94588211
   0.22920043  0.78480281  0.04899399
   0.44419444  0.21953475  0.94936773
   0.55143891  0.10917300  0.04700850
   0.44480115  0.55160197  0.94396223
   0.55742358  0.44428201  0.05121192
   0.44063189  0.89009409  0.95169180
   0.55429431  0.77499713  0.05675852
   0.78042164  0.22262486  0.95378573
   0.89025176  0.11588394  0.05102870
   0.77526511  0.55333912  0.95014598
   0.88923695  0.44182272  0.04726343
   0.77967200  0.88629892  0.94525483
   0.88391698  0.77577115  0.05224048
unknown system                          
           1
     8.332893    4.777591    0.000000
    -8.328165    4.769385    0.000000
     0.000000    0.000000   30.000000
   V    Mo   W    S 
   3   3   3  18
Direct configuration=    24
   0.31599626  0.01093662 -0.00018865
   0.65757844  0.33302369  0.00030014
   1.02028951  0.33514498 -0.00001306
   0.00654275 -0.00094304  0.00014320
   0.32807827  0.33899056 -0.00020335
   0.34876536  0.65351677  0.00038474
   0.00454857  0.68659192  0.00063405
   0.66736917 -0.02497592 -0.00013975
   0.65119333  0.67107447 -0.00083419
   0.10748886  0.22472708  0.94703333
   0.22445122  0.11196079  0.05307251
   0.11109865  0.55331307  0.95107097
   0.21679827  0.44098814  0.05445330
   0.11747469  0.89419972  0.94577805
   0.22934061  0.78494115  0.04869842
   0.44414176  0.21967682  0.94927501
   0.55115723  0.10880502  0.04688405
   0.44484317  0.55141168  0.94392844
   0.55745983  0.44434456  0.05118224
   0.44047146  0.89008148  0.95198375