   27   27  100    1
  0.9710400E+02  0.1002848E-08  0.1002848E-08  0.3000000E-08  0.5000000E-15
  1.000000000000000E-004
  CAR 
 unknown system                          
    159     34    120
 
  0.0000000E+00  0.0000000E+00  0.0000000E+00  0.1562500E-01
    1      -17.796852   1.000000
    2      -16.733688   1.000000
    3      -16.623565   1.000000
    4      -16.580133   1.000000
    5      -16.474020   1.000000
    6      -16.437155   1.000000
    7      -16.381561   1.000000
    8      -16.323463   1.000000
    9      -16.176238   1.000000
   10      -16.073945   1.000000
   11      -16.059181   1.000000
   12      -16.034081   1.000000
   13      -15.835327   1.000000
   14      -15.711875   1.000000
   15      -15.594438   1.000000
   16      -15.538658   1.000000
   17      -15.405719   1.000000
   18      -15.377053   1.000000
   19       -9.207936   1.000000
   20       -9.006345   1.000000
   21       -8.846683   1.000000
   22       -8.817964   1.000000
   23       -8.761790   1.000000
   24       -8.686343   1.000000
   25       -8.653831   1.000000
   26       -8.593602   1.000000
   27       -8.527479   1.000000
   28       -8.413041   1.000000
   29       -8.362071   1.000000
   30       -8.319755   1.000000
   31       -8.259222   1.000000
   32       -8.223990   1.000000
   33       -8.136248   1.000000
   34       -7.998938   1.000000
   35       -7.894389   1.000000
   36       -7.838380   1.000000
   37       -7.697572   1.000000
   38       -7.529191   1.000000
   39       -7.488296   1.000000
   40       -7.368755   1.000000
   41       -7.312193   1.000000
   42       -7.214011   1.000000
   43       -7.194960   1.000000
   44       -6.988989   1.000000
   45       -6.874943   1.000000
   46       -6.827527   1.000000
   47       -6.724975   1.000000
   48       -6.657406   1.000000
   49       -6.639243   1.000000
   50       -6.547104   1.000000
   51       -6.421026   1.000000
   52       -6.401168   1.000000
   53       -6.327876   1.000000
   54       -6.222716   1.000000
   55       -6.124943   1.000000
   56       -6.036888   1.000000
   57       -5.921161   1.000000
   58       -5.809709   1.000000
   59       -5.732772   1.000000
   60       -5.627813   1.000000
   61       -5.517660   1.000000
   62       -5.490071   1.000000
   63       -5.335622   1.000000
   64       -5.110826   1.000000
   65       -5.097944   1.000000
   66       -4.964813   1.000000
   67       -4.943827   1.000000
   68       -4.880108   1.000000
   69       -4.740757   1.000000
   70       -4.702064   1.000000
   71       -4.612023   1.000000
   72       -4.586139   1.000000
   73       -4.455420   1.000000
   74       -4.321093   1.000000
   75       -4.262727   1.000000
   76       -3.960389   0.999998
   77       -3.841792   0.999928
   78       -3.642764   0.991660
   79       -3.576847   0.973046
   80       -3.416499   0.786328
   81       -3.238949   0.322139
   82       -2.640034   0.000001
   83       -2.606259   0.000000
   84       -2.579991   0.000000
   85       -2.511951   0.000000
   86       -2.457124   0.000000
   87       -2.313512   0.000000
   88       -2.222660   0.000000
   89       -2.140647   0.000000
   90       -1.912277   0.000000
   91       -1.889170   0.000000
   92       -1.723457   0.000000
   93       -1.482017   0.000000
   94       -1.306411   0.000000
   95       -1.204527   0.000000
   96       -1.056888   0.000000
   97       -0.974307   0.000000
   98       -0.883034   0.000000
   99       -0.740266   0.000000
  100       -0.710601   0.000000
  101       -0.614586   0.000000
  102       -0.583000   0.000000
  103       -0.473652   0.000000
  104       -0.437633   0.000000
  105       -0.364423   0.000000
  106       -0.084166   0.000000
  107       -0.003191   0.000000
  108        0.021829   0.000000
  109        0.102606   0.000000
  110        0.278041   0.000000
  111        0.292100   0.000000
  112        0.400133   0.000000
  113        0.484669   0.000000
  114        0.801900   0.000000
  115        1.100509   0.000000
  116        1.140142   0.000000
  117        1.297371   0.000000
  118        1.638222   0.000000
  119        1.830121   0.000000
  120        2.143528   0.000000
 
  0.1250000E+00  0.2775558E-16  0.0000000E+00  0.3125000E-01
    1      -17.771949   1.000000
    2      -16.759627   1.000000
    3      -16.702401   1.000000
    4      -16.624639   1.000000
    5      -16.544892   1.000000
    6      -16.392991   1.000000
    7      -16.337673   1.000000
    8      -16.252724   1.000000
    9      -16.162021   1.000000
   10      -16.100230   1.000000
   11      -16.025485   1.000000
   12      -16.002981   1.000000
   13      -15.808660   1.000000
   14      -15.723186   1.000000
   15      -15.598268   1.000000
   16      -15.531513   1.000000
   17      -15.416954   1.000000
   18      -15.389196   1.000000
   19       -9.190939   1.000000
   20       -9.116711   1.000000
   21       -9.007606   1.000000
   22       -8.945198   1.000000
   23       -8.784656   1.000000
   24       -8.708881   1.000000
   25       -8.616572   1.000000
   26       -8.564465   1.000000
   27       -8.500938   1.000000
   28       -8.465071   1.000000
   29       -8.340028   1.000000
   30       -8.258056   1.000000
   31       -8.218794   1.000000
   32       -8.082832   1.000000
   33       -8.058465   1.000000
   34       -7.951249   1.000000
   35       -7.829421   1.000000
   36       -7.747907   1.000000
   37       -7.644048   1.000000
   38       -7.593533   1.000000
   39       -7.509510   1.000000
   40       -7.397256   1.000000
   41       -7.283937   1.000000
   42       -7.208036   1.000000
   43       -7.143602   1.000000
   44       -7.043708   1.000000
   45       -6.919599   1.000000
   46       -6.860579   1.000000
   47       -6.735409   1.000000
   48       -6.651152   1.000000
   49       -6.618498   1.000000
   50       -6.544491   1.000000
   51       -6.412419   1.000000
   52       -6.381704   1.000000
   53       -6.305073   1.000000
   54       -6.241750   1.000000
   55       -6.123415   1.000000
   56       -6.047650   1.000000
   57       -5.930897   1.000000
   58       -5.805581   1.000000
   59       -5.709925   1.000000
   60       -5.595600   1.000000
   61       -5.519200   1.000000
   62       -5.472098   1.000000
   63       -5.398809   1.000000
   64       -5.185416   1.000000
   65       -5.108109   1.000000
   66       -5.039478   1.000000
   67       -4.990757   1.000000
   68       -4.934744   1.000000
   69       -4.784517   1.000000
   70       -4.648625   1.000000
   71       -4.629037   1.000000
   72       -4.556964   1.000000
   73       -4.383191   1.000000
   74       -4.254272   1.000000
   75       -4.169681   1.000000
   76       -3.960271   0.999998
   77       -3.851541   0.999946
   78       -3.762326   0.999400
   79       -3.626148   0.988582
   80       -3.412493   0.777987
   81       -3.130520   0.109642
   82       -2.695481   0.000008
   83       -2.627395   0.000001
   84       -2.589534   0.000000
   85       -2.471332   0.000000
   86       -2.409090   0.000000
   87       -2.306318   0.000000
   88       -2.200527   0.000000
   89       -2.105027   0.000000
   90       -1.950071   0.000000
   91       -1.869902   0.000000
   92       -1.710752   0.000000
   93       -1.483077   0.000000
   94       -1.309320   0.000000
   95       -1.197993   0.000000
   96       -1.042737   0.000000
   97       -0.972716   0.000000
   98       -0.883966   0.000000
   99       -0.826277   0.000000
  100       -0.734296   0.000000
  101       -0.673308   0.000000
  102       -0.596545   0.000000
  103       -0.514076   0.000000
  104       -0.433810   0.000000
  105       -0.338194   0.000000
  106       -0.241996   0.000000
  107       -0.071264   0.000000
  108        0.035191   0.000000
  109        0.092682   0.000000
  110        0.180092   0.000000
  111        0.291786   0.000000
  112        0.488955   0.000000
  113        0.579136   0.000000
  114        0.851788   0.000000
  115        1.083386   0.000000
  116        1.177360   0.000000
  117        1.291273   0.000000
  118        1.683608   0.000000
  119        1.868289   0.000000
  120        2.178733   0.000000
 
  0.2500000E+00  0.5551115E-16  0.0000000E+00  0.3125000E-01
    1      -17.698926   1.000000
    2      -16.952232   1.000000
    3      -16.737663   1.000000
    4      -16.668388   1.000000
    5      -16.602609   1.000000
    6      -16.368528   1.000000
    7      -16.275619   1.000000
    8      -16.183280   1.000000
    9      -16.140037   1.000000
   10      -16.070873   1.000000
   11      -15.999160   1.000000
   12      -15.939555   1.000000
   13      -15.773151   1.000000
   14      -15.722953   1.000000
   15      -15.603476   1.000000
   16      -15.518371   1.000000
   17      -15.453802   1.000000
   18      -15.408554   1.000000
   19       -9.440601   1.000000
   20       -9.184352   1.000000
   21       -9.101248   1.000000
   22       -8.983380   1.000000
   23       -8.890486   1.000000
   24       -8.815839   1.000000
   25       -8.656834   1.000000
   26       -8.496482   1.000000
   27       -8.448746   1.000000
   28       -8.401426   1.000000
   29       -8.288204   1.000000
   30       -8.223756   1.000000
   31       -8.149342   1.000000
   32       -8.020915   1.000000
   33       -7.951145   1.000000
   34       -7.864385   1.000000
   35       -7.795882   1.000000
   36       -7.652789   1.000000
   37       -7.590604   1.000000
   38       -7.505941   1.000000
   39       -7.449547   1.000000
   40       -7.366621   1.000000
   41       -7.298127   1.000000
   42       -7.174411   1.000000
   43       -7.111869   1.000000
   44       -6.992385   1.000000
   45       -6.951093   1.000000
   46       -6.882515   1.000000
   47       -6.762691   1.000000
   48       -6.666241   1.000000
   49       -6.610379   1.000000
   50       -6.510636   1.000000
   51       -6.453745   1.000000
   52       -6.373227   1.000000
   53       -6.247986   1.000000
   54       -6.190130   1.000000
   55       -6.113978   1.000000
   56       -6.050046   1.000000
   57       -5.928326   1.000000
   58       -5.816234   1.000000
   59       -5.708252   1.000000
   60       -5.666421   1.000000
   61       -5.600095   1.000000
   62       -5.520008   1.000000
   63       -5.498866   1.000000
   64       -5.340867   1.000000
   65       -5.204563   1.000000
   66       -5.075924   1.000000
   67       -4.977493   1.000000
   68       -4.903616   1.000000
   69       -4.874701   1.000000
   70       -4.658791   1.000000
   71       -4.537040   1.000000
   72       -4.486070   1.000000
   73       -4.334068   1.000000
   74       -4.178124   1.000000
   75       -4.138750   1.000000
   76       -4.025473   1.000000
   77       -3.958685   0.999998
   78       -3.755439   0.999290
   79       -3.617131   0.986531
   80       -3.340534   0.601251
   81       -3.028313   0.025520
   82       -2.770623   0.000081
   83       -2.669295   0.000004
   84       -2.610358   0.000000
   85       -2.420281   0.000000
   86       -2.333194   0.000000
   87       -2.282002   0.000000
   88       -2.139975   0.000000
   89       -2.039755   0.000000
   90       -1.982780   0.000000
   91       -1.863695   0.000000
   92       -1.675073   0.000000
   93       -1.483013   0.000000
   94       -1.305734   0.000000
   95       -1.186233   0.000000
   96       -1.050632   0.000000
   97       -1.021089   0.000000
   98       -0.926008   0.000000
   99       -0.878021   0.000000
  100       -0.801156   0.000000
  101       -0.759125   0.000000
  102       -0.677129   0.000000
  103       -0.562291   0.000000
  104       -0.473326   0.000000
  105       -0.437254   0.000000
  106       -0.369805   0.000000
  107       -0.173527   0.000000
  108       -0.097417   0.000000
  109        0.051623   0.000000
  110        0.179235   0.000000
  111        0.272148   0.000000
  112        0.548695   0.000000
  113        0.760867   0.000000
  114        0.857802   0.000000
  115        1.118798   0.000000
  116        1.222262   0.000000
  117        1.360340   0.000000
  118        1.807745   0.000000
  119        1.977834   0.000000
  120        2.282980   0.000000
 
  0.3750000E+00  0.0000000E+00  0.0000000E+00  0.3125000E-01
    1      -17.585882   1.000000
    2      -17.164343   1.000000
    3      -16.757192   1.000000
    4      -16.704265   1.000000
    5      -16.620084   1.000000
    6      -16.378855   1.000000
    7      -16.235700   1.000000
    8      -16.155723   1.000000
    9      -16.098859   1.000000
   10      -16.019191   1.000000
   11      -15.964736   1.000000
   12      -15.883105   1.000000
   13      -15.818523   1.000000
   14      -15.663279   1.000000
   15      -15.609795   1.000000
   16      -15.537132   1.000000
   17      -15.486448   1.000000
   18      -15.405079   1.000000
   19       -9.665062   1.000000
   20       -9.283330   1.000000
   21       -9.136270   1.000000
   22       -8.973348   1.000000
   23       -8.923488   1.000000
   24       -8.865410   1.000000
   25       -8.628089   1.000000
   26       -8.467866   1.000000
   27       -8.395701   1.000000
   28       -8.344908   1.000000
   29       -8.320736   1.000000
   30       -8.218716   1.000000
   31       -8.159817   1.000000
   32       -7.968740   1.000000
   33       -7.957143   1.000000
   34       -7.897468   1.000000
   35       -7.706755   1.000000
   36       -7.620923   1.000000
   37       -7.566385   1.000000
   38       -7.480802   1.000000
   39       -7.377550   1.000000
   40       -7.295659   1.000000
   41       -7.231794   1.000000
   42       -7.206147   1.000000
   43       -7.034674   1.000000
   44       -6.962584   1.000000
   45       -6.861623   1.000000
   46       -6.791960   1.000000
   47       -6.707266   1.000000
   48       -6.622420   1.000000
   49       -6.578947   1.000000
   50       -6.503680   1.000000
   51       -6.410182   1.000000
   52       -6.346147   1.000000
   53       -6.244886   1.000000
   54       -6.148927   1.000000
   55       -6.070640   1.000000
   56       -6.035580   1.000000
   57       -5.994580   1.000000
   58       -5.935154   1.000000
   59       -5.825970   1.000000
   60       -5.753622   1.000000
   61       -5.716616   1.000000
   62       -5.610516   1.000000
   63       -5.569501   1.000000
   64       -5.417029   1.000000
   65       -5.238561   1.000000
   66       -5.106703   1.000000
   67       -4.952760   1.000000
   68       -4.892818   1.000000
   69       -4.812056   1.000000
   70       -4.741328   1.000000
   71       -4.583242   1.000000
   72       -4.469491   1.000000
   73       -4.377223   1.000000
   74       -4.261377   1.000000
   75       -4.066856   1.000000
   76       -3.941866   0.999997
   77       -3.930094   0.999995
   78       -3.690518   0.996846
   79       -3.621759   0.987621
   80       -3.237203   0.317725
   81       -3.001256   0.016078
   82       -2.792665   0.000149
   83       -2.707626   0.000012
   84       -2.633153   0.000001
   85       -2.402396   0.000000
   86       -2.314557   0.000000
   87       -2.224977   0.000000
   88       -2.103924   0.000000
   89       -2.006435   0.000000
   90       -1.969938   0.000000
   91       -1.804453   0.000000
   92       -1.657210   0.000000
   93       -1.483607   0.000000
   94       -1.293554   0.000000
   95       -1.230089   0.000000
   96       -1.093769   0.000000
   97       -1.052814   0.000000
   98       -0.947788   0.000000
   99       -0.921843   0.000000
  100       -0.869065   0.000000
  101       -0.812119   0.000000
  102       -0.761161   0.000000
  103       -0.632521   0.000000
  104       -0.565887   0.000000
  105       -0.489387   0.000000
  106       -0.444205   0.000000
  107       -0.263070   0.000000
  108       -0.201401   0.000000
  109        0.051935   0.000000
  110        0.152900   0.000000
  111        0.243027   0.000000
  112        0.595370   0.000000
  113        0.803804   0.000000
  114        0.917663   0.000000
  115        1.123651   0.000000
  116        1.277549   0.000000
  117        1.488976   0.000000
  118        1.991367   0.000000
  119        2.149281   0.000000
  120        2.452455   0.000000
 
  0.5000000E+00  0.1110223E-15  0.0000000E+00  0.1562500E-01
    1      -17.493146   1.000000
    2      -17.292091   1.000000
    3      -16.765392   1.000000
    4      -16.718559   1.000000
    5      -16.621405   1.000000
    6      -16.386378   1.000000
    7      -16.230725   1.000000
    8      -16.139074   1.000000
    9      -16.072882   1.000000
   10      -16.011864   1.000000
   11      -15.934189   1.000000
   12      -15.866114   1.000000
   13      -15.831575   1.000000
   14      -15.656834   1.000000
   15      -15.610119   1.000000
   16      -15.547043   1.000000
   17      -15.506607   1.000000
   18      -15.391983   1.000000
   19       -9.745360   1.000000
   20       -9.322250   1.000000
   21       -9.156997   1.000000
   22       -8.998955   1.000000
   23       -8.952730   1.000000
   24       -8.755865   1.000000
   25       -8.589439   1.000000
   26       -8.579244   1.000000
   27       -8.391505   1.000000
   28       -8.325243   1.000000
   29       -8.310370   1.000000
   30       -8.203830   1.000000
   31       -8.122358   1.000000
   32       -8.004546   1.000000
   33       -7.953370   1.000000
   34       -7.904467   1.000000
   35       -7.675885   1.000000
   36       -7.633571   1.000000
   37       -7.602080   1.000000
   38       -7.471154   1.000000
   39       -7.398549   1.000000
   40       -7.253084   1.000000
   41       -7.225143   1.000000
   42       -7.110442   1.000000
   43       -6.958307   1.000000
   44       -6.936482   1.000000
   45       -6.865010   1.000000
   46       -6.731237   1.000000
   47       -6.644775   1.000000
   48       -6.604305   1.000000
   49       -6.533667   1.000000
   50       -6.484771   1.000000
   51       -6.456950   1.000000
   52       -6.371540   1.000000
   53       -6.220082   1.000000
   54       -6.170974   1.000000
   55       -6.115206   1.000000
   56       -6.022686   1.000000
   57       -5.984474   1.000000
   58       -5.951340   1.000000
   59       -5.833635   1.000000
   60       -5.740253   1.000000
   61       -5.709699   1.000000
   62       -5.678927   1.000000
   63       -5.568096   1.000000
   64       -5.456796   1.000000
   65       -5.411213   1.000000
   66       -5.095565   1.000000
   67       -5.027387   1.000000
   68       -4.935036   1.000000
   69       -4.779250   1.000000
   70       -4.655851   1.000000
   71       -4.627681   1.000000
   72       -4.461950   1.000000
   73       -4.382256   1.000000
   74       -4.311128   1.000000
   75       -3.986185   0.999999
   76       -3.943116   0.999997
   77       -3.893193   0.999984
   78       -3.682067   0.996225
   79       -3.612272   0.985300
   80       -3.195397   0.220744
   81       -2.996814   0.014857
   82       -2.784581   0.000119
   83       -2.730679   0.000025
   84       -2.644519   0.000002
   85       -2.401756   0.000000
   86       -2.310193   0.000000
   87       -2.201621   0.000000
   88       -2.108100   0.000000
   89       -1.980446   0.000000
   90       -1.956506   0.000000
   91       -1.779402   0.000000
   92       -1.631846   0.000000
   93       -1.491490   0.000000
   94       -1.295143   0.000000
   95       -1.270506   0.000000
   96       -1.109398   0.000000
   97       -1.026860   0.000000
   98       -0.980243   0.000000
   99       -0.949075   0.000000
  100       -0.886913   0.000000
  101       -0.842216   0.000000
  102       -0.805565   0.000000
  103       -0.661520   0.000000
  104       -0.579410   0.000000
  105       -0.534387   0.000000
  106       -0.447509   0.000000
  107       -0.314277   0.000000
  108       -0.225197   0.000000
  109        0.050909   0.000000
  110        0.140750   0.000000
  111        0.227340   0.000000
  112        0.615674   0.000000
  113        0.788732   0.000000
  114        0.970650   0.000000
  115        1.115915   0.000000
  116        1.302685   0.000000
  117        1.543914   0.000000
  118        2.208719   0.000000
  119        2.241458   0.000000
  120        2.348795   0.000000
 
  0.0000000E+00  0.1250000E+00  0.0000000E+00  0.3125000E-01
    1      -17.771357   1.000000
    2      -16.771587   1.000000
    3      -16.726394   1.000000
    4      -16.604098   1.000000
    5      -16.480066   1.000000
    6      -16.412490   1.000000
    7      -16.380863   1.000000
    8      -16.244924   1.000000
    9      -16.159170   1.000000
   10      -16.099218   1.000000
   11      -16.044266   1.000000
   12      -15.966659   1.000000
   13      -15.834008   1.000000
   14      -15.713425   1.000000
   15      -15.604208   1.000000
   16      -15.528135   1.000000
   17      -15.422958   1.000000
   18      -15.381531   1.000000
   19       -9.208813   1.000000
   20       -9.140607   1.000000
   21       -8.994941   1.000000
   22       -8.907175   1.000000
   23       -8.763731   1.000000
   24       -8.722216   1.000000
   25       -8.626436   1.000000
   26       -8.585981   1.000000
   27       -8.498978   1.000000
   28       -8.409190   1.000000
   29       -8.355703   1.000000
   30       -8.286908   1.000000
   31       -8.230720   1.000000
   32       -8.107834   1.000000
   33       -8.035770   1.000000
   34       -7.937968   1.000000
   35       -7.809778   1.000000
   36       -7.756512   1.000000
   37       -7.696507   1.000000
   38       -7.540450   1.000000
   39       -7.498780   1.000000
   40       -7.364148   1.000000
   41       -7.301832   1.000000
   42       -7.232101   1.000000
   43       -7.154423   1.000000
   44       -7.035831   1.000000
   45       -6.887062   1.000000
   46       -6.863086   1.000000
   47       -6.767187   1.000000
   48       -6.689130   1.000000
   49       -6.587268   1.000000
   50       -6.554166   1.000000
   51       -6.400150   1.000000
   52       -6.372868   1.000000
   53       -6.289980   1.000000
   54       -6.265199   1.000000
   55       -6.139684   1.000000
   56       -6.042759   1.000000
   57       -5.900448   1.000000
   58       -5.807950   1.000000
   59       -5.716596   1.000000
   60       -5.629726   1.000000
   61       -5.548954   1.000000
   62       -5.480474   1.000000
   63       -5.366630   1.000000
   64       -5.166446   1.000000
   65       -5.095361   1.000000
   66       -5.045028   1.000000
   67       -4.971331   1.000000
   68       -4.938882   1.000000
   69       -4.785480   1.000000
   70       -4.675837   1.000000
   71       -4.600282   1.000000
   72       -4.577995   1.000000
   73       -4.369870   1.000000
   74       -4.247069   1.000000
   75       -4.183443   1.000000
   76       -3.940176   0.999997
   77       -3.856111   0.999952
   78       -3.781993   0.999635
   79       -3.588758   0.977879
   80       -3.451938   0.851835
   81       -3.128711   0.107261
   82       -2.689145   0.000007
   83       -2.603947   0.000000
   84       -2.589162   0.000000
   85       -2.477370   0.000000
   86       -2.428200   0.000000
   87       -2.304020   0.000000
   88       -2.220672   0.000000
   89       -2.099501   0.000000
   90       -1.936129   0.000000
   91       -1.878777   0.000000
   92       -1.717722   0.000000
   93       -1.470797   0.000000
   94       -1.305052   0.000000
   95       -1.183353   0.000000
   96       -1.056692   0.000000
   97       -0.983856   0.000000
   98       -0.892262   0.000000
   99       -0.789454   0.000000
  100       -0.742172   0.000000
  101       -0.686842   0.000000
  102       -0.604020   0.000000
  103       -0.569080   0.000000
  104       -0.471726   0.000000
  105       -0.362319   0.000000
  106       -0.155510   0.000000
  107       -0.065881   0.000000
  108        0.069184   0.000000
  109        0.095652   0.000000
  110        0.212711   0.000000
  111        0.331905   0.000000
  112        0.486893   0.000000
  113        0.540152   0.000000
  114        0.815686   0.000000
  115        1.040102   0.000000
  116        1.193259   0.000000
  117        1.315203   0.000000
  118        1.683134   0.000000
  119        1.868752   0.000000
  120        2.178916   0.000000
 
  0.1250000E+00  0.1250000E+00  0.0000000E+00  0.3125000E-01
    1      -17.721620   1.000000
    2      -16.874808   1.000000
    3      -16.782036   1.000000
    4      -16.688850   1.000000
    5      -16.480575   1.000000
    6      -16.396662   1.000000
    7      -16.323718   1.000000
    8      -16.196219   1.000000
    9      -16.138148   1.000000
   10      -16.077572   1.000000
   11      -16.036922   1.000000
   12      -15.940563   1.000000
   13      -15.766508   1.000000
   14      -15.725488   1.000000
   15      -15.613344   1.000000
   16      -15.507861   1.000000
   17      -15.446011   1.000000
   18      -15.408077   1.000000
   19       -9.351248   1.000000
   20       -9.214545   1.000000
   21       -9.098733   1.000000
   22       -8.943226   1.000000
   23       -8.880841   1.000000
   24       -8.760824   1.000000
   25       -8.624438   1.000000
   26       -8.513034   1.000000
   27       -8.452847   1.000000
   28       -8.373209   1.000000
   29       -8.333224   1.000000
   30       -8.252097   1.000000
   31       -8.186799   1.000000
   32       -8.122085   1.000000
   33       -7.971620   1.000000
   34       -7.854929   1.000000
   35       -7.767287   1.000000
   36       -7.721603   1.000000
   37       -7.583962   1.000000
   38       -7.494796   1.000000
   39       -7.385418   1.000000
   40       -7.348621   1.000000
   41       -7.274229   1.000000
   42       -7.193731   1.000000
   43       -7.167795   1.000000
   44       -7.054728   1.000000
   45       -6.986741   1.000000
   46       -6.879008   1.000000
   47       -6.738520   1.000000
   48       -6.697846   1.000000
   49       -6.636909   1.000000
   50       -6.524330   1.000000
   51       -6.434703   1.000000
   52       -6.336052   1.000000
   53       -6.310538   1.000000
   54       -6.210335   1.000000
   55       -6.099179   1.000000
   56       -6.044016   1.000000
   57       -5.875140   1.000000
   58       -5.813715   1.000000
   59       -5.707000   1.000000
   60       -5.643322   1.000000
   61       -5.562830   1.000000
   62       -5.494280   1.000000
   63       -5.437876   1.000000
   64       -5.353463   1.000000
   65       -5.161501   1.000000
   66       -5.106093   1.000000
   67       -5.019587   1.000000
   68       -4.892802   1.000000
   69       -4.802577   1.000000
   70       -4.710014   1.000000
   71       -4.581216   1.000000
   72       -4.509424   1.000000
   73       -4.300147   1.000000
   74       -4.179682   1.000000
   75       -4.069120   1.000000
   76       -4.032693   1.000000
   77       -3.932116   0.999995
   78       -3.772478   0.999535
   79       -3.649306   0.992655
   80       -3.368691   0.675692
   81       -3.030176   0.026313
   82       -2.761842   0.000063
   83       -2.672597   0.000004
   84       -2.604576   0.000000
   85       -2.435145   0.000000
   86       -2.369988   0.000000
   87       -2.300523   0.000000
   88       -2.187979   0.000000
   89       -2.042620   0.000000
   90       -1.982095   0.000000
   91       -1.867988   0.000000
   92       -1.691973   0.000000
   93       -1.464258   0.000000
   94       -1.293951   0.000000
   95       -1.162672   0.000000
   96       -1.063543   0.000000
   97       -0.982982   0.000000
   98       -0.903729   0.000000
   99       -0.874435   0.000000
  100       -0.788371   0.000000
  101       -0.746777   0.000000
  102       -0.664345   0.000000
  103       -0.571401   0.000000
  104       -0.522344   0.000000
  105       -0.392964   0.000000
  106       -0.277166   0.000000
  107       -0.155305   0.000000
  108       -0.081226   0.000000
  109        0.090442   0.000000
  110        0.182078   0.000000
  111        0.340659   0.000000
  112        0.564443   0.000000
  113        0.636039   0.000000
  114        0.814065   0.000000
  115        1.042180   0.000000
  116        1.281521   0.000000
  117        1.383210   0.000000
  118        1.771653   0.000000
  119        1.940916   0.000000
  120        2.249380   0.000000
 
  0.2500000E+00  0.1250000E+00  0.0000000E+00  0.3125000E-01
    1      -17.626674   1.000000
    2      -17.054993   1.000000
    3      -16.895208   1.000000
    4      -16.659945   1.000000
    5      -16.510533   1.000000
    6      -16.365533   1.000000
    7      -16.275718   1.000000
    8      -16.162956   1.000000
    9      -16.103472   1.000000
   10      -16.057958   1.000000
   11      -15.999833   1.000000
   12      -15.919704   1.000000
   13      -15.776682   1.000000
   14      -15.654943   1.000000
   15      -15.615893   1.000000
   16      -15.511643   1.000000
   17      -15.495304   1.000000
   18      -15.409106   1.000000
   19       -9.567155   1.000000
   20       -9.380451   1.000000
   21       -9.130355   1.000000
   22       -8.959639   1.000000
   23       -8.850351   1.000000
   24       -8.805206   1.000000
   25       -8.627922   1.000000
   26       -8.460101   1.000000
   27       -8.379322   1.000000
   28       -8.323123   1.000000
   29       -8.320105   1.000000
   30       -8.240559   1.000000
   31       -8.193607   1.000000
   32       -8.051196   1.000000
   33       -7.972871   1.000000
   34       -7.888340   1.000000
   35       -7.873436   1.000000
   36       -7.590910   1.000000
   37       -7.507854   1.000000
   38       -7.421742   1.000000
   39       -7.380785   1.000000
   40       -7.296115   1.000000
   41       -7.222291   1.000000
   42       -7.169075   1.000000
   43       -7.102389   1.000000
   44       -6.992522   1.000000
   45       -6.861692   1.000000
   46       -6.818844   1.000000
   47       -6.713158   1.000000