       N       E                     dE             d eps       ncg     rms          rms(c)
DAV:   1     0.112344354230E+04    0.11234E+04   -0.35866E+04  8160   0.577E+02
DAV:   2    -0.380307421572E+01   -0.11272E+04   -0.10860E+04 11160   0.173E+02
DAV:   3    -0.199875702001E+03   -0.19607E+03   -0.18833E+03 10920   0.819E+01
DAV:   4    -0.208989751797E+03   -0.91140E+01   -0.88161E+01 12120   0.259E+01
DAV:   5    -0.209306613233E+03   -0.31686E+00   -0.31595E+00 11480   0.361E+00    0.275E+01
DAV:   6    -0.236775838686E+03   -0.27469E+02   -0.11045E+02 12520   0.603E+01    0.595E+01
DAV:   7    -0.196506756355E+03    0.40269E+02   -0.17798E+02 13480   0.152E+02    0.200E+01
DAV:   8    -0.189484212404E+03    0.70225E+01   -0.17568E+01 12000   0.128E+01    0.127E+01
DAV:   9    -0.188171703048E+03    0.13125E+01   -0.31177E+00 12560   0.631E+00    0.917E+00
DAV:  10    -0.187030335586E+03    0.11414E+01   -0.21196E+00 13440   0.741E+00    0.301E+00
DAV:  11    -0.186942996017E+03    0.87340E-01   -0.59781E-01 12240   0.231E+00    0.234E+00
DAV:  12    -0.187051869518E+03   -0.10887E+00   -0.71065E-01 12240   0.425E+00    0.437E+00
DAV:  13    -0.186878392797E+03    0.17348E+00   -0.40846E-01 12760   0.379E+00    0.205E+00
DAV:  14    -0.186842947709E+03    0.35445E-01   -0.10257E-01 12840   0.173E+00    0.117E+00
DAV:  15    -0.186838902585E+03    0.40451E-02   -0.55486E-02 12160   0.142E+00    0.110E+00
DAV:  16    -0.186828725941E+03    0.10177E-01   -0.18122E-02 12880   0.694E-01    0.471E-01
DAV:  17    -0.186826640261E+03    0.20857E-02   -0.90252E-03 12600   0.464E-01    0.250E-01
DAV:  18    -0.186826262374E+03    0.37789E-03   -0.23217E-03 11800   0.138E-01    0.190E-01
DAV:  19    -0.186825849781E+03    0.41259E-03   -0.98184E-04 10200   0.139E-01    0.484E-02
DAV:  20    -0.186826542782E+03   -0.69300E-03   -0.69454E-04  9320   0.566E-02    0.493E-02
DAV:  21    -0.186827144020E+03   -0.60124E-03   -0.30944E-04  8080   0.503E-02    0.439E-02
DAV:  22    -0.186828295641E+03   -0.11516E-02   -0.22051E-04  7640   0.623E-02    0.391E-02
DAV:  23    -0.186829564150E+03   -0.12685E-02   -0.15247E-04  7440   0.434E-02    0.104E-02
DAV:  24    -0.186830156624E+03   -0.59247E-03   -0.31729E-05  6720   0.145E-02    0.903E-03
DAV:  25    -0.186830546250E+03   -0.38963E-03   -0.18544E-05  5560   0.143E-02    0.570E-03
DAV:  26    -0.186830758862E+03   -0.21261E-03   -0.83656E-06  6840   0.757E-03    0.182E-03
DAV:  27    -0.186830864154E+03   -0.10529E-03   -0.39579E-06  7000   0.453E-03    0.119E-03
DAV:  28    -0.186830909360E+03   -0.45206E-04   -0.21392E-06  7200   0.351E-03
   1 F= -.18683091E+03 E0= -.18665828E+03  d E =-.186831E+03
       N       E                     dE             d eps       ncg     rms          rms(c)
DAV:   1    -0.187465466991E+03   -0.63460E+00   -0.27339E+02  8160   0.351E+01    0.464E+00
DAV:   2    -0.189366376771E+03   -0.19009E+01   -0.20299E+01 12240   0.153E+01    0.871E+00
DAV:   3    -0.189351938778E+03    0.14438E-01   -0.41093E+00 12480   0.121E+01    0.672E+00
DAV:   4    -0.188735677510E+03    0.61626E+00   -0.62650E-01 12600   0.470E+00    0.176E+00
DAV:   5    -0.188760832989E+03   -0.25155E-01   -0.32655E-01 12200   0.237E+00    0.330E+00
DAV:   6    -0.188747784125E+03    0.13049E-01   -0.52365E-01 12720   0.406E+00    0.306E+00
DAV:   7    -0.188665864452E+03    0.81920E-01   -0.18310E-01 12920   0.226E+00    0.106E+00
DAV:   8    -0.188649510326E+03    0.16354E-01   -0.53350E-02 10760   0.788E-01    0.591E-01
DAV:   9    -0.188645714231E+03    0.37961E-02   -0.99480E-03 12200   0.415E-01    0.373E-01
DAV:  10    -0.188645772364E+03   -0.58132E-04   -0.48128E-03 12600   0.393E-01    0.365E-01
DAV:  11    -0.188644657847E+03    0.11145E-02   -0.30227E-03 12880   0.270E-01    0.111E-01
DAV:  12    -0.188644773010E+03   -0.11516E-03   -0.77943E-04 12080   0.870E-02    0.795E-02
DAV:  13    -0.188644710262E+03    0.62749E-04   -0.23538E-04  7920   0.517E-02
   2 F= -.18864471E+03 E0= -.18850235E+03  d E =-.181380E+01
       N       E                     dE             d eps       ncg     rms          rms(c)
DAV:   1    -0.190569102774E+03   -0.19243E+01   -0.31308E+01  9240   0.142E+01    0.446E+00
DAV:   2    -0.190555953013E+03    0.13150E-01   -0.28561E+00 11480   0.970E+00    0.745E+00
DAV:   3    -0.190041551364E+03    0.51440E+00   -0.13600E+00 12360   0.866E+00    0.414E+00
DAV:   4    -0.189835442292E+03    0.20611E+00   -0.71147E-01 12800   0.408E+00    0.247E+00
DAV:   5    -0.189747884801E+03    0.87557E-01   -0.29236E-01 11640   0.188E+00    0.844E-01
DAV:   6    -0.189732981441E+03    0.14903E-01   -0.40639E-02 10600   0.749E-01    0.350E-01
DAV:   7    -0.189733889869E+03   -0.90843E-03   -0.94271E-03 12400   0.528E-01    0.400E-01
DAV:   8    -0.189732783829E+03    0.11060E-02   -0.28623E-03 11920   0.320E-01    0.149E-01
DAV:   9    -0.189732893537E+03   -0.10971E-03   -0.97770E-04 10480   0.120E-01    0.131E-01
DAV:  10    -0.189733133800E+03   -0.24026E-03   -0.96195E-04 10440   0.192E-01    0.197E-01
DAV:  11    -0.189732814918E+03    0.31888E-03   -0.59478E-04  9760   0.166E-01    0.419E-02
DAV:  12    -0.189732818052E+03   -0.31341E-05   -0.68597E-05  6000   0.388E-02
   3 F= -.18973282E+03 E0= -.18961230E+03  d E =-.108811E+01
       N       E                     dE             d eps       ncg     rms          rms(c)
DAV:   1    -0.191287482069E+03   -0.15547E+01   -0.74871E+01  8160   0.197E+01    0.462E+00
DAV:   2    -0.191189317292E+03    0.98165E-01   -0.54893E+00 13120   0.843E+00    0.529E+00
DAV:   3    -0.191197736833E+03   -0.84195E-02   -0.16362E+00 12160   0.921E+00    0.632E+00
DAV:   4    -0.190870720360E+03    0.32702E+00   -0.13742E+00 12680   0.731E+00    0.332E+00
DAV:   5    -0.190857603456E+03    0.13117E-01   -0.58877E-01 11760   0.503E+00    0.339E+00
DAV:   6    -0.190712214267E+03    0.14539E+00   -0.21816E-01 12080   0.328E+00    0.882E-01
DAV:   7    -0.190704639590E+03    0.75747E-02   -0.41277E-02 12520   0.930E-01    0.472E-01
DAV:   8    -0.190704101709E+03    0.53788E-03   -0.11819E-02 11240   0.674E-01    0.556E-01
DAV:   9    -0.190701352472E+03    0.27492E-02   -0.46952E-03 11320   0.498E-01    0.149E-01
DAV:  10    -0.190701608852E+03   -0.25638E-03   -0.11208E-03 10160   0.136E-01    0.119E-01
DAV:  11    -0.190701491123E+03    0.11773E-03   -0.84406E-04 10480   0.103E-01    0.508E-02
DAV:  12    -0.190701472704E+03    0.18419E-04   -0.15593E-04  7680   0.457E-02
   4 F= -.19070147E+03 E0= -.19059698E+03  d E =-.968655E+00
       N       E                     dE             d eps       ncg     rms          rms(c)
DAV:   1    -0.192015571819E+03   -0.13141E+01   -0.15164E+02  8160   0.275E+01    0.559E+00
DAV:   2    -0.191869657502E+03    0.14591E+00   -0.92194E+00 12320   0.918E+00    0.495E+00
DAV:   3    -0.192186886042E+03   -0.31723E+00   -0.23830E+00 11240   0.108E+01    0.926E+00
DAV:   4    -0.191578171133E+03    0.60871E+00   -0.27948E+00 12080   0.112E+01    0.402E+00
DAV:   5    -0.191515816276E+03    0.62355E-01   -0.80648E-01 12280   0.590E+00    0.371E+00
DAV:   6    -0.191332440718E+03    0.18338E+00   -0.29180E-01 12240   0.394E+00    0.937E-01
DAV:   7    -0.191325936222E+03    0.65045E-02   -0.54399E-02 12240   0.112E+00    0.558E-01
DAV:   8    -0.191323803277E+03    0.21329E-02   -0.17489E-02 11880   0.779E-01    0.580E-01
DAV:   9    -0.191320774056E+03    0.30292E-02   -0.59204E-03 11840   0.549E-01    0.181E-01
DAV:  10    -0.191321173387E+03   -0.39933E-03   -0.19958E-03 10920   0.175E-01    0.124E-01
DAV:  11    -0.191320942977E+03    0.23041E-03   -0.78778E-04 11280   0.106E-01    0.474E-02
DAV:  12    -0.191320944078E+03   -0.11002E-05   -0.11681E-04  6520   0.399E-02
   5 F= -.19132094E+03 E0= -.19122028E+03  d E =-.619471E+00
       N       E                     dE             d eps       ncg     rms          rms(c)
DAV:   1    -0.191360584898E+03   -0.39642E-01   -0.33007E+00  8160   0.382E+00    0.494E-01
DAV:   2    -0.191399090688E+03   -0.38506E-01   -0.18918E-01 12680   0.227E+00    0.175E+00
DAV:   3    -0.191371064937E+03    0.28026E-01   -0.64322E-02 12040   0.174E+00    0.426E-01
DAV:   4    -0.191371035723E+03    0.29214E-04   -0.86937E-03 11120   0.645E-01    0.439E-01
DAV:   5    -0.191369106426E+03    0.19293E-02   -0.47330E-03 10280   0.495E-01    0.189E-01
DAV:   6    -0.191368958208E+03    0.14822E-03   -0.15014E-03 10200   0.205E-01    0.146E-01
DAV:   7    -0.191369312270E+03   -0.35406E-03   -0.19395E-03 10280   0.311E-01    0.242E-01
DAV:   8    -0.191368711225E+03    0.60105E-03   -0.99804E-04  8800   0.220E-01    0.351E-02
DAV:   9    -0.191368719398E+03   -0.81728E-05   -0.86110E-05  5680   0.377E-02
   6 F= -.19136872E+03 E0= -.19126632E+03  d E =-.477753E-01
       N       E                     dE             d eps       ncg     rms          rms(c)
DAV:   1    -0.191418018345E+03   -0.49307E-01   -0.59419E+00  8160   0.513E+00    0.590E-01
DAV:   2    -0.191453825486E+03   -0.35807E-01   -0.19907E-01 12840   0.193E+00    0.175E+00
DAV:   3    -0.191428465150E+03    0.25360E-01   -0.80429E-02 12160   0.191E+00    0.639E-01
DAV:   4    -0.191425999835E+03    0.24653E-02   -0.12732E-02 11160   0.690E-01    0.455E-01
DAV:   5    -0.191424389510E+03    0.16103E-02   -0.72072E-03 10680   0.613E-01    0.306E-01
DAV:   6    -0.191423735077E+03    0.65443E-03   -0.34101E-03 10360   0.358E-01    0.207E-01
DAV:   7    -0.191424105151E+03   -0.37007E-03   -0.31250E-03 11680   0.392E-01    0.282E-01
DAV:   8    -0.191423307738E+03    0.79741E-03   -0.15483E-03  9640   0.272E-01    0.539E-02
DAV:   9    -0.191423286976E+03    0.20761E-04   -0.12436E-04  5600   0.505E-02
   7 F= -.19142329E+03 E0= -.19131947E+03  d E =-.545676E-01
       N       E                     dE             d eps       ncg     rms          rms(c)
DAV:   1    -0.191440430833E+03   -0.17123E-01   -0.52388E-01  8160   0.154E+00    0.214E-01
DAV:   2    -0.191443852424E+03   -0.34216E-02   -0.21462E-02 12120   0.705E-01    0.567E-01
DAV:   3    -0.191440968669E+03    0.28838E-02   -0.76922E-03 11520   0.614E-01    0.195E-01
DAV:   4    -0.191441037621E+03   -0.68951E-04   -0.18584E-03  9960   0.300E-01    0.219E-01
DAV:   5    -0.191440593951E+03    0.44367E-03   -0.13718E-03  9880   0.269E-01    0.111E-01
DAV:   6    -0.191440507371E+03    0.86580E-04   -0.50289E-04  8480   0.126E-01
   8 F= -.19144051E+03 E0= -.19133641E+03  d E =-.172204E-01
       N       E                     dE             d eps       ncg     rms          rms(c)
DAV:   1    -0.191463059363E+03   -0.22465E-01   -0.10407E+00  8160   0.216E+00    0.283E-01
DAV:   2    -0.191475404751E+03   -0.12345E-01   -0.50530E-02 13440   0.122E+00    0.107E+00
DAV:   3    -0.191464860814E+03    0.10544E-01   -0.23394E-02 10760   0.100E+00    0.237E-01
DAV:   4    -0.191465070468E+03   -0.20965E-03   -0.29962E-03 10720   0.380E-01    0.266E-01
DAV:   5    -0.191464319509E+03    0.75096E-03   -0.15444E-03 10440   0.280E-01    0.872E-02
DAV:   6    -0.191464317593E+03    0.19160E-05   -0.40735E-04  7920   0.963E-02
   9 F= -.19146432E+03 E0= -.19135988E+03  d E =-.238102E-01
       N       E                     dE             d eps       ncg     rms          rms(c)
DAV:   1    -0.191501897571E+03   -0.37578E-01   -0.23956E+00  8160   0.326E+00    0.396E-01
DAV:   2    -0.191525488678E+03   -0.23591E-01   -0.89563E-02 13520   0.155E+00    0.147E+00
DAV:   3    -0.191504769509E+03    0.20719E-01   -0.38583E-02 12080   0.142E+00    0.266E-01
DAV:   4    -0.191504552314E+03    0.21719E-03   -0.28700E-03 11520   0.291E-01    0.233E-01
DAV:   5    -0.191504313421E+03    0.23889E-03   -0.25308E-03 11600   0.346E-01    0.218E-01
DAV:   6    -0.191504132000E+03    0.18142E-03   -0.17313E-03  9600   0.259E-01    0.145E-01
DAV:   7    -0.191504104636E+03    0.27364E-04   -0.10969E-03  9680   0.228E-01    0.138E-01
DAV:   8    -0.191503874555E+03    0.23008E-03   -0.37109E-04  7720   0.134E-01    0.199E-02
DAV:   9    -0.191503882562E+03   -0.80073E-05   -0.40348E-05  6160   0.248E-02
  10 F= -.19150388E+03 E0= -.19139992E+03  d E =-.395650E-01
       N       E                     dE             d eps       ncg     rms          rms(c)
DAV:   1    -0.191472511824E+03    0.31363E-01   -0.15259E+00  8160   0.263E+00    0.344E-01
DAV:   2    -0.191481762168E+03   -0.92503E-02   -0.53932E-02 13360   0.114E+00    0.922E-01
DAV:   3    -0.191473861460E+03    0.79007E-02   -0.19184E-02 12160   0.100E+00    0.312E-01
DAV:   4    -0.191473704977E+03    0.15648E-03   -0.41220E-03 10280   0.443E-01    0.306E-01
DAV:   5    -0.191472893602E+03    0.81138E-03   -0.31604E-03 10360   0.409E-01    0.183E-01
DAV:   6    -0.191472642211E+03    0.25139E-03   -0.13089E-03 10360   0.211E-01    0.113E-01
DAV:   7    -0.191472685088E+03   -0.42877E-04   -0.91910E-04  8800   0.200E-01
  11 F= -.19147269E+03 E0= -.19136840E+03  d E =0.311975E-01
       N       E                     dE             d eps       ncg     rms          rms(c)
DAV:   1    -0.191545601152E+03   -0.72959E-01   -0.88580E+00  8160   0.631E+00    0.737E-01
DAV:   2    -0.191599045144E+03   -0.53444E-01   -0.29759E-01 13080   0.258E+00    0.221E+00
DAV:   3    -0.191557874519E+03    0.41171E-01   -0.10876E-01 12240   0.230E+00    0.663E-01
DAV:   4    -0.191557100317E+03    0.77420E-03   -0.19310E-02 12240   0.922E-01    0.682E-01
DAV:   5    -0.191553063213E+03    0.40371E-02   -0.14232E-02 11640   0.857E-01    0.403E-01
DAV:   6    -0.191552555493E+03    0.50772E-03   -0.77279E-03 11400   0.523E-01    0.344E-01
DAV:   7    -0.191552172300E+03    0.38319E-03   -0.58614E-03 11800   0.525E-01    0.281E-01
DAV:   8    -0.191551208126E+03    0.96417E-03   -0.16840E-03  9680   0.259E-01    0.499E-02
DAV:   9    -0.191551183341E+03    0.24785E-04   -0.17176E-04  6840   0.492E-02
  12 F= -.19155118E+03 E0= -.19144813E+03  d E =-.784983E-01
       N       E                     dE             d eps       ncg     rms          rms(c)
DAV:   1    -0.191564160570E+03   -0.12952E-01   -0.22750E-01  8160   0.101E+00    0.114E-01
DAV:   2    -0.191565312298E+03   -0.11517E-02   -0.77347E-03 12640   0.382E-01    0.289E-01
DAV:   3    -0.191564591280E+03    0.72102E-03   -0.22403E-03 10760   0.330E-01    0.119E-01
DAV:   4    -0.191564557158E+03    0.34123E-04   -0.46959E-04  8160   0.146E-01
  13 F= -.19156456E+03 E0= -.19146200E+03  d E =-.133738E-01
       N       E                     dE             d eps       ncg     rms          rms(c)
DAV:   1    -0.191421747879E+03    0.14284E+00   -0.20903E+01  8160   0.972E+00    0.107E+00
DAV:   2    -0.191503804318E+03   -0.82056E-01   -0.65512E-01 12520   0.325E+00    0.216E+00
DAV:   3    -0.191459283763E+03    0.44521E-01   -0.14445E-01 12120   0.276E+00    0.114E+00
DAV:   4    -0.191455502256E+03    0.37815E-02   -0.46199E-02 12240   0.147E+00    0.101E+00
DAV:   5    -0.191447481555E+03    0.80207E-02   -0.32117E-02 11040   0.128E+00    0.607E-01
DAV:   6    -0.191444077347E+03    0.34042E-02   -0.11020E-02 12480   0.618E-01    0.256E-01
DAV:   7    -0.191444369377E+03   -0.29203E-03   -0.60903E-03 12480   0.444E-01    0.375E-01
DAV:   8    -0.191443062300E+03    0.13071E-02   -0.32433E-03 11440   0.376E-01    0.106E-01
DAV:   9    -0.191442952202E+03    0.11010E-03   -0.37563E-04  8640   0.952E-02    0.380E-02
DAV:  10    -0.191442937013E+03    0.15189E-04   -0.13692E-04  7880   0.391E-02
  14 F= -.19144294E+03 E0= -.19133901E+03  d E =0.121620E+00
       N       E                     dE             d eps       ncg     rms          rms(c)
DAV:   1    -0.191410114834E+03    0.32837E-01   -0.24341E+00  8160   0.332E+00    0.358E-01
DAV:   2    -0.191418520700E+03   -0.84059E-02   -0.65820E-02 13280   0.952E-01    0.736E-01
DAV:   3    -0.191414522721E+03    0.39980E-02   -0.18755E-02 12320   0.981E-01    0.468E-01
DAV:   4    -0.191412780778E+03    0.17419E-02   -0.48832E-03 11440   0.449E-01    0.201E-01
DAV:   5    -0.191412313907E+03    0.46687E-03   -0.19401E-03 10480   0.264E-01    0.175E-01
DAV:   6    -0.191412305779E+03    0.81280E-05   -0.15263E-03 10240   0.280E-01    0.164E-01
DAV:   7    -0.191412227316E+03    0.78464E-04   -0.98209E-04  9160   0.206E-01
  15 F= -.19141223E+03 E0= -.19130858E+03  d E =0.307097E-01
       N       E                     dE             d eps       ncg     rms          rms(c)
DAV:   1    -0.191411406760E+03    0.89902E-03   -0.42069E+00  8160   0.439E+00    0.526E-01
DAV:   2    -0.191428552297E+03   -0.17146E-01   -0.13453E-01 13600   0.157E+00    0.106E+00
DAV:   3    -0.191417737812E+03    0.10814E-01   -0.37965E-02 12200   0.138E+00    0.535E-01
DAV:   4    -0.191416703726E+03    0.10341E-02   -0.11642E-02 11640   0.718E-01    0.467E-01
DAV:   5    -0.191415306169E+03    0.13976E-02   -0.72607E-03 10400   0.620E-01    0.371E-01
DAV:   6    -0.191413869902E+03    0.14363E-02   -0.36908E-03 11120   0.383E-01    0.116E-01
DAV:   7    -0.191413791439E+03    0.78463E-04   -0.82999E-04 10440   0.124E-01
  16 F= -.19141379E+03 E0= -.19131057E+03  d E =-.156412E-02
       N       E                     dE             d eps       ncg     rms          rms(c)
DAV:   1    -0.191402871832E+03    0.10998E-01   -0.72839E+00  8160   0.576E+00    0.684E-01
DAV:   2    -0.191441810030E+03   -0.38938E-01   -0.21142E-01 13520   0.200E+00    0.184E+00
DAV:   3    -0.191411984503E+03    0.29826E-01   -0.88936E-02 11400   0.210E+00    0.719E-01
DAV:   4    -0.191408095340E+03    0.38892E-02   -0.15680E-02 11360   0.724E-01    0.389E-01
DAV:   5    -0.191406905254E+03    0.11901E-02   -0.75619E-03 10840   0.561E-01    0.429E-01
DAV:   6    -0.191405765717E+03    0.11395E-02   -0.60414E-03 10360   0.540E-01    0.260E-01
DAV:   7    -0.191405986992E+03   -0.22127E-03   -0.29915E-03 12240   0.386E-01    0.281E-01
DAV:   8    -0.191405150597E+03    0.83640E-03   -0.14714E-03  9760   0.290E-01    0.630E-02
DAV:   9    -0.191405106905E+03    0.43691E-04   -0.12443E-04  5800   0.601E-02
  17 F= -.19140511E+03 E0= -.19130307E+03  d E =0.868453E-02
       N       E                     dE             d eps       ncg     rms          rms(c)
DAV:   1    -0.191438619074E+03   -0.33468E-01   -0.30118E+00  8160   0.366E+00    0.418E-01
DAV:   2    -0.191460379928E+03   -0.21761E-01   -0.10615E-01 12280   0.160E+00    0.142E+00
DAV:   3    -0.191443425277E+03    0.16955E-01   -0.41026E-02 11960   0.137E+00    0.362E-01
DAV:   4    -0.191443819321E+03   -0.39404E-03   -0.62318E-03 11360   0.564E-01    0.411E-01
DAV:   5    -0.191442020299E+03    0.17990E-02   -0.38599E-03 10600   0.474E-01    0.163E-01
DAV:   6    -0.191442086520E+03   -0.66222E-04   -0.16716E-03 10680   0.235E-01    0.180E-01
DAV:   7    -0.191442024414E+03    0.62106E-04   -0.16008E-03 10400   0.284E-01    0.164E-01
DAV:   8    -0.191441704423E+03    0.31999E-03   -0.48208E-04  8200   0.144E-01    0.193E-02
DAV:   9    -0.191441715832E+03   -0.11410E-04   -0.50043E-05  6080   0.253E-02
  18 F= -.19144172E+03 E0= -.19134002E+03  d E =-.366089E-01
       N       E                     dE             d eps       ncg     rms          rms(c)
DAV:   1    -0.191402891397E+03    0.38813E-01   -0.38103E+00  8160   0.414E+00    0.466E-01
DAV:   2    -0.191424651066E+03   -0.21760E-01   -0.11888E-01 12400   0.170E+00    0.131E+00
DAV:   3    -0.191407523714E+03    0.17127E-01   -0.36752E-02 12040   0.137E+00    0.406E-01
DAV:   4    -0.191407346495E+03    0.17722E-03   -0.67072E-03 11120   0.542E-01    0.376E-01
DAV:   5    -0.191406036869E+03    0.13096E-02   -0.43449E-03 11760   0.502E-01    0.230E-01
DAV:   6    -0.191405655628E+03    0.38124E-03   -0.21356E-03 11680   0.273E-01    0.128E-01
DAV:   7    -0.191405800466E+03   -0.14484E-03   -0.12772E-03 10000   0.236E-01    0.193E-01
DAV:   8    -0.191405418674E+03    0.38179E-03   -0.63141E-04  8280   0.185E-01    0.357E-02
DAV:   9    -0.191405421151E+03   -0.24771E-05   -0.57331E-05  5520   0.367E-02
  19 F= -.19140542E+03 E0= -.19130271E+03  d E =0.362947E-01
       N       E                     dE             d eps       ncg     rms          rms(c)
DAV:   1    -0.191370756984E+03    0.34662E-01   -0.78815E+00  8160   0.593E+00    0.605E-01
DAV:   2    -0.191395519701E+03   -0.24763E-01   -0.18273E-01 13200   0.171E+00    0.134E+00
DAV:   3    -0.191381954338E+03    0.13565E-01   -0.57375E-02 12280   0.167E+00    0.738E-01
DAV:   4    -0.191378991226E+03    0.29631E-02   -0.15847E-02 11840   0.759E-01    0.458E-01
DAV:   5    -0.191377100798E+03    0.18904E-02   -0.79700E-03 11440   0.636E-01    0.353E-01
DAV:   6    -0.191376132331E+03    0.96847E-03   -0.42635E-03 12200   0.437E-01    0.176E-01
DAV:   7    -0.191375938977E+03    0.19335E-03   -0.13603E-03 11400   0.209E-01    0.145E-01
DAV:   8    -0.191375748354E+03    0.19062E-03   -0.53426E-04  8760   0.164E-01    0.593E-02
DAV:   9    -0.191375724077E+03    0.24277E-04   -0.96649E-05  6040   0.598E-02
  20 F= -.19137572E+03 E0= -.19127143E+03  d E =0.296971E-01
       N       E                     dE             d eps       ncg     rms          rms(c)
DAV:   1    -0.191391153144E+03   -0.15405E-01   -0.21632E+00  8160   0.313E+00    0.347E-01
DAV:   2    -0.191400356795E+03   -0.92037E-02   -0.68295E-02 12520   0.986E-01    0.801E-01
DAV:   3    -0.191395700654E+03    0.46561E-02   -0.23570E-02 11560   0.997E-01    0.453E-01
DAV:   4    -0.191394295841E+03    0.14048E-02   -0.54438E-03 10880   0.447E-01    0.264E-01
DAV:   5    -0.191393710758E+03    0.58508E-03   -0.23785E-03 10320   0.352E-01    0.180E-01
DAV:   6    -0.191393487939E+03    0.22282E-03   -0.12288E-03 11320   0.223E-01    0.108E-01
DAV:   7    -0.191393439986E+03    0.47953E-04   -0.62355E-04 10240   0.137E-01
  21 F= -.19139344E+03 E0= -.19128788E+03  d E =-.177159E-01
       N       E                     dE             d eps       ncg     rms          rms(c)
DAV:   1    -0.191400161367E+03   -0.66734E-02   -0.79781E-01  8160   0.191E+00    0.210E-01
DAV:   2    -0.191401851953E+03   -0.16906E-02   -0.19381E-02 13160   0.506E-01    0.364E-01
DAV:   3    -0.191401350591E+03    0.50136E-03   -0.61497E-03 11480   0.520E-01    0.304E-01
DAV:   4    -0.191400515059E+03    0.83553E-03   -0.20960E-03 10080   0.279E-01    0.105E-01
DAV:   5    -0.191400454513E+03    0.60545E-04   -0.71153E-04 10200   0.148E-01
  22 F= -.19140045E+03 E0= -.19129506E+03  d E =-.701453E-02
       N       E                     dE             d eps       ncg     rms          rms(c)
DAV:   1    -0.191414142789E+03   -0.13628E-01   -0.14622E+00  8160   0.259E+00    0.382E-01
DAV:   2    -0.191428891241E+03   -0.14748E-01   -0.67757E-02 13160   0.149E+00    0.114E+00
DAV:   3    -0.191415168440E+03    0.13723E-01   -0.29282E-02 11520   0.122E+00    0.288E-01
DAV:   4    -0.191415660939E+03   -0.49250E-03   -0.60927E-03 11400   0.492E-01    0.394E-01
DAV:   5    -0.191414421293E+03    0.12396E-02   -0.40975E-03 10800   0.440E-01    0.207E-01
DAV:   6    -0.191413915270E+03    0.50602E-03   -0.13767E-03  9720   0.206E-01    0.837E-02
DAV:   7    -0.191414112011E+03   -0.19674E-03   -0.88358E-04 10160   0.192E-01    0.173E-01
DAV:   8    -0.191413820047E+03    0.29196E-03   -0.50584E-04  8320   0.163E-01    0.335E-02
DAV:   9    -0.191413818362E+03    0.16850E-05   -0.44063E-05  5640   0.336E-02
  23 F= -.19141382E+03 E0= -.19130722E+03  d E =-.133638E-01
       N       E                     dE             d eps       ncg     rms          rms(c)
DAV:   1    -0.191430267110E+03   -0.16447E-01   -0.12017E+00  8160   0.231E+00    0.234E-01
DAV:   2    -0.191435119093E+03   -0.48520E-02   -0.33022E-02 12480   0.788E-01    0.615E-01
DAV:   3    -0.191432183279E+03    0.29358E-02   -0.98701E-03 11840   0.673E-01    0.256E-01
DAV:   4    -0.191431679476E+03    0.50380E-03   -0.15076E-03  9520   0.233E-01    0.131E-01
DAV:   5    -0.191431712580E+03   -0.33104E-04   -0.11144E-03 10600   0.242E-01    0.155E-01
DAV:   6    -0.191431568521E+03    0.14406E-03   -0.76474E-04  9200   0.185E-01    0.892E-02
DAV:   7    -0.191431575955E+03   -0.74345E-05   -0.43622E-04  8400   0.148E-01
  24 F= -.19143158E+03 E0= -.19132539E+03  d E =-.177576E-01
       N       E                     dE             d eps       ncg     rms          rms(c)
DAV:   1    -0.191443564191E+03   -0.11996E-01   -0.55237E-01  8160   0.158E+00    0.164E-01
DAV:   2    -0.191445106462E+03   -0.15423E-02   -0.14737E-02 12440   0.423E-01    0.308E-01
DAV:   3    -0.191444666698E+03    0.43976E-03   -0.40768E-03 11800   0.423E-01    0.236E-01
DAV:   4    -0.191444248411E+03    0.41829E-03   -0.11553E-03  9440   0.214E-01    0.106E-01
DAV:   5    -0.191444190411E+03    0.57999E-04   -0.50959E-04  8360   0.159E-01
  25 F= -.19144419E+03 E0= -.19133783E+03  d E =-.126145E-01
       N       E                     dE             d eps       ncg     rms          rms(c)
DAV:   1    -0.191428041873E+03    0.16207E-01   -0.19249E+00  8160   0.296E+00    0.309E-01
DAV:   2    -0.191432494906E+03   -0.44530E-02   -0.45740E-02 13320   0.698E-01    0.484E-01
DAV:   3    -0.191431577818E+03    0.91709E-03   -0.12807E-02 12240   0.771E-01    0.479E-01
DAV:   4    -0.191429731490E+03    0.18463E-02   -0.48923E-03 11680   0.479E-01    0.187E-01
DAV:   5    -0.191429254617E+03    0.47687E-03   -0.13477E-03 10000   0.195E-01    0.119E-01
DAV:   6    -0.191429429264E+03   -0.17465E-03   -0.11527E-03 10280   0.242E-01    0.173E-01
DAV:   7    -0.191429216888E+03    0.21238E-03   -0.73713E-04  8160   0.188E-01    0.955E-02
DAV:   8    -0.191429142353E+03    0.74535E-04   -0.26040E-04  7200   0.111E-01
  26 F= -.19142914E+03 E0= -.19132357E+03  d E =0.150481E-01
       N       E                     dE             d eps       ncg     rms          rms(c)
DAV:   1    -0.191439949946E+03   -0.10733E-01   -0.35669E+00  8160   0.401E+00    0.419E-01
DAV:   2    -0.191448774605E+03   -0.88247E-02   -0.81048E-02 12960   0.105E+00    0.797E-01
DAV:   3    -0.191445300952E+03    0.34737E-02   -0.24945E-02 12000   0.106E+00    0.572E-01
DAV:   4    -0.191443008488E+03    0.22925E-02   -0.81746E-03 11280   0.567E-01    0.284E-01
DAV:   5    -0.191442328376E+03    0.68011E-03   -0.33668E-03 10600   0.400E-01    0.257E-01
DAV:   6    -0.191441854500E+03    0.47388E-03   -0.23299E-03 12280   0.341E-01    0.140E-01
DAV:   7    -0.191441808233E+03    0.46267E-04   -0.89878E-04  9640   0.186E-01
  27 F= -.19144181E+03 E0= -.19133771E+03  d E =-.126659E-01
       N       E                     dE             d eps       ncg     rms          rms(c)
DAV:   1    -0.191444287392E+03   -0.24329E-02   -0.23928E-02  8160   0.361E-01    0.648E-02
DAV:   2    -0.191445088562E+03   -0.80117E-03   -0.21723E-03 12600   0.289E-01    0.277E-01
DAV:   3    -0.191444288437E+03    0.80012E-03   -0.12932E-03  9960   0.259E-01    0.425E-02
DAV:   4    -0.191444299253E+03   -0.10815E-04   -0.72680E-05  5480   0.509E-02
  28 F= -.19144430E+03 E0= -.19134020E+03  d E =-.249102E-02
       N       E                     dE             d eps       ncg     rms          rms(c)
DAV:   1    -0.191465011300E+03   -0.20723E-01   -0.13297E+00  8160   0.243E+00    0.264E-01
DAV:   2    -0.191472191648E+03   -0.71803E-02   -0.41649E-02 12080   0.908E-01    0.791E-01
DAV:   3    -0.191467095522E+03    0.50961E-02   -0.13731E-02 12080   0.795E-01    0.249E-01
DAV:   4    -0.191466526078E+03    0.56944E-03   -0.13105E-03 10240   0.201E-01    0.108E-01
DAV:   5    -0.191466842075E+03   -0.31600E-03   -0.13665E-03 11320   0.254E-01    0.223E-01
DAV:   6    -0.191466446207E+03    0.39587E-03   -0.12404E-03  9520   0.239E-01    0.802E-02
DAV:   7    -0.191466403241E+03    0.42965E-04   -0.26619E-04  6880   0.101E-01
  29 F= -.19146640E+03 E0= -.19136315E+03  d E =-.221040E-01
       N       E                     dE             d eps       ncg     rms          rms(c)
DAV:   1    -0.191451082771E+03    0.15363E-01   -0.78358E-01  8160   0.189E+00    0.215E-01
DAV:   2    -0.191456074888E+03   -0.49921E-02   -0.26850E-02 12320   0.757E-01    0.656E-01
DAV:   3    -0.191452134836E+03    0.39401E-02   -0.93656E-03 11880   0.670E-01    0.187E-01
DAV:   4    -0.191451895231E+03    0.23961E-03   -0.12059E-03 10280   0.194E-01    0.122E-01
DAV:   5    -0.191451858634E+03    0.36597E-04   -0.87115E-04 11360   0.212E-01
  30 F= -.19145186E+03 E0= -.19134829E+03  d E =0.145446E-01
       N       E                     dE             d eps       ncg     rms          rms(c)
DAV:   1    -0.191456371286E+03   -0.44761E-02   -0.10088E+00  8160   0.215E+00    0.278E-01
DAV:   2    -0.191467113129E+03   -0.10742E-01   -0.38951E-02 13600   0.110E+00    0.101E+00
DAV:   3    -0.191456981788E+03    0.10131E-01   -0.19045E-02 11640   0.975E-01    0.169E-01
DAV:   4    -0.191456907288E+03    0.74500E-04   -0.14938E-03 10400   0.184E-01    0.145E-01
DAV:   5    -0.191456895612E+03    0.11676E-04   -0.12110E-03 11360   0.248E-01    0.179E-01
DAV:   6    -0.191456689995E+03    0.20562E-03   -0.88329E-04  8520   0.205E-01    0.987E-02
DAV:   7    -0.191456715669E+03   -0.25674E-04   -0.47631E-04  8280   0.156E-01
  31 F= -.19145672E+03 E0= -.19135355E+03  d E =-.485703E-02
       N       E                     dE             d eps       ncg     rms          rms(c)
DAV:   1    -0.191476646964E+03   -0.19957E-01   -0.38635E+00  8160   0.420E+00    0.481E-01
DAV:   2    -0.191496856059E+03   -0.20209E-01   -0.11767E-01 13000   0.152E+00    0.133E+00
DAV:   3    -0.191481959148E+03    0.14897E-01   -0.44890E-02 12480   0.144E+00    0.482E-01
DAV:   4    -0.191480489519E+03    0.14696E-02   -0.70550E-03 11320   0.501E-01    0.327E-01
DAV:   5    -0.191480323253E+03    0.16627E-03   -0.56677E-03 10280   0.527E-01    0.372E-01
DAV:   6    -0.191479164588E+03    0.11587E-02   -0.36051E-03 11560   0.387E-01    0.149E-01
DAV:   7    -0.191479444351E+03   -0.27976E-03   -0.16366E-03 10280   0.291E-01    0.207E-01
DAV:   8    -0.191478933797E+03    0.51055E-03   -0.70509E-04  8720   0.209E-01    0.337E-02
DAV:   9    -0.191478934111E+03   -0.31455E-06   -0.70481E-05  5840   0.361E-02
  32 F= -.19147893E+03 E0= -.19137605E+03  d E =-.222184E-01
       N       E                     dE             d eps       ncg     rms          rms(c)
DAV:   1    -0.191517083413E+03   -0.38150E-01   -0.35490E+00  8160   0.401E+00    0.439E-01
DAV:   2    -0.191530581820E+03   -0.13498E-01   -0.10349E-01 12080   0.129E+00    0.105E+00
DAV:   3    -0.191522534271E+03    0.80475E-02   -0.28562E-02 12200   0.119E+00    0.465E-01
DAV:   4    -0.191521060214E+03    0.14741E-02   -0.55989E-03 11440   0.513E-01    0.331E-01
DAV:   5    -0.191520487427E+03    0.57279E-03   -0.43886E-03 10600   0.500E-01    0.275E-01
DAV:   6    -0.191520247253E+03    0.24017E-03   -0.28579E-03 11400   0.343E-01    0.228E-01
DAV:   7    -0.191519874706E+03    0.37255E-03   -0.18195E-03  9840   0.300E-01    0.129E-01
DAV:   8    -0.191519666691E+03    0.20802E-03   -0.36603E-04  7480   0.119E-01    0.228E-02
DAV:   9    -0.191519665977E+03    0.71355E-06   -0.52741E-05  6800   0.265E-02
  33 F= -.19151967E+03 E0= -.19141846E+03  d E =-.407319E-01
       N       E                     dE             d eps       ncg     rms          rms(c)
DAV:   1    -0.191535192100E+03   -0.15525E-01   -0.50877E-01  8160   0.150E+00    0.151E-01
DAV:   2    -0.191537439915E+03   -0.22478E-02   -0.13663E-02 12280   0.505E-01    0.417E-01
DAV:   3    -0.191535867773E+03    0.15721E-02   -0.39817E-03 11400   0.448E-01    0.133E-01
DAV:   4    -0.191535749587E+03    0.11819E-03   -0.37927E-04  8200   0.122E-01    0.872E-02
DAV:   5    -0.191535773559E+03   -0.23971E-04   -0.41208E-04  9880   0.151E-01
  34 F= -.19153577E+03 E0= -.19143579E+03  d E =-.161076E-01
       N       E                     dE             d eps       ncg     rms          rms(c)
DAV:   1    -0.191551508653E+03   -0.15759E-01   -0.64699E-01  8160   0.171E+00    0.178E-01
DAV:   2    -0.191554588426E+03   -0.30798E-02   -0.19112E-02 12960   0.594E-01    0.483E-01
DAV:   3    -0.191552434564E+03    0.21539E-02   -0.58977E-03 11280   0.537E-01    0.160E-01
DAV:   4    -0.191552278048E+03    0.15652E-03   -0.69524E-04  9520   0.157E-01    0.105E-01
DAV:   5    -0.191552248324E+03    0.29724E-04   -0.50999E-04  9200   0.176E-01
  35 F= -.19155225E+03 E0= -.19145311E+03  d E =-.164748E-01
       N       E                     dE             d eps       ncg     rms          rms(c)
DAV:   1    -0.191573877750E+03   -0.21600E-01   -0.89475E-01  8160   0.200E+00    0.223E-01
DAV:   2    -0.191578505255E+03   -0.46275E-02   -0.26078E-02 12320   0.764E-01    0.636E-01
DAV:   3    -0.191574911277E+03    0.35940E-02   -0.82880E-03 11480   0.663E-01    0.190E-01
DAV:   4    -0.191574880213E+03    0.31064E-04   -0.13268E-03 10120   0.247E-01    0.188E-01
DAV:   5    -0.191574615632E+03    0.26458E-03   -0.10436E-03 10040   0.249E-01    0.119E-01
DAV:   6    -0.191574628696E+03   -0.13064E-04   -0.64715E-04  8280   0.168E-01
  36 F= -.19157463E+03 E0= -.19147678E+03  d E =-.223804E-01
       N       E                     dE             d eps       ncg     rms          rms(c)
DAV:   1    -0.191613576008E+03   -0.38960E-01   -0.27550E+00  8160   0.354E+00    0.434E-01
DAV:   2    -0.191627531813E+03   -0.13956E-01   -0.90715E-02 12440   0.141E+00    0.112E+00
DAV:   3    -0.191616300994E+03    0.11231E-01   -0.28559E-02 12280   0.123E+00    0.359E-01
DAV:   4    -0.191616187751E+03    0.11324E-03   -0.59831E-03 12040   0.541E-01    0.388E-01
DAV:   5    -0.191614907020E+03    0.12807E-02   -0.44807E-03 11160   0.527E-01    0.238E-01
DAV:   6    -0.191614811388E+03    0.95631E-04   -0.24028E-03 11000   0.314E-01    0.229E-01
DAV:   7    -0.191614428839E+03    0.38255E-03   -0.15346E-03  9640   0.289E-01    0.121E-01
DAV:   8    -0.191614256114E+03    0.17273E-03   -0.31250E-04  7360   0.112E-01    0.234E-02
DAV:   9    -0.191614251145E+03    0.49698E-05   -0.45737E-05  6800   0.261E-02
  37 F= -.19161425E+03 E0= -.19151855E+03  d E =-.396224E-01
       N       E                     dE             d eps       ncg     rms          rms(c)
DAV:   1    -0.191605430930E+03    0.88252E-02   -0.37020E-01  8160   0.135E+00    0.255E-01
DAV:   2    -0.191609229689E+03   -0.37988E-02   -0.19478E-02 11880   0.836E-01    0.675E-01
DAV:   3    -0.191604581700E+03    0.46480E-02   -0.85619E-03 11480   0.712E-01    0.184E-01
DAV:   4    -0.191604912354E+03   -0.33065E-03   -0.26490E-03  9720   0.364E-01    0.277E-01
DAV:   5    -0.191604215639E+03    0.69672E-03   -0.21692E-03 10240   0.345E-01    0.136E-01
DAV:   6    -0.191604051427E+03    0.16421E-03   -0.69798E-04 10120   0.153E-01    0.865E-02
DAV:   7    -0.191604011947E+03    0.39479E-04   -0.27155E-04  7640   0.120E-01
  38 F= -.19160401E+03 E0= -.19150780E+03  d E =0.102392E-01
       N       E                     dE             d eps       ncg     rms          rms(c)
DAV:   1    -0.191654518138E+03   -0.50467E-01   -0.50817E+00  8160   0.476E+00    0.523E-01
DAV:   2    -0.191685392652E+03   -0.30875E-01   -0.15968E-01 13280   0.196E+00    0.161E+00
DAV:   3    -0.191660309807E+03    0.25083E-01   -0.51833E-02 12480   0.169E+00    0.353E-01
DAV:   4    -0.191658922677E+03    0.13871E-02   -0.42052E-03 11520   0.339E-01    0.236E-01
DAV:   5    -0.191659712111E+03   -0.78943E-03   -0.42473E-03 12200   0.498E-01    0.399E-01
DAV:   6    -0.191658586534E+03    0.11256E-02   -0.35132E-03 10920   0.412E-01    0.152E-01
DAV:   7    -0.191658182407E+03    0.40413E-03   -0.81822E-04  9680   0.136E-01    0.406E-02
DAV:   8    -0.191658188729E+03   -0.63222E-05   -0.10944E-04  6920   0.757E-02
  39 F= -.19165819E+03 E0= -.19156507E+03  d E =-.541768E-01
       N       E                     dE             d eps       ncg     rms          rms(c)
DAV:   1    -0.191694093034E+03   -0.35911E-01   -0.22990E+00  8160   0.322E+00    0.378E-01
DAV:   2    -0.191707960841E+03   -0.13868E-01   -0.78942E-02 12760   0.135E+00    0.107E+00
DAV:   3    -0.191696896852E+03    0.11064E-01   -0.24954E-02 12280   0.117E+00    0.274E-01
DAV:   4    -0.191696212827E+03    0.68402E-03   -0.26917E-03 11480   0.304E-01    0.183E-01
DAV:   5    -0.191696337469E+03   -0.12464E-03   -0.20200E-03 11200   0.360E-01    0.249E-01
DAV:   6    -0.191695946563E+03    0.39091E-03   -0.17535E-03 10760   0.300E-01    0.147E-01
DAV:   7    -0.191695857702E+03    0.88861E-04   -0.82808E-04  8360   0.217E-01
  40 F= -.19169586E+03 E0= -.19160464E+03  d E =-.376690E-01
       N       E                     dE             d eps       ncg     rms          rms(c)
DAV:   1    -0.191731335958E+03   -0.35389E-01   -0.24267E+00  8160   0.329E+00    0.359E-01
DAV:   2    -0.191744442227E+03   -0.13106E-01   -0.76535E-02 12600   0.128E+00    0.981E-01
DAV:   3    -0.191734640925E+03    0.98013E-02   -0.22834E-02 12200   0.113E+00    0.295E-01
DAV:   4    -0.191734149428E+03    0.49150E-03   -0.28563E-03 11160   0.352E-01    0.221E-01
DAV:   5    -0.191733877620E+03    0.27181E-03   -0.19837E-03 11200   0.354E-01    0.191E-01
DAV:   6    -0.191733766811E+03    0.11081E-03   -0.13600E-03 10160   0.263E-01    0.156E-01
DAV:   7    -0.191733704292E+03    0.62519E-04   -0.97744E-04  9680   0.228E-01
  41 F= -.19173370E+03 E0= -.19164409E+03  d E =-.378466E-01
       N       E                     dE             d eps       ncg     rms          rms(c)
DAV:   1    -0.191751022019E+03   -0.17255E-01   -0.53360E-01  8160   0.155E+00    0.185E-01
DAV:   2    -0.191754312090E+03   -0.32901E-02   -0.18333E-02 13400   0.644E-01    0.513E-01
DAV:   3    -0.191751645517E+03    0.26666E-02   -0.60259E-03 11520   0.579E-01    0.140E-01
DAV:   4    -0.191751529237E+03    0.11628E-03   -0.76678E-04 10080   0.143E-01    0.826E-02
DAV:   5    -0.191751407061E+03    0.12218E-03   -0.32196E-04  8840   0.814E-02    0.453E-02
DAV:   6    -0.191751511104E+03   -0.10404E-03   -0.26808E-04  8520   0.128E-01    0.108E-01
DAV:   7    -0.191751389343E+03    0.12176E-03   -0.17140E-04  6360   0.108E-01    0.234E-02
DAV:   8    -0.191751396057E+03   -0.67139E-05   -0.31688E-05  5880   0.391E-02
  42 F= -.19175140E+03 E0= -.19166245E+03  d E =-.176918E-01
       N       E                     dE             d eps       ncg     rms          rms(c)
DAV:   1    -0.191813877606E+03   -0.62488E-01   -0.97098E+00  8160   0.658E+00    0.719E-01
DAV:   2    -0.191871465016E+03   -0.57587E-01   -0.31757E-01 12760   0.271E+00    0.206E+00
DAV:   3    -0.191827859185E+03    0.43606E-01   -0.96299E-02 12280   0.233E+00    0.514E-01
DAV:   4    -0.191826520956E+03    0.13382E-02   -0.11214E-02 11520   0.646E-01    0.460E-01
DAV:   5    -0.191824699825E+03    0.18211E-02   -0.74523E-03 12040   0.675E-01    0.335E-01
DAV:   6    -0.191824716298E+03   -0.16473E-04   -0.44538E-03 11680   0.502E-01    0.324E-01
DAV:   7    -0.191824300431E+03    0.41587E-03   -0.36069E-03 11520   0.472E-01    0.269E-01
DAV:   8    -0.191823446957E+03    0.85347E-03   -0.12461E-03  9720   0.269E-01    0.423E-02
DAV:   9    -0.191823441183E+03    0.57744E-05   -0.12889E-04  6200   0.477E-02
  43 F= -.19182344E+03 E0= -.19173671E+03  d E =-.720451E-01
       N       E                     dE             d eps       ncg     rms          rms(c)
DAV:   1    -0.191862241204E+03   -0.38794E-01   -0.33338E+00  8160   0.394E+00    0.507E-01
DAV:   2    -0.191881503708E+03   -0.19263E-01   -0.13007E-01 13280   0.167E+00    0.125E+00
DAV:   3    -0.191866584364E+03    0.14919E-01   -0.37748E-02 12280   0.147E+00    0.391E-01
DAV:   4    -0.191864844625E+03    0.17397E-02   -0.54412E-03 12240   0.417E-01    0.225E-01
DAV:   5    -0.191864619146E+03    0.22548E-03   -0.33052E-03 11960   0.370E-01    0.280E-01
DAV:   6    -0.191864524757E+03    0.94389E-04   -0.32290E-03 11720   0.436E-01    0.253E-01
DAV:   7    -0.191863804300E+03    0.72046E-03   -0.12671E-03  9720   0.235E-01    0.560E-02
DAV:   8    -0.191863799696E+03    0.46043E-05   -0.19007E-04  7440   0.100E-01
  44 F= -.19186380E+03 E0= -.19177754E+03  d E =-.403585E-01
       N       E                     dE             d eps       ncg     rms          rms(c)
DAV:   1    -0.191918785977E+03   -0.54982E-01   -0.14946E+01  8160   0.821E+00    0.880E-01
DAV:   2    -0.191986946321E+03   -0.68160E-01   -0.47155E-01 11560   0.297E+00    0.207E+00
DAV:   3    -0.191943851129E+03    0.43095E-01   -0.12019E-01 12200   0.260E+00    0.745E-01
DAV:   4    -0.191940321983E+03    0.35291E-02   -0.17620E-02 11680   0.933E-01    0.573E-01
DAV:   5    -0.191937238272E+03    0.30837E-02   -0.11384E-02 12000   0.883E-01    0.393E-01
DAV:   6    -0.191937117863E+03    0.12041E-03   -0.72294E-03 12680   0.609E-01    0.359E-01
DAV:   7    -0.191936602607E+03    0.51526E-03   -0.53955E-03 11760   0.544E-01    0.342E-01
DAV:   8    -0.191935350433E+03    0.12522E-02   -0.17003E-03 10240   0.333E-01    0.563E-02
DAV:   9    -0.191935332415E+03    0.18017E-04   -0.23005E-04  7280   0.628E-02
  45 F= -.19193533E+03 E0= -.19185044E+03  d E =-.715327E-01
       N       E                     dE             d eps       ncg     rms          rms(c)
DAV:   1    -0.191945744776E+03   -0.10394E-01   -0.39992E-01  8160   0.138E+00    0.193E-01
DAV:   2    -0.191947161550E+03   -0.14168E-02   -0.17341E-02 11920   0.526E-01    0.327E-01
DAV:   3    -0.191946483315E+03    0.67824E-03   -0.39322E-03 12360   0.487E-01    0.218E-01
DAV:   4    -0.191946086351E+03    0.39696E-03   -0.12579E-03 10320   0.274E-01    0.143E-01
DAV:   5    -0.191945980843E+03    0.10551E-03   -0.71880E-04 10560   0.233E-01    0.117E-01
DAV:   6    -0.191945824977E+03    0.15587E-03   -0.39233E-04  8920   0.134E-01    0.399E-02
DAV:   7    -0.191945822015E+03    0.29613E-05   -0.11792E-04  6840   0.702E-02
  46 F= -.19194582E+03 E0= -.19186160E+03  d E =-.104896E-01
       N       E                     dE             d eps       ncg     rms          rms(c)
DAV:   1    -0.191964788779E+03   -0.18964E-01   -0.12176E+00  8160   0.236E+00    0.261E-01
DAV:   2    -0.191968872687E+03   -0.40839E-02   -0.38104E-02 11760   0.745E-01    0.471E-01
DAV:   3    -0.191967187174E+03    0.16855E-02   -0.80230E-03 12280   0.686E-01    0.290E-01
DAV:   4    -0.191966624078E+03    0.56310E-03   -0.19237E-03 11040   0.339E-01    0.184E-01
DAV:   5    -0.191966346728E+03    0.27735E-03   -0.11676E-03 10480   0.279E-01    0.131E-01
DAV:   6    -0.191966309732E+03    0.36996E-04   -0.77529E-04  9960   0.202E-01
  47 F= -.19196631E+03 E0= -.19188310E+03  d E =-.204877E-01
       N       E                     dE             d eps       ncg     rms          rms(c)
DAV:   1    -0.191978133076E+03   -0.11786E-01   -0.43503E-01  8160   0.144E+00    0.188E-01
DAV:   2    -0.191980574650E+03   -0.24416E-02   -0.15818E-02 12520   0.538E-01    0.424E-01
DAV:   3    -0.191978805536E+03    0.17691E-02   -0.40926E-03 11920   0.518E-01    0.166E-01
DAV:   4    -0.191978828678E+03   -0.23141E-04   -0.10383E-03  9840   0.245E-01    0.173E-01
DAV:   5    -0.191978488520E+03    0.34016E-03   -0.54992E-04  9080   0.209E-01    0.539E-02
DAV:   6    -0.191978555125E+03   -0.66605E-04   -0.21460E-04  7280   0.112E-01
  48 F= -.19197856E+03 E0= -.19189575E+03  d E =-.122454E-01
       N       E                     dE             d eps       ncg     rms          rms(c)
DAV:   1    -0.192010646662E+03   -0.32158E-01   -0.42275E+00  8160   0.445E+00    0.505E-01
DAV:   2    -0.192021004048E+03   -0.10357E-01   -0.13636E-01 11400   0.113E+00    0.655E-01
DAV:   3    -0.192021650695E+03   -0.64665E-03   -0.23749E-02 12360   0.120E+00    0.715E-01
DAV:   4    -0.192016174180E+03    0.54765E-02   -0.76951E-03 12240   0.711E-01    0.200E-01
DAV:   5    -0.192015867683E+03    0.30650E-03   -0.29805E-03 10640   0.262E-01    0.169E-01
DAV:   6    -0.192015895815E+03   -0.28132E-04   -0.20985E-03 12120   0.330E-01    0.198E-01
DAV:   7    -0.192015373922E+03    0.52189E-03   -0.73927E-04 10360   0.237E-01    0.383E-02
DAV:   8    -0.192015360117E+03    0.13805E-04   -0.75004E-05  6120   0.421E-02
  49 F= -.19201536E+03 E0= -.19193483E+03  d E =-.368050E-01
       N       E                     dE             d eps       ncg     rms          rms(c)
DAV:   1    -0.192035719621E+03   -0.20346E-01   -0.18647E+00  8160   0.294E+00    0.316E-01
DAV:   2    -0.192041234824E+03   -0.55152E-02   -0.56206E-02 11720   0.863E-01    0.524E-01
DAV:   3    -0.192039450002E+03    0.17848E-02   -0.10450E-02 12400   0.808E-01    0.349E-01
DAV:   4    -0.192038173825E+03    0.12762E-02   -0.21787E-03 11080   0.367E-01    0.167E-01
DAV:   5    -0.192038243834E+03   -0.70010E-04   -0.14404E-03 11040   0.331E-01    0.190E-01
DAV:   6    -0.192038001382E+03    0.24245E-03   -0.11597E-03  9880   0.252E-01    0.114E-01
DAV:   7    -0.192037876606E+03    0.12478E-03   -0.39072E-04  9240   0.163E-01    0.636E-02
DAV:   8    -0.192037822807E+03    0.53799E-04   -0.70876E-05  6240   0.723E-02
  50 F= -.19203782E+03 E0= -.19195885E+03  d E =-.224627E-01
       N       E                     dE             d eps       ncg     rms          rms(c)
DAV:   1    -0.192049993842E+03   -0.12117E-01   -0.58372E-01  8160   0.166E+00    0.190E-01
DAV:   2    -0.192051317992E+03   -0.13241E-02   -0.20815E-02 11080   0.411E-01    0.173E-01
DAV:   3    -0.192051918826E+03   -0.60083E-03   -0.30389E-03 12280   0.440E-01    0.297E-01
DAV:   4    -0.192050873729E+03    0.10451E-02   -0.13867E-03 10120   0.309E-01    0.622E-02
DAV:   5    -0.192051021436E+03   -0.14771E-03   -0.44451E-04  8600   0.152E-01    0.132E-01
DAV:   6    -0.192050866009E+03    0.15543E-03   -0.42002E-04  8520   0.174E-01    0.560E-02
DAV:   7    -0.192050826770E+03    0.39239E-04   -0.78256E-05  5920   0.586E-02
  51 F= -.19205083E+03 E0= -.19197249E+03  d E =-.130040E-01
       N       E                     dE             d eps       ncg     rms          rms(c)
DAV:   1    -0.192073651186E+03   -0.22785E-01   -0.26202E+00  8160   0.349E+00    0.380E-01
DAV:   2    -0.192079889263E+03   -0.62381E-02   -0.82511E-02 11040   0.875E-01    0.428E-01
DAV:   3    -0.192080525155E+03   -0.63589E-03   -0.13735E-02 11360   0.911E-01    0.513E-01
DAV:   4    -0.192077405846E+03    0.31193E-02   -0.45061E-03 11480   0.545E-01    0.152E-01
DAV:   5    -0.192077844638E+03   -0.43879E-03   -0.19497E-03 11160   0.376E-01    0.246E-01
DAV:   6    -0.192077262701E+03    0.58194E-03   -0.13962E-03 11000   0.302E-01    0.105E-01
DAV:   7    -0.192077156844E+03    0.10586E-03   -0.42459E-04  8600   0.153E-01    0.780E-02
DAV:   8    -0.192077093407E+03    0.63436E-04   -0.10424E-04  5840   0.930E-02
  52 F= -.19207709E+03 E0= -.19200018E+03  d E =-.262666E-01
       N       E                     dE             d eps       ncg     rms          rms(c)
DAV:   1    -0.192091316321E+03   -0.14159E-01   -0.94417E-01  8160   0.211E+00    0.244E-01
DAV:   2    -0.192094390160E+03   -0.30738E-02   -0.32632E-02 11480   0.654E-01    0.387E-01
DAV:   3    -0.192093430092E+03    0.96007E-03   -0.64393E-03 12200   0.640E-01    0.267E-01
DAV:   4    -0.192092544037E+03    0.88606E-03   -0.12301E-03 10040   0.263E-01    0.913E-02
DAV:   5    -0.192092839296E+03   -0.29526E-03   -0.82848E-04 10360   0.249E-01    0.191E-01
DAV:   6    -0.192092484293E+03    0.35500E-03   -0.70131E-04  9720   0.217E-01    0.570E-02
DAV:   7    -0.192092456091E+03    0.28202E-04   -0.11461E-04  6320   0.869E-02
  53 F= -.19209246E+03 E0= -.19201587E+03  d E =-.153627E-01
       N       E                     dE             d eps       ncg     rms          rms(c)
DAV:   1    -0.192106942666E+03   -0.14458E-01   -0.10088E+00  8160   0.216E+00    0.250E-01
DAV:   2    -0.192110494903E+03   -0.35522E-02   -0.33595E-02 11760   0.723E-01    0.434E-01
DAV:   3    -0.192108964368E+03    0.15305E-02   -0.70347E-03 12400   0.679E-01    0.254E-01
DAV:   4    -0.192108336183E+03    0.62819E-03   -0.12254E-03 10200   0.277E-01    0.139E-01
DAV:   5    -0.192108287302E+03    0.48881E-04   -0.78516E-04 10240   0.248E-01
  54 F= -.19210829E+03 E0= -.19203200E+03  d E =-.158312E-01
       N       E                     dE             d eps       ncg     rms          rms(c)
DAV:   1    -0.192109068756E+03   -0.73257E-03   -0.33796E-03 11880   0.211E-01    0.954E-02
DAV:   2    -0.192110811922E+03   -0.17432E-02   -0.31405E-03 11240   0.498E-01    0.395E-01
DAV:   3    -0.192108960099E+03    0.18518E-02   -0.21369E-03 10120   0.419E-01    0.468E-02
DAV:   4    -0.192108955990E+03    0.41082E-05   -0.70821E-05  5920   0.644E-02
  55 F= -.19210896E+03 E0= -.19203280E+03  d E =-.668688E-03
       N       E                     dE             d eps       ncg     rms          rms(c)
DAV:   1    -0.192128204244E+03   -0.19244E-01   -0.24150E+00  8160   0.336E+00    0.402E-01
DAV:   2    -0.192139300923E+03   -0.11097E-01   -0.86126E-02 12000   0.127E+00    0.830E-01
DAV:   3    -0.192132127178E+03    0.71737E-02   -0.21559E-02 12080   0.116E+00    0.325E-01
DAV:   4    -0.192130820905E+03    0.13063E-02   -0.25329E-03 11520   0.338E-01    0.170E-01
DAV:   5    -0.192130991235E+03   -0.17033E-03   -0.19518E-03 12320   0.374E-01    0.218E-01
DAV:   6    -0.192130533842E+03    0.45739E-03   -0.11601E-03 10000   0.276E-01    0.983E-02
DAV:   7    -0.192130453656E+03    0.80186E-04   -0.40616E-04  9240   0.155E-01
  56 F= -.19213045E+03 E0= -.19205406E+03  d E =-.214977E-01
       N       E                     dE             d eps       ncg     rms          rms(c)
DAV:   1    -0.192127784712E+03    0.27491E-02   -0.17279E-01  8160   0.917E-01    0.151E-01
DAV:   2    -0.192129244246E+03   -0.14595E-02   -0.80281E-03 11840   0.514E-01    0.377E-01
DAV:   3    -0.192127671522E+03    0.15727E-02   -0.31256E-03 11440   0.465E-01    0.992E-02
DAV:   4    -0.192127563621E+03    0.10790E-03   -0.42936E-04  8280   0.129E-01    0.824E-02
DAV:   5    -0.192127569863E+03   -0.62422E-05   -0.39239E-04  9400   0.168E-01
  57 F= -.19212757E+03 E0= -.19205149E+03  d E =0.288379E-02
       N       E                     dE             d eps       ncg     rms          rms(c)
DAV:   1    -0.192139112794E+03   -0.11549E-01   -0.78287E-01  8160   0.190E+00    0.225E-01
DAV:   2    -0.192143240533E+03   -0.41277E-02   -0.27328E-02 12240   0.808E-01    0.524E-01
DAV:   3    -0.192140282274E+03    0.29583E-02   -0.72506E-03 12440   0.691E-01    0.168E-01
DAV:   4    -0.192140168195E+03    0.11408E-03   -0.92333E-04  9800   0.235E-01    0.155E-01
DAV:   5    -0.192139939765E+03    0.22843E-03   -0.67668E-04 10240   0.225E-01    0.848E-02
DAV:   6    -0.192139976492E+03   -0.36726E-04   -0.35871E-04  9080   0.143E-01
  58 F= -.19213998E+03 E0= -.19206427E+03  d E =-.124066E-01
       N       E                     dE             d eps       ncg     rms          rms(c)
DAV:   1    -0.192157818553E+03   -0.17879E-01   -0.27413E+00  8160   0.356E+00    0.414E-01
DAV:   2    -0.192169528668E+03   -0.11710E-01   -0.98609E-02 11920   0.129E+00    0.804E-01
DAV:   3    -0.192163426827E+03    0.61018E-02   -0.21529E-02 12320   0.119E+00    0.372E-01
DAV:   4    -0.192162011204E+03    0.14156E-02   -0.29188E-03 11600   0.406E-01    0.215E-01
DAV:   5    -0.192161906325E+03    0.10488E-03   -0.20274E-03 11920   0.394E-01    0.209E-01
DAV:   6    -0.192161739198E+03    0.16713E-03   -0.15032E-03 10600   0.293E-01    0.147E-01
DAV:   7    -0.192161466312E+03    0.27289E-03   -0.61351E-04  9400   0.205E-01    0.706E-02
DAV:   8    -0.192161407188E+03    0.59124E-04   -0.13196E-04  7320   0.863E-02
  59 F= -.19216141E+03 E0= -.19208566E+03  d E =-.214307E-01
       N       E                     dE             d eps       ncg     rms          rms(c)
DAV:   1    -0.192169308854E+03   -0.78425E-02   -0.24678E+01  8160   0.108E+01    0.121E+00
DAV:   2    -0.192274522719E+03   -0.10521E+00   -0.86720E-01 11760   0.388E+00    0.243E+00
DAV:   3    -0.192218211487E+03    0.56311E-01   -0.19600E-01 12240   0.358E+00    0.999E-01
DAV:   4    -0.192206348707E+03    0.11863E-01   -0.22060E-02 12400   0.113E+00    0.612E-01
DAV:   5    -0.192205513344E+03    0.83536E-03   -0.18069E-02 11560   0.118E+00    0.598E-01
DAV:   6    -0.192203126876E+03    0.23865E-02   -0.11187E-02 12600   0.822E-01    0.392E-01
DAV:   7    -0.192201353307E+03    0.17736E-02   -0.46148E-03 11960   0.583E-01    0.194E-01
DAV:   8    -0.192200862521E+03    0.49079E-03   -0.10391E-03 10720   0.219E-01    0.582E-02
DAV:   9    -0.192200813052E+03    0.49469E-04   -0.25878E-04  7840   0.608E-02
  60 F= -.19220081E+03 E0= -.19212613E+03  d E =-.394059E-01
       N       E                     dE             d eps       ncg     rms          rms(c)
DAV:   1    -0.192195463545E+03    0.53990E-02   -0.19547E+00  8160   0.300E+00    0.347E-01
DAV:   2    -0.192202734312E+03   -0.72708E-02   -0.58688E-02 12280   0.106E+00    0.673E-01
DAV:   3    -0.192198126475E+03    0.46078E-02   -0.14672E-02 12360   0.999E-01    0.304E-01
DAV:   4    -0.192197428600E+03    0.69788E-03   -0.23265E-03 12120   0.380E-01    0.223E-01
DAV:   5    -0.192197021628E+03    0.40697E-03   -0.17123E-03 10800   0.364E-01    0.155E-01
DAV:   6    -0.192196889409E+03    0.13222E-03   -0.84617E-04 10280   0.208E-01    0.987E-02
DAV:   7    -0.192196782240E+03    0.10717E-03   -0.37862E-04  9880   0.162E-01    0.657E-02
DAV:   8    -0.192196730054E+03    0.52186E-04   -0.90599E-05  6520   0.814E-02
  61 F= -.19219673E+03 E0= -.19212144E+03  d E =0.408300E-02
       N       E                     dE             d eps       ncg     rms          rms(c)
DAV:   1    -0.192201232940E+03   -0.44507E-02   -0.48780E+00  8160   0.472E+00    0.542E-01
DAV:   2    -0.192225152651E+03   -0.23920E-01   -0.17552E-01 12200   0.188E+00    0.119E+00
DAV:   3    -0.192210323976E+03    0.14829E-01   -0.39227E-02 12400   0.165E+00    0.410E-01
DAV:   4    -0.192208426186E+03    0.18978E-02   -0.42654E-03 12160   0.474E-01    0.261E-01
DAV:   5    -0.192208268995E+03    0.15719E-03   -0.34180E-03 11520   0.499E-01    0.249E-01
DAV:   6    -0.192207827295E+03    0.44170E-03   -0.20751E-03 11640   0.333E-01    0.148E-01
DAV:   7    -0.192207580093E+03    0.24720E-03   -0.81335E-04 11040   0.233E-01    0.868E-02
DAV:   8    -0.192207492367E+03    0.87726E-04   -0.17815E-04  7800   0.103E-01
  62 F= -.19220749E+03 E0= -.19213287E+03  d E =-.107623E-01
       N       E                     dE             d eps       ncg     rms          rms(c)
DAV:   1    -0.192208879339E+03   -0.12992E-02   -0.42157E-01  8160   0.137E+00    0.157E-01
DAV:   2    -0.192210907433E+03   -0.20281E-02   -0.18010E-02 11240   0.540E-01    0.293E-01
DAV:   3    -0.192210085300E+03    0.82213E-03   -0.27883E-03 12600   0.445E-01    0.139E-01
DAV:   4    -0.192209893855E+03    0.19145E-03   -0.42357E-04  8560   0.172E-01    0.782E-02
DAV:   5    -0.192209889030E+03    0.48241E-05   -0.27992E-04  9040   0.150E-01
  63 F= -.19220989E+03 E0= -.19213547E+03  d E =-.239666E-02
       N       E                     dE             d eps       ncg     rms          rms(c)
DAV:   1    -0.192210863685E+03   -0.96983E-03   -0.25063E-01  8160   0.107E+00    0.132E-01
DAV:   2    -0.192211991317E+03   -0.11276E-02   -0.10792E-02 10960   0.415E-01    0.228E-01
DAV:   3    -0.192211544291E+03    0.44703E-03   -0.18968E-03 12160   0.367E-01    0.126E-01
DAV:   4    -0.192211354181E+03    0.19011E-03   -0.29559E-04  7800   0.136E-01    0.473E-02
DAV:   5    -0.192211406746E+03   -0.52565E-04   -0.19071E-04  7520   0.114E-01
  64 F= -.19221141E+03 E0= -.19213706E+03  d E =-.151772E-02
       N       E                     dE             d eps       ncg     rms          rms(c)
DAV:   1    -0.192211938989E+03   -0.58481E-03   -0.14710E-01  8160   0.829E-01    0.107E-01
DAV:   2    -0.192212608548E+03   -0.66956E-03   -0.58463E-03 11840   0.329E-01    0.198E-01
DAV:   3    -0.192212190291E+03    0.41826E-03   -0.13729E-03 11040   0.302E-01    0.934E-02
DAV:   4    -0.192212105548E+03    0.84743E-04   -0.26313E-04  7160   0.113E-01
  65 F= -.19221211E+03 E0= -.19213790E+03  d E =-.698803E-03
