<?xml version="1.0" encoding="ISO-8859-1"?>
<modeling>
 <generator>
  <i name="program" type="string">vasp </i>
  <i name="version" type="string">5.4.1  </i>
  <i name="subversion" type="string">05Feb16 (build Jul 05 2020 17:13:04) complex                          parallel </i>
  <i name="platform" type="string">IFC91_ompi </i>
  <i name="date" type="string">2024 04 25 </i>
  <i name="time" type="string">16:06:54 </i>
 </generator>
 <incar>
  <i type="int" name="ISTART">     0</i>
  <i type="string" name="PREC">normal</i>
  <i type="string" name="ALGO"> Normal</i>
  <i type="int" name="ISPIN">     1</i>
  <i type="int" name="ICHARG">     2</i>
  <i type="int" name="IBRION">     1</i>
  <i type="int" name="NSW">   100</i>
  <i type="int" name="ISIF">     3</i>
  <i type="int" name="ISYM">     0</i>
  <i name="SYMPREC">      0.00000001</i>
  <i name="POTIM">      0.50000000</i>
  <i type="logical" name="LREAL"> F  </i>
  <i type="logical" name="LPLANE"> F  </i>
  <i type="int" name="ISMEAR">     0</i>
  <i type="logical" name="LWAVE"> F  </i>
  <i type="logical" name="LCHARG"> F  </i>
  <v type="int" name="KPOINT_BSE">    -1     0     0     0</v>
 </incar>
 <kpoints>
  <generation param="Gamma">
   <v type="int" name="divisions">       8        8        1 </v>
   <v name="usershift">      0.00000000       0.00000000       0.00000000 </v>
   <v name="genvec1">      0.12500000       0.00000000       0.00000000 </v>
   <v name="genvec2">     -0.00000000       0.12500000       0.00000000 </v>
   <v name="genvec3">      0.00000000       0.00000000       1.00000000 </v>
   <v name="shift">      0.00000000       0.00000000       0.00000000 </v>
  </generation>
  <varray name="kpointlist" >
   <v>       0.00000000       0.00000000       0.00000000 </v>
   <v>       0.12500000       0.00000000       0.00000000 </v>
   <v>       0.25000000       0.00000000       0.00000000 </v>
   <v>       0.37500000       0.00000000       0.00000000 </v>
   <v>       0.50000000       0.00000000       0.00000000 </v>
   <v>       0.00000000       0.12500000       0.00000000 </v>
   <v>       0.12500000       0.12500000       0.00000000 </v>
   <v>       0.25000000       0.12500000       0.00000000 </v>
   <v>       0.37500000       0.12500000       0.00000000 </v>
   <v>       0.50000000       0.12500000       0.00000000 </v>
   <v>      -0.37500000       0.12500000       0.00000000 </v>
   <v>      -0.25000000       0.12500000       0.00000000 </v>
   <v>      -0.12500000       0.12500000       0.00000000 </v>
   <v>       0.00000000       0.25000000       0.00000000 </v>
   <v>       0.12500000       0.25000000       0.00000000 </v>
   <v>       0.25000000       0.25000000       0.00000000 </v>
   <v>       0.37500000       0.25000000       0.00000000 </v>
   <v>       0.50000000       0.25000000       0.00000000 </v>
   <v>      -0.37500000       0.25000000       0.00000000 </v>
   <v>      -0.25000000       0.25000000       0.00000000 </v>
   <v>      -0.12500000       0.25000000       0.00000000 </v>
   <v>      -0.00000000       0.37500000       0.00000000 </v>
   <v>       0.12500000       0.37500000       0.00000000 </v>
   <v>       0.25000000       0.37500000       0.00000000 </v>
   <v>       0.37500000       0.37500000       0.00000000 </v>
   <v>       0.50000000       0.37500000       0.00000000 </v>
   <v>      -0.37500000       0.37500000       0.00000000 </v>
   <v>      -0.25000000       0.37500000       0.00000000 </v>
   <v>      -0.12500000       0.37500000       0.00000000 </v>
   <v>       0.00000000       0.50000000       0.00000000 </v>
   <v>       0.12500000       0.50000000       0.00000000 </v>
   <v>       0.25000000       0.50000000       0.00000000 </v>
   <v>       0.37500000       0.50000000       0.00000000 </v>
   <v>       0.50000000       0.50000000       0.00000000 </v>
  </varray>
  <varray name="weights" >
   <v>       0.01562500 </v>
   <v>       0.03125000 </v>
   <v>       0.03125000 </v>
   <v>       0.03125000 </v>
   <v>       0.01562500 </v>
   <v>       0.03125000 </v>
   <v>       0.03125000 </v>
   <v>       0.03125000 </v>
   <v>       0.03125000 </v>
   <v>       0.03125000 </v>
   <v>       0.03125000 </v>
   <v>       0.03125000 </v>
   <v>       0.03125000 </v>
   <v>       0.03125000 </v>
   <v>       0.03125000 </v>
   <v>       0.03125000 </v>
   <v>       0.03125000 </v>
   <v>       0.03125000 </v>
   <v>       0.03125000 </v>
   <v>       0.03125000 </v>
   <v>       0.03125000 </v>
   <v>       0.03125000 </v>
   <v>       0.03125000 </v>
   <v>       0.03125000 </v>
   <v>       0.03125000 </v>
   <v>       0.03125000 </v>
   <v>       0.03125000 </v>
   <v>       0.03125000 </v>
   <v>       0.03125000 </v>
   <v>       0.01562500 </v>
   <v>       0.03125000 </v>
   <v>       0.03125000 </v>
   <v>       0.03125000 </v>
   <v>       0.01562500 </v>
  </varray>
 </kpoints>
 <parameters>
  <separator name="general" >
   <i type="string" name="SYSTEM">unknown system</i>
   <i type="logical" name="LCOMPAT"> F  </i>
  </separator>
  <separator name="electronic" >
   <i type="string" name="PREC">normal</i>
   <i name="ENMAX">    280.00000000</i>
   <i name="ENAUG">    373.43800000</i>
   <i name="EDIFF">      0.00010000</i>
   <i type="int" name="IALGO">    38</i>
   <i type="int" name="IWAVPR">    11</i>
   <i type="int" name="NBANDS">   120</i>
   <i name="NELECT">    159.00000000</i>
   <i type="int" name="TURBO">     0</i>
   <i type="int" name="IRESTART">     0</i>
   <i type="int" name="NREBOOT">     0</i>
   <i type="int" name="NMIN">     0</i>
   <i name="EREF">      0.00000000</i>
   <separator name="electronic smearing" >
    <i type="int" name="ISMEAR">     0</i>
    <i name="SIGMA">      0.20000000</i>
    <i name="KSPACING">      0.50000000</i>
    <i type="logical" name="KGAMMA"> T  </i>
   </separator>
   <separator name="electronic projectors" >
    <i type="logical" name="LREAL"> F  </i>
    <v name="ROPT">      0.00000000      0.00000000      0.00000000      0.00000000</v>
    <i type="int" name="LMAXPAW">  -100</i>
    <i type="int" name="LMAXMIX">     2</i>
    <i type="logical" name="NLSPLINE"> F  </i>
   </separator>
   <separator name="electronic startup" >
    <i type="int" name="ISTART">     0</i>
    <i type="int" name="ICHARG">     2</i>
    <i type="int" name="INIWAV">     1</i>
   </separator>
   <separator name="electronic spin" >
    <i type="int" name="ISPIN">     1</i>
    <i type="logical" name="LNONCOLLINEAR"> F  </i>
    <v name="MAGMOM">      1.00000000      1.00000000      1.00000000      1.00000000      1.00000000      1.00000000      1.00000000      1.00000000      1.00000000      1.00000000      1.00000000      1.00000000      1.00000000      1.00000000      1.00000000      1.00000000      1.00000000      1.00000000      1.00000000      1.00000000
      1.00000000      1.00000000      1.00000000      1.00000000      1.00000000      1.00000000      1.00000000</v>
    <i name="NUPDOWN">     -1.00000000</i>
    <i type="logical" name="LSORBIT"> F  </i>
    <v name="SAXIS">      0.00000000      0.00000000      1.00000000</v>
    <i type="logical" name="LSPIRAL"> F  </i>
    <v name="QSPIRAL">      0.00000000      0.00000000      0.00000000</v>
    <i type="logical" name="LZEROZ"> F  </i>
   </separator>
   <separator name="electronic exchange-correlation" >
    <i type="logical" name="LASPH"> F  </i>
    <i type="logical" name="LMETAGGA"> F  </i>
   </separator>
   <separator name="electronic convergence" >
    <i type="int" name="NELM">    60</i>
    <i type="int" name="NELMDL">    -5</i>
    <i type="int" name="NELMIN">     2</i>
    <i name="ENINI">    280.00000000</i>
    <separator name="electronic convergence detail" >
     <i type="logical" name="LDIAG"> T  </i>
     <i type="logical" name="LSUBROT"> F  </i>
     <i name="WEIMIN">      0.00100000</i>
     <i name="EBREAK">      0.00000021</i>
     <i name="DEPER">      0.30000000</i>
     <i type="int" name="NRMM">     4</i>
     <i name="TIME">      0.40000000</i>
    </separator>
   </separator>
   <separator name="electronic mixer" >
    <i name="AMIX">      0.40000000</i>
    <i name="BMIX">      1.00000000</i>
    <i name="AMIN">      0.10000000</i>
    <i name="AMIX_MAG">      1.60000000</i>
    <i name="BMIX_MAG">      1.00000000</i>
    <separator name="electronic mixer details" >
     <i type="int" name="IMIX">     4</i>
     <i type="logical" name="MIXFIRST"> F  </i>
     <i type="int" name="MAXMIX">   -45</i>
     <i name="WC">    100.00000000</i>
     <i type="int" name="INIMIX">     1</i>
     <i type="int" name="MIXPRE">     1</i>
     <i type="int" name="MREMOVE">     5</i>
    </separator>
   </separator>
   <separator name="electronic dipolcorrection" >
    <i type="logical" name="LDIPOL"> F  </i>
    <i type="logical" name="LMONO"> F  </i>
    <i type="int" name="IDIPOL">     0</i>
    <i name="EPSILON">      1.00000000</i>
    <v name="DIPOL">   -100.00000000   -100.00000000   -100.00000000</v>
    <i name="EFIELD">      0.00000000</i>
   </separator>
  </separator>
  <separator name="grids" >
   <i type="int" name="NGX">    42</i>
   <i type="int" name="NGY">    42</i>
   <i type="int" name="NGZ">   126</i>
   <i type="int" name="NGXF">    84</i>
   <i type="int" name="NGYF">    84</i>
   <i type="int" name="NGZF">   252</i>
   <i type="logical" name="ADDGRID"> F  </i>
  </separator>
  <separator name="ionic" >
   <i type="int" name="NSW">   100</i>
   <i type="int" name="IBRION">     1</i>
   <i type="int" name="ISIF">     3</i>
   <i name="PSTRESS">      0.00000000</i>
   <i name="EDIFFG">      0.00100000</i>
   <i type="int" name="NFREE">     0</i>
   <i name="POTIM">      0.50000000</i>
   <i name="SMASS">     -3.00000000</i>
   <i name="SCALEE">      1.00000000</i>
  </separator>
  <separator name="ionic md" >
   <i name="TEBEG">      0.00010000</i>
   <i name="TEEND">      0.00010000</i>
   <i type="int" name="NBLOCK">     1</i>
   <i type="int" name="KBLOCK">   100</i>
   <i type="int" name="NPACO">   256</i>
   <i name="APACO">     16.00000000</i>
  </separator>
  <separator name="symmetry" >
   <i type="int" name="ISYM">     0</i>
   <i name="SYMPREC">      0.00000001</i>
  </separator>
  <separator name="dos" >
   <i type="logical" name="LORBIT"> F  </i>
   <v name="RWIGS">     -1.00000000     -1.00000000     -1.00000000     -1.00000000</v>
   <i type="int" name="NEDOS">   301</i>
   <i name="EMIN">     10.00000000</i>
   <i name="EMAX">    -10.00000000</i>
   <i name="EFERMI">      0.00000000</i>
  </separator>
  <separator name="writing" >
   <i type="int" name="NWRITE">     2</i>
   <i type="logical" name="LWAVE"> F  </i>
   <i type="logical" name="LCHARG"> F  </i>
   <i type="logical" name="LPARD"> F  </i>
   <i type="logical" name="LVTOT"> F  </i>
   <i type="logical" name="LVHAR"> F  </i>
   <i type="logical" name="LELF"> F  </i>
   <i type="logical" name="LOPTICS"> F  </i>
   <v name="STM">      0.00000000      0.00000000      0.00000000      0.00000000      0.00000000      0.00000000      0.00000000</v>
  </separator>
  <separator name="performance" >
   <i type="int" name="NPAR">    40</i>
   <i type="int" name="NSIM">     4</i>
   <i type="int" name="NBLK">    -1</i>
   <i type="logical" name="LPLANE"> F  </i>
   <i type="logical" name="LSCALAPACK"> T  </i>
   <i type="logical" name="LSCAAWARE"> F  </i>
   <i type="logical" name="LSCALU"> F  </i>
   <i type="logical" name="LASYNC"> F  </i>
   <i type="logical" name="LORBITALREAL"> F  </i>
  </separator>
  <separator name="miscellaneous" >
   <i type="int" name="IDIOT">     3</i>
   <i type="logical" name="LMUSIC"> F  </i>
   <v name="POMASS">     50.94100000     95.94000000    183.85000000     32.06600000</v>
   <v name="DARWINR">      0.00000000      0.00000000      0.00000000      0.00000000</v>
   <v name="DARWINV">      1.00000000      1.00000000      1.00000000      1.00000000</v>
   <i type="logical" name="LCORR"> T  </i>
  </separator>
  <i type="logical" name="GGA_COMPAT"> T  </i>
  <i type="logical" name="LBERRY"> F  </i>
  <i type="int" name="ICORELEVEL">     0</i>
  <i type="logical" name="LDAU"> F  </i>
  <i type="int" name="I_CONSTRAINED_M">     0</i>
  <separator name="electronic exchange-correlation" >
   <i type="string" name="GGA">--</i>
   <i type="int" name="VOSKOWN">     0</i>
   <i type="logical" name="LHFCALC"> F  </i>
   <i type="string" name="PRECFOCK"></i>
   <i type="logical" name="LSYMGRAD"> F  </i>
   <i type="logical" name="LHFONE"> F  </i>
   <i type="logical" name="LRHFCALC"> F  </i>
   <i type="logical" name="LTHOMAS"> F  </i>
   <i type="logical" name="LMODELHF"> F  </i>
   <i name="ENCUT4O">     -1.00000000</i>
   <i type="int" name="EXXOEP">     0</i>
   <i type="int" name="FOURORBIT">     0</i>
   <i name="AEXX">      0.00000000</i>
   <i name="HFALPHA">      0.00000000</i>
   <i name="MCALPHA">      0.00000000</i>
   <i name="ALDAX">      1.00000000</i>
   <i name="AGGAX">      1.00000000</i>
   <i name="ALDAC">      1.00000000</i>
   <i name="AGGAC">      1.00000000</i>
   <i type="int" name="NKREDX">     1</i>
   <i type="int" name="NKREDY">     1</i>
   <i type="int" name="NKREDZ">     1</i>
   <i type="logical" name="SHIFTRED"> F  </i>
   <i type="logical" name="ODDONLY"> F  </i>
   <i type="logical" name="EVENONLY"> F  </i>
   <i type="int" name="LMAXFOCK">     0</i>
   <i type="int" name="NMAXFOCKAE">     0</i>
   <i type="logical" name="LFOCKAEDFT"> F  </i>
   <i name="HFSCREEN">      0.00000000</i>
   <i name="HFSCREENC">      0.00000000</i>
   <i type="int" name="NBANDSGWLOW">     0</i>
  </separator>
  <separator name="vdW DFT" >
   <i type="logical" name="LUSE_VDW"> F  </i>
   <i name="Zab_VDW">     -0.84910000</i>
   <i name="PARAM1">      0.12340000</i>
   <i name="PARAM2">      1.00000000</i>
   <i name="PARAM3">      0.00000000</i>
  </separator>
  <separator name="model GW" >
   <i type="int" name="MODEL_GW">     0</i>
   <i name="MODEL_EPS0">     58.26239943</i>
   <i name="MODEL_ALPHA">      1.00000000</i>
  </separator>
  <separator name="linear response parameters" >
   <i type="logical" name="LEPSILON"> F  </i>
   <i type="logical" name="LRPA"> F  </i>
   <i type="logical" name="LNABLA"> F  </i>
   <i type="logical" name="LVEL"> F  </i>
   <i type="int" name="KINTER">     0</i>
   <i name="CSHIFT">      0.10000000</i>
   <i name="OMEGAMAX">     -1.00000000</i>
   <i name="DEG_THRESHOLD">      0.00200000</i>
  </separator>
  <separator name="orbital magnetization" >
   <i type="logical" name="NUCIND"> F  </i>
   <v name="MAGPOS">      0.00000000      0.00000000      0.00000000</v>
   <i type="logical" name="LNICSALL"> T  </i>
   <i type="logical" name="ORBITALMAG"> F  </i>
   <i type="logical" name="LMAGBLOCH"> F  </i>
   <i type="logical" name="LCHIMAG"> F  </i>
   <i type="logical" name="LGAUGE"> T  </i>
   <i type="int" name="MAGATOM">     0</i>
   <v name="MAGDIPOL">      0.00000000      0.00000000      0.00000000</v>
   <v name="AVECCONST">      0.00000000      0.00000000      0.00000000</v>
  </separator>
  <separator name="response functions" >
   <i type="logical" name="LADDER"> F  </i>
   <i type="logical" name="LFXC"> F  </i>
   <i type="logical" name="LHARTREE"> T  </i>
   <i type="int" name="IBSE">     0</i>
   <v type="int" name="KPOINT">    -1     0     0     0</v>
   <i type="logical" name="LTCTE"> F  </i>
   <i type="logical" name="LTETE"> F  </i>
   <i type="logical" name="LTRIPLET"> F  </i>
   <i type="logical" name="LFXCEPS"> F  </i>
   <i type="logical" name="LFXHEG"> F  </i>
   <i type="int" name="NATURALO">     0</i>
   <i type="logical" name="L2ORDER"> F  </i>
   <i type="logical" name="LUSEW"> F  </i>
   <i name="ENCUTGW">     -2.00000000</i>
   <i name="ENCUTGWSOFT">     -2.00000000</i>
   <i name="ENCUTLF">     -1.00000000</i>
   <i type="int" name="LMAXMP2">    -1</i>
   <i name="SCISSOR">      0.00000000</i>
   <i type="int" name="NOMEGA">     0</i>
   <i type="int" name="NOMEGAR">     0</i>
   <i type="int" name="NBANDSGW">    -1</i>
   <i type="int" name="NBANDSO">    -1</i>
   <i type="int" name="NBANDSV">    -1</i>
   <i type="int" name="NELM">     1</i>
   <i type="int" name="NELMHF">     1</i>
   <i type="int" name="DIM">     3</i>
   <i type="int" name="ANTIRES">     0</i>
   <i name="OMEGAMAX">    -30.00000000</i>
   <i name="OMEGAMIN">    -30.00000000</i>
   <i name="OMEGATL">   -200.00000000</i>
   <i type="int" name="OMEGAGRID">     0</i>
   <i name="CSHIFT">     -0.10000000</i>
   <i type="logical" name="SELFENERGY"> F  </i>
   <i type="logical" name="LSPECTRAL"> F  </i>
   <i type="logical" name="LSPECTRALGW"> F  </i>
   <i type="logical" name="LSINGLES"> F  </i>
   <i type="logical" name="LFERMIGW"> F  </i>
   <i type="logical" name="ODDONLYGW"> F  </i>
   <i type="logical" name="EVENONLYGW"> F  </i>
   <i type="int" name="NKREDLFX">     1</i>
   <i type="int" name="NKREDLFY">     1</i>
   <i type="int" name="NKREDLFZ">     1</i>
   <i type="int" name="MAXMEM">  1800</i>
   <i type="int" name="TELESCOPE">     0</i>
   <i type="int" name="TAUPAR">     1</i>
   <i type="int" name="OMEGAPAR">    -1</i>
   <i name="LAMBDA">      1.00000000</i>
  </separator>
  <separator name="External order field" >
   <i name="OFIELD_KAPPA">      0.00000000</i>
   <v name="OFIELD_K">      0.00000000      0.00000000      0.00000000</v>
   <i name="OFIELD_Q6_NEAR">      0.00000000</i>
   <i name="OFIELD_Q6_FAR">      0.00000000</i>
   <i name="OFIELD_A">      0.00000000</i>
  </separator>
 </parameters>
 <atominfo>
  <atoms>      27 </atoms>
  <types>       4 </types>
  <array name="atoms" >
   <dimension dim="1">ion</dimension>
   <field type="string">element</field>
   <field type="int">atomtype</field>
   <set>
    <rc><c>V </c><c>   1</c></rc>
    <rc><c>V </c><c>   1</c></rc>
    <rc><c>V </c><c>   1</c></rc>
    <rc><c>Mo</c><c>   2</c></rc>
    <rc><c>Mo</c><c>   2</c></rc>
    <rc><c>Mo</c><c>   2</c></rc>
    <rc><c>W </c><c>   3</c></rc>
    <rc><c>W </c><c>   3</c></rc>
    <rc><c>W </c><c>   3</c></rc>
    <rc><c>S </c><c>   4</c></rc>
    <rc><c>S </c><c>   4</c></rc>
    <rc><c>S </c><c>   4</c></rc>
    <rc><c>S </c><c>   4</c></rc>
    <rc><c>S </c><c>   4</c></rc>
    <rc><c>S </c><c>   4</c></rc>
    <rc><c>S </c><c>   4</c></rc>
    <rc><c>S </c><c>   4</c></rc>
    <rc><c>S </c><c>   4</c></rc>
    <rc><c>S </c><c>   4</c></rc>
    <rc><c>S </c><c>   4</c></rc>
    <rc><c>S </c><c>   4</c></rc>
    <rc><c>S </c><c>   4</c></rc>
    <rc><c>S </c><c>   4</c></rc>
    <rc><c>S </c><c>   4</c></rc>
    <rc><c>S </c><c>   4</c></rc>
    <rc><c>S </c><c>   4</c></rc>
    <rc><c>S </c><c>   4</c></rc>
   </set>
  </array>
  <array name="atomtypes" >
   <dimension dim="1">type</dimension>
   <field type="int">atomspertype</field>
   <field type="string">element</field>
   <field>mass</field>
   <field>valence</field>
   <field type="string">pseudopotential</field>
   <set>
    <rc><c>   3</c><c>V </c><c>     50.94100000</c><c>      5.00000000</c><c> PAW_PBE V 08Apr2002                    </c></rc>
    <rc><c>   3</c><c>Mo</c><c>     95.94000000</c><c>      6.00000000</c><c> PAW_PBE Mo 08Apr2002                   </c></rc>
    <rc><c>   3</c><c>W </c><c>    183.85000000</c><c>      6.00000000</c><c> PAW_PBE W 08Apr2002                    </c></rc>
    <rc><c>  18</c><c>S </c><c>     32.06600000</c><c>      6.00000000</c><c>  PAW_PBE S 17Jan2003                   </c></rc>
   </set>
  </array>
 </atominfo>
 <structure name="initialpos" >
  <crystal>
   <varray name="basis" >
    <v>       8.66999996       5.03999989       0.00000000 </v>
    <v>      -8.66999982       5.04000013       0.00000000 </v>
    <v>       0.00000000       0.00000000      30.00000000 </v>
   </varray>
   <i name="volume">   2621.80797419 </i>
   <varray name="rec_basis" >
    <v>       0.05767013       0.09920635       0.00000000 </v>
    <v>      -0.05767013       0.09920635       0.00000000 </v>
    <v>       0.00000000       0.00000000       0.03333333 </v>
   </varray>
  </crystal>
  <varray name="positions" >
   <v>       0.00000000       0.66666669       0.00000000 </v>
   <v>       0.66666669       0.66666669       0.00000000 </v>
   <v>       0.33333334       0.33333334       0.00000000 </v>
   <v>       0.33333334       0.00000000       0.00000000 </v>
   <v>       0.33333334       0.66666669       0.00000000 </v>
   <v>       0.66666669       0.33333334       0.00000000 </v>
   <v>       0.00000000       0.00000000       0.00000000 </v>
   <v>       1.00000000       0.33333334       0.00000000 </v>
   <v>       0.66666669       0.00000000       0.00000000 </v>
   <v>       0.11068511       0.22244981       0.95539999 </v>
   <v>       0.22244981       0.11068511       0.04460000 </v>
   <v>       0.11068511       0.55578315       0.95539999 </v>
   <v>       0.22244981       0.44401845       0.04460000 </v>
   <v>       0.11068511       0.88911647       0.95539999 </v>
   <v>       0.22244981       0.77735180       0.04460000 </v>
   <v>       0.44401845       0.22244981       0.95539999 </v>
   <v>       0.55578315       0.11068511       0.04460000 </v>
   <v>       0.44401845       0.55578315       0.95539999 </v>
   <v>       0.55578315       0.44401845       0.04460000 </v>
   <v>       0.44401845       0.88911647       0.95539999 </v>
   <v>       0.55578315       0.77735180       0.04460000 </v>
   <v>       0.77735180       0.22244981       0.95539999 </v>
   <v>       0.88911647       0.11068511       0.04460000 </v>
   <v>       0.77735180       0.55578315       0.95539999 </v>
   <v>       0.88911647       0.44401845       0.04460000 </v>
   <v>       0.77735180       0.88911647       0.95539999 </v>
   <v>       0.88911647       0.77735180       0.04460000 </v>
  </varray>
 </structure>
 <calculation>
  <scstep>
   <time name="dav">   22.89   22.94</time>
   <time name="total">   22.94   23.00</time>
   <energy>
    <i name="alphaZ">     81.65567618 </i>
    <i name="ewald">  41890.23010383 </i>
    <i name="hartreedc"> -47722.87377280 </i>
    <i name="XCdc">   -242.92719035 </i>
    <i name="pawpsdc">   3467.42045192 </i>
    <i name="pawaedc">  -2871.19716117 </i>
    <i name="eentropy">     -0.51802406 </i>
    <i name="bandstr">   -239.78906552 </i>
    <i name="atom">   6761.44252427 </i>
    <i name="e_fr_energy">   1123.44354230 </i>
    <i name="e_wo_entrp">   1123.96156636 </i>
    <i name="e_0_energy">   1123.70255433 </i>
   </energy>
  </scstep>
  <scstep>
   <time name="dav">   29.52   29.59</time>
   <time name="total">   29.52   29.60</time>
   <energy>
    <i name="e_fr_energy">     -3.80307422 </i>
    <i name="e_wo_entrp">     -3.61062783 </i>
    <i name="e_0_energy">     -3.70685102 </i>
   </energy>
  </scstep>
  <scstep>
   <time name="dav">   29.02   29.09</time>
   <time name="total">   29.02   29.10</time>
   <energy>
    <i name="e_fr_energy">   -199.87570200 </i>
    <i name="e_wo_entrp">   -199.61450079 </i>
    <i name="e_0_energy">   -199.74510139 </i>
   </energy>
  </scstep>
  <scstep>
   <time name="dav">   31.55   31.63</time>
   <time name="total">   31.56   31.64</time>
   <energy>
    <i name="e_fr_energy">   -208.98975180 </i>
    <i name="e_wo_entrp">   -208.68147718 </i>
    <i name="e_0_energy">   -208.83561449 </i>
   </energy>
  </scstep>
  <scstep>
   <time name="dav">   30.14   30.21</time>
   <time name="total">   30.60   30.68</time>
   <energy>
    <i name="e_fr_energy">   -209.30661323 </i>
    <i name="e_wo_entrp">   -209.00074745 </i>
    <i name="e_0_energy">   -209.15368034 </i>
   </energy>
  </scstep>
  <scstep>
   <time name="dav">   32.26   32.34</time>
   <time name="total">   32.76   32.85</time>
   <energy>
    <i name="e_fr_energy">   -236.77583869 </i>
    <i name="e_wo_entrp">   -236.49304038 </i>
    <i name="e_0_energy">   -236.63443953 </i>
   </energy>
  </scstep>
  <scstep>
   <time name="dav">   34.51   34.59</time>
   <time name="total">   35.10   35.19</time>
   <energy>
    <i name="e_fr_energy">   -196.50675636 </i>
    <i name="e_wo_entrp">   -196.19468851 </i>
    <i name="e_0_energy">   -196.35072243 </i>
   </energy>
  </scstep>
  <scstep>
   <time name="dav">   31.26   31.33</time>
   <time name="total">   31.85   31.94</time>
   <energy>
    <i name="e_fr_energy">   -189.48421240 </i>
    <i name="e_wo_entrp">   -189.19453584 </i>
    <i name="e_0_energy">   -189.33937412 </i>
   </energy>
  </scstep>
  <scstep>
   <time name="dav">   32.50   32.58</time>
   <time name="total">   33.10   33.19</time>
   <energy>
    <i name="e_fr_energy">   -188.17170305 </i>
    <i name="e_wo_entrp">   -187.83306667 </i>
    <i name="e_0_energy">   -188.00238486 </i>
   </energy>
  </scstep>
  <scstep>
   <time name="dav">   34.38   34.46</time>
   <time name="total">   34.99   35.08</time>
   <energy>
    <i name="e_fr_energy">   -187.03033559 </i>
    <i name="e_wo_entrp">   -186.68389267 </i>
    <i name="e_0_energy">   -186.85711413 </i>
   </energy>
  </scstep>
  <scstep>
   <time name="dav">   31.78   31.86</time>
   <time name="total">   32.40   32.49</time>
   <energy>
    <i name="e_fr_energy">   -186.94299602 </i>
    <i name="e_wo_entrp">   -186.59216846 </i>
    <i name="e_0_energy">   -186.76758224 </i>
   </energy>
  </scstep>
  <scstep>
   <time name="dav">   31.76   31.84</time>
   <time name="total">   32.38   32.46</time>
   <energy>
    <i name="e_fr_energy">   -187.05186952 </i>
    <i name="e_wo_entrp">   -186.71479755 </i>
    <i name="e_0_energy">   -186.88333353 </i>
   </energy>
  </scstep>
  <scstep>
   <time name="dav">   32.89   32.97</time>
   <time name="total">   33.51   33.60</time>
   <energy>
    <i name="e_fr_energy">   -186.87839280 </i>
    <i name="e_wo_entrp">   -186.54029446 </i>
    <i name="e_0_energy">   -186.70934363 </i>
   </energy>
  </scstep>
  <scstep>
   <time name="dav">   33.08   33.16</time>
   <time name="total">   33.69   33.78</time>
   <energy>
    <i name="e_fr_energy">   -186.84294771 </i>
    <i name="e_wo_entrp">   -186.49788722 </i>
    <i name="e_0_energy">   -186.67041746 </i>
   </energy>
  </scstep>
  <scstep>
   <time name="dav">   31.59   31.66</time>
   <time name="total">   32.20   32.29</time>
   <energy>
    <i name="e_fr_energy">   -186.83890258 </i>
    <i name="e_wo_entrp">   -186.49193970 </i>
    <i name="e_0_energy">   -186.66542114 </i>
   </energy>
  </scstep>
  <scstep>
   <time name="dav">   33.10   33.18</time>
   <time name="total">   33.72   33.81</time>
   <energy>
    <i name="e_fr_energy">   -186.82872594 </i>
    <i name="e_wo_entrp">   -186.48175821 </i>
    <i name="e_0_energy">   -186.65524208 </i>
   </energy>
  </scstep>
  <scstep>
   <time name="dav">   32.49   32.57</time>
   <time name="total">   33.11   33.20</time>
   <energy>
    <i name="e_fr_energy">   -186.82664026 </i>
    <i name="e_wo_entrp">   -186.48165251 </i>
    <i name="e_0_energy">   -186.65414639 </i>
   </energy>
  </scstep>
  <scstep>
   <time name="dav">   30.76   30.84</time>
   <time name="total">   31.38   31.47</time>
   <energy>
    <i name="e_fr_energy">   -186.82626237 </i>
    <i name="e_wo_entrp">   -186.48119409 </i>
    <i name="e_0_energy">   -186.65372823 </i>
   </energy>
  </scstep>
  <scstep>
   <time name="dav">   27.33   27.40</time>
   <time name="total">   27.95   28.02</time>
   <energy>
    <i name="e_fr_energy">   -186.82584978 </i>
    <i name="e_wo_entrp">   -186.48035962 </i>
    <i name="e_0_energy">   -186.65310470 </i>
   </energy>
  </scstep>
  <scstep>
   <time name="dav">   25.36   25.42</time>
   <time name="total">   25.97   26.04</time>
   <energy>
    <i name="e_fr_energy">   -186.82654278 </i>
    <i name="e_wo_entrp">   -186.48115040 </i>
    <i name="e_0_energy">   -186.65384659 </i>
   </energy>
  </scstep>
  <scstep>
   <time name="dav">   22.76   22.81</time>
   <time name="total">   23.37   23.44</time>
   <energy>
    <i name="e_fr_energy">   -186.82714402 </i>
    <i name="e_wo_entrp">   -186.48197977 </i>
    <i name="e_0_energy">   -186.65456189 </i>
   </energy>
  </scstep>
  <scstep>
   <time name="dav">   21.82   21.87</time>
   <time name="total">   22.44   22.50</time>
   <energy>
    <i name="e_fr_energy">   -186.82829564 </i>
    <i name="e_wo_entrp">   -186.48297644 </i>
    <i name="e_0_energy">   -186.65563604 </i>
   </energy>
  </scstep>
  <scstep>
   <time name="dav">   21.36   21.41</time>
   <time name="total">   21.98   22.04</time>
   <energy>
    <i name="e_fr_energy">   -186.82956415 </i>
    <i name="e_wo_entrp">   -186.48434687 </i>
    <i name="e_0_energy">   -186.65695551 </i>
   </energy>
  </scstep>
  <scstep>
   <time name="dav">   19.86   19.91</time>
   <time name="total">   20.48   20.54</time>
   <energy>
    <i name="e_fr_energy">   -186.83015662 </i>
    <i name="e_wo_entrp">   -186.48493394 </i>
    <i name="e_0_energy">   -186.65754528 </i>
   </energy>
  </scstep>
  <scstep>
   <time name="dav">   17.42   17.46</time>
   <time name="total">   18.04   18.09</time>
   <energy>
    <i name="e_fr_energy">   -186.83054625 </i>
    <i name="e_wo_entrp">   -186.48527490 </i>
    <i name="e_0_energy">   -186.65791057 </i>
   </energy>
  </scstep>
  <scstep>
   <time name="dav">   20.14   20.19</time>
   <time name="total">   20.75   20.81</time>
   <energy>
    <i name="e_fr_energy">   -186.83075886 </i>
    <i name="e_wo_entrp">   -186.48550430 </i>
    <i name="e_0_energy">   -186.65813158 </i>
   </energy>
  </scstep>
  <scstep>
   <time name="dav">   20.54   20.59</time>
   <time name="total">   21.16   21.22</time>
   <energy>
    <i name="e_fr_energy">   -186.83086415 </i>
    <i name="e_wo_entrp">   -186.48561170 </i>
    <i name="e_0_energy">   -186.65823793 </i>
   </energy>
  </scstep>
  <scstep>
   <time name="dav">   20.97   21.02</time>
   <time name="total">   21.00   21.06</time>
   <energy>
    <i name="alphaZ">     81.65567618 </i>
    <i name="ewald">  41890.23010383 </i>
    <i name="hartreedc"> -47832.87337846 </i>
    <i name="XCdc">   -231.61161510 </i>
    <i name="pawpsdc">   4192.03046704 </i>
    <i name="pawaedc">  -3610.03287492 </i>
    <i name="eentropy">     -0.34525118 </i>
    <i name="bandstr">  -1437.32656101 </i>
    <i name="atom">   6761.44252427 </i>
    <i name="e_fr_energy">   -186.83090936 </i>
    <i name="e_wo_entrp">   -186.48565818 </i>
    <i name="e_0_energy">   -186.65828377 </i>
   </energy>
  </scstep>
  <structure>
   <crystal>
    <varray name="basis" >
     <v>       8.66999996       5.03999989       0.00000000 </v>
     <v>      -8.66999982       5.04000013       0.00000000 </v>
     <v>       0.00000000       0.00000000      30.00000000 </v>
    </varray>
    <i name="volume">   2621.80797419 </i>
    <varray name="rec_basis" >
     <v>       0.05767013       0.09920635       0.00000000 </v>
     <v>      -0.05767013       0.09920635       0.00000000 </v>
     <v>       0.00000000       0.00000000       0.03333333 </v>
    </varray>
   </crystal>
   <varray name="positions" >
    <v>       0.00000000       0.66666669       0.00000000 </v>
    <v>       0.66666669       0.66666669       0.00000000 </v>
    <v>       0.33333334       0.33333334       0.00000000 </v>
    <v>       0.33333334       0.00000000       0.00000000 </v>
    <v>       0.33333334       0.66666669       0.00000000 </v>
    <v>       0.66666669       0.33333334       0.00000000 </v>
    <v>       0.00000000       0.00000000       0.00000000 </v>
    <v>       1.00000000       0.33333334       0.00000000 </v>
    <v>       0.66666669       0.00000000       0.00000000 </v>
    <v>       0.11068511       0.22244981       0.95539999 </v>
    <v>       0.22244981       0.11068511       0.04460000 </v>
    <v>       0.11068511       0.55578315       0.95539999 </v>
    <v>       0.22244981       0.44401845       0.04460000 </v>
    <v>       0.11068511       0.88911647       0.95539999 </v>
    <v>       0.22244981       0.77735180       0.04460000 </v>
    <v>       0.44401845       0.22244981       0.95539999 </v>
    <v>       0.55578315       0.11068511       0.04460000 </v>
    <v>       0.44401845       0.55578315       0.95539999 </v>
    <v>       0.55578315       0.44401845       0.04460000 </v>
    <v>       0.44401845       0.88911647       0.95539999 </v>
    <v>       0.55578315       0.77735180       0.04460000 </v>
    <v>       0.77735180       0.22244981       0.95539999 </v>
    <v>       0.88911647       0.11068511       0.04460000 </v>
    <v>       0.77735180       0.55578315       0.95539999 </v>
    <v>       0.88911647       0.44401845       0.04460000 </v>
    <v>       0.77735180       0.88911647       0.95539999 </v>
    <v>       0.88911647       0.77735180       0.04460000 </v>
   </varray>
  </structure>
  <varray name="forces" >
   <v>       0.13256390       0.07598803       0.08567848 </v>
   <v>       0.08638324      -0.28289683      -0.04152313 </v>
   <v>       0.21632619       0.19164260      -0.10191372 </v>
   <v>       0.25067179       0.13255936       0.12227575 </v>
   <v>      -0.23197022       0.14195739       0.01602181 </v>
   <v>      -0.05875567      -0.24267458      -0.05652965 </v>
   <v>       0.35614800       0.11780463       0.03183824 </v>
   <v>      -0.29009890       0.20293825      -0.07796603 </v>
   <v>      -0.54996514      -0.35951035       0.01224536 </v>
   <v>       0.46744561       0.59029878      -2.20013621 </v>
   <v>      -0.60356776       0.53960876       2.14713929 </v>
   <v>      -0.64362221      -0.16047197      -2.12697365 </v>
   <v>       0.66566213      -0.14285481       2.07477508 </v>
   <v>       0.36102773      -0.70242579      -2.14059549 </v>
   <v>      -0.53705715      -0.70666549       2.16691517 </v>
   <v>      -0.77672968       0.01489541      -2.11706302 </v>
   <v>       0.04743086      -0.01284681       2.95736576 </v>
   <v>       0.91152510      -0.01793199      -1.46722460 </v>
   <v>      -0.89527554      -0.00026556       1.47820860 </v>
   <v>       0.23556014       0.15999515      -2.92992280 </v>
   <v>       0.66638083       0.16532035       2.10846954 </v>
   <v>       0.31070647       0.01097399      -2.90712620 </v>
   <v>      -0.12853592      -0.02674883       2.86524949 </v>
   <v>      -0.32360517       0.65900929      -1.39381485 </v>
   <v>      -0.38503488       0.72060651       2.18145768 </v>
   <v>       0.45908732      -0.55413050      -2.12570208 </v>
   <v>       0.25729895      -0.51417501       1.43885119 </v>
  </varray>
  <varray name="stress" >
   <v>       7.37209765      -0.00772535      -1.56204209 </v>
   <v>      -0.00772529       4.36552387       0.01784485 </v>
   <v>      -1.56204196       0.01784485      30.33016608 </v>
  </varray>
  <energy>
   <i name="e_fr_energy">   -186.83090936 </i>
   <i name="e_wo_entrp">   -186.65828377 </i>
   <i name="e_0_energy">     -0.34525118 </i>
  </energy>
  <time name="totalsc">  841.04  843.28</time>
 </calculation>
 <calculation>
  <scstep>
   <time name="dav">   22.85   22.91</time>
   <time name="total">   23.47   23.53</time>
   <energy>
    <i name="alphaZ">     78.92530380 </i>
    <i name="ewald">  39381.22128121 </i>
    <i name="hartreedc"> -45338.67553845 </i>
    <i name="XCdc">   -239.06968974 </i>
    <i name="pawpsdc">   4192.03110995 </i>
    <i name="pawaedc">  -3610.03350780 </i>
    <i name="eentropy">     -0.28616957 </i>
    <i name="bandstr">  -1413.02078067 </i>
    <i name="atom">   6761.44252427 </i>
    <i name="e_fr_energy">   -187.46546699 </i>
    <i name="e_wo_entrp">   -187.17929742 </i>
    <i name="e_0_energy">   -187.32238221 </i>
   </energy>
  </scstep>
  <scstep>
   <time name="dav">   31.82   31.89</time>
   <time name="total">   32.43   32.52</time>
   <energy>
    <i name="e_fr_energy">   -189.36637677 </i>
    <i name="e_wo_entrp">   -189.04491918 </i>
    <i name="e_0_energy">   -189.20564798 </i>
   </energy>
  </scstep>
  <scstep>
   <time name="dav">   32.15   32.23</time>
   <time name="total">   32.78   32.87</time>
   <energy>
    <i name="e_fr_energy">   -189.35193878 </i>
    <i name="e_wo_entrp">   -189.07146115 </i>
    <i name="e_0_energy">   -189.21169997 </i>
   </energy>
  </scstep>
  <scstep>
   <time name="dav">   32.48   32.56</time>
   <time name="total">   33.10   33.19</time>
   <energy>
    <i name="e_fr_energy">   -188.73567751 </i>
    <i name="e_wo_entrp">   -188.45065353 </i>
    <i name="e_0_energy">   -188.59316552 </i>
   </energy>
  </scstep>
  <scstep>
   <time name="dav">   31.59   31.67</time>
   <time name="total">   32.21   32.30</time>
   <energy>
    <i name="e_fr_energy">   -188.76083299 </i>
    <i name="e_wo_entrp">   -188.47022358 </i>
    <i name="e_0_energy">   -188.61552828 </i>
   </energy>
  </scstep>
  <scstep>
   <time name="dav">   32.77   32.85</time>
   <time name="total">   33.39   33.48</time>
   <energy>
    <i name="e_fr_energy">   -188.74778413 </i>
    <i name="e_wo_entrp">   -188.45706229 </i>
    <i name="e_0_energy">   -188.60242321 </i>
   </energy>
  </scstep>
  <scstep>
   <time name="dav">   33.19   33.27</time>
   <time name="total">   33.81   33.90</time>
   <energy>
    <i name="e_fr_energy">   -188.66586445 </i>
    <i name="e_wo_entrp">   -188.38100922 </i>
    <i name="e_0_energy">   -188.52343684 </i>
   </energy>
  </scstep>
  <scstep>
   <time name="dav">   28.54   28.60</time>
   <time name="total">   29.16   29.24</time>
   <energy>
    <i name="e_fr_energy">   -188.64951033 </i>
    <i name="e_wo_entrp">   -188.36401165 </i>
    <i name="e_0_energy">   -188.50676099 </i>
   </energy>
  </scstep>
  <scstep>
   <time name="dav">   31.69   31.76</time>
   <time name="total">   32.31   32.39</time>
   <energy>
    <i name="e_fr_energy">   -188.64571423 </i>
    <i name="e_wo_entrp">   -188.36051977 </i>
    <i name="e_0_energy">   -188.50311700 </i>
   </energy>
  </scstep>
  <scstep>
   <time name="dav">   32.51   32.59</time>
   <time name="total">   33.14   33.22</time>
   <energy>
    <i name="e_fr_energy">   -188.64577236 </i>
    <i name="e_wo_entrp">   -188.36016280 </i>
    <i name="e_0_energy">   -188.50296758 </i>
   </energy>
  </scstep>
  <scstep>
   <time name="dav">   33.10   33.18</time>
   <time name="total">   33.73   33.82</time>
   <energy>
    <i name="e_fr_energy">   -188.64465785 </i>
    <i name="e_wo_entrp">   -188.36005182 </i>
    <i name="e_0_energy">   -188.50235483 </i>
   </energy>
  </scstep>
  <scstep>
   <time name="dav">   31.44   31.51</time>
   <time name="total">   32.06   32.15</time>
   <energy>
    <i name="e_fr_energy">   -188.64477301 </i>
    <i name="e_wo_entrp">   -188.36003689 </i>
    <i name="e_0_energy">   -188.50240495 </i>
   </energy>
  </scstep>
  <scstep>
   <time name="dav">   22.62   22.68</time>
   <time name="total">   22.67   22.73</time>
   <energy>
    <i name="alphaZ">     78.92530380 </i>
    <i name="ewald">  39381.22128121 </i>
    <i name="hartreedc"> -45349.51357081 </i>
    <i name="XCdc">   -237.97928390 </i>
    <i name="pawpsdc">   3950.42672233 </i>
    <i name="pawaedc">  -3364.93126121 </i>
    <i name="eentropy">     -0.28472152 </i>
    <i name="bandstr">  -1407.95170444 </i>
    <i name="atom">   6761.44252427 </i>
    <i name="e_fr_energy">   -188.64471026 </i>
    <i name="e_wo_entrp">   -188.35998875 </i>
    <i name="e_0_energy">   -188.50234950 </i>
   </energy>
  </scstep>
  <structure>
   <crystal>
    <varray name="basis" >
     <v>       8.85676830       5.10413570       0.00000000 </v>
     <v>      -8.85699584       5.10452761       0.00000000 </v>
     <v>       0.00000000       0.00000000      30.00000000 </v>
    </varray>
    <i name="volume">   2712.50780950 </i>
    <varray name="rec_basis" >
     <v>       0.05645544       0.09795728       0.00000000 </v>
     <v>      -0.05645111       0.09795476       0.00000000 </v>
     <v>       0.00000000       0.00000000       0.03333333 </v>
    </varray>
   </crystal>
   <varray name="positions" >
    <v>       0.00073249       0.66666155       0.00013778 </v>
    <v>       0.66555308       0.66507242      -0.00006677 </v>
    <v>       0.33485239       0.33364869      -0.00016389 </v>
    <v>       0.33466518      -0.00006298       0.00019663 </v>
    <v>       0.33336737       0.66799147       0.00002576 </v>
    <v>       0.66534178       0.33233538      -0.00009090 </v>
    <v>       0.00155467      -0.00042705       0.00005120 </v>
    <v>       1.00016416       0.33511170      -0.00012538 </v>
    <v>       0.66341599      -0.00019052       0.00001969 </v>
    <v>       0.11481078       0.22397446       0.95186198 </v>
    <v>       0.22335314       0.11494689       0.04805279 </v>
    <v>       0.10812643       0.55680580       0.95197963 </v>
    <v>       0.22361809       0.44148277       0.04793642 </v>
    <v>       0.10832775       0.88475024       0.95195772 </v>
    <v>       0.21757355       0.77546389       0.04808459 </v>
    <v>       0.44192876       0.22468208       0.95199557 </v>
    <v>       0.55585363       0.11049167       0.04935570 </v>
    <v>       0.44646864       0.55316132       0.95304056 </v>
    <v>       0.55329108       0.44650798       0.04697709 </v>
    <v>       0.44543955       0.88922683       0.95068841 </v>
    <v>       0.55842835       0.77628904       0.04799060 </v>
    <v>       0.77826875       0.22163790       0.95072507 </v>
    <v>       0.88863084       0.11091470       0.04920757 </v>
    <v>       0.77960548       0.55983748       0.95315861 </v>
    <v>       0.89149404       0.44853849       0.04810798 </v>
    <v>       0.77597699       0.88518716       0.95198167 </v>
    <v>       0.88737148       0.77417512       0.04691380 </v>
   </varray>
  </structure>
  <varray name="forces" >
   <v>       0.14270125       0.07891997       0.02768449 </v>
   <v>       0.04378929      -0.20049190      -0.10444831 </v>
   <v>       0.13741360       0.08829556      -0.04666681 </v>
   <v>       0.41997164       0.22537207       0.02969005 </v>
   <v>      -0.30615188       0.22891361       0.08734535 </v>
   <v>       0.26638507      -0.36557554      -0.08972037 </v>
   <v>       0.20008467       0.17436768      -0.00400295 </v>
   <v>      -0.19372696       0.07718464       0.07620694 </v>
   <v>      -0.64522099      -0.30830137       0.01430069 </v>
   <v>      -0.04231869      -0.04271910       0.09949469 </v>
   <v>      -0.07463451      -0.05040581      -0.01199465 </v>
   <v>      -0.00373090      -0.10443425      -0.07684767 </v>
   <v>      -0.01902330      -0.10470348      -0.13276096 </v>
   <v>      -0.10367486      -0.05271542       0.05978708 </v>
   <v>      -0.03734858      -0.07177908       0.12719392 </v>
   <v>      -0.05971042      -0.00847947      -0.10108649 </v>
   <v>       0.12653016      -0.01065540       0.27862275 </v>
   <v>       0.03794890       0.00057720       0.06802264 </v>
   <v>      -0.03609085       0.00394105      -0.01975486 </v>
   <v>       0.03896174       0.10559299      -0.24152150 </v>
   <v>      -0.01371707       0.10640981      -0.01765684 </v>
   <v>       0.13222287      -0.00514305      -0.04545269 </v>
   <v>       0.00690880      -0.01163117      -0.25739439 </v>
   <v>      -0.01077804       0.03800903       0.14736450 </v>
   <v>       0.08759048       0.06379858      -0.02509051 </v>
   <v>      -0.05435316       0.07542054       0.26008339 </v>
   <v>      -0.04002825       0.07023233      -0.10139752 </v>
  </varray>
  <varray name="stress" >
   <v>     -19.88172509       0.00868319       0.05983762 </v>
   <v>       0.00868325     -19.45817857      -0.00790843 </v>
   <v>       0.05983784      -0.00790829      -1.75001722 </v>
  </varray>
  <energy>
   <i name="e_fr_energy">   -188.64471026 </i>
   <i name="e_wo_entrp">   -188.50234950 </i>
   <i name="e_0_energy">     -0.28472152 </i>
  </energy>
  <time name="totalsc">  447.90  449.08</time>
 </calculation>
 <calculation>
  <scstep>
   <time name="dav">   25.19   25.25</time>
   <time name="total">   25.80   25.87</time>
   <energy>
    <i name="alphaZ">     82.35739509 </i>
    <i name="ewald">  41308.69029992 </i>
    <i name="hartreedc"> -47307.63834280 </i>
    <i name="XCdc">   -233.84815797 </i>
    <i name="pawpsdc">   3949.96368932 </i>
    <i name="pawaedc">  -3364.46396404 </i>
    <i name="eentropy">     -0.23757131 </i>
    <i name="bandstr">  -1386.83497526 </i>
    <i name="atom">   6761.44252427 </i>
    <i name="e_fr_energy">   -190.56910277 </i>
    <i name="e_wo_entrp">   -190.33153146 </i>
    <i name="e_0_energy">   -190.45031712 </i>
   </energy>
  </scstep>
  <scstep>
   <time name="dav">   30.02   30.09</time>
   <time name="total">   30.62   30.71</time>
   <energy>
    <i name="e_fr_energy">   -190.55595301 </i>
    <i name="e_wo_entrp">   -190.31346424 </i>
    <i name="e_0_energy">   -190.43470862 </i>
   </energy>
  </scstep>
  <scstep>
   <time name="dav">   31.94   32.01</time>
   <time name="total">   32.54   32.63</time>
   <energy>
    <i name="e_fr_energy">   -190.04155136 </i>
    <i name="e_wo_entrp">   -189.79284271 </i>
    <i name="e_0_energy">   -189.91719704 </i>
   </energy>
  </scstep>
  <scstep>
   <time name="dav">   32.88   32.96</time>
   <time name="total">   33.50   33.58</time>
   <energy>
    <i name="e_fr_energy">   -189.83544229 </i>
    <i name="e_wo_entrp">   -189.59555339 </i>
    <i name="e_0_energy">   -189.71549784 </i>
   </energy>
  </scstep>
  <scstep>
   <time name="dav">   30.39   30.46</time>
   <time name="total">   31.00   31.09</time>
   <energy>
    <i name="e_fr_energy">   -189.74788480 </i>
    <i name="e_wo_entrp">   -189.50602309 </i>
    <i name="e_0_energy">   -189.62695395 </i>
   </energy>
  </scstep>
  <scstep>
   <time name="dav">   28.14   28.21</time>
   <time name="total">   28.76   28.84</time>
   <energy>
    <i name="e_fr_energy">   -189.73298144 </i>
    <i name="e_wo_entrp">   -189.49207234 </i>
    <i name="e_0_energy">   -189.61252689 </i>
   </energy>
  </scstep>
  <scstep>
   <time name="dav">   32.03   32.10</time>
   <time name="total">   32.64   32.73</time>
   <energy>
    <i name="e_fr_energy">   -189.73388987 </i>
    <i name="e_wo_entrp">   -189.49250780 </i>
    <i name="e_0_energy">   -189.61319883 </i>
   </energy>
  </scstep>
  <scstep>
   <time name="dav">   31.01   31.08</time>
   <time name="total">   31.62   31.71</time>
   <energy>
    <i name="e_fr_energy">   -189.73278383 </i>
    <i name="e_wo_entrp">   -189.49189492 </i>
    <i name="e_0_energy">   -189.61233937 </i>
   </energy>
  </scstep>
  <scstep>
   <time name="dav">   27.91   27.97</time>
   <time name="total">   28.52   28.60</time>
   <energy>
    <i name="e_fr_energy">   -189.73289354 </i>
    <i name="e_wo_entrp">   -189.49171732 </i>
    <i name="e_0_energy">   -189.61230543 </i>
   </energy>
  </scstep>
  <scstep>
   <time name="dav">   27.78   27.84</time>
   <time name="total">   28.39   28.47</time>
   <energy>
    <i name="e_fr_energy">   -189.73313380 </i>
    <i name="e_wo_entrp">   -189.49222161 </i>
    <i name="e_0_energy">   -189.61267771 </i>
   </energy>
  </scstep>
  <scstep>
   <time name="dav">   26.50   26.57</time>
   <time name="total">   27.12   27.19</time>
   <energy>
    <i name="e_fr_energy">   -189.73281492 </i>
    <i name="e_wo_entrp">   -189.49169454 </i>
    <i name="e_0_energy">   -189.61225473 </i>
   </energy>
  </scstep>
  <scstep>
   <time name="dav">   18.40   18.45</time>
   <time name="total">   18.44   18.49</time>
   <energy>
    <i name="alphaZ">     82.35739509 </i>
    <i name="ewald">  41308.69029992 </i>
    <i name="hartreedc"> -47281.00645840 </i>
    <i name="XCdc">   -235.24161099 </i>
    <i name="pawpsdc">   4038.89449985 </i>
    <i name="pawaedc">  -3454.59762016 </i>
    <i name="eentropy">     -0.24102851 </i>
    <i name="bandstr">  -1410.03081912 </i>
    <i name="atom">   6761.44252427 </i>
    <i name="e_fr_energy">   -189.73281805 </i>
    <i name="e_wo_entrp">   -189.49178954 </i>
    <i name="e_0_energy">   -189.61230380 </i>
   </energy>
  </scstep>
  <structure>
   <crystal>
    <varray name="basis" >
     <v>       8.66829952       4.99789098       0.00000000 </v>
     <v>      -8.66842732       4.99811006       0.00000000 </v>
     <v>       0.00000000       0.00000000      30.00000000 </v>
    </varray>
    <i name="volume">   2599.46909089 </i>
    <varray name="rec_basis" >
     <v>       0.05768228       0.10004074       0.00000000 </v>
     <v>      -0.05767975       0.10003927       0.00000000 </v>
     <v>       0.00000000       0.00000000       0.03333333 </v>
    </varray>
   </crystal>
   <varray name="positions" >
    <v>       0.00100203       0.66665600       0.00015353 </v>
    <v>       0.66525997       0.66469490      -0.00012622 </v>
    <v>       0.33513252       0.33366391      -0.00019045 </v>
    <v>       0.33544691      -0.00009084       0.00021353 </v>
    <v>       0.33345512       0.66866939       0.00007547 </v>
    <v>       0.66498713       0.33146723      -0.00014197 </v>
    <v>       0.00203916      -0.00032828       0.00004892 </v>
    <v>       1.00010651       0.33542751      -0.00008201 </v>
    <v>       0.66227844      -0.00008425       0.00002783 </v>
    <v>       0.11469854       0.22394380       0.95191860 </v>
    <v>       0.22319690       0.11493452       0.04804596 </v>
    <v>       0.10794817       0.55663473       0.95193589 </v>
    <v>       0.22342464       0.44132600       0.04786086 </v>
    <v>       0.10813966       0.88476200       0.95199175 </v>
    <v>       0.21741750       0.77537984       0.04815698 </v>
    <v>       0.44185702       0.22472545       0.95193804 </v>
    <v>       0.55595777       0.11035189       0.04951427 </v>
    <v>       0.44650618       0.55312571       0.95307928 </v>
    <v>       0.55326289       0.44654936       0.04696585 </v>
    <v>       0.44565371       0.88936588       0.95055096 </v>
    <v>       0.55859310       0.77648022       0.04798056 </v>
    <v>       0.77838760       0.22150186       0.95069921 </v>
    <v>       0.88861805       0.11088859       0.04906109 </v>
    <v>       0.77965866       0.55991143       0.95324248 </v>
    <v>       0.89168517       0.44856077       0.04809370 </v>
    <v>       0.77605074       0.88536568       0.95212969 </v>
    <v>       0.88745036       0.77433116       0.04685609 </v>
   </varray>
  </structure>
  <varray name="forces" >
   <v>       0.16413123       0.08021250       0.00575361 </v>
   <v>       0.02296894      -0.16450807      -0.09462354 </v>
   <v>       0.11145930       0.02437655      -0.02000888 </v>
   <v>       0.46736089       0.25892952       0.00207905 </v>
   <v>      -0.33384730       0.24550020       0.07751864 </v>
   <v>       0.36867697      -0.40304271      -0.07011383 </v>
   <v>       0.15120249       0.19397943      -0.01488189 </v>
   <v>      -0.16986795       0.02624081       0.08845773 </v>
   <v>      -0.67888476      -0.27195464       0.00667625 </v>
   <v>       0.02058786       0.09477654      -0.40877422 </v>
   <v>      -0.05406404       0.10012043       0.48859566 </v>
   <v>      -0.11782121      -0.02050005      -0.58163180 </v>
   <v>       0.09488959      -0.02361759       0.34574996 </v>
   <v>       0.03362643      -0.09782614      -0.43645018 </v>
   <v>      -0.08536427      -0.12778258       0.63010304 </v>
   <v>      -0.12526098      -0.02237285      -0.59439875 </v>
   <v>       0.02966268      -0.00476451       0.87089489 </v>
   <v>       0.09088876      -0.00265360      -0.37522847 </v>
   <v>      -0.09706054       0.00298852       0.41995781 </v>
   <v>      -0.00942409       0.02265264      -0.81767604 </v>
   <v>       0.10169831       0.04148723       0.47798024 </v>
   <v>       0.06750990      -0.00861118      -0.60822313 </v>
   <v>      -0.00319791      -0.02556425       0.27142590 </v>
   <v>      -0.03607281       0.09575409      -0.28545646 </v>
   <v>      -0.04859096       0.11064326       0.47441273 </v>
   <v>      -0.00294366      -0.04763286      -0.21560098 </v>
   <v>       0.03773714      -0.07683071       0.36346267 </v>
  </varray>
  <varray name="stress" >
   <v>     -10.12979119      -0.00254779       0.05099215 </v>
   <v>      -0.00254770      -9.80042003      -0.00854965 </v>
   <v>       0.05099218      -0.00854970       6.51474937 </v>
  </varray>
  <energy>
   <i name="e_fr_energy">   -189.73281805 </i>
   <i name="e_wo_entrp">   -189.61230380 </i>
   <i name="e_0_energy">     -0.24102851 </i>
  </energy>
  <time name="totalsc">  392.67  393.71</time>
 </calculation>
 <calculation>
  <scstep>
   <time name="dav">   22.89   22.94</time>
   <time name="total">   23.49   23.55</time>
   <energy>
    <i name="alphaZ">     85.83142156 </i>
    <i name="ewald">  42837.99839741 </i>
    <i name="hartreedc"> -48854.75412039 </i>
    <i name="XCdc">   -232.95909237 </i>
    <i name="pawpsdc">   4039.06218497 </i>
    <i name="pawaedc">  -3454.76379923 </i>
    <i name="eentropy">     -0.20249841 </i>
    <i name="bandstr">  -1372.94249987 </i>
    <i name="atom">   6761.44252427 </i>
    <i name="e_fr_energy">   -191.28748207 </i>
    <i name="e_wo_entrp">   -191.08498366 </i>
    <i name="e_0_energy">   -191.18623287 </i>
   </energy>
  </scstep>
  <scstep>
   <time name="dav">   33.62   33.70</time>
   <time name="total">   34.23   34.32</time>
   <energy>
    <i name="e_fr_energy">   -191.18931729 </i>
    <i name="e_wo_entrp">   -190.97857293 </i>
    <i name="e_0_energy">   -191.08394511 </i>
   </energy>
  </scstep>
  <scstep>
   <time name="dav">   31.51   31.58</time>
   <time name="total">   32.10   32.19</time>
   <energy>
    <i name="e_fr_energy">   -191.19773683 </i>
    <i name="e_wo_entrp">   -190.97994227 </i>
    <i name="e_0_energy">   -191.08883955 </i>
   </energy>
  </scstep>
  <scstep>
   <time name="dav">   32.65   32.73</time>
   <time name="total">   33.26   33.35</time>
   <energy>
    <i name="e_fr_energy">   -190.87072036 </i>
    <i name="e_wo_entrp">   -190.65832224 </i>
    <i name="e_0_energy">   -190.76452130 </i>
   </energy>
  </scstep>
  <scstep>
   <time name="dav">   30.63   30.70</time>
   <time name="total">   31.23   31.32</time>
   <energy>
    <i name="e_fr_energy">   -190.85760346 </i>
    <i name="e_wo_entrp">   -190.65290864 </i>
    <i name="e_0_energy">   -190.75525605 </i>
   </energy>
  </scstep>
  <scstep>
   <time name="dav">   31.30   31.37</time>
   <time name="total">   31.90   31.98</time>
   <energy>
    <i name="e_fr_energy">   -190.71221427 </i>
    <i name="e_wo_entrp">   -190.50184847 </i>
    <i name="e_0_energy">   -190.60703137 </i>
   </energy>
  </scstep>
  <scstep>
   <time name="dav">   32.29   32.37</time>
   <time name="total">   32.90   32.98</time>
   <energy>
    <i name="e_fr_energy">   -190.70463959 </i>
    <i name="e_wo_entrp">   -190.49577959 </i>
    <i name="e_0_energy">   -190.60020959 </i>
   </energy>
  </scstep>
  <scstep>
   <time name="dav">   29.50   29.57</time>
   <time name="total">   30.10   30.18</time>
   <energy>
    <i name="e_fr_energy">   -190.70410171 </i>
    <i name="e_wo_entrp">   -190.49508858 </i>
    <i name="e_0_energy">   -190.59959515 </i>
   </energy>
  </scstep>
  <scstep>
   <time name="dav">   29.73   29.80</time>
   <time name="total">   30.33   30.42</time>
   <energy>
    <i name="e_fr_energy">   -190.70135247 </i>
    <i name="e_wo_entrp">   -190.49234152 </i>
    <i name="e_0_energy">   -190.59684699 </i>
   </energy>
  </scstep>
  <scstep>
   <time name="dav">   27.14   27.21</time>
   <time name="total">   27.74   27.82</time>
   <energy>
    <i name="e_fr_energy">   -190.70160885 </i>
    <i name="e_wo_entrp">   -190.49251438 </i>
    <i name="e_0_energy">   -190.59706161 </i>
   </energy>
  </scstep>
  <scstep>
   <time name="dav">   27.90   27.97</time>
   <time name="total">   28.50   28.57</time>
   <energy>
    <i name="e_fr_energy">   -190.70149112 </i>
    <i name="e_wo_entrp">   -190.49253924 </i>
    <i name="e_0_energy">   -190.59701518 </i>
   </energy>
  </scstep>
  <scstep>
   <time name="dav">   22.07   22.13</time>
   <time name="total">   22.11   22.17</time>
   <energy>
    <i name="alphaZ">     85.83142156 </i>
    <i name="ewald">  42837.99839741 </i>
    <i name="hartreedc"> -48826.26771407 </i>
    <i name="XCdc">   -234.28394645 </i>
    <i name="pawpsdc">   4063.83359726 </i>
    <i name="pawaedc">  -3479.71703516 </i>
    <i name="eentropy">     -0.20899224 </i>
    <i name="bandstr">  -1399.32972528 </i>
    <i name="atom">   6761.44252427 </i>
    <i name="e_fr_energy">   -190.70147270 </i>
    <i name="e_wo_entrp">   -190.49248046 </i>
    <i name="e_0_energy">   -190.59697658 </i>
   </energy>
  </scstep>
  <structure>
   <crystal>
    <varray name="basis" >
     <v>       8.48646594       4.89803230       0.00000000 </v>
     <v>      -8.48686885       4.89872881       0.00000000 </v>
     <v>       0.00000000       0.00000000      30.00000000 </v>
    </varray>
    <i name="volume">   2494.25558909 </i>
    <varray name="rec_basis" >
     <v>       0.05892013       0.10207698       0.00000000 </v>
     <v>      -0.05891175       0.10207213       0.00000000 </v>
     <v>       0.00000000       0.00000000       0.03333333 </v>
    </varray>
   </crystal>
   <varray name="positions" >
    <v>       0.00213194       0.66653805       0.00014692 </v>
    <v>       0.66437143       0.66369990      -0.00031387 </v>
    <v>       0.33549237       0.33329228      -0.00020936 </v>
    <v>       0.33891030      -0.00014169       0.00019451 </v>
    <v>       0.33378871       0.67149563       0.00022770 </v>
    <v>       0.66384689       0.32736909      -0.00027060 </v>
    <v>       0.00378028       0.00045965       0.00000891 </v>
    <v>       0.99956464       0.33604536       0.00011153 </v>
    <v>       0.65816202       0.00080342       0.00003521 </v>
    <v>       0.11579836       0.22471477       0.95064271 </v>
    <v>       0.22403215       0.11610173       0.04948067 </v>
    <v>       0.10743894       0.55730371       0.95030498 </v>
    <v>       0.22398389       0.44087332       0.04898110 </v>
    <v>       0.10773250       0.88371887       0.95066871 </v>
    <v>       0.21610028       0.77481714       0.04988668 </v>
    <v>       0.44113574       0.22509727       0.95029038 </v>
    <v>       0.55591115       0.11036803       0.05181811 </v>
    <v>       0.44688581       0.55269680       0.95192778 </v>
    <v>       0.55284118       0.44700378       0.04820698 </v>
    <v>       0.44548649       0.88940524       0.94837095 </v>
    <v>       0.55922469       0.77604637       0.04938909 </v>
    <v>       0.77847645       0.22128784       0.94896424 </v>
    <v>       0.88839720       0.11071978       0.05006991 </v>
    <v>       0.78023561       0.56082153       0.95228570 </v>
    <v>       0.89212448       0.44974102       0.04949811 </v>
    <v>       0.77550961       0.88469873       0.95128136 </v>
    <v>       0.88685137       0.77323685       0.04800148 </v>
   </varray>
  </structure>
  <varray name="forces" >
   <v>       0.15325881       0.07295547      -0.03626128 </v>
   <v>       0.03443971      -0.11633405      -0.04825461 </v>
   <v>       0.07490135      -0.06223076       0.03659528 </v>
   <v>       0.46038246       0.27737857      -0.02029663 </v>
   <v>      -0.33855190       0.24949262       0.03733496 </v>
   <v>       0.41648171      -0.41459359      -0.01202817 </v>
   <v>       0.21197321       0.21925290      -0.01633971 </v>
   <v>      -0.16886075       0.01330651       0.06156040 </v>
   <v>      -0.69535110      -0.25082737      -0.00601814 </v>
   <v>      -0.00316847       0.09065495      -0.29320285 </v>
   <v>       0.05614901       0.07327582       0.31882825 </v>
   <v>      -0.04854571       0.02456072      -0.36106722 </v>
   <v>       0.00320779       0.06067056       0.18701153 </v>
   <v>       0.06756930       0.02259318      -0.26370760 </v>
   <v>      -0.06511708       0.00220751       0.48685569 </v>
   <v>       0.01541626      -0.02352723      -0.43072877 </v>
   <v>      -0.04460095      -0.02296532       0.72042408 </v>
   <v>      -0.02802150      -0.01024954      -0.29342392 </v>
   <v>       0.02613858      -0.01284541       0.27858851 </v>
   <v>      -0.02741845      -0.02306432      -0.62557577 </v>
   <v>      -0.01261201       0.02102299       0.30532961 </v>
   <v>       0.03789084      -0.03405113      -0.45439861 </v>
   <v>      -0.04075569      -0.07736682       0.10021028 </v>
   <v>       0.05136002      -0.03425980      -0.18848459 </v>
   <v>      -0.08616301       0.00206864       0.32157667 </v>
   <v>      -0.07406472      -0.01240063      -0.06082661 </v>
   <v>       0.02406233      -0.03472446       0.25629924 </v>
  </varray>
  <varray name="stress" >
   <v>      -5.61193532       0.02258389      -0.13125000 </v>
   <v>       0.02258392      -5.78001700       0.01393277 </v>
   <v>      -0.13124998       0.01393256       4.50313440 </v>
  </varray>
  <energy>
   <i name="e_fr_energy">   -190.70147270 </i>
   <i name="e_wo_entrp">   -190.59697658 </i>
   <i name="e_0_energy">     -0.20899224 </i>
  </energy>
  <time name="totalsc">  401.82  402.87</time>
 </calculation>
 <calculation>
  <scstep>
   <time name="dav">   22.90   22.95</time>
   <time name="total">   23.50   23.56</time>
   <energy>
    <i name="alphaZ">     90.09554695 </i>
    <i name="ewald">  44634.37379865 </i>
    <i name="hartreedc"> -50676.78559307 </i>
    <i name="XCdc">   -231.86929106 </i>
    <i name="pawpsdc">   4063.80227958 </i>
    <i name="pawaedc">  -3479.68061408 </i>
    <i name="eentropy">     -0.19294473 </i>
    <i name="bandstr">  -1353.20127834 </i>
    <i name="atom">   6761.44252427 </i>
    <i name="e_fr_energy">   -192.01557182 </i>
    <i name="e_wo_entrp">   -191.82262709 </i>
    <i name="e_0_energy">   -191.91909945 </i>
   </energy>
  </scstep>
  <scstep>
   <time name="dav">   31.79   31.87</time>
   <time name="total">   32.38   32.47</time>
   <energy>
    <i name="e_fr_energy">   -191.86965750 </i>
    <i name="e_wo_entrp">   -191.66493475 </i>
    <i name="e_0_energy">   -191.76729612 </i>
   </energy>
  </scstep>
  <scstep>
   <time name="dav">   29.48   29.55</time>
   <time name="total">   30.07   30.15</time>
   <energy>
    <i name="e_fr_energy">   -192.18688604 </i>
    <i name="e_wo_entrp">   -191.97957498 </i>
    <i name="e_0_energy">   -192.08323051 </i>
   </energy>
  </scstep>
  <scstep>
   <time name="dav">   31.29   31.36</time>
   <time name="total">   31.89   31.97</time>
   <energy>
    <i name="e_fr_energy">   -191.57817113 </i>
    <i name="e_wo_entrp">   -191.37404059 </i>
    <i name="e_0_energy">   -191.47610586 </i>
   </energy>
  </scstep>
  <scstep>
   <time name="dav">   31.74   31.82</time>
   <time name="total">   32.34   32.42</time>
   <energy>
    <i name="e_fr_energy">   -191.51581628 </i>
    <i name="e_wo_entrp">   -191.32006069 </i>
    <i name="e_0_energy">   -191.41793848 </i>
   </energy>
  </scstep>
  <scstep>
   <time name="dav">   31.62   31.69</time>
   <time name="total">   32.21   32.30</time>
   <energy>
    <i name="e_fr_energy">   -191.33244072 </i>
    <i name="e_wo_entrp">   -191.13013333 </i>
    <i name="e_0_energy">   -191.23128702 </i>
   </energy>
  </scstep>
  <scstep>
   <time name="dav">   31.69   31.76</time>
   <time name="total">   32.28   32.37</time>
   <energy>
    <i name="e_fr_energy">   -191.32593622 </i>
    <i name="e_wo_entrp">   -191.12455773 </i>
    <i name="e_0_energy">   -191.22524698 </i>
   </energy>
  </scstep>
  <scstep>
   <time name="dav">   30.92   30.99</time>
   <time name="total">   31.51   31.60</time>
   <energy>
    <i name="e_fr_energy">   -191.32380328 </i>
    <i name="e_wo_entrp">   -191.12270610 </i>
    <i name="e_0_energy">   -191.22325469 </i>
   </energy>
  </scstep>
  <scstep>
   <time name="dav">   30.85   30.92</time>
   <time name="total">   31.45   31.53</time>
   <energy>
    <i name="e_fr_energy">   -191.32077406 </i>
    <i name="e_wo_entrp">   -191.11934292 </i>
    <i name="e_0_energy">   -191.22005849 </i>
   </energy>
  </scstep>
  <scstep>
   <time name="dav">   28.81   28.88</time>
   <time name="total">   29.41   29.49</time>
   <energy>
    <i name="e_fr_energy">   -191.32117339 </i>
    <i name="e_wo_entrp">   -191.11990103 </i>
    <i name="e_0_energy">   -191.22053721 </i>
   </energy>
  </scstep>
  <scstep>
   <time name="dav">   29.68   29.76</time>
   <time name="total">   30.28   30.36</time>
   <energy>
    <i name="e_fr_energy">   -191.32094298 </i>
    <i name="e_wo_entrp">   -191.11964697 </i>
    <i name="e_0_energy">   -191.22029497 </i>
   </energy>
  </scstep>
  <scstep>
   <time name="dav">   19.45   19.50</time>
   <time name="total">   19.49   19.55</time>
   <energy>
    <i name="alphaZ">     90.09554695 </i>
    <i name="ewald">  44634.37379865 </i>
    <i name="hartreedc"> -50643.69566433 </i>
    <i name="XCdc">   -233.36306445 </i>
    <i name="pawpsdc">   4085.36654375 </i>
    <i name="pawaedc">  -3501.34243893 </i>
    <i name="eentropy">     -0.20133684 </i>
    <i name="bandstr">  -1383.99685316 </i>
    <i name="atom">   6761.44252427 </i>
    <i name="e_fr_energy">   -191.32094408 </i>
    <i name="e_wo_entrp">   -191.11960724 </i>
    <i name="e_0_energy">   -191.22027566 </i>
   </energy>
  </scstep>
  <structure>
   <crystal>
    <varray name="basis" >
     <v>       8.28763794       4.77940690       0.00000000 </v>
     <v>      -8.28695162       4.77821606       0.00000000 </v>
     <v>       0.00000000       0.00000000      30.00000000 </v>
    </varray>
    <i name="volume">   2376.20515309 </i>
    <varray name="rec_basis" >
     <v>       0.06032580       0.10462419       0.00000000 </v>
     <v>      -0.06034084       0.10463286       0.00000000 </v>
     <v>       0.00000000       0.00000000       0.03333333 </v>
    </varray>
   </crystal>
   <varray name="positions" >
    <v>       0.00413962       0.66632185       0.00000539 </v>
    <v>       0.66318567       0.66212274      -0.00051834 </v>
    <v>       0.33521761       0.33198934      -0.00006961 </v>
    <v>       0.34561018      -0.00001980       0.00010016 </v>
    <v>       0.33444101       0.67694365       0.00038603 </v>
    <v>       0.66177867       0.31926072      -0.00032946 </v>
    <v>       0.00778094       0.00177799      -0.00006488 </v>
    <v>       0.99846549       0.33722355       0.00037913 </v>
    <v>       0.65032060       0.00272503       0.00001092 </v>
    <v>       0.11738303       0.22609721       0.94894822 </v>
    <v>       0.22570030       0.11712742       0.05129676 </v>
    <v>       0.10731030       0.55834685       0.94829248 </v>
    <v>       0.22509630       0.44140416       0.05025231 </v>
    <v>       0.10834405       0.88301180       0.94907190 </v>
    <v>       0.21521115       0.77502699       0.05235180 </v>
    <v>       0.44068585       0.22490571       0.94804441 </v>
    <v>       0.55528304       0.11053354       0.05528996 </v>
    <v>       0.44676621       0.55257559       0.95031158 </v>
    <v>       0.55267832       0.44690256       0.04979243 </v>
    <v>       0.44479924       0.88922169       0.94526566 </v>
    <v>       0.55953477       0.77594819       0.05114892 </v>
    <v>       0.77828471       0.22072081       0.94656450 </v>
    <v>       0.88724356       0.11009621       0.05105402 </v>
    <v>       0.78042884       0.56054380       0.95108408 </v>
    <v>       0.89167187       0.45085565       0.05131519 </v>
    <v>       0.77459328       0.88451625       0.95051099 </v>
    <v>       0.88625980       0.77203495       0.04950537 </v>
   </varray>
  </structure>
  <varray name="forces" >
   <v>       0.09599527       0.06261652       0.03432959 </v>
   <v>       0.05905836      -0.11265841      -0.03094953 </v>
   <v>       0.04173986      -0.09591989      -0.01164026 </v>
   <v>       0.01466168       0.04375528       0.03396437 </v>
   <v>      -0.18667993       0.09472506      -0.01445595 </v>
   <v>       0.19086885      -0.14324368       0.05447908 </v>
   <v>       0.32161390       0.20090729      -0.00716393 </v>
   <v>      -0.18923321      -0.00028723       0.00234595 </v>
   <v>      -0.23109876      -0.07566148      -0.02675202 </v>
   <v>      -0.04847603       0.06077419      -0.01201206 </v>
   <v>       0.15783047       0.03966838       0.08271258 </v>
   <v>       0.01461650       0.03730011      -0.06586352 </v>
   <v>      -0.12474851       0.11988787      -0.06219494 </v>
   <v>       0.09004112       0.14546515      -0.05600273 </v>
   <v>      -0.03906081       0.12691848       0.13084780 </v>
   <v>       0.16477294      -0.01010725      -0.07375880 </v>
   <v>      -0.06117845      -0.04715850       0.34830799 </v>
   <v>      -0.11950655      -0.03599865       0.01161426 </v>
   <v>       0.12899812      -0.03405928       0.00824508 </v>
   <v>      -0.02166968      -0.03516468      -0.29134903 </v>
   <v>      -0.15952588       0.06381064       0.00090955 </v>
   <v>       0.06521737      -0.07448178      -0.15699788 </v>
   <v>      -0.06539257      -0.16093365      -0.20794679 </v>
   <v>       0.15531557      -0.18369277       0.04714616 </v>
   <v>      -0.06342603      -0.09489999       0.03660816 </v>
   <v>      -0.21514472       0.07787983       0.23827728 </v>
   <v>       0.02441113       0.03055846      -0.01270040 </v>
  </varray>
  <varray name="stress" >
   <v>       0.32983213       0.00827849      -0.32293381 </v>
   <v>       0.00827825      -0.11532282       0.06654284 </v>
   <v>      -0.32293374       0.06654288      -0.39028639 </v>
  </varray>
  <energy>
   <i name="e_fr_energy">   -191.32094408 </i>
   <i name="e_wo_entrp">   -191.22027566 </i>
   <i name="e_0_energy">     -0.20133684 </i>
  </energy>
  <time name="totalsc">  400.70  401.76</time>
 </calculation>
 <calculation>
  <scstep>
   <time name="dav">   22.88   22.93</time>
   <time name="total">   23.47   23.53</time>
   <energy>
    <i name="alphaZ">     90.00936355 </i>
    <i name="ewald">  44577.50524955 </i>
    <i name="hartreedc"> -50586.61299142 </i>
    <i name="XCdc">   -233.49502443 </i>
    <i name="pawpsdc">   4085.28381781 </i>
    <i name="pawaedc">  -3501.25586251 </i>
    <i name="eentropy">     -0.20435605 </i>
    <i name="bandstr">  -1384.03330566 </i>
    <i name="atom">   6761.44252427 </i>
    <i name="e_fr_energy">   -191.36058490 </i>
    <i name="e_wo_entrp">   -191.15622885 </i>
    <i name="e_0_energy">   -191.25840687 </i>
   </energy>
  </scstep>
  <scstep>
   <time name="dav">   32.66   32.74</time>
   <time name="total">   33.26   33.35</time>
   <energy>
    <i name="e_fr_energy">   -191.39909069 </i>
    <i name="e_wo_entrp">   -191.19213143 </i>
    <i name="e_0_energy">   -191.29561106 </i>
   </energy>
  </scstep>
  <scstep>
   <time name="dav">   31.21   31.28</time>
   <time name="total">   31.80   31.89</time>
   <energy>
    <i name="e_fr_energy">   -191.37106494 </i>
    <i name="e_wo_entrp">   -191.16707212 </i>
    <i name="e_0_energy">   -191.26906853 </i>
   </energy>
  </scstep>
  <scstep>
   <time name="dav">   29.23   29.30</time>
   <time name="total">   29.83   29.91</time>
   <energy>
    <i name="e_fr_energy">   -191.37103572 </i>
    <i name="e_wo_entrp">   -191.16601122 </i>
    <i name="e_0_energy">   -191.26852347 </i>
   </energy>
  </scstep>
  <scstep>
   <time name="dav">   27.45   27.52</time>
   <time name="total">   28.05   28.12</time>
   <energy>
    <i name="e_fr_energy">   -191.36910643 </i>
    <i name="e_wo_entrp">   -191.16435220 </i>
    <i name="e_0_energy">   -191.26672931 </i>
   </energy>
  </scstep>
  <scstep>
   <time name="dav">   27.26   27.33</time>
   <time name="total">   27.85   27.93</time>
   <energy>
    <i name="e_fr_energy">   -191.36895821 </i>
    <i name="e_wo_entrp">   -191.16414223 </i>
    <i name="e_0_energy">   -191.26655022 </i>
   </energy>
  </scstep>
  <scstep>
   <time name="dav">   27.46   27.52</time>
   <time name="total">   28.05   28.13</time>
   <energy>
    <i name="e_fr_energy">   -191.36931227 </i>
    <i name="e_wo_entrp">   -191.16463939 </i>
    <i name="e_0_energy">   -191.26697583 </i>
   </energy>
  </scstep>
  <scstep>
   <time name="dav">   24.30   24.36</time>
   <time name="total">   24.90   24.97</time>
   <energy>
    <i name="e_fr_energy">   -191.36871123 </i>
    <i name="e_wo_entrp">   -191.16396132 </i>
    <i name="e_0_energy">   -191.26633627 </i>
   </energy>
  </scstep>
  <scstep>
   <time name="dav">   17.69   17.74</time>
   <time name="total">   17.73   17.78</time>
   <energy>
    <i name="alphaZ">     90.00936355 </i>
    <i name="ewald">  44577.50524955 </i>
    <i name="hartreedc"> -50588.20694847 </i>
    <i name="XCdc">   -233.44850024 </i>
    <i name="pawpsdc">   4081.81028224 </i>
    <i name="pawaedc">  -3497.73575358 </i>
    <i name="eentropy">     -0.20479640 </i>
    <i name="bandstr">  -1382.54014032 </i>
    <i name="atom">   6761.44252427 </i>
    <i name="e_fr_energy">   -191.36871940 </i>
    <i name="e_wo_entrp">   -191.16392300 </i>
    <i name="e_0_energy">   -191.26632120 </i>
   </energy>
  </scstep>
  <structure>
   <crystal>
    <varray name="basis" >
     <v>       8.29642514       4.77913925       0.00000000 </v>
     <v>      -8.29554500       4.77761362       0.00000000 </v>
     <v>       0.00000000       0.00000000      30.00000000 </v>
    </varray>
    <i name="volume">   2378.48035460 </i>
    <varray name="rec_basis" >
     <v>       0.06026050       0.10463250       0.00000000 </v>
     <v>      -0.06027974       0.10464360       0.00000000 </v>
     <v>       0.00000000       0.00000000       0.03333333 </v>
    </varray>
   </crystal>
   <varray name="positions" >
    <v>       0.00469118       0.66636099       0.00006127 </v>
    <v>       0.66281579       0.66142210      -0.00056383 </v>
    <v>       0.33486814       0.33141735      -0.00008983 </v>
    <v>       0.34576967       0.00015250       0.00015495 </v>
    <v>       0.33436805       0.67786144       0.00036097 </v>
    <v>       0.66164457       0.31813149      -0.00024302 </v>
    <v>       0.00962745       0.00183362      -0.00007497 </v>
    <v>       0.99794332       0.33774429       0.00037872 </v>
    <v>       0.64940402       0.00298015      -0.00003070 </v>
    <v>       0.11751686       0.22651175       0.94895904 </v>
    <v>       0.22631602       0.11685451       0.05139493 </v>
    <v>       0.10753821       0.55847002       0.94822386 </v>
    <v>       0.22531298       0.44234313       0.05013118 </v>
    <v>       0.10930867       0.88348770       0.94901248 </v>
    <v>       0.21574264       0.77576271       0.05251631 </v>
    <v>       0.44111314       0.22438868       0.94796635 </v>
    <v>       0.55488648       0.11047136       0.05578037 </v>
    <v>       0.44624930       0.55274138       0.95035756 </v>
    <v>       0.55288112       0.44636752       0.04977777 </v>
    <v>       0.44457655       0.88911363       0.94485943 </v>
    <v>       0.55939015       0.77672135       0.05111957 </v>
    <v>       0.77810628       0.22017579       0.94635864 </v>
    <v>       0.88628121       0.10949800       0.05070777 </v>
    <v>       0.77995998       0.55919700       0.95117985 </v>
    <v>       0.89102967       0.45054754       0.05134110 </v>
    <v>       0.77438153       0.88551898       0.95090118 </v>
    <v>       0.88649148       0.77213947       0.04945896 </v>
   </varray>
  </structure>
  <varray name="forces" >
   <v>       0.08424320       0.07870974       0.03191058 </v>
   <v>       0.05782450      -0.14734446      -0.04079434 </v>
   <v>       0.07969552      -0.07532849      -0.02256870 </v>
   <v>       0.04496350       0.04478314      -0.00107414 </v>
   <v>      -0.19683005       0.12943794      -0.01647071 </v>
   <v>       0.22054754      -0.15571192       0.03199096 </v>
   <v>       0.39193807       0.21197499      -0.01784605 </v>
   <v>      -0.22590024      -0.00145610       0.00554017 </v>
   <v>      -0.35244584      -0.13711734      -0.01041608 </v>
   <v>      -0.03337832       0.04212745       0.02715606 </v>
   <v>       0.07964335       0.05230781       0.11721793 </v>
   <v>      -0.01369763       0.01645764      -0.05527396 </v>
   <v>      -0.08598355       0.06743168      -0.09051044 </v>
   <v>       0.06256542       0.07228648      -0.07917908 </v>
   <v>      -0.02709479       0.06401295       0.10264542 </v>
   <v>       0.09448373       0.00554035      -0.04083126 </v>
   <v>      -0.01786211      -0.04324940       0.20813386 </v>
   <v>      -0.08188470      -0.03451152       0.04051804 </v>
   <v>       0.07155953      -0.02647152      -0.00398474 </v>
   <v>      -0.04400752      -0.01235527      -0.16151403 </v>
   <v>      -0.09795652       0.03579718      -0.02051359 </v>
   <v>       0.04127099      -0.03771332      -0.09962557 </v>
   <v>      -0.00763888      -0.09535002      -0.23208968 </v>
   <v>       0.10192289      -0.11393731       0.07674163 </v>
   <v>      -0.04509846      -0.04672003       0.03958805 </v>
   <v>      -0.12748810       0.07857450       0.24248088 </v>
   <v>       0.02660848       0.02782486      -0.03123121 </v>
  </varray>
  <varray name="stress" >
   <v>      -0.20295952      -0.04509518      -0.11404797 </v>
   <v>      -0.04509519      -0.20886261       0.01981624 </v>
   <v>      -0.11404799       0.01981615      -1.07384954 </v>
  </varray>
  <energy>
   <i name="e_fr_energy">   -191.36871940 </i>
   <i name="e_wo_entrp">   -191.26632120 </i>
   <i name="e_0_energy">     -0.20479640 </i>
  </energy>
  <time name="totalsc">  288.78  289.54</time>
 </calculation>
 <calculation>
  <scstep>
   <time name="dav">   22.87   22.92</time>
   <time name="total">   23.47   23.52</time>
   <energy>
    <i name="alphaZ">     90.17708421 </i>
    <i name="ewald">  44647.45495383 </i>
    <i name="hartreedc"> -50660.20755657 </i>
    <i name="XCdc">   -233.35950642 </i>
    <i name="pawpsdc">   4081.66819840 </i>
    <i name="pawaedc">  -3497.59182367 </i>
    <i name="eentropy">     -0.20664265 </i>
    <i name="bandstr">  -1380.79524976 </i>
    <i name="atom">   6761.44252427 </i>
    <i name="e_fr_energy">   -191.41801835 </i>
    <i name="e_wo_entrp">   -191.21137570 </i>
    <i name="e_0_energy">   -191.31469702 </i>
   </energy>
  </scstep>
  <scstep>
   <time name="dav">   33.06   33.14</time>
   <time name="total">   33.65   33.74</time>
   <energy>
    <i name="e_fr_energy">   -191.45382549 </i>
    <i name="e_wo_entrp">   -191.24335831 </i>
    <i name="e_0_energy">   -191.34859190 </i>
   </energy>
  </scstep>
  <scstep>
   <time name="dav">   31.48   31.55</time>
   <time name="total">   32.07   32.16</time>
   <energy>
    <i name="e_fr_energy">   -191.42846515 </i>
    <i name="e_wo_entrp">   -191.22214675 </i>
    <i name="e_0_energy">   -191.32530595 </i>
   </energy>
  </scstep>
  <scstep>
   <time name="dav">   29.38   29.45</time>
   <time name="total">   29.97   30.05</time>
   <energy>
    <i name="e_fr_energy">   -191.42599984 </i>
    <i name="e_wo_entrp">   -191.21884226 </i>
    <i name="e_0_energy">   -191.32242105 </i>
   </energy>
  </scstep>
  <scstep>
   <time name="dav">   28.31   28.38</time>
   <time name="total">   28.91   28.98</time>
   <energy>
    <i name="e_fr_energy">   -191.42438951 </i>
    <i name="e_wo_entrp">   -191.21681818 </i>
    <i name="e_0_energy">   -191.32060384 </i>
   </energy>
  </scstep>
  <scstep>
   <time name="dav">   27.62   27.69</time>
   <time name="total">   28.21   28.29</time>
   <energy>
    <i name="e_fr_energy">   -191.42373508 </i>
    <i name="e_wo_entrp">   -191.21614630 </i>
    <i name="e_0_energy">   -191.31994069 </i>
   </energy>
  </scstep>
  <scstep>
[...]
      <set comment="kpoint 31">
       <r>  -17.4800    1.0000 </r>
       <r>  -17.2953    1.0000 </r>
       <r>  -16.9226    1.0000 </r>
       <r>  -16.6264    1.0000 </r>
       <r>  -16.5044    1.0000 </r>
       <r>  -16.3691    1.0000 </r>
       <r>  -16.2619    1.0000 </r>
       <r>  -16.1513    1.0000 </r>
       <r>  -16.0726    1.0000 </r>
       <r>  -16.0296    1.0000 </r>
       <r>  -15.9618    1.0000 </r>
       <r>  -15.8652    1.0000 </r>
       <r>  -15.7645    1.0000 </r>
       <r>  -15.7283    1.0000 </r>
       <r>  -15.6596    1.0000 </r>
       <r>  -15.5584    1.0000 </r>
       <r>  -15.4540    1.0000 </r>
       <r>  -15.3712    1.0000 </r>
       <r>   -9.7483    1.0000 </r>
       <r>   -9.3837    1.0000 </r>
       <r>   -9.2881    1.0000 </r>
       <r>   -8.9101    1.0000 </r>
       <r>   -8.7881    1.0000 </r>
       <r>   -8.7148    1.0000 </r>
       <r>   -8.5962    1.0000 </r>
       <r>   -8.5571    1.0000 </r>
       <r>   -8.3860    1.0000 </r>
       <r>   -8.3450    1.0000 </r>
       <r>   -8.2822    1.0000 </r>
       <r>   -8.2297    1.0000 </r>
       <r>   -8.1625    1.0000 </r>
       <r>   -8.0577    1.0000 </r>
       <r>   -7.9884    1.0000 </r>
       <r>   -7.9106    1.0000 </r>
       <r>   -7.7380    1.0000 </r>
       <r>   -7.6150    1.0000 </r>
       <r>   -7.5547    1.0000 </r>
       <r>   -7.4375    1.0000 </r>
       <r>   -7.3264    1.0000 </r>
       <r>   -7.2147    1.0000 </r>
       <r>   -7.1762    1.0000 </r>
       <r>   -7.0488    1.0000 </r>
       <r>   -7.0029    1.0000 </r>
       <r>   -6.9590    1.0000 </r>
       <r>   -6.9292    1.0000 </r>
       <r>   -6.7736    1.0000 </r>
       <r>   -6.6775    1.0000 </r>
       <r>   -6.6140    1.0000 </r>
       <r>   -6.5606    1.0000 </r>
       <r>   -6.4861    1.0000 </r>
       <r>   -6.4226    1.0000 </r>
       <r>   -6.3734    1.0000 </r>
       <r>   -6.2802    1.0000 </r>
       <r>   -6.2129    1.0000 </r>
       <r>   -6.1215    1.0000 </r>
       <r>   -6.0309    1.0000 </r>
       <r>   -5.9813    1.0000 </r>
       <r>   -5.9238    1.0000 </r>
       <r>   -5.8623    1.0000 </r>
       <r>   -5.8243    1.0000 </r>
       <r>   -5.7067    1.0000 </r>
       <r>   -5.6081    1.0000 </r>
       <r>   -5.5404    1.0000 </r>
       <r>   -5.3693    1.0000 </r>
       <r>   -5.2685    1.0000 </r>
       <r>   -5.1953    1.0000 </r>
       <r>   -5.0739    1.0000 </r>
       <r>   -4.9109    1.0000 </r>
       <r>   -4.7718    1.0000 </r>
       <r>   -4.7389    1.0000 </r>
       <r>   -4.5497    1.0000 </r>
       <r>   -4.5164    1.0000 </r>
       <r>   -4.3501    1.0000 </r>
       <r>   -4.2751    1.0000 </r>
       <r>   -4.0239    1.0000 </r>
       <r>   -3.9303    1.0000 </r>
       <r>   -3.8181    0.9999 </r>
       <r>   -3.7374    0.9989 </r>
       <r>   -3.6627    0.9944 </r>
       <r>   -3.2442    0.3356 </r>
       <r>   -3.0221    0.0230 </r>
       <r>   -2.7831    0.0001 </r>
       <r>   -2.6356    0.0000 </r>
       <r>   -2.5282    0.0000 </r>
       <r>   -2.4361    0.0000 </r>
       <r>   -2.3408    0.0000 </r>
       <r>   -2.2555    0.0000 </r>
       <r>   -2.1212    0.0000 </r>
       <r>   -2.0056    0.0000 </r>
       <r>   -1.8853    0.0000 </r>
       <r>   -1.7528    0.0000 </r>
       <r>   -1.6693    0.0000 </r>
       <r>   -1.4593    0.0000 </r>
       <r>   -1.3422    0.0000 </r>
       <r>   -1.2318    0.0000 </r>
       <r>   -1.1897    0.0000 </r>
       <r>   -1.1194    0.0000 </r>
       <r>   -1.0429    0.0000 </r>
       <r>   -0.9919    0.0000 </r>
       <r>   -0.9501    0.0000 </r>
       <r>   -0.8449    0.0000 </r>
       <r>   -0.7788    0.0000 </r>
       <r>   -0.6599    0.0000 </r>
       <r>   -0.5604    0.0000 </r>
       <r>   -0.4713    0.0000 </r>
       <r>   -0.4306    0.0000 </r>
       <r>   -0.2798    0.0000 </r>
       <r>   -0.1939    0.0000 </r>
       <r>    0.0890    0.0000 </r>
       <r>    0.2749    0.0000 </r>
       <r>    0.4077    0.0000 </r>
       <r>    0.6668    0.0000 </r>
       <r>    0.7628    0.0000 </r>
       <r>    0.8469    0.0000 </r>
       <r>    0.8979    0.0000 </r>
       <r>    1.3460    0.0000 </r>
       <r>    1.5069    0.0000 </r>
       <r>    2.1268    0.0000 </r>
       <r>    2.2841    0.0000 </r>
       <r>    2.3953    0.0000 </r>
      </set>
      <set comment="kpoint 32">
       <r>  -17.5040    1.0000 </r>
       <r>  -17.2186    1.0000 </r>
       <r>  -17.0274    1.0000 </r>
       <r>  -16.6238    1.0000 </r>
       <r>  -16.4036    1.0000 </r>
       <r>  -16.3148    1.0000 </r>
       <r>  -16.2869    1.0000 </r>
       <r>  -16.1827    1.0000 </r>
       <r>  -16.0939    1.0000 </r>
       <r>  -16.0311    1.0000 </r>
       <r>  -15.9644    1.0000 </r>
       <r>  -15.8999    1.0000 </r>
       <r>  -15.8040    1.0000 </r>
       <r>  -15.7158    1.0000 </r>
       <r>  -15.6442    1.0000 </r>
       <r>  -15.5521    1.0000 </r>
       <r>  -15.4254    1.0000 </r>
       <r>  -15.3851    1.0000 </r>
       <r>   -9.6953    1.0000 </r>
       <r>   -9.4825    1.0000 </r>
       <r>   -9.3363    1.0000 </r>
       <r>   -8.8917    1.0000 </r>
       <r>   -8.7501    1.0000 </r>
       <r>   -8.6059    1.0000 </r>
       <r>   -8.5480    1.0000 </r>
       <r>   -8.4781    1.0000 </r>
       <r>   -8.4276    1.0000 </r>
       <r>   -8.3795    1.0000 </r>
       <r>   -8.3105    1.0000 </r>
       <r>   -8.2225    1.0000 </r>
       <r>   -8.1644    1.0000 </r>
       <r>   -8.0630    1.0000 </r>
       <r>   -8.0253    1.0000 </r>
       <r>   -7.9590    1.0000 </r>
       <r>   -7.7816    1.0000 </r>
       <r>   -7.5844    1.0000 </r>
       <r>   -7.5031    1.0000 </r>
       <r>   -7.3807    1.0000 </r>
       <r>   -7.3619    1.0000 </r>
       <r>   -7.2776    1.0000 </r>
       <r>   -7.1566    1.0000 </r>
       <r>   -7.0881    1.0000 </r>
       <r>   -7.0640    1.0000 </r>
       <r>   -6.9750    1.0000 </r>
       <r>   -6.8848    1.0000 </r>
       <r>   -6.7861    1.0000 </r>
       <r>   -6.7370    1.0000 </r>
       <r>   -6.5723    1.0000 </r>
       <r>   -6.5096    1.0000 </r>
       <r>   -6.4936    1.0000 </r>
       <r>   -6.4136    1.0000 </r>
       <r>   -6.3498    1.0000 </r>
       <r>   -6.2599    1.0000 </r>
       <r>   -6.2175    1.0000 </r>
       <r>   -6.1491    1.0000 </r>
       <r>   -6.0715    1.0000 </r>
       <r>   -5.9965    1.0000 </r>
       <r>   -5.9322    1.0000 </r>
       <r>   -5.8381    1.0000 </r>
       <r>   -5.7213    1.0000 </r>
       <r>   -5.6863    1.0000 </r>
       <r>   -5.5957    1.0000 </r>
       <r>   -5.5070    1.0000 </r>
       <r>   -5.4266    1.0000 </r>
       <r>   -5.3073    1.0000 </r>
       <r>   -5.1676    1.0000 </r>
       <r>   -5.1097    1.0000 </r>
       <r>   -5.0203    1.0000 </r>
       <r>   -4.7200    1.0000 </r>
       <r>   -4.6771    1.0000 </r>
       <r>   -4.5606    1.0000 </r>
       <r>   -4.4750    1.0000 </r>
       <r>   -4.3467    1.0000 </r>
       <r>   -4.2745    1.0000 </r>
       <r>   -4.1011    1.0000 </r>
       <r>   -3.9862    1.0000 </r>
       <r>   -3.8666    1.0000 </r>
       <r>   -3.7753    0.9996 </r>
       <r>   -3.5546    0.9616 </r>
       <r>   -3.2728    0.4119 </r>
       <r>   -3.0770    0.0540 </r>
       <r>   -2.7208    0.0000 </r>
       <r>   -2.5981    0.0000 </r>
       <r>   -2.4792    0.0000 </r>
       <r>   -2.4008    0.0000 </r>
       <r>   -2.2992    0.0000 </r>
       <r>   -2.2346    0.0000 </r>
       <r>   -2.0874    0.0000 </r>
       <r>   -2.0062    0.0000 </r>
       <r>   -1.8718    0.0000 </r>
       <r>   -1.7608    0.0000 </r>
       <r>   -1.6979    0.0000 </r>
       <r>   -1.4819    0.0000 </r>
       <r>   -1.3815    0.0000 </r>
       <r>   -1.2898    0.0000 </r>
       <r>   -1.1820    0.0000 </r>
       <r>   -1.1384    0.0000 </r>
       <r>   -1.0532    0.0000 </r>
       <r>   -0.9778    0.0000 </r>
       <r>   -0.9181    0.0000 </r>
       <r>   -0.8809    0.0000 </r>
       <r>   -0.7937    0.0000 </r>
       <r>   -0.6203    0.0000 </r>
       <r>   -0.5704    0.0000 </r>
       <r>   -0.4794    0.0000 </r>
       <r>   -0.4224    0.0000 </r>
       <r>   -0.2139    0.0000 </r>
       <r>   -0.1731    0.0000 </r>
       <r>    0.0539    0.0000 </r>
       <r>    0.2387    0.0000 </r>
       <r>    0.5466    0.0000 </r>
       <r>    0.6448    0.0000 </r>
       <r>    0.7376    0.0000 </r>
       <r>    0.8586    0.0000 </r>
       <r>    0.9570    0.0000 </r>
       <r>    1.2462    0.0000 </r>
       <r>    1.3817    0.0000 </r>
       <r>    2.0902    0.0000 </r>
       <r>    2.2540    0.0000 </r>
       <r>    2.5523    0.0000 </r>
      </set>
      <set comment="kpoint 33">
       <r>  -17.4858    1.0000 </r>
       <r>  -17.3037    1.0000 </r>
       <r>  -16.9073    1.0000 </r>
       <r>  -16.6297    1.0000 </r>
       <r>  -16.4892    1.0000 </r>
       <r>  -16.3300    1.0000 </r>
       <r>  -16.2687    1.0000 </r>
       <r>  -16.1481    1.0000 </r>
       <r>  -16.0979    1.0000 </r>
       <r>  -16.0147    1.0000 </r>
       <r>  -15.9726    1.0000 </r>
       <r>  -15.9172    1.0000 </r>
       <r>  -15.8052    1.0000 </r>
       <r>  -15.6947    1.0000 </r>
       <r>  -15.6266    1.0000 </r>
       <r>  -15.5428    1.0000 </r>
       <r>  -15.4362    1.0000 </r>
       <r>  -15.4099    1.0000 </r>
       <r>   -9.7275    1.0000 </r>
       <r>   -9.4118    1.0000 </r>
       <r>   -9.2404    1.0000 </r>
       <r>   -8.9800    1.0000 </r>
       <r>   -8.8485    1.0000 </r>
       <r>   -8.7356    1.0000 </r>
       <r>   -8.5201    1.0000 </r>
       <r>   -8.4967    1.0000 </r>
       <r>   -8.3881    1.0000 </r>
       <r>   -8.3323    1.0000 </r>
       <r>   -8.2994    1.0000 </r>
       <r>   -8.2218    1.0000 </r>
       <r>   -8.1484    1.0000 </r>
       <r>   -8.0303    1.0000 </r>
       <r>   -7.9752    1.0000 </r>
       <r>   -7.9032    1.0000 </r>
       <r>   -7.7837    1.0000 </r>
       <r>   -7.6091    1.0000 </r>
       <r>   -7.5534    1.0000 </r>
       <r>   -7.3960    1.0000 </r>
       <r>   -7.3200    1.0000 </r>
       <r>   -7.2506    1.0000 </r>
       <r>   -7.1647    1.0000 </r>
       <r>   -7.1063    1.0000 </r>
       <r>   -7.0258    1.0000 </r>
       <r>   -6.9850    1.0000 </r>
       <r>   -6.8643    1.0000 </r>
       <r>   -6.7624    1.0000 </r>
       <r>   -6.6879    1.0000 </r>
       <r>   -6.5998    1.0000 </r>
       <r>   -6.5243    1.0000 </r>
       <r>   -6.4652    1.0000 </r>
       <r>   -6.4455    1.0000 </r>
       <r>   -6.3678    1.0000 </r>
       <r>   -6.2661    1.0000 </r>
       <r>   -6.2339    1.0000 </r>
       <r>   -6.1365    1.0000 </r>
       <r>   -6.0744    1.0000 </r>
       <r>   -5.9999    1.0000 </r>
       <r>   -5.9572    1.0000 </r>
       <r>   -5.8795    1.0000 </r>
       <r>   -5.7995    1.0000 </r>
       <r>   -5.7474    1.0000 </r>
       <r>   -5.6580    1.0000 </r>
       <r>   -5.6202    1.0000 </r>
       <r>   -5.3851    1.0000 </r>
       <r>   -5.2724    1.0000 </r>
       <r>   -5.0895    1.0000 </r>
       <r>   -5.0799    1.0000 </r>
       <r>   -4.8460    1.0000 </r>
       <r>   -4.7209    1.0000 </r>
       <r>   -4.6276    1.0000 </r>
       <r>   -4.5150    1.0000 </r>
       <r>   -4.4645    1.0000 </r>
       <r>   -4.3491    1.0000 </r>
       <r>   -4.2744    1.0000 </r>
       <r>   -4.1894    1.0000 </r>
       <r>   -4.0770    1.0000 </r>
       <r>   -3.8916    1.0000 </r>
       <r>   -3.8054    0.9998 </r>
       <r>   -3.5488    0.9581 </r>
       <r>   -3.2720    0.4099 </r>
       <r>   -3.1424    0.1262 </r>
       <r>   -2.6456    0.0000 </r>
       <r>   -2.5585    0.0000 </r>
       <r>   -2.4605    0.0000 </r>
       <r>   -2.3549    0.0000 </r>
       <r>   -2.2724    0.0000 </r>
       <r>   -2.2122    0.0000 </r>
       <r>   -2.0357    0.0000 </r>
       <r>   -2.0105    0.0000 </r>
       <r>   -1.8470    0.0000 </r>
       <r>   -1.7689    0.0000 </r>
       <r>   -1.7082    0.0000 </r>
       <r>   -1.4918    0.0000 </r>
       <r>   -1.3984    0.0000 </r>
       <r>   -1.3345    0.0000 </r>
       <r>   -1.1931    0.0000 </r>
       <r>   -1.1525    0.0000 </r>
       <r>   -1.0798    0.0000 </r>
       <r>   -0.9977    0.0000 </r>
       <r>   -0.9355    0.0000 </r>
       <r>   -0.8512    0.0000 </r>
       <r>   -0.7653    0.0000 </r>
       <r>   -0.6629    0.0000 </r>
       <r>   -0.5915    0.0000 </r>
       <r>   -0.5413    0.0000 </r>
       <r>   -0.3639    0.0000 </r>
       <r>   -0.2264    0.0000 </r>
       <r>   -0.0825    0.0000 </r>
       <r>    0.0433    0.0000 </r>
       <r>    0.2511    0.0000 </r>
       <r>    0.5568    0.0000 </r>
       <r>    0.6264    0.0000 </r>
       <r>    0.7701    0.0000 </r>
       <r>    0.9057    0.0000 </r>
       <r>    1.0478    0.0000 </r>
       <r>    1.1618    0.0000 </r>
       <r>    1.2692    0.0000 </r>
       <r>    2.1148    0.0000 </r>
       <r>    2.2829    0.0000 </r>
       <r>    2.3691    0.0000 </r>
      </set>
      <set comment="kpoint 34">
       <r>  -17.4486    1.0000 </r>
       <r>  -17.3777    1.0000 </r>
       <r>  -16.7571    1.0000 </r>
       <r>  -16.6777    1.0000 </r>
       <r>  -16.5911    1.0000 </r>
       <r>  -16.3273    1.0000 </r>
       <r>  -16.2694    1.0000 </r>
       <r>  -16.1499    1.0000 </r>
       <r>  -16.0693    1.0000 </r>
       <r>  -15.9978    1.0000 </r>
       <r>  -15.9893    1.0000 </r>
       <r>  -15.9149    1.0000 </r>
       <r>  -15.8005    1.0000 </r>
       <r>  -15.6754    1.0000 </r>
       <r>  -15.6191    1.0000 </r>
       <r>  -15.5400    1.0000 </r>
       <r>  -15.4450    1.0000 </r>
       <r>  -15.4314    1.0000 </r>
       <r>   -9.7555    1.0000 </r>
       <r>   -9.2622    1.0000 </r>
       <r>   -9.2107    1.0000 </r>
       <r>   -9.0584    1.0000 </r>
       <r>   -8.8986    1.0000 </r>
       <r>   -8.8500    1.0000 </r>
       <r>   -8.5382    1.0000 </r>
       <r>   -8.5103    1.0000 </r>
       <r>   -8.3997    1.0000 </r>
       <r>   -8.3101    1.0000 </r>
       <r>   -8.2744    1.0000 </r>
       <r>   -8.1911    1.0000 </r>
       <r>   -8.1710    1.0000 </r>
       <r>   -8.0014    1.0000 </r>
       <r>   -7.8891    1.0000 </r>
       <r>   -7.8542    1.0000 </r>
       <r>   -7.8024    1.0000 </r>
       <r>   -7.7050    1.0000 </r>
       <r>   -7.4767    1.0000 </r>
       <r>   -7.4489    1.0000 </r>
       <r>   -7.2939    1.0000 </r>
       <r>   -7.2095    1.0000 </r>
       <r>   -7.1941    1.0000 </r>
       <r>   -7.0696    1.0000 </r>
       <r>   -7.0251    1.0000 </r>
       <r>   -6.9706    1.0000 </r>
       <r>   -6.8490    1.0000 </r>
       <r>   -6.7506    1.0000 </r>
       <r>   -6.6944    1.0000 </r>
       <r>   -6.6011    1.0000 </r>
       <r>   -6.5604    1.0000 </r>
       <r>   -6.4614    1.0000 </r>
       <r>   -6.4274    1.0000 </r>
       <r>   -6.3482    1.0000 </r>
       <r>   -6.3009    1.0000 </r>
       <r>   -6.2646    1.0000 </r>
       <r>   -6.1462    1.0000 </r>
       <r>   -6.0796    1.0000 </r>
       <r>   -6.0179    1.0000 </r>
       <r>   -5.9465    1.0000 </r>
       <r>   -5.8822    1.0000 </r>
       <r>   -5.8448    1.0000 </r>
       <r>   -5.8088    1.0000 </r>
       <r>   -5.6927    1.0000 </r>
       <r>   -5.6267    1.0000 </r>
       <r>   -5.4479    1.0000 </r>
       <r>   -5.2166    1.0000 </r>
       <r>   -5.1553    1.0000 </r>
       <r>   -4.9180    1.0000 </r>
       <r>   -4.7218    1.0000 </r>
       <r>   -4.6522    1.0000 </r>
       <r>   -4.6266    1.0000 </r>
       <r>   -4.5758    1.0000 </r>
       <r>   -4.4785    1.0000 </r>
       <r>   -4.3580    1.0000 </r>
       <r>   -4.2884    1.0000 </r>
       <r>   -4.1830    1.0000 </r>
       <r>   -4.1230    1.0000 </r>
       <r>   -3.8911    1.0000 </r>
       <r>   -3.8228    0.9999 </r>
       <r>   -3.5909    0.9787 </r>
       <r>   -3.2680    0.3989 </r>
       <r>   -3.1599    0.1536 </r>
       <r>   -2.6129    0.0000 </r>
       <r>   -2.5458    0.0000 </r>
       <r>   -2.4455    0.0000 </r>
       <r>   -2.3436    0.0000 </r>
       <r>   -2.2666    0.0000 </r>
       <r>   -2.1957    0.0000 </r>
       <r>   -2.0505    0.0000 </r>
       <r>   -1.9738    0.0000 </r>
       <r>   -1.8332    0.0000 </r>
       <r>   -1.7818    0.0000 </r>
       <r>   -1.7062    0.0000 </r>
       <r>   -1.4836    0.0000 </r>
       <r>   -1.3955    0.0000 </r>
       <r>   -1.3507    0.0000 </r>
       <r>   -1.2245    0.0000 </r>
       <r>   -1.1526    0.0000 </r>
       <r>   -1.0707    0.0000 </r>
       <r>   -1.0304    0.0000 </r>
       <r>   -0.9382    0.0000 </r>
       <r>   -0.8311    0.0000 </r>
       <r>   -0.7340    0.0000 </r>
       <r>   -0.7017    0.0000 </r>
       <r>   -0.6333    0.0000 </r>
       <r>   -0.5422    0.0000 </r>
       <r>   -0.3479    0.0000 </r>
       <r>   -0.2445    0.0000 </r>
       <r>   -0.0504    0.0000 </r>
       <r>    0.0412    0.0000 </r>
       <r>    0.2948    0.0000 </r>
       <r>    0.5428    0.0000 </r>
       <r>    0.6007    0.0000 </r>
       <r>    0.7743    0.0000 </r>
       <r>    0.9820    0.0000 </r>
       <r>    1.0632    0.0000 </r>
       <r>    1.1152    0.0000 </r>
       <r>    1.2476    0.0000 </r>
       <r>    2.1784    0.0000 </r>
       <r>    2.2340    0.0000 </r>
       <r>    2.3545    0.0000 </r>
      </set>
     </set>
    </set>
   </array>
  </eigenvalues>
  <separator name="orbital magnetization" >
   <v name="MAGDIPOLOUT">      0.00000000      0.00000000      0.00000000</v>
  </separator>
 </calculation>
 <structure name="finalpos" >
  <crystal>
   <varray name="basis" >
    <v>       8.39775415       4.81905897       0.00000000 </v>
    <v>      -8.39294453       4.81059713       0.00000000 </v>
    <v>       0.00000000       0.00000000      30.00000000 </v>
   </varray>
   <i name="volume">   2425.32919832 </i>
   <varray name="rec_basis" >
    <v>       0.05950446       0.10381615       0.00000000 </v>
    <v>      -0.05960913       0.10387564       0.00000000 </v>
    <v>       0.00000000       0.00000000       0.03333333 </v>
   </varray>
  </crystal>
  <varray name="positions" >
   <v>       0.01733818       0.67643202       0.00030278 </v>
   <v>       0.68572056       0.64345906       0.00182367 </v>
   <v>       0.31485576       0.35913247      -0.00271761 </v>
   <v>       0.34082736      -0.01422253       0.00067638 </v>
   <v>       0.31670900       0.67804550      -0.00090473 </v>
   <v>       0.66831803       0.30695472       0.00185162 </v>
   <v>       0.01937634      -0.02195963       0.00155698 </v>
   <v>       1.00325493       0.36700268      -0.00102096 </v>
   <v>       0.63722456       0.00155375      -0.00150696 </v>
   <v>       0.10654523       0.22263590       0.95166547 </v>
   <v>       0.23187382       0.12372502       0.04906282 </v>
   <v>       0.10945452       0.56516180       0.94358588 </v>
   <v>       0.21849586       0.45236542       0.05188283 </v>
   <v>       0.11545859       0.88110651       0.94598932 </v>
   <v>       0.21495177       0.77780378       0.05538360 </v>
   <v>       0.43773411       0.22930946       0.95567743 </v>
   <v>       0.54991386       0.10169513       0.05739884 </v>
   <v>       0.45371264       0.56508096       0.95212034 </v>
   <v>       0.54597797       0.43828423       0.04841936 </v>
   <v>       0.44289178       0.88864854       0.94241446 </v>
   <v>       0.55856971       0.77383193       0.04567325 </v>
   <v>       0.77942847       0.21899449       0.94585626 </v>
   <v>       0.89077467       0.11133199       0.04135293 </v>
   <v>       0.78269287       0.54893707       0.95112286 </v>
   <v>       0.88831913       0.45281211       0.05284465 </v>
   <v>       0.77560262       0.88161344       0.95671369 </v>
   <v>       0.89219211       0.76847862       0.05277474 </v>
  </varray>
 </structure>
</modeling>
