unknown system                          
           1
     8.856768    5.104136    0.000000
    -8.856996    5.104528    0.000000
     0.000000    0.000000   30.000000
   V    Mo   W    S 
   3   3   3  18
Direct configuration=     1
   0.00000000  0.66666669  0.00000000
   0.66666669  0.66666669  0.00000000
   0.33333334  0.33333334  0.00000000
   0.33333334  0.00000000  0.00000000
   0.33333334  0.66666669  0.00000000
   0.66666669  0.33333334  0.00000000
   0.00000000  0.00000000  0.00000000
   1.00000000  0.33333334  0.00000000
   0.66666669  0.00000000  0.00000000
   0.11068511  0.22244981  0.95539999
   0.22244981  0.11068511  0.04460000
   0.11068511  0.55578315  0.95539999
   0.22244981  0.44401845  0.04460000
   0.11068511  0.88911647  0.95539999
   0.22244981  0.77735180  0.04460000
   0.44401845  0.22244981  0.95539999
   0.55578315  0.11068511  0.04460000
   0.44401845  0.55578315  0.95539999
   0.55578315  0.44401845  0.04460000
   0.44401845  0.88911647  0.95539999
   0.55578315  0.77735180  0.04460000
   0.77735180  0.22244981  0.95539999
   0.88911647  0.11068511  0.04460000
   0.77735180  0.55578315  0.95539999
   0.88911647  0.44401845  0.04460000
   0.77735180  0.88911647  0.95539999
   0.88911647  0.77735180  0.04460000
unknown system                          
           1
     8.668300    4.997891    0.000000
    -8.668427    4.998110    0.000000
     0.000000    0.000000   30.000000
   V    Mo   W    S 
   3   3   3  18
Direct configuration=     2
   0.00073249  0.66666155  0.00013778
   0.66555308  0.66507242 -0.00006677
   0.33485239  0.33364869 -0.00016389
   0.33466518 -0.00006298  0.00019663
   0.33336737  0.66799147  0.00002576
   0.66534178  0.33233538 -0.00009090
   0.00155467 -0.00042705  0.00005120
   1.00016416  0.33511170 -0.00012538
   0.66341599 -0.00019052  0.00001969
   0.11481078  0.22397446  0.95186198
   0.22335314  0.11494689  0.04805279
   0.10812643  0.55680580  0.95197963
   0.22361809  0.44148277  0.04793642
   0.10832775  0.88475024  0.95195772
   0.21757355  0.77546389  0.04808459
   0.44192876  0.22468208  0.95199557
   0.55585363  0.11049167  0.04935570
   0.44646864  0.55316132  0.95304056
   0.55329108  0.44650798  0.04697709
   0.44543955  0.88922683  0.95068841
   0.55842835  0.77628904  0.04799060
   0.77826875  0.22163790  0.95072507
   0.88863084  0.11091470  0.04920757
   0.77960548  0.55983748  0.95315861
   0.89149404  0.44853849  0.04810798
   0.77597699  0.88518716  0.95198167
   0.88737148  0.77417512  0.04691380
unknown system                          
           1
     8.486466    4.898032    0.000000
    -8.486869    4.898729    0.000000
     0.000000    0.000000   30.000000
   V    Mo   W    S 
   3   3   3  18
Direct configuration=     3
   0.00100203  0.66665600  0.00015353
   0.66525997  0.66469490 -0.00012622
   0.33513252  0.33366391 -0.00019045
   0.33544691 -0.00009084  0.00021353
   0.33345512  0.66866939  0.00007547
   0.66498713  0.33146723 -0.00014197
   0.00203916 -0.00032828  0.00004892
   1.00010651  0.33542751 -0.00008201
   0.66227844 -0.00008425  0.00002783
   0.11469854  0.22394380  0.95191860
   0.22319690  0.11493452  0.04804596
   0.10794817  0.55663473  0.95193589
   0.22342464  0.44132600  0.04786086
   0.10813966  0.88476200  0.95199175
   0.21741750  0.77537984  0.04815698
   0.44185702  0.22472545  0.95193804
   0.55595777  0.11035189  0.04951427
   0.44650618  0.55312571  0.95307928
   0.55326289  0.44654936  0.04696585
   0.44565371  0.88936588  0.95055096
   0.55859310  0.77648022  0.04798056
   0.77838760  0.22150186  0.95069921
   0.88861805  0.11088859  0.04906109
   0.77965866  0.55991143  0.95324248
   0.89168517  0.44856077  0.04809370
   0.77605074  0.88536568  0.95212969
   0.88745036  0.77433116  0.04685609
unknown system                          
           1
     8.287638    4.779407    0.000000
    -8.286952    4.778216    0.000000
     0.000000    0.000000   30.000000
   V    Mo   W    S 
   3   3   3  18
Direct configuration=     4
   0.00213194  0.66653805  0.00014692
   0.66437143  0.66369990 -0.00031387
   0.33549237  0.33329228 -0.00020936
   0.33891030 -0.00014169  0.00019451
   0.33378871  0.67149563  0.00022770
   0.66384689  0.32736909 -0.00027060
   0.00378028  0.00045965  0.00000891
   0.99956464  0.33604536  0.00011153
   0.65816202  0.00080342  0.00003521
   0.11579836  0.22471477  0.95064271
   0.22403215  0.11610173  0.04948067
   0.10743894  0.55730371  0.95030498
   0.22398389  0.44087332  0.04898110
   0.10773250  0.88371887  0.95066871
   0.21610028  0.77481714  0.04988668
   0.44113574  0.22509727  0.95029038
   0.55591115  0.11036803  0.05181811
   0.44688581  0.55269680  0.95192778
   0.55284118  0.44700378  0.04820698
   0.44548649  0.88940524  0.94837095
   0.55922469  0.77604637  0.04938909
   0.77847645  0.22128784  0.94896424
   0.88839720  0.11071978  0.05006991
   0.78023561  0.56082153  0.95228570
   0.89212448  0.44974102  0.04949811
   0.77550961  0.88469873  0.95128136
   0.88685137  0.77323685  0.04800148
unknown system                          
           1
     8.296425    4.779139    0.000000
    -8.295545    4.777614    0.000000
     0.000000    0.000000   30.000000
   V    Mo   W    S 
   3   3   3  18
Direct configuration=     5
   0.00413962  0.66632185  0.00000539
   0.66318567  0.66212274 -0.00051834
   0.33521761  0.33198934 -0.00006961
   0.34561018 -0.00001980  0.00010016
   0.33444101  0.67694365  0.00038603
   0.66177867  0.31926072 -0.00032946
   0.00778094  0.00177799 -0.00006488
   0.99846549  0.33722355  0.00037913
   0.65032060  0.00272503  0.00001092
   0.11738303  0.22609721  0.94894822
   0.22570030  0.11712742  0.05129676
   0.10731030  0.55834685  0.94829248
   0.22509630  0.44140416  0.05025231
   0.10834405  0.88301180  0.94907190
   0.21521115  0.77502699  0.05235180
   0.44068585  0.22490571  0.94804441
   0.55528304  0.11053354  0.05528996
   0.44676621  0.55257559  0.95031158
   0.55267832  0.44690256  0.04979243
   0.44479924  0.88922169  0.94526566
   0.55953477  0.77594819  0.05114892
   0.77828471  0.22072081  0.94656450
   0.88724356  0.11009621  0.05105402
   0.78042884  0.56054380  0.95108408
   0.89167187  0.45085565  0.05131519
   0.77459328  0.88451625  0.95051099
   0.88625980  0.77203495  0.04950537
unknown system                          
           1
     8.288452    4.773427    0.000000
    -8.288794    4.774023    0.000000
     0.000000    0.000000   30.000000
   V    Mo   W    S 
   3   3   3  18
Direct configuration=     6
   0.00469118  0.66636099  0.00006127
   0.66281579  0.66142210 -0.00056383
   0.33486814  0.33141735 -0.00008983
   0.34576967  0.00015250  0.00015495
   0.33436805  0.67786144  0.00036097
   0.66164457  0.31813149 -0.00024302
   0.00962745  0.00183362 -0.00007497
   0.99794332  0.33774429  0.00037872
   0.64940402  0.00298015 -0.00003070
   0.11751686  0.22651175  0.94895904
   0.22631602  0.11685451  0.05139493
   0.10753821  0.55847002  0.94822386
   0.22531298  0.44234313  0.05013118
   0.10930867  0.88348770  0.94901248
   0.21574264  0.77576271  0.05251631
   0.44111314  0.22438868  0.94796635
   0.55488648  0.11047136  0.05578037
   0.44624930  0.55274138  0.95035756
   0.55288112  0.44636752  0.04977777
   0.44457655  0.88911363  0.94485943
   0.55939015  0.77672135  0.05111957
   0.77810628  0.22017579  0.94635864
   0.88628121  0.10949800  0.05070777
   0.77995998  0.55919700  0.95117985
   0.89102967  0.45054754  0.05134110
   0.77438153  0.88551898  0.95090118
   0.88649148  0.77213947  0.04945896
unknown system                          
           1
     8.294347    4.775920    0.000000
    -8.294870    4.776831    0.000000
     0.000000    0.000000   30.000000
   V    Mo   W    S 
   3   3   3  18
Direct configuration=     7
   0.00546840  0.66652326  0.00011621
   0.66214045  0.66035665 -0.00064288
   0.33468313  0.33069052 -0.00012692
   0.34633796  0.00026679  0.00015276
   0.33447011  0.67937937  0.00033513
   0.66142897  0.31631490 -0.00018478
   0.01222019  0.00179566 -0.00010880
   0.99716595  0.33850355  0.00039562
   0.64729102  0.00340504 -0.00005141
   0.11769782  0.22690750  0.94895514
   0.22693289  0.11691348  0.05166070
   0.10759045  0.55864305  0.94806278
   0.22545532  0.44303889  0.05000824
   0.10996062  0.88368132  0.94882079
   0.21600195  0.77623406  0.05277542
   0.44144609  0.22409551  0.94782508
   0.55455762  0.11029328  0.05626570
   0.44577706  0.55281189  0.95038200
   0.55296369  0.44597269  0.04981860
   0.44433791  0.88917444  0.94446876
   0.55928053  0.77725314  0.05113631
   0.77801612  0.21980081  0.94610363
   0.88566180  0.10895531  0.05032007
   0.77964440  0.55818838  0.95128056
   0.89059190  0.45045657  0.05146717
   0.77437346  0.88638649  0.95131542
   0.88671863  0.77217189  0.04944859
unknown system                          
           1
     8.297797    4.776407    0.000000
    -8.298502    4.777634    0.000000
     0.000000    0.000000   30.000000
   V    Mo   W    S 
   3   3   3  18
Direct configuration=     8
   0.00568181  0.66663665  0.00014276
   0.66185480  0.65993526 -0.00067347
   0.33471981  0.33046684 -0.00013437
   0.34611274  0.00029556  0.00017124
   0.33447461  0.67968933  0.00033550
   0.66147482  0.31610651 -0.00016132
   0.01310233  0.00163845 -0.00011533
   0.99690074  0.33882984  0.00040007
   0.64690493  0.00343084 -0.00006828
   0.11768337  0.22693908  0.94902916
   0.22707144  0.11698425  0.05171334
   0.10757926  0.55866066  0.94806951
   0.22543720  0.44318874  0.04989938
   0.11007990  0.88366480  0.94877022
   0.21606580  0.77632925  0.05277609
   0.44155785  0.22406438  0.94784670
   0.55444433  0.11023739  0.05630528
   0.44563344  0.55281247  0.95044625
   0.55297039  0.44589421  0.04978339
   0.44427340  0.88921463  0.94443760
   0.55925208  0.77740031  0.05107666
   0.77800269  0.21969743  0.94610290
   0.88557845  0.10879974  0.05012087
   0.77957911  0.55795663  0.95136649
   0.89049490  0.45044837  0.05145945
   0.77446654  0.88666174  0.95150940
   0.88681771  0.77223112  0.04939041
unknown system                          
           1
     8.300448    4.776662    0.000000
    -8.301550    4.778577    0.000000
     0.000000    0.000000   30.000000
   V    Mo   W    S 
   3   3   3  18
Direct configuration=     9
   0.00601007  0.66674035  0.00017168
   0.66150173  0.65939543 -0.00071533
   0.33468309  0.33013987 -0.00013657
   0.34615386  0.00036069  0.00019369
   0.33449191  0.68027318  0.00034041
   0.66142557  0.31548878 -0.00013126
   0.01430274  0.00157493 -0.00012515
   0.99655809  0.33921364  0.00041645
   0.64616859  0.00356057 -0.00009166
   0.11776063  0.22707330  0.94902709
   0.22733583  0.11708304  0.05184732
   0.10757840  0.55873163  0.94798279
   0.22548882  0.44343690  0.04983674
   0.11030853  0.88366757  0.94864838
   0.21613573  0.77649814  0.05289158
   0.44168643  0.22398318  0.94777028
   0.55426989  0.11018478  0.05652905
   0.44544386  0.55281097  0.95044797
   0.55298012  0.44576004  0.04980909
   0.44416500  0.88923933  0.94424178
   0.55922605  0.77760709  0.05109196
   0.77796519  0.21952323  0.94598316
   0.88536109  0.10856711  0.04994287
   0.77947629  0.55758658  0.95140885
   0.89032436  0.45045405  0.05152932
   0.77450149  0.88701518  0.95169756
   0.88691109  0.77224489  0.04939185
unknown system                          
           1
     8.292305    4.772640    0.000000
    -8.293254    4.774291    0.000000
     0.000000    0.000000   30.000000
   V    Mo   W    S 
   3   3   3  18
Direct configuration=    10
   0.00652478  0.66701379  0.00021333
   0.66079901  0.65845154 -0.00078688
   0.33489945  0.32963788 -0.00016173
   0.34577929  0.00038044  0.00020730
   0.33455498  0.68102686  0.00033659
   0.66149913  0.31497139 -0.00009392
   0.01615656  0.00114307 -0.00014560
   0.99594916  0.34001384  0.00042037
   0.64515886  0.00361348 -0.00011588
   0.11771987  0.22710153  0.94917607
   0.22762469  0.11728555  0.05201657
   0.10754733  0.55879702  0.94796799
   0.22544795  0.44369865  0.04963384
   0.11049076  0.88353261  0.94849211
   0.21621443  0.77662239  0.05293928
   0.44188387  0.22396609  0.94777496
   0.55406074  0.11006503  0.05663444
   0.44515491  0.55281465  0.95054741
   0.55298141  0.44566059  0.04979037
   0.44399934  0.88932497  0.94416286
   0.55917110  0.77785214  0.05099357
   0.77794713  0.21935599  0.94595464
   0.88527607  0.10826789  0.04953562
   0.77939871  0.55724843  0.95155650
   0.89016097  0.45051281  0.05156004
   0.77472021  0.88751172  0.95208562
   0.88709373  0.77234411  0.04930444
unknown system                          
           1
     8.305803    4.778447    0.000000
    -8.307310    4.781066    0.000000
     0.000000    0.000000   30.000000
   V    Mo   W    S 
   3   3   3  18
Direct configuration=    11
   0.00611533  0.66671133  0.00018502
   0.66134019  0.65917662 -0.00073397
   0.33445303  0.33007281 -0.00015055
   0.34623161  0.00033518  0.00017838
   0.33453952  0.68049536  0.00033026
   0.66144149  0.31515693 -0.00013498
   0.01492561  0.00174981 -0.00014337
   0.99651941  0.33923936  0.00042144
   0.64573272  0.00358285 -0.00010360
   0.11782197  0.22717343  0.94903385
   0.22740245  0.11710066  0.05186259
   0.10757747  0.55872552  0.94799974
   0.22551039  0.44360191  0.04979498
   0.11040339  0.88379960  0.94866745
   0.21621735  0.77658836  0.05290930
   0.44174792  0.22392111  0.94778936
   0.55421689  0.11012216  0.05659523
   0.44537955  0.55283860  0.95049857
   0.55297451  0.44567877  0.04976578
   0.44414724  0.88925161  0.94422410
   0.55917600  0.77774167  0.05105339
   0.77797158  0.21944784  0.94598246
   0.88521030  0.10845746  0.04984769
   0.77938499  0.55734727  0.95146018
   0.89027229  0.45035542  0.05150764
   0.77451362  0.88722944  0.95181057
   0.88698763  0.77231339  0.04934841
unknown system                          
           1
     8.307134    4.778804    0.000000
    -8.308704    4.781533    0.000000
     0.000000    0.000000   30.000000
   V    Mo   W    S 
   3   3   3  18
Direct configuration=    12
   0.00712425  0.66737079  0.00026271
   0.65997204  0.65730614 -0.00086734
   0.33520569  0.32898359 -0.00017960
   0.34539705  0.00050335  0.00023961
   0.33461859  0.68192649  0.00033693
   0.66149242  0.31434151 -0.00003676
   0.01822182  0.00064807 -0.00016114
   0.99521294  0.34093888  0.00042310
   0.64409820  0.00373769 -0.00014215
   0.11769493  0.22713355  0.94931576
   0.22801494  0.11755949  0.05224467
   0.10751126  0.55888832  0.94789803
   0.22542667  0.44396732  0.04943036
   0.11072176  0.88331874  0.94826019
   0.21627137  0.77676589  0.05304027
   0.44210415  0.22396096  0.94773467
   0.55380376  0.10995887  0.05680106
   0.44481315  0.55278206  0.95061256
   0.55298021  0.44555026  0.04980935
   0.44378157  0.88941411  0.94400000
   0.55914178  0.77811541  0.05093039
   0.77791016  0.21915357  0.94586924
   0.88519210  0.10791148  0.04909924
   0.77931568  0.55687367  0.95169004
   0.88994086  0.45062124  0.05164185
   0.77497104  0.88805238  0.95250553
   0.88727605  0.77243066  0.04924134
unknown system                          
           1
     8.293514    4.775859    0.000000
    -8.290559    4.770724    0.000000
     0.000000    0.000000   30.000000
   V    Mo   W    S 
   3   3   3  18
Direct configuration=    13
   0.00730218  0.66748612  0.00027505
   0.65972198  0.65694129 -0.00089242
   0.33531693  0.32878151 -0.00018221
   0.34529191  0.00053176  0.00024736
   0.33463985  0.68219628  0.00033593
   0.66147306  0.31418287 -0.00001708
   0.01872789  0.00052094 -0.00016504
   0.99499612  0.34118643  0.00041970
   0.64383978  0.00377464 -0.00015396
   0.11768405  0.22713413  0.94935289
   0.22814057  0.11764322  0.05231227
   0.10750031  0.55891109  0.94787515
   0.22541703  0.44404455  0.04937180
   0.11080341  0.88325329  0.94819386
   0.21629097  0.77681504  0.05307277
   0.44217064  0.22395840  0.94771727
   0.55372879  0.10993358  0.05685340
   0.44471743  0.55276945  0.95062732
   0.55298413  0.44552650  0.04982023
   0.44371733  0.88944134  0.94395297
   0.55913853  0.77819118  0.05091222
   0.77789852  0.21909668  0.94584201
   0.88518610  0.10781668  0.04897725
   0.77928498  0.55676822  0.95172808
   0.88986811  0.45065218  0.05167061
   0.77504972  0.88819142  0.95263047
   0.88732414  0.77246566  0.04922197
unknown system                          
           1
     8.291791    4.774762    0.000000
    -8.288300    4.768695    0.000000
     0.000000    0.000000   30.000000
   V    Mo   W    S 
   3   3   3  18
Direct configuration=    14
   0.00594308  0.66625680  0.00017367
   0.66238131  0.66070988 -0.00065050
   0.33364853  0.33101880 -0.00019274
   0.34602666 -0.00024451  0.00016838
   0.33404568  0.67968691  0.00033609
   0.66157525  0.31564062 -0.00021414
   0.01430531  0.00175975 -0.00013904
   0.99777649  0.33903339  0.00046740
   0.64591588  0.00297281 -0.00008709
   0.11797792  0.22728801  0.94887253
   0.22716249  0.11705142  0.05172204
   0.10748411  0.55876848  0.94809774
   0.22572332  0.44353212  0.05005120
   0.11000728  0.88381557  0.94882422
   0.21587238  0.77624137  0.05276387
   0.44146875  0.22401157  0.94790627
   0.55439150  0.11025004  0.05652906
   0.44565515  0.55285351  0.95048360
   0.55289047  0.44562648  0.04965680
   0.44425715  0.88914173  0.94427967
   0.55916259  0.77751160  0.05116908
   0.77806360  0.21948016  0.94604999
   0.88499410  0.10860099  0.05017491
   0.77968250  0.55771098  0.95142263
   0.89062865  0.45042166  0.05136025
   0.77423722  0.88707493  0.95139636
   0.88693706  0.77199941  0.04937764
unknown system                          
           1
     8.301492    4.779538    0.000000
    -8.295875    4.769776    0.000000
     0.000000    0.000000   30.000000
   V    Mo   W    S 
   3   3   3  18
Direct configuration=    15
   0.00549062  0.66579042  0.00014987
   0.66338223  0.66214041 -0.00057809
   0.33268974  0.33193035 -0.00020975
   0.34642071 -0.00044527  0.00015839
   0.33379021  0.67874250  0.00032075
   0.66160760  0.31585530 -0.00029241
   0.01293236  0.00221208 -0.00008310
   0.99906276  0.33845785  0.00048407
   0.64634447  0.00260884 -0.00004291
   0.11804538  0.22733028  0.94868472
   0.22690726  0.11688169  0.05153554
   0.10747790  0.55871160  0.94812296
   0.22585738  0.44346622  0.05034325
   0.10980840  0.88395754  0.94896508
   0.21569946  0.77603927  0.05272004
   0.44124600  0.22401382  0.94801179
   0.55451544  0.11030014  0.05641886
   0.44598704  0.55298490  0.95044230
   0.55286987  0.44564932  0.04954939
   0.44432164  0.88898520  0.94434091
   0.55908386  0.77729792  0.05126060
   0.77817829  0.21954354  0.94615586
   0.88487889  0.10873795  0.05047732
   0.77979860  0.55795033  0.95134774
   0.89085002  0.45030161  0.05126846
   0.77408823  0.88688722  0.95102864
   0.88688009  0.77188341  0.04941962
unknown system                          
           1
     8.301593    4.777974    0.000000
    -8.295816    4.767940    0.000000
     0.000000    0.000000   30.000000
   V    Mo   W    S 
   3   3   3  18
Direct configuration=    16
   0.00524788  0.66568944  0.00010120
   0.66447571  0.66348112 -0.00057793
   0.33059832  0.33355350 -0.00019370
   0.34725545 -0.00087719  0.00010117
   0.33330555  0.67799722  0.00028187
   0.66139528  0.31485925 -0.00029178
   0.01200820  0.00208090 -0.00001087
   1.00171750  0.33931560  0.00040726
   0.64528222  0.00164084 -0.00010121
   0.11780965  0.22715328  0.94842183
   0.22727655  0.11700014  0.05137479
   0.10738914  0.55848181  0.94799985
   0.22607874  0.44387732  0.05086417
   0.11000909  0.88410908  0.94905060
   0.21564100  0.77594563  0.05278884
   0.44108354  0.22382771  0.94829670
   0.55428244  0.11023472  0.05646643
   0.44645023  0.55359747  0.95039466
   0.55313015  0.44593875  0.04916000
   0.44390987  0.88866379  0.94427643
   0.55881103  0.77716601  0.05130013
   0.77852015  0.21909008  0.94637078
   0.88473097  0.10841505  0.05029057
   0.77961867  0.55781132  0.95149957
   0.89084743  0.44990872  0.05124860
   0.77437080  0.88726729  0.95109627
   0.88696890  0.77198561  0.04938368
unknown system                          
           1
     8.309027    4.780994    0.000000
    -8.301789    4.768424    0.000000
     0.000000    0.000000   30.000000
   V    Mo   W    S 
   3   3   3  18
Direct configuration=    17
   0.00466324  0.66523084  0.00010305
   0.66601687  0.66547754 -0.00048343
   0.32779462  0.33550718 -0.00021211
   0.34840794 -0.00119378  0.00013798
   0.33244415  0.67619298  0.00026974
   0.66139928  0.31418542 -0.00038959
   0.01051593  0.00275570  0.00015065
   1.00492266  0.33951101  0.00043084
   0.64490256  0.00086109  0.00001894
   0.11785734  0.22716553  0.94807801
   0.22720027  0.11690751  0.05100475
   0.10736853  0.55834711  0.94791198
   0.22628973  0.44408977  0.05147044
   0.10999790  0.88442284  0.94922438
   0.21552893  0.77579165  0.05277419
   0.44078951  0.22372836  0.94860158
   0.55427031  0.11005295  0.05639390
   0.44696086  0.55406200  0.95029740
   0.55323089  0.44607089  0.04884341
   0.44369867  0.88820728  0.94420876
   0.55854320  0.77697359  0.05138839
   0.77883478  0.21889202  0.94661557
   0.88446663  0.10843154  0.05039020
   0.77954106  0.55767685  0.95149657
   0.89112259  0.44944800  0.05108807
   0.77438479  0.88740180  0.95075738
   0.88706122  0.77201678  0.04942885
unknown system                          
           1
     8.301431    4.778573    0.000000
    -8.295129    4.767624    0.000000
     0.000000    0.000000   30.000000
   V    Mo   W    S 
   3   3   3  18
Direct configuration=    18
   0.00516553  0.66570250  0.00014254
   0.66549799  0.66457358 -0.00053993
   0.32702846  0.33567974 -0.00022445
   0.34860697 -0.00121191  0.00012690
   0.33189875  0.67614288  0.00024553
   0.66140518  0.31306399 -0.00034094
   0.01218018  0.00241451  0.00016008
   1.00556983  0.34125506  0.00039514
   0.64336784  0.00063459 -0.00003646
   0.11778462  0.22710829  0.94816509
   0.22777426  0.11735991  0.05106406
   0.10728710  0.55836244  0.94777817
   0.22623181  0.44440931  0.05148669
   0.11033793  0.88433659  0.94907569
   0.21569698  0.77599444  0.05286643
   0.44085828  0.22371742  0.94873015
   0.55404096  0.10981523  0.05661841
   0.44664752  0.55411037  0.95030536
   0.55320776  0.44602350  0.04875116
   0.44337450  0.88804505  0.94407117
   0.55841477  0.77720676  0.05129891
   0.77899821  0.21852920  0.94665800
   0.88442906  0.10824598  0.04982066
   0.77929889  0.55705256  0.95165592
   0.89100908  0.44935434  0.05113604
   0.77472523  0.88799144  0.95118730
   0.88737676  0.77229667  0.04940228
unknown system                          
           1
     8.295875    4.777741    0.000000
    -8.291891    4.770809    0.000000
     0.000000    0.000000   30.000000
   V    Mo   W    S 
   3   3   3  18
Direct configuration=    19
   0.00477731  0.66525418  0.00008664
   0.66553599  0.66485947 -0.00052404
   0.32853401  0.33455485 -0.00019366
   0.34832560 -0.00094403  0.00012423
   0.33279885  0.67691454  0.00025794
   0.66136715  0.31421225 -0.00036007
   0.01085494  0.00306609  0.00009506
   1.00375206  0.33911773  0.00041729
   0.64502108  0.00129420 -0.00003799
   0.11783472  0.22710901  0.94818732
   0.22723017  0.11688159  0.05110090
   0.10740686  0.55827996  0.94796037
   0.22619728  0.44405707  0.05122857
   0.11011650  0.88436811  0.94918850
   0.21564940  0.77593181  0.05281138
   0.44087902  0.22369461  0.94848302
   0.55425218  0.11010356  0.05645342
   0.44673232  0.55393505  0.95033126
   0.55321245  0.44602809  0.04895120
   0.44376646  0.88836059  0.94421736
   0.55862836  0.77712167  0.05135936
   0.77873058  0.21891527  0.94652909
   0.88458277  0.10841061  0.05037051
   0.77949904  0.55760732  0.95148254
   0.89099460  0.44950842  0.05116143
   0.77445823  0.88744943  0.95089508
   0.88707651  0.77212298  0.04942317
unknown system                          
           1
     8.292460    4.774223    0.000000
    -8.290203    4.770291    0.000000
     0.000000    0.000000   30.000000
   V    Mo   W    S 
   3   3   3  18
Direct configuration=    20
   0.00419632  0.66443717  0.00004342
   0.66532891  0.66469157 -0.00049931
   0.32992959  0.33215685 -0.00009313
   0.34853412 -0.00035664  0.00013509
   0.33415879  0.67871329  0.00029874
   0.66125964  0.31521257 -0.00030761
   0.00949551  0.00510038 -0.00002587
   1.00100270  0.33569087  0.00046571
   0.64689106  0.00247909 -0.00002768
   0.11801053  0.22719271  0.94810504
   0.22677222  0.11629538  0.05118570
   0.10758074  0.55793339  0.94820641
   0.22613318  0.44380544  0.05072918
   0.11012756  0.88459238  0.94945065
   0.21577546  0.77611297  0.05276405
   0.44107727  0.22356554  0.94810765
   0.55446625  0.11041024  0.05640704
   0.44661284  0.55370291  0.95041035
   0.55329918  0.44601939  0.04915697
   0.44419776  0.88880590  0.94425996
   0.55889963  0.77735055  0.05135791
   0.77842715  0.21926814  0.94625566
   0.88456509  0.10842267  0.05104140
   0.77953403  0.55782926  0.95129860
   0.89083593  0.44941088  0.05120925
   0.77423283  0.88717240  0.95069878
   0.88687017  0.77219910  0.04936593
unknown system                          
           1
     8.297841    4.776811    0.000000
    -8.294794    4.771510    0.000000
     0.000000    0.000000   30.000000
   V    Mo   W    S 
   3   3   3  18
Direct configuration=    21
   0.00436536  0.66425554  0.00006662
   0.66453812  0.66318559 -0.00057109
   0.32992888  0.33084186 -0.00010819
   0.34876264 -0.00012230  0.00013871
   0.33461862  0.68027491  0.00024519
   0.66134072  0.31470462 -0.00026481
   0.01080066  0.00609234 -0.00008042
   0.99965887  0.33508054  0.00042637
   0.64645892  0.00294906 -0.00008252
   0.11815943  0.22738876  0.94810554
   0.22706139  0.11645481  0.05132451
   0.10759882  0.55782147  0.94827006
   0.22608086  0.44408657  0.05041785
   0.11034369  0.88464954  0.94952528
   0.21592006  0.77644924  0.05279994
   0.44137977  0.22355292  0.94809246
   0.55434811  0.11032120  0.05658863
   0.44616990  0.55355712  0.95055927
   0.55326829  0.44587667  0.04916664
   0.44413244  0.88896642  0.94414969
   0.55891124  0.77773295  0.05124038
   0.77836255  0.21916015  0.94617444
   0.88436722  0.10815685  0.05084916
   0.77937682  0.55731734  0.95141944
   0.89067486  0.44921813  0.05125225
   0.77440928  0.88764135  0.95108132
   0.88717692  0.77260080  0.04921315
unknown system                          
           1
     8.304073    4.780093    0.000000
    -8.302333    4.777058    0.000000
     0.000000    0.000000   30.000000
   V    Mo   W    S 
   3   3   3  18
Direct configuration=    22
   0.00453414  0.66447820  0.00008947
   0.66459560  0.66318396 -0.00057070
   0.32939745  0.33158678 -0.00012854
   0.34867483 -0.00033022  0.00014368
   0.33417096  0.67971472  0.00024834
   0.66142359  0.31440173 -0.00026007
   0.01130624  0.00554174 -0.00004738
   1.00054271  0.33612603  0.00041968
   0.64584075  0.00258218 -0.00007638
   0.11811531  0.22737807  0.94810193
   0.22724560  0.11666482  0.05131481
   0.10753769  0.55793133  0.94817904
   0.22610993  0.44419533  0.05057450
   0.11035158  0.88458227  0.94943887
   0.21587947  0.77640222  0.05282258
   0.44131726  0.22359010  0.94819641
   0.55428114  0.11022642  0.05662010
   0.44620015  0.55364144  0.95052123
   0.55324412  0.44587473  0.04910396
   0.44399062  0.88883643  0.94410479
   0.55882604  0.77767183  0.05123921
   0.77846928  0.21903282  0.94623181
   0.88434364  0.10812979  0.05064621
   0.77936371  0.55721726  0.95146536
   0.89072465  0.44923252  0.05124369
   0.77447875  0.88774566  0.95114561
   0.88724925  0.77257630  0.04923169
unknown system                          
           1
     8.303381    4.778591    0.000000
    -8.301662    4.775596    0.000000
     0.000000    0.000000   30.000000
   V    Mo   W    S 
   3   3   3  18
Direct configuration=    23
   0.00464477  0.66425999  0.00012716
   0.66393671  0.66189395 -0.00060794
   0.32953179  0.33052839 -0.00011736
   0.34852217 -0.00023109  0.00017965
   0.33456660  0.68094913  0.00025772
   0.66166177  0.31432746 -0.00017700
   0.01246169  0.00631786 -0.00010249
   0.99928770  0.33547420  0.00041891
   0.64567078  0.00299937 -0.00008529
   0.11824053  0.22755716  0.94805933
   0.22746659  0.11680372  0.05149113
   0.10754759  0.55791403  0.94820533
   0.22608903  0.44441911  0.05030627
   0.11045271  0.88456637  0.94944837
   0.21593404  0.77662671  0.05286415
   0.44153667  0.22359723  0.94811175
   0.55421697  0.11021145  0.05674599
   0.44587608  0.55353841  0.95059438
   0.55321168  0.44574780  0.04917003
   0.44398235  0.88904890  0.94396501
   0.55886532  0.77791933  0.05116450
   0.77838869  0.21899081  0.94607973
   0.88418417  0.10789882  0.05057675
   0.77932651  0.55692157  0.95149506
   0.89061672  0.44914508  0.05130198
   0.77456397  0.88800387  0.95139400
   0.88743087  0.77278485  0.04913275
unknown system                          
           1
     8.302908    4.777822    0.000000
    -8.301848    4.775971    0.000000
     0.000000    0.000000   30.000000
   V    Mo   W    S 
   3   3   3  18
Direct configuration=    24
   0.00487203  0.66445334  0.00017462
   0.66350617  0.66102243 -0.00064173
   0.32903986  0.33072857 -0.00015035
   0.34837670 -0.00033803  0.00018268
   0.33438866  0.68110335  0.00023682
   0.66182221  0.31391854 -0.00016860
   0.01389085  0.00612581 -0.00010637
   0.99955564  0.33627586  0.00039157
   0.64474853  0.00285644 -0.00012500
   0.11823343  0.22759732  0.94810492
   0.22774037  0.11712239  0.05155680
   0.10749825  0.55801622  0.94816642
   0.22608115  0.44461400  0.05029655
   0.11050066  0.88447648  0.94935881
   0.21592339  0.77666486  0.05289227
   0.44162907  0.22365075  0.94823760
   0.55409064  0.11008227  0.05679405
   0.44573620  0.55356676  0.95062856
   0.55316343  0.44568776  0.04912869
   0.44385492  0.88906730  0.94393362