   27   27  100    1
  0.9710400E+02  0.1002848E-08  0.1002848E-08  0.3000000E-08  0.5000000E-15
  1.000000000000000E-004
  CAR 
 unknown system                          
    159     34    120
 
  0.0000000E+00  0.0000000E+00  0.0000000E+00  0.1562500E-01
    1      -17.828487   1.000000
    2      -16.774361   1.000000
    3      -16.679591   1.000000
    4      -16.577976   1.000000
    5      -16.499219   1.000000
    6      -16.446205   1.000000
    7      -16.410093   1.000000
    8      -16.390419   1.000000
    9      -16.228983   1.000000
   10      -16.179946   1.000000
   11      -16.037714   1.000000
   12      -15.961456   1.000000
   13      -15.918956   1.000000
   14      -15.602368   1.000000
   15      -15.542804   1.000000
   16      -15.518552   1.000000
   17      -15.261884   1.000000
   18      -15.188074   1.000000
   19       -9.388028   1.000000
   20       -9.103143   1.000000
   21       -8.986297   1.000000
   22       -8.856375   1.000000
   23       -8.827744   1.000000
   24       -8.735229   1.000000
   25       -8.656141   1.000000
   26       -8.553975   1.000000
   27       -8.534487   1.000000
   28       -8.472454   1.000000
   29       -8.390703   1.000000
   30       -8.296599   1.000000
   31       -8.268434   1.000000
   32       -8.145428   1.000000
   33       -8.110815   1.000000
   34       -8.088617   1.000000
   35       -7.752433   1.000000
   36       -7.728642   1.000000
   37       -7.679173   1.000000
   38       -7.577807   1.000000
   39       -7.522173   1.000000
   40       -7.371924   1.000000
   41       -7.262916   1.000000
   42       -7.202041   1.000000
   43       -7.059442   1.000000
   44       -7.005713   1.000000
   45       -6.891029   1.000000
   46       -6.843450   1.000000
   47       -6.671440   1.000000
   48       -6.653248   1.000000
   49       -6.581967   1.000000
   50       -6.531399   1.000000
   51       -6.514081   1.000000
   52       -6.304807   1.000000
   53       -6.269457   1.000000
   54       -6.192764   1.000000
   55       -6.123680   1.000000
   56       -6.058409   1.000000
   57       -5.990752   1.000000
   58       -5.903682   1.000000
   59       -5.863359   1.000000
   60       -5.720413   1.000000
   61       -5.585881   1.000000
   62       -5.370892   1.000000
   63       -5.279202   1.000000
   64       -5.070344   1.000000
   65       -4.993368   1.000000
   66       -4.971884   1.000000
   67       -4.893836   1.000000
   68       -4.818150   1.000000
   69       -4.789245   1.000000
   70       -4.661248   1.000000
   71       -4.651404   1.000000
   72       -4.621737   1.000000
   73       -4.495696   1.000000
   74       -4.362861   1.000000
   75       -4.302097   1.000000
   76       -4.087361   1.000000
   77       -3.771545   0.999831
   78       -3.623520   0.994421
   79       -3.429310   0.877883
   80       -3.301330   0.602380
   81       -3.156010   0.221227
   82       -2.921964   0.007696
   83       -2.762278   0.000191
   84       -2.664951   0.000011
   85       -2.571895   0.000000
   86       -2.447793   0.000000
   87       -2.311698   0.000000
   88       -2.287249   0.000000
   89       -2.202133   0.000000
   90       -2.012082   0.000000
   91       -1.968428   0.000000
   92       -1.559659   0.000000
   93       -1.333299   0.000000
   94       -1.212947   0.000000
   95       -1.101668   0.000000
   96       -1.069753   0.000000
   97       -0.929360   0.000000
   98       -0.869137   0.000000
   99       -0.790187   0.000000
  100       -0.671736   0.000000
  101       -0.610164   0.000000
  102       -0.558708   0.000000
  103       -0.421730   0.000000
  104       -0.302699   0.000000
  105       -0.116962   0.000000
  106       -0.091308   0.000000
  107       -0.055097   0.000000
  108       -0.014816   0.000000
  109        0.096942   0.000000
  110        0.271572   0.000000
  111        0.395691   0.000000
  112        0.542028   0.000000
  113        0.636597   0.000000
  114        0.854236   0.000000
  115        0.896148   0.000000
  116        0.981538   0.000000
  117        1.135717   0.000000
  118        1.644386   0.000000
  119        1.842423   0.000000
  120        2.166591   0.000000
 
  0.1250000E+00  0.2775558E-16  0.0000000E+00  0.3125000E-01
    1      -17.802934   1.000000
    2      -16.821697   1.000000
    3      -16.756952   1.000000
    4      -16.582051   1.000000
    5      -16.502387   1.000000
    6      -16.427528   1.000000
    7      -16.391952   1.000000
    8      -16.346145   1.000000
    9      -16.340873   1.000000
   10      -16.060062   1.000000
   11      -16.020744   1.000000
   12      -15.974387   1.000000
   13      -15.867363   1.000000
   14      -15.599769   1.000000
   15      -15.546931   1.000000
   16      -15.519182   1.000000
   17      -15.285777   1.000000
   18      -15.188706   1.000000
   19       -9.379647   1.000000
   20       -9.202890   1.000000
   21       -9.100902   1.000000
   22       -9.029049   1.000000
   23       -8.773005   1.000000
   24       -8.714113   1.000000
   25       -8.621928   1.000000
   26       -8.579068   1.000000
   27       -8.547420   1.000000
   28       -8.474515   1.000000
   29       -8.386699   1.000000
   30       -8.281435   1.000000
   31       -8.172647   1.000000
   32       -8.112651   1.000000
   33       -7.974491   1.000000
   34       -7.899510   1.000000
   35       -7.838698   1.000000
   36       -7.732038   1.000000
   37       -7.685900   1.000000
   38       -7.493330   1.000000
   39       -7.456922   1.000000
   40       -7.377363   1.000000
   41       -7.320423   1.000000
   42       -7.248141   1.000000
   43       -7.100980   1.000000
   44       -6.999459   1.000000
   45       -6.873750   1.000000
   46       -6.841726   1.000000
   47       -6.759603   1.000000
   48       -6.695983   1.000000
   49       -6.548446   1.000000
   50       -6.509758   1.000000
   51       -6.498276   1.000000
   52       -6.294471   1.000000
   53       -6.261746   1.000000
   54       -6.186343   1.000000
   55       -6.115961   1.000000
   56       -6.064954   1.000000
   57       -6.010809   1.000000
   58       -5.893427   1.000000
   59       -5.812663   1.000000
   60       -5.626221   1.000000
   61       -5.560060   1.000000
   62       -5.382117   1.000000
   63       -5.309708   1.000000
   64       -5.267109   1.000000
   65       -5.092211   1.000000
   66       -5.008439   1.000000
   67       -4.969190   1.000000
   68       -4.863866   1.000000
   69       -4.742056   1.000000
   70       -4.667547   1.000000
   71       -4.579465   1.000000
   72       -4.514819   1.000000
   73       -4.410704   1.000000
   74       -4.316769   1.000000
   75       -4.290771   1.000000
   76       -4.030622   1.000000
   77       -3.840980   0.999977
   78       -3.678979   0.998305
   79       -3.508355   0.957592
   80       -3.360665   0.751454
   81       -3.050166   0.064698
   82       -2.918163   0.007145
   83       -2.737435   0.000097
   84       -2.690977   0.000025
   85       -2.564588   0.000000
   86       -2.442871   0.000000
   87       -2.311945   0.000000
   88       -2.252172   0.000000
   89       -2.173583   0.000000
   90       -2.022635   0.000000
   91       -1.959408   0.000000
   92       -1.538576   0.000000
   93       -1.326708   0.000000
   94       -1.209413   0.000000
   95       -1.092692   0.000000
   96       -1.056716   0.000000
   97       -0.938527   0.000000
   98       -0.870886   0.000000
   99       -0.824264   0.000000
  100       -0.702304   0.000000
  101       -0.649269   0.000000
  102       -0.600119   0.000000
  103       -0.486891   0.000000
  104       -0.315885   0.000000
  105       -0.242960   0.000000
  106       -0.204463   0.000000
  107       -0.044474   0.000000
  108        0.060104   0.000000
  109        0.120149   0.000000
  110        0.227570   0.000000
  111        0.366317   0.000000
  112        0.500281   0.000000
  113        0.658452   0.000000
  114        0.885748   0.000000
  115        0.915347   0.000000
  116        1.036283   0.000000
  117        1.197249   0.000000
  118        1.689718   0.000000
  119        1.881024   0.000000
  120        2.202161   0.000000
 
  0.2500000E+00  0.5551115E-16  0.0000000E+00  0.3125000E-01
    1      -17.727365   1.000000
    2      -17.021327   1.000000
    3      -16.750789   1.000000
    4      -16.634089   1.000000
    5      -16.568996   1.000000
    6      -16.463469   1.000000
    7      -16.334474   1.000000
    8      -16.304267   1.000000
    9      -16.277332   1.000000
   10      -16.084948   1.000000
   11      -15.954877   1.000000
   12      -15.912616   1.000000
   13      -15.773229   1.000000
   14      -15.601246   1.000000
   15      -15.553856   1.000000
   16      -15.502981   1.000000
   17      -15.341011   1.000000
   18      -15.200109   1.000000
   19       -9.533758   1.000000
   20       -9.351489   1.000000
   21       -9.195093   1.000000
   22       -9.063178   1.000000
   23       -8.892899   1.000000
   24       -8.706030   1.000000
   25       -8.637672   1.000000
   26       -8.611527   1.000000
   27       -8.485512   1.000000
   28       -8.403418   1.000000
   29       -8.341691   1.000000
   30       -8.287281   1.000000
   31       -8.035805   1.000000
   32       -8.007472   1.000000
   33       -7.938448   1.000000
   34       -7.819529   1.000000
   35       -7.761882   1.000000
   36       -7.624776   1.000000
   37       -7.584254   1.000000
   38       -7.523450   1.000000
   39       -7.428599   1.000000
   40       -7.375297   1.000000
   41       -7.353452   1.000000
   42       -7.201089   1.000000
   43       -7.138312   1.000000
   44       -6.985262   1.000000
   45       -6.913172   1.000000
   46       -6.838368   1.000000
   47       -6.772579   1.000000
   48       -6.706328   1.000000
   49       -6.534142   1.000000
   50       -6.487286   1.000000
   51       -6.405195   1.000000
   52       -6.336307   1.000000
   53       -6.268186   1.000000
   54       -6.175503   1.000000
   55       -6.137895   1.000000
   56       -6.070578   1.000000
   57       -5.890340   1.000000
   58       -5.881618   1.000000
   59       -5.784809   1.000000
   60       -5.683990   1.000000
   61       -5.574901   1.000000
   62       -5.495616   1.000000
   63       -5.446618   1.000000
   64       -5.275543   1.000000
   65       -5.203874   1.000000
   66       -5.166887   1.000000
   67       -5.036230   1.000000
   68       -4.849584   1.000000
   69       -4.756487   1.000000
   70       -4.611026   1.000000
   71       -4.458378   1.000000
   72       -4.415762   1.000000
   73       -4.332135   1.000000
   74       -4.248771   1.000000
   75       -4.168386   1.000000
   76       -4.101689   1.000000
   77       -3.966487   1.000000
   78       -3.810234   0.999943
   79       -3.529043   0.969236
   80       -3.357007   0.743189
   81       -3.002099   0.031701
   82       -2.909977   0.006075
   83       -2.744094   0.000116
   84       -2.646381   0.000006
   85       -2.549539   0.000000
   86       -2.441953   0.000000
   87       -2.319435   0.000000
   88       -2.160123   0.000000
   89       -2.115901   0.000000
   90       -2.039469   0.000000
   91       -1.945211   0.000000
   92       -1.473024   0.000000
   93       -1.308475   0.000000
   94       -1.228128   0.000000
   95       -1.079462   0.000000
   96       -1.050983   0.000000
   97       -0.957279   0.000000
   98       -0.911565   0.000000
   99       -0.873834   0.000000
  100       -0.810684   0.000000
  101       -0.705507   0.000000
  102       -0.665160   0.000000
  103       -0.574305   0.000000
  104       -0.435468   0.000000
  105       -0.391831   0.000000
  106       -0.329005   0.000000
  107       -0.131232   0.000000
  108        0.052480   0.000000
  109        0.103830   0.000000
  110        0.220567   0.000000
  111        0.328492   0.000000
  112        0.410752   0.000000
  113        0.750972   0.000000
  114        0.864080   0.000000
  115        0.972979   0.000000
  116        1.164014   0.000000
  117        1.364586   0.000000
  118        1.815987   0.000000
  119        1.992163   0.000000
  120        2.307664   0.000000
 
  0.3750000E+00  0.0000000E+00  0.0000000E+00  0.3125000E-01
    1      -17.605803   1.000000
    2      -17.233907   1.000000
    3      -16.738058   1.000000
    4      -16.676238   1.000000
    5      -16.613898   1.000000
    6      -16.517430   1.000000
    7      -16.280991   1.000000
    8      -16.262225   1.000000
    9      -16.197500   1.000000
   10      -16.135540   1.000000
   11      -15.899890   1.000000
   12      -15.844559   1.000000
   13      -15.727934   1.000000
   14      -15.636562   1.000000
   15      -15.533334   1.000000
   16      -15.450012   1.000000
   17      -15.398198   1.000000
   18      -15.225606   1.000000
   19       -9.746613   1.000000
   20       -9.445952   1.000000
   21       -9.189473   1.000000
   22       -9.033947   1.000000
   23       -8.969395   1.000000
   24       -8.740691   1.000000
   25       -8.633480   1.000000
   26       -8.595476   1.000000
   27       -8.495558   1.000000
   28       -8.370685   1.000000
   29       -8.314162   1.000000
   30       -8.175280   1.000000
   31       -8.064967   1.000000
   32       -7.963274   1.000000
   33       -7.911872   1.000000
   34       -7.776263   1.000000
   35       -7.735872   1.000000
   36       -7.701917   1.000000
   37       -7.617664   1.000000
   38       -7.529684   1.000000
   39       -7.432083   1.000000
   40       -7.311059   1.000000
   41       -7.179084   1.000000
   42       -7.121668   1.000000
   43       -7.057981   1.000000
   44       -6.985940   1.000000
   45       -6.907949   1.000000
   46       -6.793440   1.000000
   47       -6.735799   1.000000
   48       -6.619629   1.000000
   49       -6.511849   1.000000
   50       -6.399578   1.000000
   51       -6.379344   1.000000
   52       -6.285042   1.000000
   53       -6.242687   1.000000
   54       -6.179284   1.000000
   55       -6.149694   1.000000
   56       -6.081227   1.000000
   57       -6.008995   1.000000
   58       -5.979382   1.000000
   59       -5.880502   1.000000
   60       -5.740097   1.000000
   61       -5.685432   1.000000
   62       -5.534844   1.000000
   63       -5.501216   1.000000
   64       -5.336367   1.000000
   65       -5.193086   1.000000
   66       -5.116708   1.000000
   67       -5.062981   1.000000
   68       -4.814870   1.000000
   69       -4.772621   1.000000
   70       -4.690624   1.000000
   71       -4.449917   1.000000
   72       -4.426776   1.000000
   73       -4.288493   1.000000
   74       -4.271403   1.000000
   75       -4.144169   1.000000
   76       -4.062262   1.000000
   77       -3.952343   0.999999
   78       -3.821734   0.999959
   79       -3.563902   0.982835
   80       -3.293555   0.581031
   81       -3.008308   0.034957
   82       -2.926047   0.008330
   83       -2.729483   0.000077
   84       -2.611001   0.000002
   85       -2.524206   0.000000
   86       -2.454346   0.000000
   87       -2.296943   0.000000
   88       -2.113343   0.000000
   89       -2.048350   0.000000
   90       -2.028086   0.000000
   91       -1.932227   0.000000
   92       -1.426837   0.000000
   93       -1.308281   0.000000
   94       -1.227784   0.000000
   95       -1.104943   0.000000
   96       -1.075680   0.000000
   97       -1.000283   0.000000
   98       -0.956695   0.000000
   99       -0.902729   0.000000
  100       -0.858958   0.000000
  101       -0.783552   0.000000
  102       -0.693925   0.000000
  103       -0.642857   0.000000
  104       -0.564100   0.000000
  105       -0.533554   0.000000
  106       -0.388605   0.000000
  107       -0.244312   0.000000
  108        0.010208   0.000000
  109        0.081251   0.000000
  110        0.226556   0.000000
  111        0.300203   0.000000
  112        0.353178   0.000000
  113        0.765615   0.000000
  114        0.908915   0.000000
  115        1.030143   0.000000
  116        1.275479   0.000000
  117        1.512279   0.000000
  118        2.004714   0.000000
  119        2.167218   0.000000
  120        2.479573   0.000000
 
  0.5000000E+00  0.1110223E-15  0.0000000E+00  0.1562500E-01
    1      -17.475663   1.000000
    2      -17.396562   1.000000
    3      -16.731839   1.000000
    4      -16.692903   1.000000
    5      -16.626586   1.000000
    6      -16.537703   1.000000
    7      -16.258160   1.000000
    8      -16.240495   1.000000
    9      -16.183461   1.000000
   10      -16.147620   1.000000
   11      -15.884160   1.000000
   12      -15.788238   1.000000
   13      -15.731433   1.000000
   14      -15.672945   1.000000
   15      -15.509123   1.000000
   16      -15.453475   1.000000
   17      -15.389628   1.000000
   18      -15.245327   1.000000
   19       -9.824896   1.000000
   20       -9.487154   1.000000
   21       -9.181699   1.000000
   22       -9.064820   1.000000
   23       -8.891010   1.000000
   24       -8.778093   1.000000
   25       -8.684455   1.000000
   26       -8.580956   1.000000
   27       -8.509469   1.000000
   28       -8.381196   1.000000
   29       -8.186638   1.000000
   30       -8.153604   1.000000
   31       -8.053184   1.000000
   32       -8.021439   1.000000
   33       -7.912945   1.000000
   34       -7.802230   1.000000
   35       -7.743616   1.000000
   36       -7.690854   1.000000
   37       -7.617166   1.000000
   38       -7.565029   1.000000
   39       -7.490324   1.000000
   40       -7.366028   1.000000
   41       -7.053419   1.000000
   42       -7.031495   1.000000
   43       -7.008563   1.000000
   44       -6.893493   1.000000
   45       -6.811047   1.000000
   46       -6.701015   1.000000
   47       -6.646562   1.000000
   48       -6.633662   1.000000
   49       -6.557507   1.000000
   50       -6.545234   1.000000
   51       -6.415758   1.000000
   52       -6.313939   1.000000
   53       -6.241374   1.000000
   54       -6.227415   1.000000
   55       -6.158216   1.000000
   56       -6.059093   1.000000
   57       -5.991290   1.000000
   58       -5.926666   1.000000
   59       -5.895352   1.000000
   60       -5.754056   1.000000
   61       -5.670243   1.000000
   62       -5.591644   1.000000
   63       -5.517729   1.000000
   64       -5.427027   1.000000
   65       -5.200535   1.000000
   66       -5.082590   1.000000
   67       -5.050342   1.000000
   68       -4.968077   1.000000
   69       -4.769711   1.000000
   70       -4.562854   1.000000
   71       -4.531040   1.000000
   72       -4.420838   1.000000
   73       -4.344645   1.000000
   74       -4.258992   1.000000
   75       -4.164653   1.000000
   76       -3.972758   1.000000
   77       -3.905460   0.999997
   78       -3.801959   0.999928
   79       -3.617641   0.993723
   80       -3.253065   0.467414
   81       -2.991430   0.026691
   82       -2.962067   0.016200
   83       -2.717464   0.000055
   84       -2.607425   0.000002
   85       -2.509872   0.000000
   86       -2.456568   0.000000
   87       -2.281992   0.000000
   88       -2.094010   0.000000
   89       -2.046090   0.000000
   90       -2.002971   0.000000
   91       -1.922650   0.000000
   92       -1.395564   0.000000
   93       -1.354587   0.000000
   94       -1.199407   0.000000
   95       -1.128567   0.000000
   96       -1.098447   0.000000
   97       -1.004671   0.000000
   98       -0.952570   0.000000
   99       -0.927495   0.000000
  100       -0.895136   0.000000
  101       -0.802827   0.000000
  102       -0.707224   0.000000
  103       -0.663818   0.000000
  104       -0.625222   0.000000
  105       -0.589035   0.000000
  106       -0.402251   0.000000
  107       -0.279749   0.000000
  108       -0.022446   0.000000
  109        0.069965   0.000000
  110        0.231583   0.000000
  111        0.292053   0.000000
  112        0.336958   0.000000
  113        0.755876   0.000000
  114        0.943984   0.000000
  115        1.049010   0.000000
  116        1.317498   0.000000
  117        1.568291   0.000000
  118        2.237886   0.000000
  119        2.250471   0.000000
  120        2.394099   0.000000
 
  0.0000000E+00  0.1250000E+00  0.0000000E+00  0.3125000E-01
    1      -17.803364   1.000000
    2      -16.814203   1.000000
    3      -16.761770   1.000000
    4      -16.583255   1.000000
    5      -16.510686   1.000000
    6      -16.428692   1.000000
    7      -16.382842   1.000000
    8      -16.351909   1.000000
    9      -16.335063   1.000000
   10      -16.048404   1.000000
   11      -16.024738   1.000000
   12      -15.983380   1.000000
   13      -15.866603   1.000000
   14      -15.600702   1.000000
   15      -15.547001   1.000000
   16      -15.518446   1.000000
   17      -15.285835   1.000000
   18      -15.188760   1.000000
   19       -9.383243   1.000000
   20       -9.204388   1.000000
   21       -9.085624   1.000000
   22       -9.049318   1.000000
   23       -8.773660   1.000000
   24       -8.685567   1.000000
   25       -8.623917   1.000000
   26       -8.585614   1.000000
   27       -8.509046   1.000000
   28       -8.483285   1.000000
   29       -8.419737   1.000000
   30       -8.280257   1.000000
   31       -8.172480   1.000000
   32       -8.127720   1.000000
   33       -7.963966   1.000000
   34       -7.901884   1.000000
   35       -7.844756   1.000000
   36       -7.732717   1.000000
   37       -7.671958   1.000000
   38       -7.526868   1.000000
   39       -7.439107   1.000000
   40       -7.383031   1.000000
   41       -7.310408   1.000000
   42       -7.247775   1.000000
   43       -7.095243   1.000000
   44       -7.012199   1.000000
   45       -6.864477   1.000000
   46       -6.815568   1.000000
   47       -6.747121   1.000000
   48       -6.711985   1.000000
   49       -6.554632   1.000000
   50       -6.510971   1.000000
   51       -6.491890   1.000000
   52       -6.330439   1.000000
   53       -6.244106   1.000000
   54       -6.213193   1.000000
   55       -6.105783   1.000000
   56       -6.085477   1.000000
   57       -5.972684   1.000000
   58       -5.894850   1.000000
   59       -5.809091   1.000000
   60       -5.642008   1.000000
   61       -5.560503   1.000000
   62       -5.384258   1.000000
   63       -5.324575   1.000000
   64       -5.248596   1.000000
   65       -5.086369   1.000000
   66       -5.018759   1.000000
   67       -4.951399   1.000000
   68       -4.868693   1.000000
   69       -4.740613   1.000000
   70       -4.637626   1.000000
   71       -4.597601   1.000000
   72       -4.513601   1.000000
   73       -4.425119   1.000000
   74       -4.323585   1.000000
   75       -4.286025   1.000000
   76       -4.031579   1.000000
   77       -3.827659   0.999966
   78       -3.698515   0.998923
   79       -3.475793   0.932302
   80       -3.400582   0.831807
   81       -3.035084   0.052280
   82       -2.914654   0.006667
   83       -2.733044   0.000085
   84       -2.695897   0.000029
   85       -2.562057   0.000000
   86       -2.444781   0.000000
   87       -2.312539   0.000000
   88       -2.254088   0.000000
   89       -2.177463   0.000000
   90       -2.024371   0.000000
   91       -1.940586   0.000000
   92       -1.549911   0.000000
   93       -1.325681   0.000000
   94       -1.193131   0.000000
   95       -1.106936   0.000000
   96       -1.051833   0.000000
   97       -0.928441   0.000000
   98       -0.883521   0.000000
   99       -0.833603   0.000000
  100       -0.706005   0.000000
  101       -0.665356   0.000000
  102       -0.594573   0.000000
  103       -0.495182   0.000000
  104       -0.302838   0.000000
  105       -0.230404   0.000000
  106       -0.192804   0.000000
  107       -0.057697   0.000000
  108        0.056852   0.000000
  109        0.121502   0.000000
  110        0.200882   0.000000
  111        0.387398   0.000000
  112        0.533168   0.000000
  113        0.693999   0.000000
  114        0.867843   0.000000
  115        0.911597   0.000000
  116        1.008815   0.000000
  117        1.186536   0.000000
  118        1.689817   0.000000
  119        1.880861   0.000000
  120        2.202086   0.000000
 
  0.1250000E+00  0.1250000E+00  0.0000000E+00  0.3125000E-01
    1      -17.750902   1.000000
    2      -16.969595   1.000000
    3      -16.734841   1.000000
    4      -16.665026   1.000000
    5      -16.503429   1.000000
    6      -16.458859   1.000000
    7      -16.373994   1.000000
    8      -16.310157   1.000000
    9      -16.278316   1.000000
   10      -16.095605   1.000000
   11      -15.998375   1.000000
   12      -15.915308   1.000000
   13      -15.785416   1.000000
   14      -15.591911   1.000000
   15      -15.542162   1.000000
   16      -15.503390   1.000000
   17      -15.335816   1.000000
   18      -15.201587   1.000000
   19       -9.479549   1.000000
   20       -9.338007   1.000000
   21       -9.206417   1.000000
   22       -8.994930   1.000000
   23       -8.900352   1.000000
   24       -8.690985   1.000000
   25       -8.635845   1.000000
   26       -8.533856   1.000000
   27       -8.505790   1.000000
   28       -8.399855   1.000000
   29       -8.341294   1.000000
   30       -8.291237   1.000000
   31       -8.224921   1.000000
   32       -8.033295   1.000000
   33       -7.948428   1.000000
   34       -7.845734   1.000000
   35       -7.735675   1.000000
   36       -7.634574   1.000000
   37       -7.587438   1.000000
   38       -7.479240   1.000000
   39       -7.427476   1.000000
   40       -7.390318   1.000000
   41       -7.349774   1.000000
   42       -7.218673   1.000000
   43       -7.118607   1.000000
   44       -7.023766   1.000000
   45       -6.924015   1.000000
   46       -6.829354   1.000000
   47       -6.758639   1.000000
   48       -6.743339   1.000000
   49       -6.565955   1.000000
   50       -6.490983   1.000000
   51       -6.425426   1.000000
   52       -6.355324   1.000000
   53       -6.264416   1.000000
   54       -6.159940   1.000000
   55       -6.146147   1.000000
   56       -6.091130   1.000000
   57       -5.923111   1.000000
   58       -5.799939   1.000000
   59       -5.755464   1.000000
   60       -5.669198   1.000000
   61       -5.570781   1.000000
   62       -5.463940   1.000000
   63       -5.345859   1.000000
   64       -5.254860   1.000000
   65       -5.236953   1.000000
   66       -5.158523   1.000000
   67       -5.071196   1.000000
   68       -4.828378   1.000000
   69       -4.759076   1.000000
   70       -4.636517   1.000000
   71       -4.489119   1.000000
   72       -4.439982   1.000000
   73       -4.284788   1.000000
   74       -4.263533   1.000000
   75       -4.219686   1.000000
   76       -4.070283   1.000000
   77       -3.885584   0.999994
   78       -3.783553   0.999878
   79       -3.601053   0.991317
   80       -3.359879   0.749689
   81       -2.998577   0.029967
   82       -2.928834   0.008788
   83       -2.740587   0.000105
   84       -2.672847   0.000014
   85       -2.560634   0.000000
   86       -2.444724   0.000000
   87       -2.349612   0.000000
   88       -2.191248   0.000000
   89       -2.130639   0.000000
   90       -2.039430   0.000000
   91       -1.930029   0.000000
   92       -1.481283   0.000000
   93       -1.315103   0.000000
   94       -1.187776   0.000000
   95       -1.103891   0.000000
   96       -1.021959   0.000000
   97       -0.938314   0.000000
   98       -0.915767   0.000000
   99       -0.839556   0.000000
  100       -0.743903   0.000000
  101       -0.705258   0.000000
  102       -0.650246   0.000000
  103       -0.551109   0.000000
  104       -0.416792   0.000000
  105       -0.344653   0.000000
  106       -0.304746   0.000000
  107       -0.089502   0.000000
  108       -0.015732   0.000000
  109        0.121333   0.000000
  110        0.220550   0.000000
  111        0.348389   0.000000
  112        0.462950   0.000000
  113        0.744008   0.000000
  114        0.831516   0.000000
  115        0.955604   0.000000
  116        1.111110   0.000000
  117        1.363807   0.000000
  118        1.777646   0.000000
  119        1.953492   0.000000
  120        2.273310   0.000000
 
  0.2500000E+00  0.1250000E+00  0.0000000E+00  0.3125000E-01
    1      -17.650331   1.000000
    2      -17.150517   1.000000
    3      -16.805548   1.000000
    4      -16.691987   1.000000
    5      -16.531025   1.000000
    6      -16.464550   1.000000
    7      -16.307797   1.000000
    8      -16.272053   1.000000
    9      -16.202588   1.000000
   10      -16.151453   1.000000
   11      -15.960209   1.000000
   12      -15.870676   1.000000
   13      -15.724572   1.000000
   14      -15.590508   1.000000
   15      -15.530394   1.000000
   16      -15.460512   1.000000
   17      -15.392813   1.000000
   18      -15.227967   1.000000
   19       -9.668693   1.000000
   20       -9.494014   1.000000
   21       -9.188321   1.000000
   22       -9.042660   1.000000
   23       -8.904723   1.000000
   24       -8.695640   1.000000
   25       -8.623554   1.000000
   26       -8.547849   1.000000
   27       -8.477249   1.000000
   28       -8.357071   1.000000
   29       -8.328597   1.000000
   30       -8.217417   1.000000
   31       -8.118259   1.000000
   32       -8.070817   1.000000
   33       -7.935131   1.000000
   34       -7.882941   1.000000
   35       -7.791580   1.000000
   36       -7.640099   1.000000
   37       -7.533068   1.000000
   38       -7.442699   1.000000
   39       -7.376535   1.000000
   40       -7.306498   1.000000
   41       -7.211998   1.000000
   42       -7.177556   1.000000
   43       -7.092026   1.000000
   44       -6.976435   1.000000
   45       -6.892448   1.000000
   46       -6.827487   1.000000
   47       -6.770893   1.000000