       N       E                     dE             d eps       ncg     rms          rms(c)
DAV:   1     0.112385649441E+04    0.11239E+04   -0.35869E+04  8160   0.577E+02
DAV:   2    -0.313256738465E+00   -0.11242E+04   -0.10794E+04 11000   0.173E+02
DAV:   3    -0.199742209724E+03   -0.19943E+03   -0.19105E+03 10920   0.823E+01
DAV:   4    -0.209041793593E+03   -0.92996E+01   -0.89893E+01 11840   0.262E+01
DAV:   5    -0.209402815508E+03   -0.36102E+00   -0.36005E+00 11440   0.394E+00    0.278E+01
DAV:   6    -0.241334597378E+03   -0.31932E+02   -0.11352E+02 12680   0.600E+01    0.607E+01
DAV:   7    -0.196113762064E+03    0.45221E+02   -0.18011E+02 13080   0.151E+02    0.198E+01
DAV:   8    -0.189357127973E+03    0.67566E+01   -0.18488E+01 12040   0.126E+01    0.123E+01
DAV:   9    -0.188081644557E+03    0.12755E+01   -0.30333E+00 13120   0.612E+00    0.891E+00
DAV:  10    -0.186949848431E+03    0.11318E+01   -0.15893E+00 13360   0.728E+00    0.205E+00
DAV:  11    -0.187054761185E+03   -0.10491E+00   -0.57940E-01 13360   0.339E+00    0.415E+00
DAV:  12    -0.186949445426E+03    0.10532E+00   -0.57678E-01 12800   0.415E+00    0.293E+00
DAV:  13    -0.186874057970E+03    0.75387E-01   -0.19816E-01 12400   0.238E+00    0.131E+00
DAV:  14    -0.186853038927E+03    0.21019E-01   -0.72868E-02 12600   0.123E+00    0.825E-01
DAV:  15    -0.186850683087E+03    0.23558E-02   -0.21445E-02 12720   0.722E-01    0.708E-01
DAV:  16    -0.186846661619E+03    0.40215E-02   -0.10856E-02 13200   0.467E-01    0.309E-01
DAV:  17    -0.186845429640E+03    0.12320E-02   -0.54119E-03 12680   0.334E-01    0.234E-01
DAV:  18    -0.186844820935E+03    0.60871E-03   -0.17043E-03 12560   0.201E-01    0.679E-02
DAV:  19    -0.186845205207E+03   -0.38427E-03   -0.63852E-04 10680   0.692E-02    0.887E-02
DAV:  20    -0.186845753999E+03   -0.54879E-03   -0.62961E-04  9520   0.765E-02    0.599E-02
DAV:  21    -0.186846551232E+03   -0.79723E-03   -0.22249E-04  8080   0.441E-02    0.392E-02
DAV:  22    -0.186847475858E+03   -0.92463E-03   -0.14908E-04  7520   0.441E-02    0.251E-02
DAV:  23    -0.186848555448E+03   -0.10796E-02   -0.87890E-05  7440   0.238E-02    0.117E-02
DAV:  24    -0.186849216335E+03   -0.66089E-03   -0.30356E-05  6400   0.171E-02    0.765E-03
DAV:  25    -0.186849580781E+03   -0.36445E-03   -0.14096E-05  6080   0.118E-02    0.255E-03
DAV:  26    -0.186849798782E+03   -0.21800E-03   -0.81430E-06  6800   0.617E-03    0.146E-03
DAV:  27    -0.186849872807E+03   -0.74024E-04   -0.31798E-06  7240   0.408E-03
   1 F= -.18684987E+03 E0= -.18667649E+03  d E =-.186850E+03
       N       E                     dE             d eps       ncg     rms          rms(c)
DAV:   1    -0.187532216356E+03   -0.68242E+00   -0.27394E+02  8160   0.351E+01    0.477E+00
DAV:   2    -0.190021609023E+03   -0.24894E+01   -0.21016E+01 12280   0.169E+01    0.131E+01
DAV:   3    -0.189244394300E+03    0.77721E+00   -0.59833E+00 12480   0.138E+01    0.561E+00
DAV:   4    -0.188849942080E+03    0.39445E+00   -0.63596E-01 12520   0.439E+00    0.333E+00
DAV:   5    -0.188857738405E+03   -0.77963E-02   -0.52647E-01 12000   0.412E+00    0.428E+00
DAV:   6    -0.188763176451E+03    0.94562E-01   -0.52784E-01 12280   0.329E+00    0.217E+00
DAV:   7    -0.188710456018E+03    0.52720E-01   -0.20263E-01 10600   0.133E+00    0.118E+00
DAV:   8    -0.188695776337E+03    0.14680E-01   -0.60739E-02 12320   0.101E+00    0.976E-01
DAV:   9    -0.188689879065E+03    0.58973E-02   -0.24051E-02 12560   0.836E-01    0.662E-01
DAV:  10    -0.188687267529E+03    0.26115E-02   -0.81401E-03 12080   0.434E-01    0.315E-01
DAV:  11    -0.188686403943E+03    0.86359E-03   -0.26377E-03 13000   0.224E-01    0.105E-01
DAV:  12    -0.188686407694E+03   -0.37505E-05   -0.98929E-04 11760   0.943E-02
   2 F= -.18868641E+03 E0= -.18854467E+03  d E =-.183653E+01
       N       E                     dE             d eps       ncg     rms          rms(c)
DAV:   1    -0.190635659637E+03   -0.19493E+01   -0.31709E+01  8960   0.143E+01    0.447E+00
DAV:   2    -0.190562266191E+03    0.73393E-01   -0.28062E+00 11480   0.917E+00    0.724E+00
DAV:   3    -0.190126067870E+03    0.43620E+00   -0.15280E+00 12320   0.846E+00    0.438E+00
DAV:   4    -0.189895621202E+03    0.23045E+00   -0.72889E-01 12680   0.439E+00    0.249E+00
DAV:   5    -0.189870664947E+03    0.24956E-01   -0.37559E-01 12240   0.304E+00    0.285E+00
DAV:   6    -0.189797301836E+03    0.73363E-01   -0.16058E-01 12560   0.247E+00    0.761E-01
DAV:   7    -0.189791402558E+03    0.58993E-02   -0.16261E-02 11640   0.612E-01    0.403E-01
DAV:   8    -0.189791412864E+03   -0.10306E-04   -0.67121E-03 12720   0.483E-01    0.377E-01
DAV:   9    -0.189790380685E+03    0.10322E-02   -0.25649E-03 11480   0.268E-01    0.128E-01
DAV:  10    -0.189790806075E+03   -0.42539E-03   -0.10509E-03 10680   0.111E-01    0.139E-01
DAV:  11    -0.189790494216E+03    0.31186E-03   -0.56715E-04  9800   0.864E-02    0.205E-02
DAV:  12    -0.189790517819E+03   -0.23603E-04   -0.71166E-05  7160   0.265E-02
   3 F= -.18979052E+03 E0= -.18967037E+03  d E =-.110411E+01
       N       E                     dE             d eps       ncg     rms          rms(c)
DAV:   1    -0.191368376944E+03   -0.15779E+01   -0.79176E+01  8160   0.202E+01    0.456E+00
DAV:   2    -0.191121196197E+03    0.24718E+00   -0.52620E+00 13280   0.671E+00    0.377E+00
DAV:   3    -0.191426194950E+03   -0.30500E+00   -0.14961E+00 12120   0.855E+00    0.797E+00
DAV:   4    -0.190989263662E+03    0.43693E+00   -0.20569E+00 11240   0.912E+00    0.365E+00
DAV:   5    -0.190980930668E+03    0.83330E-02   -0.71708E-01 11920   0.535E+00    0.362E+00
DAV:   6    -0.190806195262E+03    0.17474E+00   -0.22714E-01 12080   0.321E+00    0.704E-01
DAV:   7    -0.190806279213E+03   -0.83952E-04   -0.36064E-02 12440   0.834E-01    0.657E-01
DAV:   8    -0.190804452726E+03    0.18265E-02   -0.18063E-02 11800   0.850E-01    0.611E-01
DAV:   9    -0.190800868023E+03    0.35847E-02   -0.63526E-03 11480   0.513E-01    0.175E-01
DAV:  10    -0.190801175490E+03   -0.30747E-03   -0.15865E-03 11080   0.149E-01    0.125E-01
DAV:  11    -0.190800952637E+03    0.22285E-03   -0.67450E-04 10480   0.101E-01    0.418E-02
DAV:  12    -0.190800962643E+03   -0.10007E-04   -0.96185E-05  7200   0.342E-02
   4 F= -.19080096E+03 E0= -.19069775E+03  d E =-.101044E+01
       N       E                     dE             d eps       ncg     rms          rms(c)
DAV:   1    -0.192287290384E+03   -0.14863E+01   -0.17975E+02  8160   0.299E+01    0.591E+00
DAV:   2    -0.191995483165E+03    0.29181E+00   -0.98965E+00 11080   0.776E+00    0.398E+00
DAV:   3    -0.192421355058E+03   -0.42587E+00   -0.31156E+00 12120   0.109E+01    0.733E+00
DAV:   4    -0.191706600295E+03    0.71475E+00   -0.12027E+00 12240   0.855E+00    0.302E+00
DAV:   5    -0.191730916835E+03   -0.24317E-01   -0.59506E-01 11960   0.554E+00    0.463E+00
DAV:   6    -0.191543832506E+03    0.18708E+00   -0.55934E-01 12240   0.493E+00    0.117E+00
DAV:   7    -0.191543269593E+03    0.56291E-03   -0.80766E-02 11800   0.157E+00    0.120E+00
DAV:   8    -0.191531134164E+03    0.12135E-01   -0.41461E-02 11640   0.131E+00    0.534E-01
DAV:   9    -0.191527740722E+03    0.33934E-02   -0.75931E-03 11920   0.482E-01    0.161E-01
DAV:  10    -0.191527800821E+03   -0.60099E-04   -0.25562E-03 10480   0.147E-01    0.677E-02
DAV:  11    -0.191527830754E+03   -0.29933E-04   -0.34311E-04  9120   0.765E-02
   5 F= -.19152783E+03 E0= -.19143034E+03  d E =-.726868E+00
       N       E                     dE             d eps       ncg     rms          rms(c)
DAV:   1    -0.191586323404E+03   -0.58523E-01   -0.39320E+00  8160   0.424E+00    0.721E-01
DAV:   2    -0.191663040369E+03   -0.76717E-01   -0.29646E-01 12400   0.327E+00    0.256E+00
DAV:   3    -0.191594073729E+03    0.68967E-01   -0.11611E-01 12400   0.254E+00    0.369E-01
DAV:   4    -0.191597950802E+03   -0.38771E-02   -0.18610E-02 11680   0.843E-01    0.817E-01
DAV:   5    -0.191591872881E+03    0.60779E-02   -0.14746E-02 11640   0.776E-01    0.235E-01
DAV:   6    -0.191592279921E+03   -0.40704E-03   -0.48396E-03 11400   0.356E-01    0.319E-01
DAV:   7    -0.191591570383E+03    0.70954E-03   -0.40201E-03 11440   0.397E-01    0.193E-01
DAV:   8    -0.191591190904E+03    0.37948E-03   -0.86573E-04  9160   0.166E-01    0.414E-02
DAV:   9    -0.191591182694E+03    0.82101E-05   -0.97256E-05  6240   0.386E-02
   6 F= -.19159118E+03 E0= -.19149134E+03  d E =-.633519E-01
       N       E                     dE             d eps       ncg     rms          rms(c)
DAV:   1    -0.191677296056E+03   -0.86105E-01   -0.10486E+01  8160   0.682E+00    0.913E-01
DAV:   2    -0.191778148789E+03   -0.10085E+00   -0.39459E-01 12720   0.324E+00    0.292E+00
DAV:   3    -0.191689017621E+03    0.89131E-01   -0.19286E-01 12400   0.319E+00    0.705E-01
DAV:   4    -0.191693849060E+03   -0.48314E-02   -0.38129E-02 11600   0.116E+00    0.105E+00
DAV:   5    -0.191683475199E+03    0.10374E-01   -0.25764E-02 11680   0.101E+00    0.297E-01
DAV:   6    -0.191683496092E+03   -0.20894E-04   -0.56005E-03 11520   0.375E-01    0.319E-01
DAV:   7    -0.191683339077E+03    0.15702E-03   -0.60647E-03 11480   0.492E-01    0.312E-01
DAV:   8    -0.191682447333E+03    0.89174E-03   -0.22205E-03 10080   0.281E-01    0.672E-02
DAV:   9    -0.191682389864E+03    0.57469E-04   -0.20138E-04  6600   0.595E-02
   7 F= -.19168239E+03 E0= -.19158180E+03  d E =-.912072E-01
       N       E                     dE             d eps       ncg     rms          rms(c)
DAV:   1    -0.191713663772E+03   -0.31216E-01   -0.98536E-01  8160   0.215E+00    0.326E-01
DAV:   2    -0.191723740830E+03   -0.10077E-01   -0.49778E-02 12720   0.121E+00    0.967E-01
DAV:   3    -0.191714413196E+03    0.93276E-02   -0.19690E-02 12120   0.989E-01    0.241E-01
DAV:   4    -0.191715690383E+03   -0.12772E-02   -0.68657E-03 11440   0.503E-01    0.455E-01
DAV:   5    -0.191713638951E+03    0.20514E-02   -0.45744E-03 11120   0.427E-01    0.104E-01
DAV:   6    -0.191713599387E+03    0.39565E-04   -0.87377E-04  9880   0.114E-01
   8 F= -.19171360E+03 E0= -.19161306E+03  d E =-.312095E-01
       N       E                     dE             d eps       ncg     rms          rms(c)
DAV:   1    -0.191778214125E+03   -0.64575E-01   -0.46147E+00  8160   0.459E+00    0.581E-01
DAV:   2    -0.191820326940E+03   -0.42113E-01   -0.18052E-01 13440   0.232E+00    0.193E+00
DAV:   3    -0.191784705891E+03    0.35621E-01   -0.77216E-02 12400   0.195E+00    0.487E-01
DAV:   4    -0.191787224544E+03   -0.25187E-02   -0.19444E-02 11280   0.868E-01    0.701E-01
DAV:   5    -0.191782000900E+03    0.52236E-02   -0.96807E-03 11360   0.654E-01    0.149E-01
DAV:   6    -0.191782373211E+03   -0.37231E-03   -0.24318E-03 11560   0.231E-01    0.208E-01
DAV:   7    -0.191782164884E+03    0.20833E-03   -0.22888E-03 11160   0.319E-01    0.209E-01
DAV:   8    -0.191781718322E+03    0.44656E-03   -0.83760E-04  8440   0.186E-01    0.288E-02
DAV:   9    -0.191781726285E+03   -0.79629E-05   -0.67736E-05  6160   0.320E-02
   9 F= -.19178173E+03 E0= -.19168260E+03  d E =-.681269E-01
       N       E                     dE             d eps       ncg     rms          rms(c)
DAV:   1    -0.191798106561E+03   -0.16388E-01   -0.24430E-01  8160   0.106E+00    0.124E-01
DAV:   2    -0.191799593979E+03   -0.14874E-02   -0.86238E-03 12320   0.431E-01    0.350E-01
DAV:   3    -0.191798450786E+03    0.11432E-02   -0.29360E-03 11560   0.365E-01    0.111E-01
DAV:   4    -0.191798579086E+03   -0.12830E-03   -0.80104E-04  8680   0.184E-01    0.150E-01
DAV:   5    -0.191798337405E+03    0.24168E-03   -0.44040E-04  8120   0.154E-01    0.367E-02
DAV:   6    -0.191798357214E+03   -0.19808E-04   -0.10820E-04  6320   0.473E-02
  10 F= -.19179836E+03 E0= -.19169985E+03  d E =-.166309E-01
       N       E                     dE             d eps       ncg     rms          rms(c)
DAV:   1    -0.191762736704E+03    0.35601E-01   -0.12051E+00  8160   0.242E+00    0.387E-01
DAV:   2    -0.191768744491E+03   -0.60078E-02   -0.57163E-02 12560   0.105E+00    0.817E-01
DAV:   3    -0.191763441714E+03    0.53028E-02   -0.21468E-02 12440   0.966E-01    0.401E-01
DAV:   4    -0.191763171725E+03    0.26999E-03   -0.86018E-03 10760   0.564E-01    0.417E-01
DAV:   5    -0.191761713960E+03    0.14578E-02   -0.55522E-03 10240   0.521E-01    0.209E-01
DAV:   6    -0.191761367840E+03    0.34612E-03   -0.20189E-03 11480   0.251E-01    0.148E-01
DAV:   7    -0.191761285897E+03    0.81944E-04   -0.10291E-03  9160   0.215E-01    0.119E-01
DAV:   8    -0.191761156165E+03    0.12973E-03   -0.29840E-04  7280   0.110E-01    0.255E-02
DAV:   9    -0.191761156130E+03    0.35376E-07   -0.39892E-05  6520   0.269E-02
  11 F= -.19176116E+03 E0= -.19166145E+03  d E =0.372011E-01
       N       E                     dE             d eps       ncg     rms          rms(c)
DAV:   1    -0.191870989571E+03   -0.10983E+00   -0.10579E+01  8160   0.710E+00    0.909E-01
DAV:   2    -0.191932455141E+03   -0.61466E-01   -0.40433E-01 12760   0.291E+00    0.240E+00
DAV:   3    -0.191886806906E+03    0.45648E-01   -0.14193E-01 12360   0.256E+00    0.836E-01
DAV:   4    -0.191890758808E+03   -0.39519E-02   -0.42495E-02 12240   0.143E+00    0.109E+00
DAV:   5    -0.191877217455E+03    0.13541E-01   -0.24803E-02 11320   0.120E+00    0.325E-01
DAV:   6    -0.191878331922E+03   -0.11145E-02   -0.98941E-03 11640   0.558E-01    0.468E-01
DAV:   7    -0.191876592619E+03    0.17393E-02   -0.69850E-03 11600   0.599E-01    0.263E-01
DAV:   8    -0.191875783168E+03    0.80945E-03   -0.15472E-03  9920   0.241E-01    0.540E-02
DAV:   9    -0.191875739931E+03    0.43236E-04   -0.17315E-04  6760   0.501E-02
  12 F= -.19187574E+03 E0= -.19178075E+03  d E =-.114584E+00
       N       E                     dE             d eps       ncg     rms          rms(c)
DAV:   1    -0.191920712603E+03   -0.44929E-01   -0.16760E+00  8160   0.280E+00    0.320E-01
DAV:   2    -0.191927663727E+03   -0.69511E-02   -0.54621E-02 11880   0.949E-01    0.737E-01
DAV:   3    -0.191923499380E+03    0.41643E-02   -0.14933E-02 12440   0.845E-01    0.322E-01
DAV:   4    -0.191922998610E+03    0.50077E-03   -0.32348E-03 11440   0.382E-01    0.258E-01
DAV:   5    -0.191922406958E+03    0.59165E-03   -0.19029E-03 10560   0.360E-01    0.151E-01
DAV:   6    -0.191922415304E+03   -0.83461E-05   -0.11640E-03  9920   0.206E-01    0.139E-01
DAV:   7    -0.191922262952E+03    0.15235E-03   -0.70040E-04  8840   0.197E-01    0.107E-01
DAV:   8    -0.191922138667E+03    0.12428E-03   -0.22300E-04  6880   0.105E-01    0.161E-02
DAV:   9    -0.191922142348E+03   -0.36808E-05   -0.33304E-05  6200   0.227E-02
  13 F= -.19192214E+03 E0= -.19182943E+03  d E =-.464024E-01
       N       E                     dE             d eps       ncg     rms          rms(c)
DAV:   1    -0.191899931693E+03    0.22207E-01   -0.37129E-01  8160   0.134E+00    0.188E-01
DAV:   2    -0.191900830326E+03   -0.89863E-03   -0.14549E-02 11280   0.436E-01    0.277E-01
DAV:   3    -0.191900628721E+03    0.20161E-03   -0.34641E-03 12120   0.430E-01    0.256E-01
DAV:   4    -0.191900130560E+03    0.49816E-03   -0.18962E-03  9880   0.286E-01    0.157E-01
DAV:   5    -0.191899996821E+03    0.13374E-03   -0.93400E-04  9720   0.234E-01    0.115E-01
DAV:   6    -0.191899854403E+03    0.14242E-03   -0.39404E-04  8760   0.128E-01    0.359E-02
DAV:   7    -0.191899848490E+03    0.59131E-05   -0.91418E-05  6440   0.460E-02
  14 F= -.19189985E+03 E0= -.19180620E+03  d E =0.222939E-01
       N       E                     dE             d eps       ncg     rms          rms(c)
DAV:   1    -0.191901215538E+03   -0.13611E-02   -0.16009E-03  8480   0.982E-02    0.262E-02
DAV:   2    -0.191901400435E+03   -0.18490E-03   -0.37414E-04  9720   0.140E-01    0.134E-01
DAV:   3    -0.191901203097E+03    0.19734E-03   -0.24454E-04  6880   0.121E-01    0.755E-03
DAV:   4    -0.191901215737E+03   -0.12640E-04   -0.11043E-05  5840   0.125E-02
  15 F= -.19190122E+03 E0= -.19180768E+03  d E =-.136725E-02
       N       E                     dE             d eps       ncg     rms          rms(c)
DAV:   1    -0.191852495171E+03    0.48708E-01   -0.32090E+00  8160   0.386E+00    0.578E-01
DAV:   2    -0.191900273389E+03   -0.47778E-01   -0.17540E-01 12280   0.233E+00    0.220E+00
DAV:   3    -0.191856814368E+03    0.43459E-01   -0.88705E-02 12120   0.205E+00    0.357E-01
DAV:   4    -0.191857763557E+03   -0.94919E-03   -0.87584E-03 11480   0.616E-01    0.521E-01
DAV:   5    -0.191855390582E+03    0.23730E-02   -0.70774E-03 11120   0.598E-01    0.269E-01
DAV:   6    -0.191855661317E+03   -0.27073E-03   -0.43930E-03 11520   0.401E-01    0.306E-01
DAV:   7    -0.191854973956E+03    0.68736E-03   -0.30478E-03 11440   0.389E-01    0.155E-01
DAV:   8    -0.191854614288E+03    0.35967E-03   -0.53889E-04  9280   0.138E-01    0.229E-02
DAV:   9    -0.191854617239E+03   -0.29507E-05   -0.66722E-05  7440   0.281E-02
  16 F= -.19185462E+03 E0= -.19175768E+03  d E =0.465985E-01
       N       E                     dE             d eps       ncg     rms          rms(c)
DAV:   1    -0.191917092363E+03   -0.62478E-01   -0.42932E+00  8160   0.442E+00    0.501E-01
DAV:   2    -0.191936007399E+03   -0.18915E-01   -0.17787E-01 11720   0.143E+00    0.988E-01
DAV:   3    -0.191931112176E+03    0.48952E-02   -0.39895E-02 12320   0.132E+00    0.647E-01
DAV:   4    -0.191926663865E+03    0.44483E-02   -0.66533E-03 12000   0.523E-01    0.191E-01
DAV:   5    -0.191927716774E+03   -0.10529E-02   -0.39845E-03 12680   0.455E-01    0.394E-01
DAV:   6    -0.191926629805E+03    0.10870E-02   -0.41198E-03 12360   0.455E-01    0.175E-01
DAV:   7    -0.191926218245E+03    0.41156E-03   -0.10229E-03 10040   0.179E-01    0.680E-02
DAV:   8    -0.191926179724E+03    0.38521E-04   -0.17089E-04  8080   0.962E-02
  17 F= -.19192618E+03 E0= -.19183267E+03  d E =-.715625E-01
       N       E                     dE             d eps       ncg     rms          rms(c)
DAV:   1    -0.191961569918E+03   -0.35352E-01   -0.11464E+00  8160   0.233E+00    0.280E-01
DAV:   2    -0.191965790796E+03   -0.42209E-02   -0.39180E-02 11760   0.744E-01    0.581E-01
DAV:   3    -0.191963580002E+03    0.22108E-02   -0.10554E-02 12400   0.709E-01    0.308E-01
DAV:   4    -0.191962588084E+03    0.99192E-03   -0.19842E-03 11320   0.281E-01    0.127E-01
DAV:   5    -0.191962760071E+03   -0.17199E-03   -0.11247E-03 10560   0.272E-01    0.187E-01
DAV:   6    -0.191962479317E+03    0.28075E-03   -0.97528E-04 10240   0.229E-01    0.946E-02
DAV:   7    -0.191962417933E+03    0.61384E-04   -0.34173E-04  7840   0.136E-01
  18 F= -.19196242E+03 E0= -.19187051E+03  d E =-.362382E-01
       N       E                     dE             d eps       ncg     rms          rms(c)
DAV:   1    -0.192035860753E+03   -0.73381E-01   -0.52872E+00  8160   0.497E+00    0.555E-01
DAV:   2    -0.192049536150E+03   -0.13675E-01   -0.16284E-01 12200   0.130E+00    0.853E-01
DAV:   3    -0.192048197482E+03    0.13387E-02   -0.34804E-02 12360   0.136E+00    0.763E-01
DAV:   4    -0.192041896277E+03    0.63012E-02   -0.87089E-03 12280   0.662E-01    0.216E-01
DAV:   5    -0.192042178301E+03   -0.28202E-03   -0.39608E-03 11920   0.415E-01    0.290E-01
DAV:   6    -0.192041880658E+03    0.29764E-03   -0.33582E-03 11360   0.475E-01    0.239E-01
DAV:   7    -0.192041157454E+03    0.72320E-03   -0.13257E-03  9840   0.260E-01    0.913E-02
DAV:   8    -0.192041097496E+03    0.59958E-04   -0.24816E-04  7840   0.118E-01
  19 F= -.19204110E+03 E0= -.19195205E+03  d E =-.786796E-01
       N       E                     dE             d eps       ncg     rms          rms(c)
DAV:   1    -0.192053120028E+03   -0.11963E-01   -0.12166E-01  8160   0.764E-01    0.965E-02
DAV:   2    -0.192053334363E+03   -0.21433E-03   -0.40979E-03 10640   0.179E-01    0.945E-02
DAV:   3    -0.192053465733E+03   -0.13137E-03   -0.85618E-04 11640   0.222E-01    0.155E-01
DAV:   4    -0.192053233281E+03    0.23245E-03   -0.41553E-04  8320   0.162E-01    0.596E-02
DAV:   5    -0.192053234335E+03   -0.10537E-05   -0.14481E-04  6880   0.102E-01
  20 F= -.19205323E+03 E0= -.19196460E+03  d E =-.121368E-01
       N       E                     dE             d eps       ncg     rms          rms(c)
DAV:   1    -0.192032588178E+03    0.20645E-01   -0.51360E-01  8160   0.155E+00    0.217E-01
DAV:   2    -0.192034947448E+03   -0.23593E-02   -0.20046E-02 11800   0.638E-01    0.447E-01
DAV:   3    -0.192033176839E+03    0.17706E-02   -0.53773E-03 12120   0.573E-01    0.199E-01
DAV:   4    -0.192032914575E+03    0.26226E-03   -0.13268E-03  9840   0.262E-01    0.159E-01
DAV:   5    -0.192032760882E+03    0.15369E-03   -0.94363E-04 10280   0.249E-01    0.126E-01
DAV:   6    -0.192032654823E+03    0.10606E-03   -0.55566E-04  8440   0.168E-01    0.895E-02
DAV:   7    -0.192032625006E+03    0.29817E-04   -0.28080E-04  7840   0.133E-01
  21 F= -.19203263E+03 E0= -.19194291E+03  d E =0.206093E-01
       N       E                     dE             d eps       ncg     rms          rms(c)
DAV:   1    -0.192017153876E+03    0.15501E-01   -0.27944E-01  8160   0.114E+00    0.136E-01
DAV:   2    -0.192017706394E+03   -0.55252E-03   -0.76276E-03 11160   0.292E-01    0.179E-01
DAV:   3    -0.192017710168E+03   -0.37735E-05   -0.15613E-03 11640   0.317E-01    0.188E-01
DAV:   4    -0.192017392381E+03    0.31779E-03   -0.64502E-04  8320   0.194E-01    0.881E-02
DAV:   5    -0.192017388029E+03    0.43525E-05   -0.36870E-04  8120   0.156E-01
  22 F= -.19201739E+03 E0= -.19192689E+03  d E =0.152370E-01
       N       E                     dE             d eps       ncg     rms          rms(c)
DAV:   1    -0.192031218746E+03   -0.13826E-01   -0.19186E+00  8160   0.297E+00    0.417E-01
DAV:   2    -0.192056106198E+03   -0.24887E-01   -0.90765E-02 11240   0.170E+00    0.162E+00
DAV:   3    -0.192033526646E+03    0.22580E-01   -0.43715E-02 12400   0.148E+00    0.289E-01
DAV:   4    -0.192034100118E+03   -0.57347E-03   -0.46521E-03 10920   0.526E-01    0.393E-01
DAV:   5    -0.192032484958E+03    0.16152E-02   -0.35586E-03 12200   0.477E-01    0.157E-01
DAV:   6    -0.192032582705E+03   -0.97748E-04   -0.14407E-03 10200   0.271E-01    0.189E-01
DAV:   7    -0.192032339702E+03    0.24300E-03   -0.10126E-03 10400   0.262E-01    0.109E-01
DAV:   8    -0.192032164230E+03    0.17547E-03   -0.24163E-04  7800   0.107E-01    0.173E-02
DAV:   9    -0.192032165810E+03   -0.15797E-05   -0.40222E-05  6800   0.235E-02
  23 F= -.19203217E+03 E0= -.19194131E+03  d E =-.147778E-01
       N       E                     dE             d eps       ncg     rms          rms(c)
DAV:   1    -0.192033641772E+03   -0.14775E-02   -0.15612E+01  8160   0.862E+00    0.106E+00
DAV:   2    -0.192128763802E+03   -0.95122E-01   -0.56524E-01 12240   0.329E+00    0.317E+00
DAV:   3    -0.192057919126E+03    0.70845E-01   -0.25209E-01 12320   0.314E+00    0.951E-01
DAV:   4    -0.192057544803E+03    0.37432E-03   -0.33329E-02 11440   0.134E+00    0.107E+00
DAV:   5    -0.192046503478E+03    0.11041E-01   -0.29980E-02 12040   0.135E+00    0.465E-01
DAV:   6    -0.192047538757E+03   -0.10353E-02   -0.12334E-02 11040   0.732E-01    0.518E-01
DAV:   7    -0.192044791552E+03    0.27472E-02   -0.72353E-03 11320   0.698E-01    0.267E-01
DAV:   8    -0.192043814239E+03    0.97731E-03   -0.18746E-03 11760   0.300E-01    0.627E-02
DAV:   9    -0.192043764901E+03    0.49338E-04   -0.26141E-04  9080   0.635E-02
  24 F= -.19204376E+03 E0= -.19195137E+03  d E =-.115991E-01
       N       E                     dE             d eps       ncg     rms          rms(c)
DAV:   1    -0.192069532983E+03   -0.25719E-01   -0.20559E+00  8160   0.312E+00    0.376E-01
DAV:   2    -0.192073245186E+03   -0.37122E-02   -0.64755E-02 11280   0.740E-01    0.411E-01
DAV:   3    -0.192074688344E+03   -0.14432E-02   -0.14650E-02 12240   0.867E-01    0.605E-01
DAV:   4    -0.192071182171E+03    0.35062E-02   -0.70253E-03 11720   0.611E-01    0.207E-01
DAV:   5    -0.192071332728E+03   -0.15056E-03   -0.27886E-03 11320   0.379E-01    0.270E-01
DAV:   6    -0.192070761892E+03    0.57084E-03   -0.19273E-03 10880   0.335E-01    0.136E-01
DAV:   7    -0.192070685386E+03    0.76506E-04   -0.96084E-04  9800   0.215E-01
  25 F= -.19207069E+03 E0= -.19197888E+03  d E =-.269205E-01
       N       E                     dE             d eps       ncg     rms          rms(c)
DAV:   1    -0.192102819285E+03   -0.32057E-01   -0.38565E+00  8160   0.419E+00    0.482E-01
DAV:   2    -0.192118883890E+03   -0.16065E-01   -0.13931E-01 12280   0.141E+00    0.951E-01
DAV:   3    -0.192111919789E+03    0.69641E-02   -0.35269E-02 12360   0.134E+00    0.570E-01
DAV:   4    -0.192109638186E+03    0.22816E-02   -0.87500E-03 12360   0.620E-01    0.356E-01
DAV:   5    -0.192108588728E+03    0.10495E-02   -0.41572E-03 11840   0.510E-01    0.249E-01
DAV:   6    -0.192108158119E+03    0.43061E-03   -0.22613E-03 12200   0.326E-01    0.147E-01
DAV:   7    -0.192108312225E+03   -0.15411E-03   -0.16479E-03 10440   0.295E-01    0.199E-01
DAV:   8    -0.192107864580E+03    0.44764E-03   -0.73224E-04  9240   0.216E-01    0.356E-02
DAV:   9    -0.192107856420E+03    0.81603E-05   -0.57423E-05  5760   0.378E-02
  26 F= -.19210786E+03 E0= -.19201638E+03  d E =-.371710E-01
       N       E                     dE             d eps       ncg     rms          rms(c)
DAV:   1    -0.192151782694E+03   -0.43918E-01   -0.15486E+01  8160   0.848E+00    0.962E-01
DAV:   2    -0.192203637425E+03   -0.51855E-01   -0.53486E-01 11840   0.252E+00    0.152E+00
DAV:   3    -0.192187724349E+03    0.15913E-01   -0.10238E-01 12040   0.243E+00    0.114E+00
DAV:   4    -0.192176090352E+03    0.11634E-01   -0.33044E-02 12440   0.129E+00    0.620E-01
DAV:   5    -0.192174092531E+03    0.19978E-02   -0.16279E-02 12240   0.989E-01    0.539E-01
DAV:   6    -0.192171830895E+03    0.22616E-02   -0.95818E-03 12720   0.702E-01    0.293E-01
DAV:   7    -0.192171731362E+03    0.99533E-04   -0.56472E-03 11880   0.535E-01    0.333E-01
DAV:   8    -0.192170522207E+03    0.12092E-02   -0.21958E-03 11120   0.372E-01    0.714E-02
DAV:   9    -0.192170463889E+03    0.58317E-04   -0.20125E-04  6280   0.712E-02
  27 F= -.19217046E+03 E0= -.19208007E+03  d E =-.626075E-01
       N       E                     dE             d eps       ncg     rms          rms(c)
DAV:   1    -0.192188614140E+03   -0.18092E-01   -0.38271E+00  8160   0.416E+00    0.462E-01
DAV:   2    -0.192204127478E+03   -0.15513E-01   -0.13627E-01 11720   0.136E+00    0.829E-01
DAV:   3    -0.192197787820E+03    0.63397E-02   -0.24734E-02 12200   0.124E+00    0.465E-01
DAV:   4    -0.192196204764E+03    0.15831E-02   -0.65277E-03 12280   0.573E-01    0.326E-01
DAV:   5    -0.192195406447E+03    0.79832E-03   -0.33535E-03 11600   0.461E-01    0.216E-01
DAV:   6    -0.192195167268E+03    0.23918E-03   -0.18621E-03 12120   0.281E-01    0.132E-01
DAV:   7    -0.192195166165E+03    0.11031E-05   -0.11960E-03 10360   0.250E-01    0.156E-01
DAV:   8    -0.192194891497E+03    0.27467E-03   -0.44320E-04  8840   0.173E-01    0.297E-02
DAV:   9    -0.192194888759E+03    0.27374E-05   -0.48088E-05  6080   0.331E-02
  28 F= -.19219489E+03 E0= -.19210555E+03  d E =-.244249E-01
       N       E                     dE             d eps       ncg     rms          rms(c)
DAV:   1    -0.192206701960E+03   -0.11810E-01   -0.12168E+00  8160   0.235E+00    0.254E-01
DAV:   2    -0.192210224408E+03   -0.35224E-02   -0.42180E-02 11400   0.613E-01    0.305E-01
DAV:   3    -0.192210106366E+03    0.11804E-03   -0.56998E-03 12280   0.602E-01    0.313E-01
DAV:   4    -0.192208935279E+03    0.11711E-02   -0.17446E-03 10800   0.335E-01    0.100E-01
DAV:   5    -0.192209153551E+03   -0.21827E-03   -0.93165E-04 10640   0.244E-01    0.175E-01
DAV:   6    -0.192208864410E+03    0.28914E-03   -0.72162E-04 10160   0.217E-01    0.608E-02
DAV:   7    -0.192208809247E+03    0.55163E-04   -0.12837E-04  6280   0.715E-02
  29 F= -.19220881E+03 E0= -.19212045E+03  d E =-.139205E-01
       N       E                     dE             d eps       ncg     rms          rms(c)
DAV:   1    -0.192223507068E+03   -0.14643E-01   -0.32366E+00  8160   0.384E+00    0.422E-01
DAV:   2    -0.192234391230E+03   -0.10884E-01   -0.11166E-01 11800   0.114E+00    0.628E-01
DAV:   3    -0.192231514410E+03    0.28768E-02   -0.16259E-02 11920   0.105E+00    0.440E-01
DAV:   4    -0.192229408035E+03    0.21064E-02   -0.42346E-03 11640   0.502E-01    0.203E-01
DAV:   5    -0.192229538414E+03   -0.13038E-03   -0.24017E-03 11680   0.407E-01    0.247E-01
DAV:   6    -0.192229080253E+03    0.45816E-03   -0.17283E-03 11520   0.313E-01    0.113E-01
DAV:   7    -0.192228948013E+03    0.13224E-03   -0.63008E-04 10480   0.161E-01    0.931E-02
DAV:   8    -0.192228862735E+03    0.85278E-04   -0.17351E-04  6840   0.112E-01
  30 F= -.19222886E+03 E0= -.19214219E+03  d E =-.200535E-01
       N       E                     dE             d eps       ncg     rms          rms(c)
DAV:   1    -0.192241881395E+03   -0.12933E-01   -0.21575E+00  8160   0.315E+00    0.351E-01
DAV:   2    -0.192248526515E+03   -0.66451E-02   -0.73787E-02 12080   0.897E-01    0.486E-01
DAV:   3    -0.192247293785E+03    0.12327E-02   -0.10573E-02 12040   0.853E-01    0.399E-01
DAV:   4    -0.192245696470E+03    0.15973E-02   -0.32587E-03 11520   0.450E-01    0.194E-01
DAV:   5    -0.192245656349E+03    0.40120E-04   -0.17604E-03 11920   0.361E-01    0.199E-01
DAV:   6    -0.192245352541E+03    0.30381E-03   -0.11280E-03 10720   0.241E-01    0.814E-02
DAV:   7    -0.192245250740E+03    0.10180E-03   -0.33654E-04  9280   0.108E-01    0.551E-02
DAV:   8    -0.192245224219E+03    0.26520E-04   -0.85737E-05  7680   0.851E-02
  31 F= -.19224522E+03 E0= -.19216029E+03  d E =-.163615E-01
       N       E                     dE             d eps       ncg     rms          rms(c)
DAV:   1    -0.192254357344E+03   -0.91066E-02   -0.87502E-01  8160   0.201E+00    0.236E-01
DAV:   2    -0.192257626112E+03   -0.32688E-02   -0.31707E-02 11400   0.671E-01    0.398E-01
DAV:   3    -0.192256325467E+03    0.13006E-02   -0.51382E-03 12000   0.598E-01    0.234E-01
DAV:   4    -0.192255869098E+03    0.45637E-03   -0.13313E-03 10000   0.280E-01    0.140E-01
DAV:   5    -0.192255772124E+03    0.96974E-04   -0.77045E-04 10840   0.242E-01
  32 F= -.19225577E+03 E0= -.19217201E+03  d E =-.105479E-01
       N       E                     dE             d eps       ncg     rms          rms(c)
DAV:   1    -0.192251560529E+03    0.43086E-02   -0.27600E-01  8160   0.118E+00    0.202E-01
DAV:   2    -0.192255168584E+03   -0.36081E-02   -0.15252E-02 12560   0.732E-01    0.575E-01
DAV:   3    -0.192251488113E+03    0.36805E-02   -0.64731E-03 11920   0.673E-01    0.144E-01
DAV:   4    -0.192251408512E+03    0.79601E-04   -0.11582E-03 10080   0.192E-01    0.128E-01
DAV:   5    -0.192251281409E+03    0.12710E-03   -0.60792E-04 10760   0.205E-01    0.105E-01
DAV:   6    -0.192251157137E+03    0.12427E-03   -0.35494E-04  8840   0.148E-01    0.417E-02
DAV:   7    -0.192251152570E+03    0.45671E-05   -0.11396E-04  6480   0.753E-02
  33 F= -.19225115E+03 E0= -.19216656E+03  d E =0.461955E-02
       N       E                     dE             d eps       ncg     rms          rms(c)
DAV:   1    -0.192254925156E+03   -0.37680E-02   -0.22517E-01  8160   0.102E+00    0.129E-01
DAV:   2    -0.192256172500E+03   -0.12473E-02   -0.10373E-02 12040   0.456E-01    0.264E-01
DAV:   3    -0.192255462104E+03    0.71040E-03   -0.17376E-03 11320   0.347E-01    0.989E-02
DAV:   4    -0.192255380086E+03    0.82017E-04   -0.34111E-04  7840   0.141E-01
  34 F= -.19225538E+03 E0= -.19217173E+03  d E =-.422752E-02
       N       E                     dE             d eps       ncg     rms          rms(c)
DAV:   1    -0.192241073607E+03    0.14388E-01   -0.55695E+00  8160   0.512E+00    0.738E-01
DAV:   2    -0.192284153328E+03   -0.43080E-01   -0.22788E-01 13320   0.253E+00    0.192E+00
DAV:   3    -0.192245805154E+03    0.38348E-01   -0.83470E-02 12400   0.231E+00    0.546E-01
DAV:   4    -0.192246210700E+03   -0.40555E-03   -0.15650E-02 11960   0.873E-01    0.645E-01
DAV:   5    -0.192241516227E+03    0.46945E-02   -0.10358E-02 12560   0.861E-01    0.270E-01
DAV:   6    -0.192240870246E+03    0.64598E-03   -0.39426E-03 12160   0.365E-01    0.141E-01
DAV:   7    -0.192240586696E+03    0.28355E-03   -0.15530E-03 11520   0.200E-01    0.946E-02
DAV:   8    -0.192240518915E+03    0.67781E-04   -0.37309E-04  9480   0.161E-01
  35 F= -.19224052E+03 E0= -.19215577E+03  d E =0.148612E-01
       N       E                     dE             d eps       ncg     rms          rms(c)
DAV:   1    -0.192241094943E+03   -0.50825E-03   -0.74159E-02  8160   0.585E-01    0.684E-02
DAV:   2    -0.192241529969E+03   -0.43503E-03   -0.28178E-03 11960   0.233E-01    0.160E-01
DAV:   3    -0.192241230418E+03    0.29955E-03   -0.59867E-04  9840   0.208E-01    0.519E-02
DAV:   4    -0.192241214839E+03    0.15579E-04   -0.10515E-04  6000   0.732E-02
  36 F= -.19224121E+03 E0= -.19215625E+03  d E =-.695924E-03
       N       E                     dE             d eps       ncg     rms          rms(c)
DAV:   1    -0.192240950903E+03    0.27951E-03   -0.19396E+00  8160   0.298E+00    0.394E-01
DAV:   2    -0.192253860601E+03   -0.12910E-01   -0.95247E-02 12240   0.142E+00    0.888E-01
DAV:   3    -0.192246008004E+03    0.78526E-02   -0.18039E-02 12400   0.116E+00    0.314E-01
DAV:   4    -0.192244807906E+03    0.12001E-02   -0.29500E-03 11040   0.400E-01    0.184E-01
DAV:   5    -0.192244920565E+03   -0.11266E-03   -0.19778E-03 11720   0.371E-01    0.226E-01
DAV:   6    -0.192244404595E+03    0.51597E-03   -0.16122E-03 11880   0.303E-01    0.927E-02
DAV:   7    -0.192244339384E+03    0.65212E-04   -0.47508E-04  8760   0.144E-01
  37 F= -.19224434E+03 E0= -.19216150E+03  d E =-.312455E-02
       N       E                     dE             d eps       ncg     rms          rms(c)
DAV:   1    -0.192250564103E+03   -0.61595E-02   -0.82121E-01  8160   0.194E+00    0.280E-01
DAV:   2    -0.192258125677E+03   -0.75616E-02   -0.39009E-02 11560   0.116E+00    0.751E-01
DAV:   3    -0.192251589412E+03    0.65363E-02   -0.10681E-02 11760   0.894E-01    0.156E-01
DAV:   4    -0.192251477677E+03    0.11174E-03   -0.13400E-03 11040   0.252E-01    0.166E-01
DAV:   5    -0.192251381804E+03    0.95873E-04   -0.10671E-03 10800   0.277E-01    0.150E-01
DAV:   6    -0.192251180998E+03    0.20081E-03   -0.75502E-04  9880   0.183E-01    0.634E-02
DAV:   7    -0.192251151113E+03    0.29885E-04   -0.22842E-04  7600   0.109E-01
  38 F= -.19225115E+03 E0= -.19216803E+03  d E =-.681173E-02
       N       E                     dE             d eps       ncg     rms          rms(c)
DAV:   1    -0.192255352873E+03   -0.41719E-02   -0.20900E-01  8160   0.992E-01    0.137E-01
DAV:   2    -0.192256211020E+03   -0.85815E-03   -0.87952E-03 11200   0.378E-01    0.242E-01
DAV:   3    -0.192255721778E+03    0.48924E-03   -0.18720E-03 12440   0.358E-01    0.137E-01
DAV:   4    -0.192255522828E+03    0.19895E-03   -0.47906E-04  8520   0.156E-01    0.605E-02
DAV:   5    -0.192255480016E+03    0.42813E-04   -0.19726E-04  6560   0.714E-02
  39 F= -.19225548E+03 E0= -.19217339E+03  d E =-.432890E-02
       N       E                     dE             d eps       ncg     rms          rms(c)
DAV:   1    -0.192261848591E+03   -0.63258E-02   -0.53066E-01  8160   0.158E+00    0.216E-01
DAV:   2    -0.192265002629E+03   -0.31540E-02   -0.22236E-02 12040   0.675E-01    0.469E-01
DAV:   3    -0.192262708406E+03    0.22942E-02   -0.51029E-03 12400   0.622E-01    0.165E-01
DAV:   4    -0.192262439114E+03    0.26929E-03   -0.72583E-04  9880   0.174E-01    0.920E-02
DAV:   5    -0.192262511366E+03   -0.72253E-04   -0.51391E-04  9720   0.197E-01
  40 F= -.19226251E+03 E0= -.19218151E+03  d E =-.703135E-02
       N       E                     dE             d eps       ncg     rms          rms(c)
DAV:   1    -0.192269163038E+03   -0.67239E-02   -0.62161E-01  8160   0.171E+00    0.218E-01
DAV:   2    -0.192271499192E+03   -0.23362E-02   -0.21402E-02 12120   0.597E-01    0.396E-01
DAV:   3    -0.192270109930E+03    0.13893E-02   -0.43596E-03 12360   0.565E-01    0.195E-01
DAV:   4    -0.192269654261E+03    0.45567E-03   -0.70927E-04  9960   0.195E-01    0.668E-02
DAV:   5    -0.192269973795E+03   -0.31953E-03   -0.65588E-04 10240   0.227E-01    0.175E-01
DAV:   6    -0.192269618259E+03    0.35554E-03   -0.41347E-04  8600   0.193E-01    0.228E-02
DAV:   7    -0.192269621326E+03   -0.30675E-05   -0.44082E-05  6480   0.353E-02
  41 F= -.19226962E+03 E0= -.19218992E+03  d E =-.710996E-02
       N       E                     dE             d eps       ncg     rms          rms(c)
DAV:   1    -0.192279989749E+03   -0.10371E-01   -0.17016E+00  8160   0.281E+00    0.358E-01
DAV:   2    -0.192287553659E+03   -0.75639E-02   -0.61429E-02 11680   0.105E+00    0.704E-01
DAV:   3    -0.192282681871E+03    0.48718E-02   -0.13289E-02 12400   0.984E-01    0.307E-01
DAV:   4    -0.192281693340E+03    0.98853E-03   -0.24436E-03 11120   0.325E-01    0.137E-01
DAV:   5    -0.192281587744E+03    0.10560E-03   -0.12964E-03 11360   0.194E-01    0.134E-01
DAV:   6    -0.192281709357E+03   -0.12161E-03   -0.99710E-04 10440   0.286E-01    0.168E-01
DAV:   7    -0.192281355833E+03    0.35352E-03   -0.48446E-04  9120   0.191E-01    0.252E-02
DAV:   8    -0.192281365338E+03   -0.95053E-05   -0.52343E-05  6680   0.481E-02
  42 F= -.19228137E+03 E0= -.19220325E+03  d E =-.117440E-01
       N       E                     dE             d eps       ncg     rms          rms(c)
DAV:   1    -0.192286357937E+03   -0.50021E-02   -0.34437E-01  8160   0.126E+00    0.159E-01
DAV:   2    -0.192287902057E+03   -0.15441E-02   -0.11755E-02 11760   0.471E-01    0.325E-01
DAV:   3    -0.192286841018E+03    0.10610E-02   -0.27464E-03 12560   0.449E-01    0.133E-01
DAV:   4    -0.192286702005E+03    0.13901E-03   -0.45307E-04  8840   0.144E-01    0.704E-02
DAV:   5    -0.192286685400E+03    0.16606E-04   -0.24947E-04  8520   0.119E-01
  43 F= -.19228669E+03 E0= -.19220899E+03  d E =-.532006E-02
       N       E                     dE             d eps       ncg     rms          rms(c)
DAV:   1    -0.192276205418E+03    0.10497E-01   -0.11556E+00  8160   0.231E+00    0.307E-01
DAV:   2    -0.192284241378E+03   -0.80360E-02   -0.45310E-02 11760   0.106E+00    0.794E-01
DAV:   3    -0.192277763774E+03    0.64776E-02   -0.13827E-02 12400   0.972E-01    0.226E-01
DAV:   4    -0.192277352407E+03    0.41137E-03   -0.20525E-03 11480   0.261E-01    0.140E-01
DAV:   5    -0.192277083129E+03    0.26928E-03   -0.10991E-03 11400   0.209E-01    0.109E-01
DAV:   6    -0.192277151846E+03   -0.68717E-04   -0.71788E-04 10320   0.231E-01
  44 F= -.19227715E+03 E0= -.19219839E+03  d E =0.953355E-02
       N       E                     dE             d eps       ncg     rms          rms(c)
DAV:   1    -0.192275926426E+03    0.11567E-02   -0.25318E-02  8160   0.354E-01    0.540E-02
DAV:   2    -0.192275973921E+03   -0.47495E-04   -0.93808E-04 11720   0.118E-01
  45 F= -.19227597E+03 E0= -.19219723E+03  d E =0.117792E-02
       N       E                     dE             d eps       ncg     rms          rms(c)
DAV:   1    -0.192280355672E+03   -0.44292E-02   -0.28291E-01  8160   0.115E+00    0.130E-01
DAV:   2    -0.192281127807E+03   -0.77213E-03   -0.91890E-03 12240   0.314E-01    0.185E-01
DAV:   3    -0.192280949613E+03    0.17819E-03   -0.16046E-03 12320   0.330E-01    0.155E-01
DAV:   4    -0.192280712781E+03    0.23683E-03   -0.48715E-04  8560   0.178E-01    0.644E-02
DAV:   5    -0.192280675507E+03    0.37274E-04   -0.17937E-04  6960   0.928E-02
  46 F= -.19228068E+03 E0= -.19220237E+03  d E =-.470159E-02
       N       E                     dE             d eps       ncg     rms          rms(c)
DAV:   1    -0.192279283310E+03    0.14295E-02   -0.23452E-02  8160   0.346E-01    0.695E-02
DAV:   2    -0.192280103912E+03   -0.82060E-03   -0.20448E-03 12440   0.340E-01    0.258E-01
DAV:   3    -0.192279276644E+03    0.82727E-03   -0.10019E-03 10160   0.291E-01    0.374E-02
DAV:   4    -0.192279273325E+03    0.33188E-05   -0.59594E-05  5960   0.556E-02
  47 F= -.19227927E+03 E0= -.19220095E+03  d E =0.140218E-02
       N       E                     dE             d eps       ncg     rms          rms(c)
DAV:   1    -0.192263450489E+03    0.15826E-01   -0.28569E+00  8160   0.363E+00    0.480E-01
DAV:   2    -0.192277904386E+03   -0.14454E-01   -0.96499E-02 11480   0.149E+00    0.110E+00
DAV:   3    -0.192266390421E+03    0.11514E-01   -0.28988E-02 12160   0.138E+00    0.379E-01
DAV:   4    -0.192265436306E+03    0.95412E-03   -0.52582E-03 11760   0.475E-01    0.273E-01
DAV:   5    -0.192264779649E+03    0.65666E-03   -0.36027E-03 11480   0.482E-01    0.238E-01
DAV:   6    -0.192264448062E+03    0.33159E-03   -0.20875E-03 11440   0.355E-01    0.141E-01
DAV:   7    -0.192264112328E+03    0.33573E-03   -0.60520E-04 10440   0.129E-01    0.281E-02
DAV:   8    -0.192264123671E+03   -0.11343E-04   -0.70396E-05  6960   0.622E-02
  48 F= -.19226412E+03 E0= -.19218491E+03  d E =0.151497E-01
       N       E                     dE             d eps       ncg     rms          rms(c)
DAV:   1    -0.192281276057E+03   -0.17164E-01   -0.42719E+00  8160   0.444E+00    0.543E-01
DAV:   2    -0.192292413917E+03   -0.11138E-01   -0.12687E-01 11960   0.135E+00    0.829E-01
DAV:   3    -0.192287262645E+03    0.51513E-02   -0.23985E-02 12280   0.132E+00    0.565E-01
DAV:   4    -0.192284162088E+03    0.31006E-02   -0.78731E-03 11920   0.653E-01    0.260E-01
DAV:   5    -0.192283441001E+03    0.72109E-03   -0.39506E-03 12080   0.402E-01    0.212E-01
DAV:   6    -0.192283674403E+03   -0.23340E-03   -0.25073E-03 11520   0.437E-01    0.234E-01
DAV:   7    -0.192282887875E+03    0.78653E-03   -0.10267E-03 10840   0.242E-01    0.366E-02
DAV:   8    -0.192282913718E+03   -0.25843E-04   -0.10727E-04  6480   0.833E-02
  49 F= -.19228291E+03 E0= -.19220480E+03  d E =-.187900E-01
       N       E                     dE             d eps       ncg     rms          rms(c)
DAV:   1    -0.192285339564E+03   -0.24517E-02   -0.87558E-02  8160   0.636E-01    0.794E-02
DAV:   2    -0.192285678237E+03   -0.33867E-03   -0.28584E-03 12200   0.229E-01    0.152E-01
DAV:   3    -0.192285458856E+03    0.21938E-03   -0.66219E-04 11280   0.217E-01    0.726E-02
DAV:   4    -0.192285413645E+03    0.45210E-04   -0.10000E-04  6240   0.788E-02
  50 F= -.19228541E+03 E0= -.19220750E+03  d E =-.249993E-02
       N       E                     dE             d eps       ncg     rms          rms(c)
DAV:   1    -0.192282100623E+03    0.33582E-02   -0.12577E-01  8160   0.759E-01    0.932E-02
DAV:   2    -0.192282727437E+03   -0.62681E-03   -0.42053E-03 11720   0.303E-01    0.209E-01
DAV:   3    -0.192282249040E+03    0.47840E-03   -0.10996E-03 10280   0.278E-01    0.751E-02
DAV:   4    -0.192282214397E+03    0.34643E-04   -0.20636E-04  7200   0.943E-02
  51 F= -.19228221E+03 E0= -.19220409E+03  d E =0.319925E-02
       N       E                     dE             d eps       ncg     rms          rms(c)
DAV:   1    -0.192277058652E+03    0.51904E-02   -0.41904E-01  8160   0.139E+00    0.176E-01
DAV:   2    -0.192278092954E+03   -0.10343E-02   -0.11523E-02 12840   0.431E-01    0.287E-01
DAV:   3    -0.192277393518E+03    0.69944E-03   -0.28356E-03 12160   0.437E-01    0.177E-01
DAV:   4    -0.192277158521E+03    0.23500E-03   -0.92060E-04 10120   0.214E-01    0.999E-02
DAV:   5    -0.192277047439E+03    0.11108E-03   -0.54147E-04  9280   0.161E-01    0.819E-02
DAV:   6    -0.192277034086E+03    0.13353E-04   -0.30829E-04  8840   0.151E-01
  52 F= -.19227703E+03 E0= -.19219858E+03  d E =0.518031E-02
       N       E                     dE             d eps       ncg     rms          rms(c)
DAV:   1    -0.192252033930E+03    0.25014E-01   -0.68786E+00  8160   0.564E+00    0.686E-01
DAV:   2    -0.192274197441E+03   -0.22164E-01   -0.20409E-01 12400   0.186E+00    0.127E+00
DAV:   3    -0.192261309095E+03    0.12888E-01   -0.54040E-02 12400   0.184E+00    0.664E-01
DAV:   4    -0.192257182771E+03    0.41263E-02   -0.11924E-02 12560   0.727E-01    0.338E-01
DAV:   5    -0.192255741426E+03    0.14413E-02   -0.66138E-03 11080   0.519E-01    0.290E-01
DAV:   6    -0.192256118089E+03   -0.37666E-03   -0.47263E-03 11080   0.578E-01    0.310E-01
DAV:   7    -0.192254810936E+03    0.13072E-02   -0.18829E-03  9920   0.325E-01    0.694E-02
DAV:   8    -0.192254803893E+03    0.70431E-05   -0.24005E-04  8600   0.121E-01
  53 F= -.19225480E+03 E0= -.19217537E+03  d E =0.222302E-01
       N       E                     dE             d eps       ncg     rms          rms(c)
DAV:   1    -0.192278744802E+03   -0.23934E-01   -0.10371E+01  8160   0.691E+00    0.803E-01
DAV:   2    -0.192292920073E+03   -0.14175E-01   -0.27633E-01 12200   0.156E+00    0.745E-01
DAV:   3    -0.192297245410E+03   -0.43253E-02   -0.45195E-02 12440   0.165E+00    0.108E+00
DAV:   4    -0.192286892133E+03    0.10353E-01   -0.27376E-02 11800   0.140E+00    0.503E-01
DAV:   5    -0.192283071105E+03    0.38210E-02   -0.90953E-03 11960   0.564E-01    0.236E-01
DAV:   6    -0.192284900213E+03   -0.18291E-02   -0.55105E-03 11120   0.642E-01    0.453E-01
DAV:   7    -0.192282452641E+03    0.24476E-02   -0.29370E-03 10560   0.480E-01    0.508E-02
DAV:   8    -0.192282491295E+03   -0.38654E-04   -0.23333E-04  8480   0.106E-01
  54 F= -.19228249E+03 E0= -.19220445E+03  d E =-.276874E-01
       N       E                     dE             d eps       ncg     rms          rms(c)
DAV:   1    -0.192281085990E+03    0.13667E-02   -0.34158E-02  8400   0.412E-01    0.579E-02
DAV:   2    -0.192281313067E+03   -0.22708E-03   -0.13682E-03 13520   0.179E-01    0.127E-01
DAV:   3    -0.192281122896E+03    0.19017E-03   -0.38227E-04  9080   0.174E-01    0.504E-02
DAV:   4    -0.192281109895E+03    0.13002E-04   -0.80378E-05  6320   0.665E-02
  55 F= -.19228111E+03 E0= -.19220297E+03  d E =0.138140E-02
       N       E                     dE             d eps       ncg     rms          rms(c)
DAV:   1    -0.192282009249E+03   -0.88635E-03   -0.29480E-02  8240   0.374E-01    0.634E-02
DAV:   2    -0.192282179241E+03   -0.16999E-03   -0.15468E-03 11880   0.199E-01    0.122E-01
DAV:   3    -0.192282016737E+03    0.16250E-03   -0.36252E-04  9240   0.168E-01    0.462E-02
DAV:   4    -0.192281991986E+03    0.24751E-04   -0.81140E-05  6360   0.674E-02
  56 F= -.19228199E+03 E0= -.19220394E+03  d E =-.882091E-03
       N       E                     dE             d eps       ncg     rms          rms(c)
DAV:   1    -0.192284033969E+03   -0.20172E-02   -0.64545E-02  8160   0.552E-01    0.880E-02
DAV:   2    -0.192284882864E+03   -0.84889E-03   -0.32071E-03 11440   0.343E-01    0.264E-01
DAV:   3    -0.192284069217E+03    0.81365E-03   -0.11276E-03 10520   0.301E-01    0.474E-02
DAV:   4    -0.192284079581E+03   -0.10365E-04   -0.99409E-05  6000   0.759E-02
  57 F= -.19228408E+03 E0= -.19220620E+03  d E =-.208760E-02
       N       E                     dE             d eps       ncg     rms          rms(c)
DAV:   1    -0.192279959075E+03    0.41101E-02   -0.28428E-01  8160   0.116E+00    0.146E-01
DAV:   2    -0.192281539198E+03   -0.15801E-02   -0.11417E-02 12200   0.459E-01    0.309E-01
DAV:   3    -0.192280487609E+03    0.10516E-02   -0.25165E-03 12240   0.424E-01    0.118E-01
DAV:   4    -0.192280401928E+03    0.85681E-04   -0.43400E-04  8600   0.156E-01
  58 F= -.19228040E+03 E0= -.19220212E+03  d E =0.367765E-02
       N       E                     dE             d eps       ncg     rms          rms(c)
DAV:   1    -0.192287865969E+03   -0.73784E-02   -0.99512E-01  8160   0.214E+00    0.252E-01
DAV:   2    -0.192291729407E+03   -0.38634E-02   -0.33732E-02 12040   0.771E-01    0.463E-01
DAV:   3    -0.192289418904E+03    0.23105E-02   -0.62681E-03 12400   0.662E-01    0.195E-01
DAV:   4    -0.192289155671E+03    0.26323E-03   -0.13523E-03 10280   0.260E-01    0.149E-01
DAV:   5    -0.192289025639E+03    0.13003E-03   -0.84063E-04 11280   0.254E-01    0.130E-01
DAV:   6    -0.192288935346E+03    0.90294E-04   -0.57286E-04  8760   0.185E-01
  59 F= -.19228894E+03 E0= -.19221170E+03  d E =-.853342E-02
       N       E                     dE             d eps       ncg     rms          rms(c)
DAV:   1    -0.192291594984E+03   -0.25693E-02   -0.11145E-01  8160   0.720E-01    0.930E-02
DAV:   2    -0.192292088094E+03   -0.49311E-03   -0.38203E-03 12000   0.265E-01    0.189E-01
DAV:   3    -0.192291731714E+03    0.35638E-03   -0.87595E-04 10440   0.259E-01    0.761E-02
DAV:   4    -0.192291679370E+03    0.52344E-04   -0.97260E-05  5880   0.761E-02
  60 F= -.19229168E+03 E0= -.19221454E+03  d E =-.274402E-02
       N       E                     dE             d eps       ncg     rms          rms(c)
DAV:   1    -0.192293463562E+03   -0.17318E-02   -0.49502E-02  8160   0.489E-01    0.784E-02
DAV:   2    -0.192293827923E+03   -0.36436E-03   -0.21069E-03 12600   0.229E-01    0.170E-01
DAV:   3    -0.192293482210E+03    0.34571E-03   -0.65167E-04 10760   0.221E-01    0.572E-02
DAV:   4    -0.192293479669E+03    0.25415E-05   -0.10709E-04  6200   0.824E-02
  61 F= -.19229348E+03 E0= -.19221648E+03  d E =-.180030E-02
       N       E                     dE             d eps       ncg     rms          rms(c)
DAV:   1    -0.192301067819E+03   -0.75856E-02   -0.10258E+00  8160   0.217E+00    0.277E-01
DAV:   2    -0.192304604170E+03   -0.35364E-02   -0.32467E-02 12240   0.763E-01    0.498E-01
DAV:   3    -0.192302302512E+03    0.23017E-02   -0.70946E-03 12280   0.730E-01    0.259E-01
DAV:   4    -0.192301606260E+03    0.69625E-03   -0.16405E-03 11520   0.276E-01    0.106E-01
DAV:   5    -0.192301479235E+03    0.12703E-03   -0.87276E-04 10800   0.136E-01    0.795E-02
DAV:   6    -0.192301531625E+03   -0.52390E-04   -0.45339E-04  9280   0.180E-01
  62 F= -.19230153E+03 E0= -.19222497E+03  d E =-.805196E-02
       N       E                     dE             d eps       ncg     rms          rms(c)
DAV:   1    -0.192299111389E+03    0.23678E-02   -0.19677E-01  8160   0.994E-01    0.148E-01
DAV:   2    -0.192299310796E+03   -0.19941E-03   -0.77107E-03 10440   0.275E-01    0.149E-01
DAV:   3    -0.192299449578E+03   -0.13878E-03   -0.17420E-03 12280   0.344E-01    0.209E-01
DAV:   4    -0.192298935176E+03    0.51440E-03   -0.71297E-04  9480   0.239E-01    0.523E-02
DAV:   5    -0.192298937166E+03   -0.19902E-05   -0.23437E-04  6920   0.104E-01
  63 F= -.19229894E+03 E0= -.19222236E+03  d E =0.259446E-02
       N       E                     dE             d eps       ncg     rms          rms(c)
DAV:   1    -0.192301976830E+03   -0.30417E-02   -0.15315E-01  8160   0.857E-01    0.120E-01
DAV:   2    -0.192303093971E+03   -0.11171E-02   -0.58281E-03 12760   0.415E-01    0.307E-01
DAV:   3    -0.192302039822E+03    0.10541E-02   -0.17588E-03 11440   0.377E-01    0.790E-02
DAV:   4    -0.192301994098E+03    0.45723E-04   -0.25365E-04  7280   0.860E-02
  64 F= -.19230199E+03 E0= -.19222572E+03  d E =-.305693E-02
       N       E                     dE             d eps       ncg     rms          rms(c)
DAV:   1    -0.192297569636E+03    0.44702E-02   -0.50557E-01  8160   0.155E+00    0.228E-01
DAV:   2    -0.192299225028E+03   -0.16554E-02   -0.18599E-02 12720   0.591E-01    0.404E-01
DAV:   3    -0.192297777496E+03    0.14475E-02   -0.51157E-03 12520   0.607E-01    0.224E-01
DAV:   4    -0.192297278298E+03    0.49920E-03   -0.15347E-03 11200   0.268E-01    0.109E-01
DAV:   5    -0.192297021786E+03    0.25651E-03   -0.72183E-04 10960   0.105E-01    0.386E-02
DAV:   6    -0.192296998659E+03    0.23127E-04   -0.15192E-04  6240   0.428E-02
  65 F= -.19229700E+03 E0= -.19222037E+03  d E =0.499544E-02
       N       E                     dE             d eps       ncg     rms          rms(c)
DAV:   1    -0.192309256484E+03   -0.12235E-01   -0.17991E+00  8160   0.290E+00    0.417E-01
DAV:   2    -0.192315285369E+03   -0.60289E-02   -0.60874E-02 11920   0.113E+00    0.757E-01
DAV:   3    -0.192309681209E+03    0.56042E-02   -0.15148E-02 12440   0.109E+00    0.365E-01
DAV:   4    -0.192308298852E+03    0.13824E-02   -0.43617E-03 11080   0.451E-01    0.191E-01
DAV:   5    -0.192307821154E+03    0.47770E-03   -0.22366E-03 10920   0.283E-01    0.146E-01
DAV:   6    -0.192307856751E+03   -0.35597E-04   -0.12471E-03 10840   0.299E-01    0.152E-01
DAV:   7    -0.192307554378E+03    0.30237E-03   -0.45977E-04  8720   0.170E-01    0.324E-02
DAV:   8    -0.192307562349E+03   -0.79708E-05   -0.70418E-05  6520   0.679E-02
  66 F= -.19230756E+03 E0= -.19223185E+03  d E =-.105637E-01
       N       E                     dE             d eps       ncg     rms          rms(c)
DAV:   1    -0.192308477026E+03   -0.92265E-03   -0.42664E-02  8320   0.488E-01    0.108E-01
DAV:   2    -0.192308357109E+03    0.11992E-03   -0.23413E-03 11720   0.188E-01    0.115E-01
DAV:   3    -0.192308339486E+03    0.17623E-04   -0.74303E-04 10040   0.237E-01
  67 F= -.19230834E+03 E0= -.19223261E+03  d E =-.777137E-03
       N       E                     dE             d eps       ncg     rms          rms(c)
DAV:   1    -0.192312248956E+03   -0.38918E-02   -0.29129E-01  8160   0.116E+00    0.140E-01
DAV:   2    -0.192313004620E+03   -0.75566E-03   -0.87673E-03 12040   0.371E-01    0.217E-01
DAV:   3    -0.192312681306E+03    0.32331E-03   -0.16575E-03 12240   0.355E-01    0.147E-01
DAV:   4    -0.192312439078E+03    0.24223E-03   -0.41234E-04  8520   0.164E-01    0.548E-02
DAV:   5    -0.192312445102E+03   -0.60240E-05   -0.20292E-04  7480   0.105E-01
  68 F= -.19231245E+03 E0= -.19223679E+03  d E =-.410562E-02
       N       E                     dE             d eps       ncg     rms          rms(c)
DAV:   1    -0.192314133520E+03   -0.16944E-02   -0.45334E-02  8160   0.474E-01    0.714E-02
DAV:   2    -0.192314465867E+03   -0.33235E-03   -0.18329E-03 12840   0.237E-01    0.165E-01
DAV:   3    -0.192314150262E+03    0.31561E-03   -0.53224E-04  9240   0.217E-01    0.535E-02
DAV:   4    -0.192314134694E+03    0.15568E-04   -0.97588E-05  5760   0.679E-02
  69 F= -.19231413E+03 E0= -.19223869E+03  d E =-.168959E-02
       N       E                     dE             d eps       ncg     rms          rms(c)
DAV:   1    -0.192316391152E+03   -0.22409E-02   -0.87464E-02  8160   0.631E-01    0.986E-02
DAV:   2    -0.192317419954E+03   -0.10288E-02   -0.39423E-03 12280   0.408E-01    0.286E-01
DAV:   3    -0.192316414986E+03    0.10050E-02   -0.12777E-03 11080   0.325E-01    0.478E-02
DAV:   4    -0.192316459871E+03   -0.44886E-04   -0.14508E-04  6680   0.103E-01
  70 F= -.19231646E+03 E0= -.19224115E+03  d E =-.232518E-02
       N       E                     dE             d eps       ncg     rms          rms(c)
DAV:   1    -0.192321781705E+03   -0.53667E-02   -0.58866E-01  8160   0.164E+00    0.202E-01
DAV:   2    -0.192323417579E+03   -0.16359E-02   -0.17557E-02 11840   0.506E-01    0.320E-01
DAV:   3    -0.192322568197E+03    0.84938E-03   -0.34364E-03 12120   0.503E-01    0.201E-01
DAV:   4    -0.192322209715E+03    0.35848E-03   -0.98315E-04 10040   0.231E-01    0.958E-02
DAV:   5    -0.192322135267E+03    0.74449E-04   -0.55280E-04  9600   0.163E-01
  71 F= -.19232214E+03 E0= -.19224740E+03  d E =-.567540E-02
       N       E                     dE             d eps       ncg     rms          rms(c)
DAV:   1    -0.192320768182E+03    0.14415E-02   -0.45589E-02  8160   0.472E-01    0.941E-02
DAV:   2    -0.192321813194E+03   -0.10450E-02   -0.33427E-03 11480   0.389E-01    0.284E-01
DAV:   3    -0.192320743631E+03    0.10696E-02   -0.13816E-03 10080   0.337E-01    0.569E-02
DAV:   4    -0.192320718111E+03    0.25520E-04   -0.12694E-04  5760   0.789E-02
  72 F= -.19232072E+03 E0= -.19224590E+03  d E =0.141716E-02
       N       E                     dE             d eps       ncg     rms          rms(c)
DAV:   1    -0.192323697028E+03   -0.29534E-02   -0.21173E-01  8160   0.981E-01    0.111E-01
DAV:   2    -0.192324604373E+03   -0.90735E-03   -0.69694E-03 13160   0.368E-01    0.232E-01
DAV:   3    -0.192324046478E+03    0.55790E-03   -0.12819E-03 10880   0.320E-01    0.866E-02
DAV:   4    -0.192323972530E+03    0.73948E-04   -0.14549E-04  6160   0.100E-01
  73 F= -.19232397E+03 E0= -.19224944E+03  d E =-.325442E-02
       N       E                     dE             d eps       ncg     rms          rms(c)
DAV:   1    -0.192324494840E+03   -0.44836E-03   -0.53791E-03  8360   0.175E-01    0.680E-02
DAV:   2    -0.192325151801E+03   -0.65696E-03   -0.12457E-03 10760   0.322E-01    0.238E-01
DAV:   3    -0.192324422178E+03    0.72962E-03   -0.69939E-04 10160   0.257E-01    0.244E-02
DAV:   4    -0.192324459437E+03   -0.37259E-04   -0.54132E-05  5960   0.710E-02
  74 F= -.19232446E+03 E0= -.19224995E+03  d E =-.486907E-03
       N       E                     dE             d eps       ncg     rms          rms(c)
DAV:   1    -0.192326678898E+03   -0.22567E-02   -0.11898E-01  8160   0.738E-01    0.898E-02
DAV:   2    -0.192326953174E+03   -0.27428E-03   -0.35119E-03 12240   0.221E-01    0.127E-01
DAV:   3    -0.192326858523E+03    0.94650E-04   -0.62619E-04 11240   0.221E-01
  75 F= -.19232686E+03 E0= -.19225235E+03  d E =-.239909E-02
       N       E                     dE             d eps       ncg     rms          rms(c)
DAV:   1    -0.192325937763E+03    0.10154E-02   -0.13647E-02  8240   0.273E-01    0.369E-02
DAV:   2    -0.192326166620E+03   -0.22886E-03   -0.72827E-04 10440   0.170E-01    0.128E-01
DAV:   3    -0.192325965746E+03    0.20087E-03   -0.24916E-04  7960   0.149E-01    0.212E-02
DAV:   4    -0.192325967447E+03   -0.17006E-05   -0.27468E-05  5960   0.297E-02
  76 F= -.19232597E+03 E0= -.19225153E+03  d E =0.891077E-03
       N       E                     dE             d eps       ncg     rms          rms(c)
DAV:   1    -0.192327460185E+03   -0.14944E-02   -0.10294E-01  8160   0.688E-01    0.988E-02
DAV:   2    -0.192328099893E+03   -0.63971E-03   -0.52803E-03 12400   0.350E-01    0.200E-01
DAV:   3    -0.192327647457E+03    0.45244E-03   -0.93794E-04 10840   0.271E-01    0.670E-02
DAV:   4    -0.192327606904E+03    0.40553E-04   -0.16789E-04  6480   0.102E-01
  77 F= -.19232761E+03 E0= -.19225338E+03  d E =-.163946E-02
       N       E                     dE             d eps       ncg     rms          rms(c)
DAV:   1    -0.192326257014E+03    0.13904E-02   -0.59015E-02  8160   0.530E-01    0.884E-02
DAV:   2    -0.192327252880E+03   -0.99587E-03   -0.34696E-03 13600   0.364E-01    0.269E-01
DAV:   3    -0.192326303804E+03    0.94908E-03   -0.13532E-03 10480   0.327E-01    0.479E-02
DAV:   4    -0.192326314610E+03   -0.10807E-04   -0.98075E-05  5800   0.759E-02
  78 F= -.19232631E+03 E0= -.19225215E+03  d E =0.129229E-02
       N       E                     dE             d eps       ncg     rms          rms(c)
DAV:   1    -0.192328113863E+03   -0.18101E-02   -0.91118E-02  8160   0.668E-01    0.987E-02
DAV:   2    -0.192328636857E+03   -0.52299E-03   -0.32692E-03 11880   0.327E-01    0.224E-01
DAV:   3    -0.192328092669E+03    0.54419E-03   -0.97156E-04 10960   0.286E-01    0.660E-02
DAV:   4    -0.192328045373E+03    0.47296E-04   -0.15906E-04  7120   0.954E-02
  79 F= -.19232805E+03 E0= -.19225382E+03  d E =-.173076E-02
       N       E                     dE             d eps       ncg     rms          rms(c)
DAV:   1    -0.192330484669E+03   -0.23920E-02   -0.15849E-01  8160   0.852E-01    0.117E-01
DAV:   2    -0.192331632880E+03   -0.11482E-02   -0.58836E-03 12520   0.402E-01    0.288E-01
DAV:   3    -0.192330610617E+03    0.10223E-02   -0.16550E-03 12160   0.359E-01    0.722E-02
DAV:   4    -0.192330624129E+03   -0.13512E-04   -0.23798E-04  7800   0.114E-01
  80 F= -.19233062E+03 E0= -.19225649E+03  d E =-.257876E-02
       N       E                     dE             d eps       ncg     rms          rms(c)
DAV:   1    -0.192332209125E+03   -0.15985E-02   -0.74707E-02  8160   0.595E-01    0.900E-02
DAV:   2    -0.192332803988E+03   -0.59486E-03   -0.27866E-03 13600   0.298E-01    0.224E-01
DAV:   3    -0.192332229586E+03    0.57440E-03   -0.91235E-04 10600   0.276E-01    0.611E-02
DAV:   4    -0.192332212033E+03    0.17552E-04   -0.12362E-04  6080   0.656E-02
  81 F= -.19233221E+03 E0= -.19225822E+03  d E =-.158790E-02
       N       E                     dE             d eps       ncg     rms          rms(c)
DAV:   1    -0.192334087399E+03   -0.18578E-02   -0.10628E-01  8160   0.698E-01    0.940E-02
DAV:   2    -0.192334594404E+03   -0.50701E-03   -0.36605E-03 12400   0.303E-01    0.198E-01
DAV:   3    -0.192334167786E+03    0.42662E-03   -0.80740E-04 11120   0.255E-01    0.637E-02
DAV:   4    -0.192334153517E+03    0.14269E-04   -0.12519E-04  6120   0.980E-02
  82 F= -.19233415E+03 E0= -.19226036E+03  d E =-.194148E-02
       N       E                     dE             d eps       ncg     rms          rms(c)
DAV:   1    -0.192338361800E+03   -0.41940E-02   -0.90691E-01  8160   0.203E+00    0.238E-01
DAV:   2    -0.192341437595E+03   -0.30758E-02   -0.28740E-02 12320   0.659E-01    0.412E-01
DAV:   3    -0.192339896082E+03    0.15415E-02   -0.47998E-03 12240   0.619E-01    0.221E-01
DAV:   4    -0.192339376086E+03    0.52000E-03   -0.10918E-03 10280   0.243E-01    0.937E-02
DAV:   5    -0.192339381705E+03   -0.56193E-05   -0.67842E-04 11200   0.175E-01
  83 F= -.19233938E+03 E0= -.19226614E+03  d E =-.522819E-02
       N       E                     dE             d eps       ncg     rms          rms(c)
DAV:   1    -0.192338299558E+03    0.10765E-02   -0.44593E-02  8160   0.479E-01    0.903E-02
DAV:   2    -0.192339416504E+03   -0.11169E-02   -0.34527E-03 10920   0.390E-01    0.285E-01
DAV:   3    -0.192338329921E+03    0.10866E-02   -0.14407E-03 10120   0.342E-01    0.620E-02
DAV:   4    -0.192338286562E+03    0.43359E-04   -0.11138E-04  5800   0.720E-02
  84 F= -.19233829E+03 E0= -.19226491E+03  d E =0.109514E-02
       N       E                     dE             d eps       ncg     rms          rms(c)
DAV:   1    -0.192340018303E+03   -0.16884E-02   -0.15773E-01  8160   0.842E-01    0.879E-02
DAV:   2    -0.192340522112E+03   -0.50381E-03   -0.49628E-03 12280   0.272E-01    0.147E-01
DAV:   3    -0.192340344506E+03    0.17761E-03   -0.70099E-04 10840   0.236E-01    0.855E-02
DAV:   4    -0.192340263233E+03    0.81273E-04   -0.11185E-04  5920   0.101E-01
  85 F= -.19234026E+03 E0= -.19226698E+03  d E =-.197667E-02
       N       E                     dE             d eps       ncg     rms          rms(c)
DAV:   1    -0.192341227179E+03   -0.88267E-03   -0.42634E-02  8160   0.445E-01    0.740E-02
DAV:   2    -0.192341775652E+03   -0.54847E-03   -0.19244E-03 13360   0.279E-01    0.208E-01
DAV:   3    -0.192341230881E+03    0.54477E-03   -0.70293E-04 10560   0.242E-01    0.380E-02
DAV:   4    -0.192341258446E+03   -0.27565E-04   -0.77640E-05  6080   0.766E-02
  86 F= -.19234126E+03 E0= -.19226798E+03  d E =-.995213E-03
       N       E                     dE             d eps       ncg     rms          rms(c)
DAV:   1    -0.192343152216E+03   -0.19213E-02   -0.27133E-01  8160   0.111E+00    0.126E-01
DAV:   2    -0.192343883445E+03   -0.73123E-03   -0.81064E-03 12520   0.321E-01    0.183E-01
DAV:   3    -0.192343624469E+03    0.25898E-03   -0.13292E-03 11560   0.308E-01    0.133E-01
DAV:   4    -0.192343451242E+03    0.17323E-03   -0.37095E-04  8880   0.156E-01    0.619E-02
DAV:   5    -0.192343443335E+03    0.79064E-05   -0.22782E-04  8240   0.120E-01
  87 F= -.19234344E+03 E0= -.19227024E+03  d E =-.218489E-02
       N       E                     dE             d eps       ncg     rms          rms(c)
DAV:   1    -0.192343100230E+03    0.35101E-03   -0.15034E-02  8160   0.274E-01    0.496E-02
DAV:   2    -0.192343244247E+03   -0.14402E-03   -0.82636E-04 10440   0.146E-01    0.105E-01
DAV:   3    -0.192343097062E+03    0.14718E-03   -0.29226E-04  8880   0.150E-01    0.478E-02
DAV:   4    -0.192343073076E+03    0.23986E-04   -0.63274E-05  6000   0.657E-02
  88 F= -.19234307E+03 E0= -.19226991E+03  d E =0.370259E-03
       N       E                     dE             d eps       ncg     rms          rms(c)
DAV:   1    -0.192344557335E+03   -0.14603E-02   -0.16011E-01  8160   0.864E-01    0.119E-01
DAV:   2    -0.192345022879E+03   -0.46554E-03   -0.60248E-03 12040   0.317E-01    0.187E-01
DAV:   3    -0.192344739779E+03    0.28310E-03   -0.10401E-03 11120   0.290E-01    0.110E-01
DAV:   4    -0.192344604152E+03    0.13563E-03   -0.33737E-04  8040   0.146E-01    0.624E-02
DAV:   5    -0.192344600282E+03    0.38699E-05   -0.21280E-04  7760   0.122E-01
  89 F= -.19234460E+03 E0= -.19227180E+03  d E =-.152721E-02
       N       E                     dE             d eps       ncg     rms          rms(c)
DAV:   1    -0.192344757923E+03   -0.15377E-03   -0.49949E-03  8240   0.185E-01    0.346E-02
DAV:   2    -0.192344861201E+03   -0.10328E-03   -0.42858E-04  9840   0.128E-01    0.895E-02
DAV:   3    -0.192344758382E+03    0.10282E-03   -0.15629E-04  6600   0.118E-01    0.313E-02
DAV:   4    -0.192344750441E+03    0.79413E-05   -0.31177E-05  5920   0.382E-02
  90 F= -.19234475E+03 E0= -.19227188E+03  d E =-.150159E-03
       N       E                     dE             d eps       ncg     rms          rms(c)
DAV:   1    -0.192345166737E+03   -0.40835E-03   -0.10987E-02  8160   0.237E-01    0.546E-02
DAV:   2    -0.192345160563E+03    0.61738E-05   -0.60597E-04 10480   0.118E-01
  91 F= -.19234516E+03 E0= -.19227212E+03  d E =-.410122E-03
       N       E                     dE             d eps       ncg     rms          rms(c)
DAV:   1    -0.192345625014E+03   -0.45828E-03   -0.30151E-02  8160   0.416E-01    0.671E-02
DAV:   2    -0.192346079005E+03   -0.45399E-03   -0.17553E-03 13040   0.257E-01    0.187E-01
DAV:   3    -0.192345623191E+03    0.45581E-03   -0.63475E-04 10040   0.228E-01    0.372E-02
DAV:   4    -0.192345627631E+03   -0.44404E-05   -0.62846E-05  5760   0.595E-02
  92 F= -.19234563E+03 E0= -.19227284E+03  d E =-.467068E-03
       N       E                     dE             d eps       ncg     rms          rms(c)
DAV:   1    -0.192346414608E+03   -0.79142E-03   -0.53217E-02  8160   0.496E-01    0.618E-02
DAV:   2    -0.192346584459E+03   -0.16985E-03   -0.16982E-03 12400   0.160E-01    0.963E-02
DAV:   3    -0.192346493733E+03    0.90726E-04   -0.31015E-04  9240   0.153E-01
  93 F= -.19234649E+03 E0= -.19227357E+03  d E =-.866102E-03
       N       E                     dE             d eps       ncg     rms          rms(c)
DAV:   1    -0.192347026726E+03   -0.44227E-03   -0.26306E-02  8160   0.350E-01    0.513E-02
DAV:   2    -0.192347120083E+03   -0.93357E-04   -0.84967E-04 12240   0.125E-01
  94 F= -.19234712E+03 E0= -.19227428E+03  d E =-.626349E-03
