<?xml version="1.0" encoding="ISO-8859-1"?>
<modeling>
 <generator>
  <i name="program" type="string">vasp </i>
  <i name="version" type="string">5.4.1  </i>
  <i name="subversion" type="string">05Feb16 (build Jul 05 2020 17:13:04) complex                          parallel </i>
  <i name="platform" type="string">IFC91_ompi </i>
  <i name="date" type="string">2024 04 22 </i>
  <i name="time" type="string">12:30:36 </i>
 </generator>
 <incar>
  <i type="int" name="ISTART">     0</i>
  <i type="string" name="PREC">normal</i>
  <i type="string" name="ALGO"> Normal</i>
  <i type="int" name="ISPIN">     1</i>
  <i type="int" name="ICHARG">     2</i>
  <i type="int" name="IBRION">     1</i>
  <i type="int" name="NSW">   100</i>
  <i type="int" name="ISIF">     3</i>
  <i type="int" name="ISYM">     0</i>
  <i name="SYMPREC">      0.00000001</i>
  <i name="POTIM">      0.50000000</i>
  <i type="logical" name="LREAL"> F  </i>
  <i type="logical" name="LPLANE"> F  </i>
  <i type="int" name="ISMEAR">     0</i>
  <i type="logical" name="LWAVE"> F  </i>
  <i type="logical" name="LCHARG"> F  </i>
  <v type="int" name="KPOINT_BSE">    -1     0     0     0</v>
 </incar>
 <kpoints>
  <generation param="Gamma">
   <v type="int" name="divisions">       8        8        1 </v>
   <v name="usershift">      0.00000000       0.00000000       0.00000000 </v>
   <v name="genvec1">      0.12500000       0.00000000       0.00000000 </v>
   <v name="genvec2">     -0.00000000       0.12500000       0.00000000 </v>
   <v name="genvec3">      0.00000000       0.00000000       1.00000000 </v>
   <v name="shift">      0.00000000       0.00000000       0.00000000 </v>
  </generation>
  <varray name="kpointlist" >
   <v>       0.00000000       0.00000000       0.00000000 </v>
   <v>       0.12500000       0.00000000       0.00000000 </v>
   <v>       0.25000000       0.00000000       0.00000000 </v>
   <v>       0.37500000       0.00000000       0.00000000 </v>
   <v>       0.50000000       0.00000000       0.00000000 </v>
   <v>       0.00000000       0.12500000       0.00000000 </v>
   <v>       0.12500000       0.12500000       0.00000000 </v>
   <v>       0.25000000       0.12500000       0.00000000 </v>
   <v>       0.37500000       0.12500000       0.00000000 </v>
   <v>       0.50000000       0.12500000       0.00000000 </v>
   <v>      -0.37500000       0.12500000       0.00000000 </v>
   <v>      -0.25000000       0.12500000       0.00000000 </v>
   <v>      -0.12500000       0.12500000       0.00000000 </v>
   <v>       0.00000000       0.25000000       0.00000000 </v>
   <v>       0.12500000       0.25000000       0.00000000 </v>
   <v>       0.25000000       0.25000000       0.00000000 </v>
   <v>       0.37500000       0.25000000       0.00000000 </v>
   <v>       0.50000000       0.25000000       0.00000000 </v>
   <v>      -0.37500000       0.25000000       0.00000000 </v>
   <v>      -0.25000000       0.25000000       0.00000000 </v>
   <v>      -0.12500000       0.25000000       0.00000000 </v>
   <v>      -0.00000000       0.37500000       0.00000000 </v>
   <v>       0.12500000       0.37500000       0.00000000 </v>
   <v>       0.25000000       0.37500000       0.00000000 </v>
   <v>       0.37500000       0.37500000       0.00000000 </v>
   <v>       0.50000000       0.37500000       0.00000000 </v>
   <v>      -0.37500000       0.37500000       0.00000000 </v>
   <v>      -0.25000000       0.37500000       0.00000000 </v>
   <v>      -0.12500000       0.37500000       0.00000000 </v>
   <v>       0.00000000       0.50000000       0.00000000 </v>
   <v>       0.12500000       0.50000000       0.00000000 </v>
   <v>       0.25000000       0.50000000       0.00000000 </v>
   <v>       0.37500000       0.50000000       0.00000000 </v>
   <v>       0.50000000       0.50000000       0.00000000 </v>
  </varray>
  <varray name="weights" >
   <v>       0.01562500 </v>
   <v>       0.03125000 </v>
   <v>       0.03125000 </v>
   <v>       0.03125000 </v>
   <v>       0.01562500 </v>
   <v>       0.03125000 </v>
   <v>       0.03125000 </v>
   <v>       0.03125000 </v>
   <v>       0.03125000 </v>
   <v>       0.03125000 </v>
   <v>       0.03125000 </v>
   <v>       0.03125000 </v>
   <v>       0.03125000 </v>
   <v>       0.03125000 </v>
   <v>       0.03125000 </v>
   <v>       0.03125000 </v>
   <v>       0.03125000 </v>
   <v>       0.03125000 </v>
   <v>       0.03125000 </v>
   <v>       0.03125000 </v>
   <v>       0.03125000 </v>
   <v>       0.03125000 </v>
   <v>       0.03125000 </v>
   <v>       0.03125000 </v>
   <v>       0.03125000 </v>
   <v>       0.03125000 </v>
   <v>       0.03125000 </v>
   <v>       0.03125000 </v>
   <v>       0.03125000 </v>
   <v>       0.01562500 </v>
   <v>       0.03125000 </v>
   <v>       0.03125000 </v>
   <v>       0.03125000 </v>
   <v>       0.01562500 </v>
  </varray>
 </kpoints>
 <parameters>
  <separator name="general" >
   <i type="string" name="SYSTEM">unknown system</i>
   <i type="logical" name="LCOMPAT"> F  </i>
  </separator>
  <separator name="electronic" >
   <i type="string" name="PREC">normal</i>
   <i name="ENMAX">    280.00000000</i>
   <i name="ENAUG">    373.43800000</i>
   <i name="EDIFF">      0.00010000</i>
   <i type="int" name="IALGO">    38</i>
   <i type="int" name="IWAVPR">    11</i>
   <i type="int" name="NBANDS">   120</i>
   <i name="NELECT">    159.00000000</i>
   <i type="int" name="TURBO">     0</i>
   <i type="int" name="IRESTART">     0</i>
   <i type="int" name="NREBOOT">     0</i>
   <i type="int" name="NMIN">     0</i>
   <i name="EREF">      0.00000000</i>
   <separator name="electronic smearing" >
    <i type="int" name="ISMEAR">     0</i>
    <i name="SIGMA">      0.20000000</i>
    <i name="KSPACING">      0.50000000</i>
    <i type="logical" name="KGAMMA"> T  </i>
   </separator>
   <separator name="electronic projectors" >
    <i type="logical" name="LREAL"> F  </i>
    <v name="ROPT">      0.00000000      0.00000000      0.00000000      0.00000000</v>
    <i type="int" name="LMAXPAW">  -100</i>
    <i type="int" name="LMAXMIX">     2</i>
    <i type="logical" name="NLSPLINE"> F  </i>
   </separator>
   <separator name="electronic startup" >
    <i type="int" name="ISTART">     0</i>
    <i type="int" name="ICHARG">     2</i>
    <i type="int" name="INIWAV">     1</i>
   </separator>
   <separator name="electronic spin" >
    <i type="int" name="ISPIN">     1</i>
    <i type="logical" name="LNONCOLLINEAR"> F  </i>
    <v name="MAGMOM">      1.00000000      1.00000000      1.00000000      1.00000000      1.00000000      1.00000000      1.00000000      1.00000000      1.00000000      1.00000000      1.00000000      1.00000000      1.00000000      1.00000000      1.00000000      1.00000000      1.00000000      1.00000000      1.00000000      1.00000000
      1.00000000      1.00000000      1.00000000      1.00000000      1.00000000      1.00000000      1.00000000</v>
    <i name="NUPDOWN">     -1.00000000</i>
    <i type="logical" name="LSORBIT"> F  </i>
    <v name="SAXIS">      0.00000000      0.00000000      1.00000000</v>
    <i type="logical" name="LSPIRAL"> F  </i>
    <v name="QSPIRAL">      0.00000000      0.00000000      0.00000000</v>
    <i type="logical" name="LZEROZ"> F  </i>
   </separator>
   <separator name="electronic exchange-correlation" >
    <i type="logical" name="LASPH"> F  </i>
    <i type="logical" name="LMETAGGA"> F  </i>
   </separator>
   <separator name="electronic convergence" >
    <i type="int" name="NELM">    60</i>
    <i type="int" name="NELMDL">    -5</i>
    <i type="int" name="NELMIN">     2</i>
    <i name="ENINI">    280.00000000</i>
    <separator name="electronic convergence detail" >
     <i type="logical" name="LDIAG"> T  </i>
     <i type="logical" name="LSUBROT"> F  </i>
     <i name="WEIMIN">      0.00100000</i>
     <i name="EBREAK">      0.00000021</i>
     <i name="DEPER">      0.30000000</i>
     <i type="int" name="NRMM">     4</i>
     <i name="TIME">      0.40000000</i>
    </separator>
   </separator>
   <separator name="electronic mixer" >
    <i name="AMIX">      0.40000000</i>
    <i name="BMIX">      1.00000000</i>
    <i name="AMIN">      0.10000000</i>
    <i name="AMIX_MAG">      1.60000000</i>
    <i name="BMIX_MAG">      1.00000000</i>
    <separator name="electronic mixer details" >
     <i type="int" name="IMIX">     4</i>
     <i type="logical" name="MIXFIRST"> F  </i>
     <i type="int" name="MAXMIX">   -45</i>
     <i name="WC">    100.00000000</i>
     <i type="int" name="INIMIX">     1</i>
     <i type="int" name="MIXPRE">     1</i>
     <i type="int" name="MREMOVE">     5</i>
    </separator>
   </separator>
   <separator name="electronic dipolcorrection" >
    <i type="logical" name="LDIPOL"> F  </i>
    <i type="logical" name="LMONO"> F  </i>
    <i type="int" name="IDIPOL">     0</i>
    <i name="EPSILON">      1.00000000</i>
    <v name="DIPOL">   -100.00000000   -100.00000000   -100.00000000</v>
    <i name="EFIELD">      0.00000000</i>
   </separator>
  </separator>
  <separator name="grids" >
   <i type="int" name="NGX">    42</i>
   <i type="int" name="NGY">    42</i>
   <i type="int" name="NGZ">   126</i>
   <i type="int" name="NGXF">    84</i>
   <i type="int" name="NGYF">    84</i>
   <i type="int" name="NGZF">   252</i>
   <i type="logical" name="ADDGRID"> F  </i>
  </separator>
  <separator name="ionic" >
   <i type="int" name="NSW">   100</i>
   <i type="int" name="IBRION">     1</i>
   <i type="int" name="ISIF">     3</i>
   <i name="PSTRESS">      0.00000000</i>
   <i name="EDIFFG">      0.00100000</i>
   <i type="int" name="NFREE">     0</i>
   <i name="POTIM">      0.50000000</i>
   <i name="SMASS">     -3.00000000</i>
   <i name="SCALEE">      1.00000000</i>
  </separator>
  <separator name="ionic md" >
   <i name="TEBEG">      0.00010000</i>
   <i name="TEEND">      0.00010000</i>
   <i type="int" name="NBLOCK">     1</i>
   <i type="int" name="KBLOCK">   100</i>
   <i type="int" name="NPACO">   256</i>
   <i name="APACO">     16.00000000</i>
  </separator>
  <separator name="symmetry" >
   <i type="int" name="ISYM">     0</i>
   <i name="SYMPREC">      0.00000001</i>
  </separator>
  <separator name="dos" >
   <i type="logical" name="LORBIT"> F  </i>
   <v name="RWIGS">     -1.00000000     -1.00000000     -1.00000000     -1.00000000</v>
   <i type="int" name="NEDOS">   301</i>
   <i name="EMIN">     10.00000000</i>
   <i name="EMAX">    -10.00000000</i>
   <i name="EFERMI">      0.00000000</i>
  </separator>
  <separator name="writing" >
   <i type="int" name="NWRITE">     2</i>
   <i type="logical" name="LWAVE"> F  </i>
   <i type="logical" name="LCHARG"> F  </i>
   <i type="logical" name="LPARD"> F  </i>
   <i type="logical" name="LVTOT"> F  </i>
   <i type="logical" name="LVHAR"> F  </i>
   <i type="logical" name="LELF"> F  </i>
   <i type="logical" name="LOPTICS"> F  </i>
   <v name="STM">      0.00000000      0.00000000      0.00000000      0.00000000      0.00000000      0.00000000      0.00000000</v>
  </separator>
  <separator name="performance" >
   <i type="int" name="NPAR">    40</i>
   <i type="int" name="NSIM">     4</i>
   <i type="int" name="NBLK">    -1</i>
   <i type="logical" name="LPLANE"> F  </i>
   <i type="logical" name="LSCALAPACK"> T  </i>
   <i type="logical" name="LSCAAWARE"> F  </i>
   <i type="logical" name="LSCALU"> F  </i>
   <i type="logical" name="LASYNC"> F  </i>
   <i type="logical" name="LORBITALREAL"> F  </i>
  </separator>
  <separator name="miscellaneous" >
   <i type="int" name="IDIOT">     3</i>
   <i type="logical" name="LMUSIC"> F  </i>
   <v name="POMASS">     50.94100000     95.94000000    183.85000000     32.06600000</v>
   <v name="DARWINR">      0.00000000      0.00000000      0.00000000      0.00000000</v>
   <v name="DARWINV">      1.00000000      1.00000000      1.00000000      1.00000000</v>
   <i type="logical" name="LCORR"> T  </i>
  </separator>
  <i type="logical" name="GGA_COMPAT"> T  </i>
  <i type="logical" name="LBERRY"> F  </i>
  <i type="int" name="ICORELEVEL">     0</i>
  <i type="logical" name="LDAU"> F  </i>
  <i type="int" name="I_CONSTRAINED_M">     0</i>
  <separator name="electronic exchange-correlation" >
   <i type="string" name="GGA">--</i>
   <i type="int" name="VOSKOWN">     0</i>
   <i type="logical" name="LHFCALC"> F  </i>
   <i type="string" name="PRECFOCK"></i>
   <i type="logical" name="LSYMGRAD"> F  </i>
   <i type="logical" name="LHFONE"> F  </i>
   <i type="logical" name="LRHFCALC"> F  </i>
   <i type="logical" name="LTHOMAS"> F  </i>
   <i type="logical" name="LMODELHF"> F  </i>
   <i name="ENCUT4O">     -1.00000000</i>
   <i type="int" name="EXXOEP">     0</i>
   <i type="int" name="FOURORBIT">     0</i>
   <i name="AEXX">      0.00000000</i>
   <i name="HFALPHA">      0.00000000</i>
   <i name="MCALPHA">      0.00000000</i>
   <i name="ALDAX">      1.00000000</i>
   <i name="AGGAX">      1.00000000</i>
   <i name="ALDAC">      1.00000000</i>
   <i name="AGGAC">      1.00000000</i>
   <i type="int" name="NKREDX">     1</i>
   <i type="int" name="NKREDY">     1</i>
   <i type="int" name="NKREDZ">     1</i>
   <i type="logical" name="SHIFTRED"> F  </i>
   <i type="logical" name="ODDONLY"> F  </i>
   <i type="logical" name="EVENONLY"> F  </i>
   <i type="int" name="LMAXFOCK">     0</i>
   <i type="int" name="NMAXFOCKAE">     0</i>
   <i type="logical" name="LFOCKAEDFT"> F  </i>
   <i name="HFSCREEN">      0.00000000</i>
   <i name="HFSCREENC">      0.00000000</i>
   <i type="int" name="NBANDSGWLOW">     0</i>
  </separator>
  <separator name="vdW DFT" >
   <i type="logical" name="LUSE_VDW"> F  </i>
   <i name="Zab_VDW">     -0.84910000</i>
   <i name="PARAM1">      0.12340000</i>
   <i name="PARAM2">      1.00000000</i>
   <i name="PARAM3">      0.00000000</i>
  </separator>
  <separator name="model GW" >
   <i type="int" name="MODEL_GW">     0</i>
   <i name="MODEL_EPS0">     58.26239943</i>
   <i name="MODEL_ALPHA">      1.00000000</i>
  </separator>
  <separator name="linear response parameters" >
   <i type="logical" name="LEPSILON"> F  </i>
   <i type="logical" name="LRPA"> F  </i>
   <i type="logical" name="LNABLA"> F  </i>
   <i type="logical" name="LVEL"> F  </i>
   <i type="int" name="KINTER">     0</i>
   <i name="CSHIFT">      0.10000000</i>
   <i name="OMEGAMAX">     -1.00000000</i>
   <i name="DEG_THRESHOLD">      0.00200000</i>
  </separator>
  <separator name="orbital magnetization" >
   <i type="logical" name="NUCIND"> F  </i>
   <v name="MAGPOS">      0.00000000      0.00000000      0.00000000</v>
   <i type="logical" name="LNICSALL"> T  </i>
   <i type="logical" name="ORBITALMAG"> F  </i>
   <i type="logical" name="LMAGBLOCH"> F  </i>
   <i type="logical" name="LCHIMAG"> F  </i>
   <i type="logical" name="LGAUGE"> T  </i>
   <i type="int" name="MAGATOM">     0</i>
   <v name="MAGDIPOL">      0.00000000      0.00000000      0.00000000</v>
   <v name="AVECCONST">      0.00000000      0.00000000      0.00000000</v>
  </separator>
  <separator name="response functions" >
   <i type="logical" name="LADDER"> F  </i>
   <i type="logical" name="LFXC"> F  </i>
   <i type="logical" name="LHARTREE"> T  </i>
   <i type="int" name="IBSE">     0</i>
   <v type="int" name="KPOINT">    -1     0     0     0</v>
   <i type="logical" name="LTCTE"> F  </i>
   <i type="logical" name="LTETE"> F  </i>
   <i type="logical" name="LTRIPLET"> F  </i>
   <i type="logical" name="LFXCEPS"> F  </i>
   <i type="logical" name="LFXHEG"> F  </i>
   <i type="int" name="NATURALO">     0</i>
   <i type="logical" name="L2ORDER"> F  </i>
   <i type="logical" name="LUSEW"> F  </i>
   <i name="ENCUTGW">     -2.00000000</i>
   <i name="ENCUTGWSOFT">     -2.00000000</i>
   <i name="ENCUTLF">     -1.00000000</i>
   <i type="int" name="LMAXMP2">    -1</i>
   <i name="SCISSOR">      0.00000000</i>
   <i type="int" name="NOMEGA">     0</i>
   <i type="int" name="NOMEGAR">     0</i>
   <i type="int" name="NBANDSGW">    -1</i>
   <i type="int" name="NBANDSO">    -1</i>
   <i type="int" name="NBANDSV">    -1</i>
   <i type="int" name="NELM">     1</i>
   <i type="int" name="NELMHF">     1</i>
   <i type="int" name="DIM">     3</i>
   <i type="int" name="ANTIRES">     0</i>
   <i name="OMEGAMAX">    -30.00000000</i>
   <i name="OMEGAMIN">    -30.00000000</i>
   <i name="OMEGATL">   -200.00000000</i>
   <i type="int" name="OMEGAGRID">     0</i>
   <i name="CSHIFT">     -0.10000000</i>
   <i type="logical" name="SELFENERGY"> F  </i>
   <i type="logical" name="LSPECTRAL"> F  </i>
   <i type="logical" name="LSPECTRALGW"> F  </i>
   <i type="logical" name="LSINGLES"> F  </i>
   <i type="logical" name="LFERMIGW"> F  </i>
   <i type="logical" name="ODDONLYGW"> F  </i>
   <i type="logical" name="EVENONLYGW"> F  </i>
   <i type="int" name="NKREDLFX">     1</i>
   <i type="int" name="NKREDLFY">     1</i>
   <i type="int" name="NKREDLFZ">     1</i>
   <i type="int" name="MAXMEM">  1800</i>
   <i type="int" name="TELESCOPE">     0</i>
   <i type="int" name="TAUPAR">     1</i>
   <i type="int" name="OMEGAPAR">    -1</i>
   <i name="LAMBDA">      1.00000000</i>
  </separator>
  <separator name="External order field" >
   <i name="OFIELD_KAPPA">      0.00000000</i>
   <v name="OFIELD_K">      0.00000000      0.00000000      0.00000000</v>
   <i name="OFIELD_Q6_NEAR">      0.00000000</i>
   <i name="OFIELD_Q6_FAR">      0.00000000</i>
   <i name="OFIELD_A">      0.00000000</i>
  </separator>
 </parameters>
 <atominfo>
  <atoms>      27 </atoms>
  <types>       4 </types>
  <array name="atoms" >
   <dimension dim="1">ion</dimension>
   <field type="string">element</field>
   <field type="int">atomtype</field>
   <set>
    <rc><c>V </c><c>   1</c></rc>
    <rc><c>V </c><c>   1</c></rc>
    <rc><c>V </c><c>   1</c></rc>
    <rc><c>Mo</c><c>   2</c></rc>
    <rc><c>Mo</c><c>   2</c></rc>
    <rc><c>Mo</c><c>   2</c></rc>
    <rc><c>W </c><c>   3</c></rc>
    <rc><c>W </c><c>   3</c></rc>
    <rc><c>W </c><c>   3</c></rc>
    <rc><c>S </c><c>   4</c></rc>
    <rc><c>S </c><c>   4</c></rc>
    <rc><c>S </c><c>   4</c></rc>
    <rc><c>S </c><c>   4</c></rc>
    <rc><c>S </c><c>   4</c></rc>
    <rc><c>S </c><c>   4</c></rc>
    <rc><c>S </c><c>   4</c></rc>
    <rc><c>S </c><c>   4</c></rc>
    <rc><c>S </c><c>   4</c></rc>
    <rc><c>S </c><c>   4</c></rc>
    <rc><c>S </c><c>   4</c></rc>
    <rc><c>S </c><c>   4</c></rc>
    <rc><c>S </c><c>   4</c></rc>
    <rc><c>S </c><c>   4</c></rc>
    <rc><c>S </c><c>   4</c></rc>
    <rc><c>S </c><c>   4</c></rc>
    <rc><c>S </c><c>   4</c></rc>
    <rc><c>S </c><c>   4</c></rc>
   </set>
  </array>
  <array name="atomtypes" >
   <dimension dim="1">type</dimension>
   <field type="int">atomspertype</field>
   <field type="string">element</field>
   <field>mass</field>
   <field>valence</field>
   <field type="string">pseudopotential</field>
   <set>
    <rc><c>   3</c><c>V </c><c>     50.94100000</c><c>      5.00000000</c><c> PAW_PBE V 08Apr2002                    </c></rc>
    <rc><c>   3</c><c>Mo</c><c>     95.94000000</c><c>      6.00000000</c><c> PAW_PBE Mo 08Apr2002                   </c></rc>
    <rc><c>   3</c><c>W </c><c>    183.85000000</c><c>      6.00000000</c><c> PAW_PBE W 08Apr2002                    </c></rc>
    <rc><c>  18</c><c>S </c><c>     32.06600000</c><c>      6.00000000</c><c>  PAW_PBE S 17Jan2003                   </c></rc>
   </set>
  </array>
 </atominfo>
 <structure name="initialpos" >
  <crystal>
   <varray name="basis" >
    <v>       8.66999996       5.03999989       0.00000000 </v>
    <v>      -8.66999982       5.04000013       0.00000000 </v>
    <v>       0.00000000       0.00000000      30.00000000 </v>
   </varray>
   <i name="volume">   2621.80797419 </i>
   <varray name="rec_basis" >
    <v>       0.05767013       0.09920635       0.00000000 </v>
    <v>      -0.05767013       0.09920635       0.00000000 </v>
    <v>       0.00000000       0.00000000       0.03333333 </v>
   </varray>
  </crystal>
  <varray name="positions" >
   <v>       0.00000000       0.66666669       0.00000000 </v>
   <v>       0.33333334       0.00000000       0.00000000 </v>
   <v>       0.66666669       0.33333334       0.00000000 </v>
   <v>       1.00000000       0.33333334       0.00000000 </v>
   <v>       0.33333334       0.66666669       0.00000000 </v>
   <v>       0.66666669       0.66666669       0.00000000 </v>
   <v>       0.00000000       0.00000000       0.00000000 </v>
   <v>       0.33333334       0.33333334       0.00000000 </v>
   <v>       0.66666669       0.00000000       0.00000000 </v>
   <v>       0.11068511       0.22244981       0.95539999 </v>
   <v>       0.22244981       0.11068511       0.04460000 </v>
   <v>       0.11068511       0.55578315       0.95539999 </v>
   <v>       0.22244981       0.44401845       0.04460000 </v>
   <v>       0.11068511       0.88911647       0.95539999 </v>
   <v>       0.22244981       0.77735180       0.04460000 </v>
   <v>       0.44401845       0.22244981       0.95539999 </v>
   <v>       0.55578315       0.11068511       0.04460000 </v>
   <v>       0.44401845       0.55578315       0.95539999 </v>
   <v>       0.55578315       0.44401845       0.04460000 </v>
   <v>       0.44401845       0.88911647       0.95539999 </v>
   <v>       0.55578315       0.77735180       0.04460000 </v>
   <v>       0.77735180       0.22244981       0.95539999 </v>
   <v>       0.88911647       0.11068511       0.04460000 </v>
   <v>       0.77735180       0.55578315       0.95539999 </v>
   <v>       0.88911647       0.44401845       0.04460000 </v>
   <v>       0.77735180       0.88911647       0.95539999 </v>
   <v>       0.88911647       0.77735180       0.04460000 </v>
  </varray>
 </structure>
 <calculation>
  <scstep>
   <time name="dav">   22.94   23.00</time>
   <time name="total">   22.99   23.05</time>
   <energy>
    <i name="alphaZ">     81.65567618 </i>
    <i name="ewald">  41891.12778376 </i>
    <i name="hartreedc"> -47723.77362675 </i>
    <i name="XCdc">   -242.92539887 </i>
    <i name="pawpsdc">   3467.42045192 </i>
    <i name="pawaedc">  -2871.19716117 </i>
    <i name="eentropy">     -0.55069602 </i>
    <i name="bandstr">   -239.34305890 </i>
    <i name="atom">   6761.44252427 </i>
    <i name="e_fr_energy">   1123.85649441 </i>
    <i name="e_wo_entrp">   1124.40719044 </i>
    <i name="e_0_energy">   1124.13184243 </i>
   </energy>
  </scstep>
  <scstep>
   <time name="dav">   29.18   29.26</time>
   <time name="total">   29.19   29.26</time>
   <energy>
    <i name="e_fr_energy">     -0.31325674 </i>
    <i name="e_wo_entrp">     -0.11742985 </i>
    <i name="e_0_energy">     -0.21534330 </i>
   </energy>
  </scstep>
  <scstep>
   <time name="dav">   28.99   29.06</time>
   <time name="total">   28.99   29.07</time>
   <energy>
    <i name="e_fr_energy">   -199.74220972 </i>
    <i name="e_wo_entrp">   -199.48492174 </i>
    <i name="e_0_energy">   -199.61356573 </i>
   </energy>
  </scstep>
  <scstep>
   <time name="dav">   31.00   31.08</time>
   <time name="total">   31.00   31.08</time>
   <energy>
    <i name="e_fr_energy">   -209.04179359 </i>
    <i name="e_wo_entrp">   -208.78377518 </i>
    <i name="e_0_energy">   -208.91278439 </i>
   </energy>
  </scstep>
  <scstep>
   <time name="dav">   29.99   30.06</time>
   <time name="total">   30.45   30.53</time>
   <energy>
    <i name="e_fr_energy">   -209.40281551 </i>
    <i name="e_wo_entrp">   -209.14790145 </i>
    <i name="e_0_energy">   -209.27535848 </i>
   </energy>
  </scstep>
  <scstep>
   <time name="dav">   32.64   32.72</time>
   <time name="total">   33.14   33.23</time>
   <energy>
    <i name="e_fr_energy">   -241.33459738 </i>
    <i name="e_wo_entrp">   -241.04915385 </i>
    <i name="e_0_energy">   -241.19187562 </i>
   </energy>
  </scstep>
  <scstep>
   <time name="dav">   33.53   33.61</time>
   <time name="total">   34.04   34.13</time>
   <energy>
    <i name="e_fr_energy">   -196.11376206 </i>
    <i name="e_wo_entrp">   -195.78696183 </i>
    <i name="e_0_energy">   -195.95036195 </i>
   </energy>
  </scstep>
  <scstep>
   <time name="dav">   31.30   31.37</time>
   <time name="total">   31.83   31.91</time>
   <energy>
    <i name="e_fr_energy">   -189.35712797 </i>
    <i name="e_wo_entrp">   -189.03001241 </i>
    <i name="e_0_energy">   -189.19357019 </i>
   </energy>
  </scstep>
  <scstep>
   <time name="dav">   33.65   33.73</time>
   <time name="total">   34.18   34.27</time>
   <energy>
    <i name="e_fr_energy">   -188.08164456 </i>
    <i name="e_wo_entrp">   -187.75108241 </i>
    <i name="e_0_energy">   -187.91636348 </i>
   </energy>
  </scstep>
  <scstep>
   <time name="dav">   34.17   34.26</time>
   <time name="total">   34.73   34.82</time>
   <energy>
    <i name="e_fr_energy">   -186.94984843 </i>
    <i name="e_wo_entrp">   -186.59432832 </i>
    <i name="e_0_energy">   -186.77208838 </i>
   </energy>
  </scstep>
  <scstep>
   <time name="dav">   34.18   34.26</time>
   <time name="total">   34.74   34.83</time>
   <energy>
    <i name="e_fr_energy">   -187.05476118 </i>
    <i name="e_wo_entrp">   -186.71625877 </i>
    <i name="e_0_energy">   -186.88550998 </i>
   </energy>
  </scstep>
  <scstep>
   <time name="dav">   32.95   33.03</time>
   <time name="total">   33.52   33.60</time>
   <energy>
    <i name="e_fr_energy">   -186.94944543 </i>
    <i name="e_wo_entrp">   -186.60626337 </i>
    <i name="e_0_energy">   -186.77785440 </i>
   </energy>
  </scstep>
  <scstep>
   <time name="dav">   32.06   32.14</time>
   <time name="total">   32.64   32.72</time>
   <energy>
    <i name="e_fr_energy">   -186.87405797 </i>
    <i name="e_wo_entrp">   -186.52996466 </i>
    <i name="e_0_energy">   -186.70201131 </i>
   </energy>
  </scstep>
  <scstep>
   <time name="dav">   32.52   32.60</time>
   <time name="total">   33.09   33.18</time>
   <energy>
    <i name="e_fr_energy">   -186.85303893 </i>
    <i name="e_wo_entrp">   -186.50438052 </i>
    <i name="e_0_energy">   -186.67870972 </i>
   </energy>
  </scstep>
  <scstep>
   <time name="dav">   32.75   32.83</time>
   <time name="total">   33.32   33.41</time>
   <energy>
    <i name="e_fr_energy">   -186.85068309 </i>
    <i name="e_wo_entrp">   -186.50257906 </i>
    <i name="e_0_energy">   -186.67663107 </i>
   </energy>
  </scstep>
  <scstep>
   <time name="dav">   33.81   33.89</time>
   <time name="total">   34.38   34.47</time>
   <energy>
    <i name="e_fr_energy">   -186.84666162 </i>
    <i name="e_wo_entrp">   -186.49883499 </i>
    <i name="e_0_energy">   -186.67274831 </i>
   </energy>
  </scstep>
  <scstep>
   <time name="dav">   32.62   32.70</time>
   <time name="total">   33.20   33.28</time>
   <energy>
    <i name="e_fr_energy">   -186.84542964 </i>
    <i name="e_wo_entrp">   -186.49888559 </i>
    <i name="e_0_energy">   -186.67215762 </i>
   </energy>
  </scstep>
  <scstep>
   <time name="dav">   32.40   32.48</time>
   <time name="total">   32.97   33.06</time>
   <energy>
    <i name="e_fr_energy">   -186.84482093 </i>
    <i name="e_wo_entrp">   -186.49766079 </i>
    <i name="e_0_energy">   -186.67124086 </i>
   </energy>
  </scstep>
  <scstep>
   <time name="dav">   28.27   28.34</time>
   <time name="total">   28.84   28.92</time>
   <energy>
    <i name="e_fr_energy">   -186.84520521 </i>
    <i name="e_wo_entrp">   -186.49827110 </i>
    <i name="e_0_energy">   -186.67173815 </i>
   </energy>
  </scstep>
  <scstep>
   <time name="dav">   25.72   25.78</time>
   <time name="total">   26.29   26.36</time>
   <energy>
    <i name="e_fr_energy">   -186.84575400 </i>
    <i name="e_wo_entrp">   -186.49904837 </i>
    <i name="e_0_energy">   -186.67240118 </i>
   </energy>
  </scstep>
  <scstep>
   <time name="dav">   22.73   22.79</time>
   <time name="total">   23.30   23.37</time>
   <energy>
    <i name="e_fr_energy">   -186.84655123 </i>
    <i name="e_wo_entrp">   -186.49985752 </i>
    <i name="e_0_energy">   -186.67320438 </i>
   </energy>
  </scstep>
  <scstep>
   <time name="dav">   21.50   21.55</time>
   <time name="total">   22.07   22.13</time>
   <energy>
    <i name="e_fr_energy">   -186.84747586 </i>
    <i name="e_wo_entrp">   -186.50071130 </i>
    <i name="e_0_energy">   -186.67409358 </i>
   </energy>
  </scstep>
  <scstep>
   <time name="dav">   21.34   21.39</time>
   <time name="total">   21.91   21.97</time>
   <energy>
    <i name="e_fr_energy">   -186.84855545 </i>
    <i name="e_wo_entrp">   -186.50177959 </i>
    <i name="e_0_energy">   -186.67516752 </i>
   </energy>
  </scstep>
  <scstep>
   <time name="dav">   19.18   19.23</time>
   <time name="total">   19.75   19.81</time>
   <energy>
    <i name="e_fr_energy">   -186.84921634 </i>
    <i name="e_wo_entrp">   -186.50246025 </i>
    <i name="e_0_energy">   -186.67583829 </i>
   </energy>
  </scstep>
  <scstep>
   <time name="dav">   18.53   18.57</time>
   <time name="total">   19.10   19.16</time>
   <energy>
    <i name="e_fr_energy">   -186.84958078 </i>
    <i name="e_wo_entrp">   -186.50280753 </i>
    <i name="e_0_energy">   -186.67619416 </i>
   </energy>
  </scstep>
  <scstep>
   <time name="dav">   20.04   20.09</time>
   <time name="total">   20.61   20.67</time>
   <energy>
    <i name="e_fr_energy">   -186.84979878 </i>
    <i name="e_wo_entrp">   -186.50303326 </i>
    <i name="e_0_energy">   -186.67641602 </i>
   </energy>
  </scstep>
  <scstep>
   <time name="dav">   21.05   21.10</time>
   <time name="total">   21.09   21.15</time>
   <energy>
    <i name="alphaZ">     81.65567618 </i>
    <i name="ewald">  41891.12778376 </i>
    <i name="hartreedc"> -47833.62243600 </i>
    <i name="XCdc">   -231.60212967 </i>
    <i name="pawpsdc">   4192.07536528 </i>
    <i name="pawaedc">  -3610.08212300 </i>
    <i name="eentropy">     -0.34676610 </i>
    <i name="bandstr">  -1437.49776753 </i>
    <i name="atom">   6761.44252427 </i>
    <i name="e_fr_energy">   -186.84987281 </i>
    <i name="e_wo_entrp">   -186.50310671 </i>
    <i name="e_0_energy">   -186.67648976 </i>
   </energy>
  </scstep>
  <structure>
   <crystal>
    <varray name="basis" >
     <v>       8.66999996       5.03999989       0.00000000 </v>
     <v>      -8.66999982       5.04000013       0.00000000 </v>
     <v>       0.00000000       0.00000000      30.00000000 </v>
    </varray>
    <i name="volume">   2621.80797419 </i>
    <varray name="rec_basis" >
     <v>       0.05767013       0.09920635       0.00000000 </v>
     <v>      -0.05767013       0.09920635       0.00000000 </v>
     <v>       0.00000000       0.00000000       0.03333333 </v>
    </varray>
   </crystal>
   <varray name="positions" >
    <v>       0.00000000       0.66666669       0.00000000 </v>
    <v>       0.33333334       0.00000000       0.00000000 </v>
    <v>       0.66666669       0.33333334       0.00000000 </v>
    <v>       1.00000000       0.33333334       0.00000000 </v>
    <v>       0.33333334       0.66666669       0.00000000 </v>
    <v>       0.66666669       0.66666669       0.00000000 </v>
    <v>       0.00000000       0.00000000       0.00000000 </v>
    <v>       0.33333334       0.33333334       0.00000000 </v>
    <v>       0.66666669       0.00000000       0.00000000 </v>
    <v>       0.11068511       0.22244981       0.95539999 </v>
    <v>       0.22244981       0.11068511       0.04460000 </v>
    <v>       0.11068511       0.55578315       0.95539999 </v>
    <v>       0.22244981       0.44401845       0.04460000 </v>
    <v>       0.11068511       0.88911647       0.95539999 </v>
    <v>       0.22244981       0.77735180       0.04460000 </v>
    <v>       0.44401845       0.22244981       0.95539999 </v>
    <v>       0.55578315       0.11068511       0.04460000 </v>
    <v>       0.44401845       0.55578315       0.95539999 </v>
    <v>       0.55578315       0.44401845       0.04460000 </v>
    <v>       0.44401845       0.88911647       0.95539999 </v>
    <v>       0.55578315       0.77735180       0.04460000 </v>
    <v>       0.77735180       0.22244981       0.95539999 </v>
    <v>       0.88911647       0.11068511       0.04460000 </v>
    <v>       0.77735180       0.55578315       0.95539999 </v>
    <v>       0.88911647       0.44401845       0.04460000 </v>
    <v>       0.77735180       0.88911647       0.95539999 </v>
    <v>       0.88911647       0.77735180       0.04460000 </v>
   </varray>
  </structure>
  <varray name="forces" >
   <v>       0.22765345      -0.12846969       0.01514224 </v>
   <v>       0.21420507      -0.12956850       0.00968754 </v>
   <v>      -0.01311651       0.26486472      -0.02774777 </v>
   <v>      -0.01950758       0.27680430       0.10561809 </v>
   <v>       0.19869629      -0.15909512       0.15275571 </v>
   <v>      -0.22335324      -0.12599795      -0.13323098 </v>
   <v>      -0.16279656      -0.18458701      -0.13252182 </v>
   <v>      -0.43898884       0.32864853      -0.16619086 </v>
   <v>       0.15159875      -0.16067603       0.13543308 </v>
   <v>       0.32152521       0.00223746      -2.89191680 </v>
   <v>       0.60312965      -0.00044598       2.07632015 </v>
   <v>      -0.75624963       0.00489629      -2.11522279 </v>
   <v>       0.00813040      -0.00013761       2.95351876 </v>
   <v>       0.73845059       0.00249527      -1.45729687 </v>
   <v>      -0.89324837      -0.00017637       1.45073044 </v>
   <v>       0.74213750      -0.00457472      -1.43073925 </v>
   <v>      -0.73358058      -0.00249542       1.46191922 </v>
   <v>       0.25226419      -0.15549270      -2.92837535 </v>
   <v>       0.67858921      -0.14867429       2.10622726 </v>
   <v>      -0.66217891       0.14942888      -2.09473615 </v>
   <v>      -0.24506009       0.15563702       2.89536569 </v>
   <v>      -0.66111388      -0.14186030      -2.07123570 </v>
   <v>      -0.09490868      -0.12654048       2.92562482 </v>
   <v>       0.89912216      -0.00829552      -1.45199643 </v>
   <v>      -0.89830642       0.00130300       1.47610889 </v>
   <v>       0.09863542       0.13823296      -2.95041810 </v>
   <v>       0.66827141       0.15253928       2.08717699 </v>
  </varray>
  <varray name="stress" >
   <v>       7.49138459       0.00951492      -1.53371772 </v>
   <v>       0.00951514       4.26477469       0.03592978 </v>
   <v>      -1.53371783       0.03592987      30.33392855 </v>
  </varray>
  <energy>
   <i name="e_fr_energy">   -186.84987281 </i>
   <i name="e_wo_entrp">   -186.67648976 </i>
   <i name="e_0_energy">     -0.34676610 </i>
  </energy>
  <time name="totalsc">  824.72  826.91</time>
 </calculation>
 <calculation>
  <scstep>
   <time name="dav">   22.87   22.93</time>
   <time name="total">   23.50   23.56</time>
   <energy>
    <i name="alphaZ">     78.92132169 </i>
    <i name="ewald">  39378.53124079 </i>
    <i name="hartreedc"> -45335.85742073 </i>
    <i name="XCdc">   -239.06908421 </i>
    <i name="pawpsdc">   4192.05175604 </i>
    <i name="pawaedc">  -3610.05901475 </i>
    <i name="eentropy">     -0.28094669 </i>
    <i name="bandstr">  -1413.21259277 </i>
    <i name="atom">   6761.44252427 </i>
    <i name="e_fr_energy">   -187.53221636 </i>
    <i name="e_wo_entrp">   -187.25126967 </i>
    <i name="e_0_energy">   -187.39174301 </i>
   </energy>
  </scstep>
  <scstep>
   <time name="dav">   31.87   31.95</time>
   <time name="total">   32.40   32.49</time>
   <energy>
    <i name="e_fr_energy">   -190.02160902 </i>
    <i name="e_wo_entrp">   -189.66616184 </i>
    <i name="e_0_energy">   -189.84388543 </i>
   </energy>
  </scstep>
  <scstep>
   <time name="dav">   32.15   32.22</time>
   <time name="total">   32.78   32.86</time>
   <energy>
    <i name="e_fr_energy">   -189.24439430 </i>
    <i name="e_wo_entrp">   -188.97798312 </i>
    <i name="e_0_energy">   -189.11118871 </i>
   </energy>
  </scstep>
  <scstep>
   <time name="dav">   32.24   32.31</time>
   <time name="total">   32.86   32.95</time>
   <energy>
    <i name="e_fr_energy">   -188.84994208 </i>
    <i name="e_wo_entrp">   -188.55948230 </i>
    <i name="e_0_energy">   -188.70471219 </i>
   </energy>
  </scstep>
  <scstep>
   <time name="dav">   31.13   31.20</time>
   <time name="total">   31.74   31.83</time>
   <energy>
    <i name="e_fr_energy">   -188.85773840 </i>
    <i name="e_wo_entrp">   -188.57204799 </i>
    <i name="e_0_energy">   -188.71489320 </i>
   </energy>
  </scstep>
  <scstep>
   <time name="dav">   31.77   31.85</time>
   <time name="total">   32.39   32.48</time>
   <energy>
    <i name="e_fr_energy">   -188.76317645 </i>
    <i name="e_wo_entrp">   -188.47559154 </i>
    <i name="e_0_energy">   -188.61938399 </i>
   </energy>
  </scstep>
  <scstep>
   <time name="dav">   28.12   28.19</time>
   <time name="total">   28.75   28.82</time>
   <energy>
    <i name="e_fr_energy">   -188.71045602 </i>
    <i name="e_wo_entrp">   -188.42477455 </i>
    <i name="e_0_energy">   -188.56761529 </i>
   </energy>
  </scstep>
  <scstep>
   <time name="dav">   31.88   31.96</time>
   <time name="total">   32.51   32.59</time>
   <energy>
    <i name="e_fr_energy">   -188.69577634 </i>
    <i name="e_wo_entrp">   -188.41040855 </i>
    <i name="e_0_energy">   -188.55309245 </i>
   </energy>
  </scstep>
  <scstep>
   <time name="dav">   32.43   32.51</time>
   <time name="total">   33.05   33.14</time>
   <energy>
    <i name="e_fr_energy">   -188.68987906 </i>
    <i name="e_wo_entrp">   -188.40458588 </i>
    <i name="e_0_energy">   -188.54723247 </i>
   </energy>
  </scstep>
  <scstep>
   <time name="dav">   31.33   31.40</time>
   <time name="total">   31.95   32.03</time>
   <energy>
    <i name="e_fr_energy">   -188.68726753 </i>
    <i name="e_wo_entrp">   -188.40275391 </i>
    <i name="e_0_energy">   -188.54501072 </i>
   </energy>
  </scstep>
  <scstep>
   <time name="dav">   33.34   33.42</time>
   <time name="total">   33.96   34.05</time>
   <energy>
    <i name="e_fr_energy">   -188.68640394 </i>
    <i name="e_wo_entrp">   -188.40271430 </i>
    <i name="e_0_energy">   -188.54455912 </i>
   </energy>
  </scstep>
  <scstep>
   <time name="dav">   30.67   30.74</time>
   <time name="total">   30.70   30.78</time>
   <energy>
    <i name="alphaZ">     78.92132169 </i>
    <i name="ewald">  39378.53124079 </i>
    <i name="hartreedc"> -45346.81310435 </i>
    <i name="XCdc">   -237.97854289 </i>
    <i name="pawpsdc">   3953.06736086 </i>
    <i name="pawaedc">  -3367.60367132 </i>
    <i name="eentropy">     -0.28347923 </i>
    <i name="bandstr">  -1407.97005752 </i>
    <i name="atom">   6761.44252427 </i>
    <i name="e_fr_energy">   -188.68640769 </i>
    <i name="e_wo_entrp">   -188.40292847 </i>
    <i name="e_0_energy">   -188.54466808 </i>
   </energy>
  </scstep>
  <structure>
   <crystal>
    <varray name="basis" >
     <v>       8.86004628       5.10308807       0.00000000 </v>
     <v>      -8.85976571       5.10260590       0.00000000 </v>
     <v>       0.00000000       0.00000000      30.00000000 </v>
    </varray>
    <i name="volume">   2712.64467377 </i>
    <varray name="rec_basis" >
     <v>       0.05643134       0.09798297       0.00000000 </v>
     <v>      -0.05643667       0.09798607       0.00000000 </v>
     <v>       0.00000000       0.00000000       0.03333333 </v>
    </varray>
   </crystal>
   <varray name="positions" >
    <v>       0.00001852       0.66541847       0.00002435 </v>
    <v>       0.33330918      -0.00121606       0.00001558 </v>
    <v>       0.66789783       0.33463747      -0.00004462 </v>
    <v>       1.00127051       0.33471240       0.00016984 </v>
    <v>       0.33312472       0.66535246       0.00024564 </v>
    <v>       0.66544226       0.66668507      -0.00021425 </v>
    <v>      -0.00133636      -0.00043050      -0.00021311 </v>
    <v>       0.33368491       0.33612758      -0.00026725 </v>
    <v>       0.66631947      -0.00119076       0.00021779 </v>
    <v>       0.11159035       0.22156598       0.95074953 </v>
    <v>       0.22412568       0.10900497       0.04793891 </v>
    <v>       0.10860454       0.55791059       0.95199852 </v>
    <v>       0.22247177       0.44399517       0.04934952 </v>
    <v>       0.11275154       0.88707392       0.95305653 </v>
    <v>       0.21996381       0.77983611       0.04693290 </v>
    <v>       0.44606130       0.22036317       0.95309923 </v>
    <v>       0.55373027       0.11271411       0.04695089 </v>
    <v>       0.44397611       0.55433713       0.95069090 </v>
    <v>       0.55695954       0.44141896       0.04798700 </v>
    <v>       0.44289133       0.89167392       0.95203147 </v>
    <v>       0.55584623       0.77877847       0.04925600 </v>
    <v>       0.77483353       0.22361019       0.95206926 </v>
    <v>       0.88824680       0.11034354       0.04930466 </v>
    <v>       0.77981360       0.55324195       0.95306505 </v>
    <v>       0.88662347       0.44652392       0.04697371 </v>
    <v>       0.77828780       0.88950363       0.95065546 </v>
    <v>       0.89170575       0.77622261       0.04795636 </v>
   </varray>
  </structure>
  <varray name="forces" >
   <v>       0.19730115      -0.09252715       0.00510424 </v>
   <v>       0.18006894      -0.08366390       0.01390541 </v>
   <v>       0.00038336       0.18387067      -0.09008650 </v>
   <v>       0.24646480       0.30048147      -0.05002702 </v>
   <v>       0.46186342      -0.20520640       0.02586043 </v>
   <v>      -0.44472988      -0.09001727       0.04496111 </v>
   <v>      -0.35911039      -0.21960152       0.08105141 </v>
   <v>      -0.58512642       0.31238283      -0.01267583 </v>
   <v>       0.37961353      -0.10619584       0.01943059 </v>
   <v>       0.10949882       0.01166852      -0.04405400 </v>
   <v>      -0.10608138       0.01037704      -0.27501178 </v>
   <v>      -0.06519773       0.01065860      -0.04885379 </v>
   <v>       0.14656590       0.00860276       0.25969240 </v>
   <v>      -0.09210445      -0.01085499       0.14972761 </v>
   <v>      -0.03136784      -0.00980163      -0.06608518 </v>
   <v>      -0.10768745       0.00489729       0.23889556 </v>
   <v>       0.10298805       0.00242943      -0.14785219 </v>
   <v>       0.03291114      -0.10933932      -0.28040789 </v>
   <v>      -0.02340050      -0.11307693      -0.06072313 </v>
   <v>       0.03108652       0.09331023       0.06541883 </v>
   <v>      -0.05608935       0.10189754       0.18302964 </v>
   <v>       0.02439514      -0.10632980       0.15500615 </v>
   <v>       0.07073720      -0.10086518       0.02506028 </v>
   <v>       0.04458379      -0.00106663       0.07918985 </v>
   <v>      -0.04639726       0.01026918       0.00566321 </v>
   <v>      -0.08645735       0.09464197      -0.13897619 </v>
   <v>      -0.02471179       0.10305905      -0.13724321 </v>
  </varray>
  <varray name="stress" >
   <v>     -20.16927140      -0.00250356       0.14645951 </v>
   <v>      -0.00250370     -19.63078323       0.02055123 </v>
   <v>       0.14645941       0.02055123      -1.83736124 </v>
  </varray>
  <energy>
   <i name="e_fr_energy">   -188.68640769 </i>
   <i name="e_wo_entrp">   -188.54466808 </i>
   <i name="e_0_energy">     -0.28347923 </i>
  </energy>
  <time name="totalsc">  419.94  421.04</time>
 </calculation>
 <calculation>
  <scstep>
   <time name="dav">   24.56   24.62</time>
   <time name="total">   25.11   25.18</time>
   <energy>
    <i name="alphaZ">     82.37067520 </i>
    <i name="ewald">  41316.01252061 </i>
    <i name="hartreedc"> -47315.04099448 </i>
    <i name="XCdc">   -233.83004057 </i>
    <i name="pawpsdc">   3950.34319800 </i>
    <i name="pawaedc">  -3364.84820718 </i>
    <i name="eentropy">     -0.23786789 </i>
    <i name="bandstr">  -1386.84746759 </i>
    <i name="atom">   6761.44252427 </i>
    <i name="e_fr_energy">   -190.63565964 </i>
    <i name="e_wo_entrp">   -190.39779175 </i>
    <i name="e_0_energy">   -190.51672569 </i>
   </energy>
  </scstep>
  <scstep>
   <time name="dav">   30.01   30.09</time>
   <time name="total">   30.54   30.62</time>
   <energy>
    <i name="e_fr_energy">   -190.56226619 </i>
    <i name="e_wo_entrp">   -190.32940093 </i>
    <i name="e_0_energy">   -190.44583356 </i>
   </energy>
  </scstep>
  <scstep>
   <time name="dav">   31.81   31.89</time>
   <time name="total">   32.34   32.43</time>
   <energy>
    <i name="e_fr_energy">   -190.12606787 </i>
    <i name="e_wo_entrp">   -189.87331479 </i>
    <i name="e_0_energy">   -189.99969133 </i>
   </energy>
  </scstep>
  <scstep>
   <time name="dav">   32.63   32.71</time>
   <time name="total">   33.22   33.31</time>
   <energy>
    <i name="e_fr_energy">   -189.89562120 </i>
    <i name="e_wo_entrp">   -189.66170520 </i>
    <i name="e_0_energy">   -189.77866320 </i>
   </energy>
  </scstep>
  <scstep>
   <time name="dav">   31.60   31.68</time>
   <time name="total">   32.15   32.24</time>
   <energy>
    <i name="e_fr_energy">   -189.87066495 </i>
    <i name="e_wo_entrp">   -189.62258421 </i>
    <i name="e_0_energy">   -189.74662458 </i>
   </energy>
  </scstep>
  <scstep>
   <time name="dav">   32.33   32.41</time>
   <time name="total">   32.89   32.98</time>
   <energy>
    <i name="e_fr_energy">   -189.79730184 </i>
    <i name="e_wo_entrp">   -189.55917636 </i>
    <i name="e_0_energy">   -189.67823910 </i>
   </energy>
  </scstep>
  <scstep>
   <time name="dav">   30.37   30.44</time>
   <time name="total">   30.93   31.01</time>
   <energy>
    <i name="e_fr_energy">   -189.79140256 </i>
    <i name="e_wo_entrp">   -189.55107240 </i>
    <i name="e_0_energy">   -189.67123748 </i>
   </energy>
  </scstep>
  <scstep>
   <time name="dav">   32.70   32.78</time>
   <time name="total">   33.25   33.33</time>
   <energy>
    <i name="e_fr_energy">   -189.79141286 </i>
    <i name="e_wo_entrp">   -189.55147621 </i>
    <i name="e_0_energy">   -189.67144454 </i>
   </energy>
  </scstep>
  <scstep>
   <time name="dav">   29.99   30.06</time>
   <time name="total">   30.54   30.61</time>
   <energy>
    <i name="e_fr_energy">   -189.79038069 </i>
    <i name="e_wo_entrp">   -189.55030567 </i>
    <i name="e_0_energy">   -189.67034318 </i>
   </energy>
  </scstep>
  <scstep>
   <time name="dav">   28.24   28.31</time>
   <time name="total">   28.78   28.86</time>
   <energy>
    <i name="e_fr_energy">   -189.79080608 </i>
    <i name="e_wo_entrp">   -189.55055700 </i>
    <i name="e_0_energy">   -189.67068154 </i>
   </energy>
  </scstep>
  <scstep>
   <time name="dav">   26.43   26.50</time>
   <time name="total">   26.98   27.05</time>
   <energy>
    <i name="e_fr_energy">   -189.79049422 </i>
    <i name="e_wo_entrp">   -189.55017600 </i>
    <i name="e_0_energy">   -189.67033511 </i>
   </energy>
  </scstep>
  <scstep>
   <time name="dav">   20.91   20.96</time>
   <time name="total">   20.95   21.01</time>
   <energy>
    <i name="alphaZ">     82.37067520 </i>
    <i name="ewald">  41316.01252061 </i>
    <i name="hartreedc"> -47288.10385460 </i>
    <i name="XCdc">   -235.23548290 </i>
    <i name="pawpsdc">   4039.04760435 </i>
    <i name="pawaedc">  -3454.75395386 </i>
    <i name="eentropy">     -0.24029933 </i>
    <i name="bandstr">  -1410.33025156 </i>
    <i name="atom">   6761.44252427 </i>
    <i name="e_fr_energy">   -189.79051782 </i>
    <i name="e_wo_entrp">   -189.55021849 </i>
    <i name="e_0_energy">   -189.67036816 </i>
   </energy>
  </scstep>
  <structure>
   <crystal>
    <varray name="basis" >
     <v>       8.67000080       4.99653471       0.00000000 </v>
     <v>      -8.66975342       4.99610979       0.00000000 </v>
     <v>       0.00000000       0.00000000      30.00000000 </v>
    </varray>
    <i name="volume">   2599.04999451 </i>
    <varray name="rec_basis" >
     <v>       0.05766849       0.10007218       0.00000000 </v>
     <v>      -0.05767340       0.10007504       0.00000000 </v>
     <v>       0.00000000       0.00000000       0.03333333 </v>
    </varray>
   </crystal>
   <varray name="positions" >
    <v>       0.00005358       0.66507588       0.00002724 </v>
    <v>       0.33334249      -0.00152743       0.00002344 </v>
    <v>       0.66820372       0.33494264      -0.00009554 </v>
    <v>       1.00200565       0.33497581       0.00014156 </v>
    <v>       0.33322574       0.66456943       0.00026026 </v>
    <v>       0.66486709       0.66696113      -0.00018883 </v>
    <v>      -0.00204491      -0.00045172      -0.00016729 </v>
    <v>       0.33364402       0.33720667      -0.00027441 </v>
    <v>       0.66650629      -0.00173054       0.00022877 </v>
    <v>       0.11171453       0.22148057       0.95072463 </v>
    <v>       0.22404140       0.10912374       0.04778345 </v>
    <v>       0.10855985       0.55799070       0.95197091 </v>
    <v>       0.22262633       0.44386920       0.04949632 </v>
    <v>       0.11264536       0.88714403       0.95314117 </v>
    <v>       0.21991750       0.77984985       0.04689555 </v>
    <v>       0.44596639       0.22047437       0.95323428 </v>
    <v>       0.55383287       0.11261958       0.04686732 </v>
    <v>       0.44382592       0.55412394       0.95053240 </v>
    <v>       0.55674926       0.44125346       0.04795267 </v>
    <v>       0.44307612       0.89179922       0.95206845 </v>
    <v>       0.55596187       0.77900147       0.04935947 </v>
    <v>       0.77468020       0.22341016       0.95215688 </v>
    <v>       0.88814689       0.11010824       0.04931883 </v>
    <v>       0.77985449       0.55319751       0.95310982 </v>
    <v>       0.88659613       0.44658539       0.04697691 </v>
    <v>       0.77836232       0.88974364       0.95057690 </v>
    <v>       0.89185335       0.77641751       0.04787878 </v>
   </varray>
  </structure>
  <varray name="forces" >
   <v>       0.17966056      -0.07571342       0.00173126 </v>
   <v>       0.16975678      -0.07023391       0.00999379 </v>
   <v>       0.00206911       0.14929474      -0.08576912 </v>
   <v>       0.33607445       0.29060972      -0.06710512 </v>
   <v>       0.54416051      -0.20878264      -0.00911414 </v>
   <v>      -0.52570319      -0.06526817       0.06332277 </v>
   <v>      -0.43553348      -0.23150487       0.10366205 </v>
   <v>      -0.63127770       0.28592231       0.02577097 </v>
   <v>       0.46730567      -0.08562132      -0.01978753 </v>
   <v>       0.04620849       0.00927453      -0.60647615 </v>
   <v>       0.02399897       0.02251934       0.19741165 </v>
   <v>      -0.13470439       0.02319466      -0.53724691 </v>
   <v>       0.06867162       0.00884770       0.84635311 </v>
   <v>       0.05444815      -0.01691331      -0.30388109 </v>
   <v>      -0.09289328      -0.01558830       0.38199509 </v>
   <v>       0.03295129       0.00385714      -0.20591641 </v>
   <v>      -0.05039333       0.00996486       0.30963345 </v>
   <v>      -0.01876732      -0.02545577      -0.86544857 </v>
   <v>       0.08261546      -0.04352218       0.42757217 </v>
   <v>      -0.06757929       0.01630761      -0.41846973 </v>
   <v>      -0.02128632       0.02411440       0.75317892 </v>
   <v>      -0.07387020      -0.04177064      -0.31921760 </v>
   <v>       0.02208285      -0.02940449       0.59449956 </v>
   <v>       0.09941049       0.00861044      -0.36053793 </v>
   <v>      -0.11199596       0.01057507       0.45814729 </v>
   <v>      -0.05216625       0.02173103      -0.72474091 </v>
   <v>       0.08675632       0.02495549       0.35043912 </v>
  </varray>
  <varray name="stress" >
   <v>     -10.20011018      -0.01066190       0.13855465 </v>
   <v>      -0.01066200      -9.82347452       0.01016035 </v>
   <v>       0.13855458       0.01016030       6.53291192 </v>
  </varray>
  <energy>
   <i name="e_fr_energy">   -189.79051782 </i>
   <i name="e_wo_entrp">   -189.67036816 </i>
   <i name="e_0_energy">     -0.24029933 </i>
  </energy>
  <time name="totalsc">  401.18  402.23</time>
 </calculation>
 <calculation>
  <scstep>
   <time name="dav">   22.81   22.87</time>
   <time name="total">   23.33   23.39</time>
   <energy>
    <i name="alphaZ">     85.81991859 </i>
    <i name="ewald">  42832.51852320 </i>
    <i name="hartreedc"> -48848.75335183 </i>
    <i name="XCdc">   -232.97967699 </i>
    <i name="pawpsdc">   4039.08123144 </i>
    <i name="pawaedc">  -3454.78500292 </i>
    <i name="eentropy">     -0.19916154 </i>
    <i name="bandstr">  -1373.51338116 </i>
    <i name="atom">   6761.44252427 </i>
    <i name="e_fr_energy">   -191.36837694 </i>
    <i name="e_wo_entrp">   -191.16921540 </i>
    <i name="e_0_energy">   -191.26879617 </i>
   </energy>
  </scstep>
  <scstep>
   <time name="dav">   33.99   34.07</time>
   <time name="total">   34.50   34.59</time>
   <energy>
    <i name="e_fr_energy">   -191.12119620 </i>
    <i name="e_wo_entrp">   -190.91766062 </i>
    <i name="e_0_energy">   -191.01942841 </i>
   </energy>
  </scstep>
  <scstep>
   <time name="dav">   31.34   31.42</time>
   <time name="total">   31.85   31.94</time>
   <energy>
    <i name="e_fr_energy">   -191.42619495 </i>
    <i name="e_wo_entrp">   -191.20932421 </i>
    <i name="e_0_energy">   -191.31775958 </i>
   </energy>
  </scstep>
  <scstep>
   <time name="dav">   29.46   29.53</time>
   <time name="total">   29.98   30.06</time>
   <energy>
    <i name="e_fr_energy">   -190.98926366 </i>
    <i name="e_wo_entrp">   -190.77773798 </i>
    <i name="e_0_energy">   -190.88350082 </i>
   </energy>
  </scstep>
  <scstep>
   <time name="dav">   30.91   30.98</time>
   <time name="total">   31.43   31.51</time>
   <energy>
    <i name="e_fr_energy">   -190.98093067 </i>
    <i name="e_wo_entrp">   -190.78579229 </i>
    <i name="e_0_energy">   -190.88336148 </i>
   </energy>
  </scstep>
  <scstep>
   <time name="dav">   31.28   31.36</time>
   <time name="total">   31.80   31.89</time>
   <energy>
    <i name="e_fr_energy">   -190.80619526 </i>
    <i name="e_wo_entrp">   -190.59895025 </i>
    <i name="e_0_energy">   -190.70257275 </i>
   </energy>
  </scstep>
  <scstep>
   <time name="dav">   32.07   32.15</time>
   <time name="total">   32.59   32.68</time>
   <energy>
    <i name="e_fr_energy">   -190.80627921 </i>
    <i name="e_wo_entrp">   -190.60020170 </i>
    <i name="e_0_energy">   -190.70324046 </i>
   </energy>
  </scstep>
  <scstep>
   <time name="dav">   30.71   30.78</time>
   <time name="total">   31.23   31.31</time>
   <energy>
    <i name="e_fr_energy">   -190.80445273 </i>
    <i name="e_wo_entrp">   -190.59789486 </i>
    <i name="e_0_energy">   -190.70117379 </i>
   </energy>
  </scstep>
  <scstep>
   <time name="dav">   29.97   30.04</time>
   <time name="total">   30.48   30.57</time>
   <energy>
    <i name="e_fr_energy">   -190.80086802 </i>
    <i name="e_wo_entrp">   -190.59471321 </i>
    <i name="e_0_energy">   -190.69779062 </i>
   </energy>
  </scstep>
  <scstep>
   <time name="dav">   29.08   29.15</time>
   <time name="total">   29.59   29.67</time>
   <energy>
    <i name="e_fr_energy">   -190.80117549 </i>
    <i name="e_wo_entrp">   -190.59488702 </i>
    <i name="e_0_energy">   -190.69803125 </i>
   </energy>
  </scstep>
  <scstep>
   <time name="dav">   27.86   27.93</time>
   <time name="total">   28.38   28.45</time>
   <energy>
    <i name="e_fr_energy">   -190.80095264 </i>
    <i name="e_wo_entrp">   -190.59455756 </i>
    <i name="e_0_energy">   -190.69775510 </i>
   </energy>
  </scstep>
  <scstep>
   <time name="dav">   20.97   21.02</time>
   <time name="total">   21.00   21.06</time>
   <energy>
    <i name="alphaZ">     85.81991859 </i>
    <i name="ewald">  42832.51852320 </i>
    <i name="hartreedc"> -48820.23753111 </i>
    <i name="XCdc">   -234.30305710 </i>
    <i name="pawpsdc">   4063.64710791 </i>
    <i name="pawaedc">  -3479.52651372 </i>
    <i name="eentropy">     -0.20642592 </i>
    <i name="bandstr">  -1399.95550877 </i>
    <i name="atom">   6761.44252427 </i>
    <i name="e_fr_energy">   -190.80096264 </i>
    <i name="e_wo_entrp">   -190.59453673 </i>
    <i name="e_0_energy">   -190.69774969 </i>
   </energy>
  </scstep>
  <structure>
   <crystal>
    <varray name="basis" >
     <v>       8.48903228       4.89735452       0.00000000 </v>
     <v>      -8.48930554       4.89783249       0.00000000 </v>
     <v>       0.00000000       0.00000000      30.00000000 </v>
    </varray>
    <i name="volume">   2494.58990936 </i>
    <varray name="rec_basis" >
     <v>       0.05890145       0.10209260       0.00000000 </v>
     <v>      -0.05889571       0.10208931       0.00000000 </v>
     <v>       0.00000000       0.00000000       0.03333333 </v>
    </varray>
   </crystal>
   <varray name="positions" >
    <v>       0.00024374       0.66402318       0.00002798 </v>
    <v>       0.33353328      -0.00252899       0.00004077 </v>
    <v>       0.66906039       0.33577967      -0.00026876 </v>
    <v>       1.00513140       0.33542935      -0.00001107 </v>
    <v>       0.33398813       0.66118286       0.00021221 </v>
    <v>       0.66251447       0.66862085      -0.00004292 </v>
    <v>      -0.00519445      -0.00025069       0.00006534 </v>
    <v>       0.33302702       0.34126313      -0.00018911 </v>
    <v>       0.66782797      -0.00402005       0.00015516 </v>
    <v>       0.11184313       0.22145598       0.94900368 </v>
    <v>       0.22448244       0.10902354       0.04858574 </v>
    <v>       0.10815236       0.55874947       0.95045463 </v>
    <v>       0.22281888       0.44378829       0.05173209 </v>
    <v>       0.11292838       0.88662003       0.95213511 </v>
    <v>       0.21938460       0.78015971       0.04805802 </v>
    <v>       0.44630568       0.22017809       0.95243756 </v>
    <v>       0.55351502       0.11309893       0.04788847 </v>
    <v>       0.44373262       0.55431211       0.94825861 </v>
    <v>       0.55709609       0.44070542       0.04924276 </v>
    <v>       0.44260562       0.89209455       0.95080082 </v>
    <v>       0.55589379       0.77898796       0.05138933 </v>
    <v>       0.77417329       0.22371323       0.95110196 </v>
    <v>       0.88814964       0.11008993       0.05102096 </v>
    <v>       0.78036736       0.55283969       0.95199857 </v>
    <v>       0.88616703       0.44714806       0.04830007 </v>
    <v>       0.77817952       0.88983907       0.94859260 </v>
    <v>       0.89228705       0.77591110       0.04900933 </v>
   </varray>
  </structure>
  <varray name="forces" >
   <v>       0.18738414      -0.02323697       0.00090576 </v>
   <v>       0.20283050      -0.03251873       0.00843132 </v>
   <v>       0.00142731       0.06034610      -0.05166304 </v>
   <v>       0.39131960       0.30597746      -0.03583142 </v>
   <v>       0.55874544      -0.21295651      -0.03192432 </v>
   <v>      -0.59054744      -0.02252059       0.03095309 </v>
   <v>      -0.47655807      -0.27831465       0.05775015 </v>
   <v>      -0.61880066       0.27860703       0.03697373 </v>
   <v>       0.50512256      -0.09055199      -0.03713113 </v>
   <v>       0.04861478       0.02605828      -0.41987391 </v>
   <v>      -0.06664560       0.03914233       0.02609712 </v>
   <v>       0.00354040       0.03274953      -0.36608718 </v>
   <v>      -0.02540752       0.01657356       0.67175144 </v>
   <v>      -0.01715692      -0.03884968      -0.19113246 </v>
   <v>       0.05116119      -0.03855975       0.29274825 </v>
   <v>      -0.06302416       0.01488025      -0.13723686 </v>
   <v>       0.02777965       0.01926981       0.22086079 </v>
   <v>      -0.01394100       0.02180697      -0.65949906 </v>
   <v>      -0.03538788       0.00610546       0.24482014 </v>
   <v>       0.05154161      -0.03675699      -0.23777157 </v>
   <v>      -0.05993898      -0.04084123       0.57459944 </v>
   <v>       0.03848204       0.00875634      -0.15515214 </v>
   <v>      -0.08340607       0.01843194       0.45172503 </v>
   <v>      -0.04190716       0.02605017      -0.24957536 </v>
   <v>       0.01743145       0.02092211       0.32698757 </v>
   <v>       0.00737297      -0.03384516      -0.57340665 </v>
   <v>      -0.00003217      -0.04672510       0.20168126 </v>
  </varray>
  <varray name="stress" >
   <v>      -5.68283984      -0.01433065      -0.18907841 </v>
   <v>      -0.01433070      -6.08452964      -0.03108586 </v>
   <v>      -0.18907839      -0.03108587       4.60045151 </v>
  </varray>
  <energy>
   <i name="e_fr_energy">   -190.80096264 </i>
   <i name="e_wo_entrp">   -190.69774969 </i>
   <i name="e_0_energy">     -0.20642592 </i>
  </energy>
  <time name="totalsc">  399.69  400.75</time>
 </calculation>
 <calculation>
  <scstep>
   <time name="dav">   22.85   22.90</time>
   <time name="total">   23.36   23.42</time>
   <energy>
    <i name="alphaZ">     90.27241966 </i>
    <i name="ewald">  44719.38376955 </i>
    <i name="hartreedc"> -50762.92030705 </i>
    <i name="XCdc">   -231.74453699 </i>
    <i name="pawpsdc">   4063.57241918 </i>
    <i name="pawaedc">  -3479.44820790 </i>
    <i name="eentropy">     -0.18011466 </i>
    <i name="bandstr">  -1352.66525644 </i>
    <i name="atom">   6761.44252427 </i>
    <i name="e_fr_energy">   -192.28729038 </i>
    <i name="e_wo_entrp">   -192.10717572 </i>
    <i name="e_0_energy">   -192.19723305 </i>
   </energy>
  </scstep>
  <scstep>
   <time name="dav">   29.12   29.19</time>
   <time name="total">   29.63   29.70</time>
   <energy>
    <i name="e_fr_energy">   -191.99548316 </i>
    <i name="e_wo_entrp">   -191.78266804 </i>
    <i name="e_0_energy">   -191.88907560 </i>
   </energy>
  </scstep>
  <scstep>
   <time name="dav">   31.34   31.41</time>
   <time name="total">   31.84   31.93</time>
   <energy>
    <i name="e_fr_energy">   -192.42135506 </i>
    <i name="e_wo_entrp">   -192.24638946 </i>
    <i name="e_0_energy">   -192.33387226 </i>
   </energy>
  </scstep>
  <scstep>
   <time name="dav">   31.58   31.66</time>
   <time name="total">   32.09   32.18</time>
   <energy>
    <i name="e_fr_energy">   -191.70660030 </i>
    <i name="e_wo_entrp">   -191.51716561 </i>
    <i name="e_0_energy">   -191.61188295 </i>
   </energy>
  </scstep>
  <scstep>
   <time name="dav">   31.02   31.10</time>
   <time name="total">   31.53   31.62</time>
   <energy>
    <i name="e_fr_energy">   -191.73091684 </i>
    <i name="e_wo_entrp">   -191.52976941 </i>
    <i name="e_0_energy">   -191.63034312 </i>
   </energy>
  </scstep>
  <scstep>
   <time name="dav">   31.59   31.67</time>
   <time name="total">   32.10   32.18</time>
   <energy>
    <i name="e_fr_energy">   -191.54383251 </i>
    <i name="e_wo_entrp">   -191.35403656 </i>
    <i name="e_0_energy">   -191.44893454 </i>
   </energy>
  </scstep>
  <scstep>
   <time name="dav">   30.72   30.79</time>
   <time name="total">   31.23   31.31</time>
   <energy>
    <i name="e_fr_energy">   -191.54326959 </i>
    <i name="e_wo_entrp">   -191.34678888 </i>
    <i name="e_0_energy">   -191.44502924 </i>
   </energy>
  </scstep>
  <scstep>
   <time name="dav">   30.31   30.38</time>
   <time name="total">   30.82   30.90</time>
   <energy>
    <i name="e_fr_energy">   -191.53113416 </i>
    <i name="e_wo_entrp">   -191.33580606 </i>
    <i name="e_0_energy">   -191.43347011 </i>
   </energy>
  </scstep>
  <scstep>
   <time name="dav">   30.94   31.01</time>
   <time name="total">   31.45   31.54</time>
   <energy>
    <i name="e_fr_energy">   -191.52774072 </i>
    <i name="e_wo_entrp">   -191.33290863 </i>
    <i name="e_0_energy">   -191.43032468 </i>
   </energy>
  </scstep>
  <scstep>
   <time name="dav">   27.83   27.90</time>
   <time name="total">   28.34   28.42</time>
   <energy>
    <i name="e_fr_energy">   -191.52780082 </i>
    <i name="e_wo_entrp">   -191.33298220 </i>
    <i name="e_0_energy">   -191.43039151 </i>
   </energy>
  </scstep>
  <scstep>
   <time name="dav">   24.97   25.03</time>
   <time name="total">   25.01   25.08</time>
   <energy>
    <i name="alphaZ">     90.27241966 </i>
    <i name="ewald">  44719.38376955 </i>
    <i name="hartreedc"> -50728.06971358 </i>
    <i name="XCdc">   -233.29115000 </i>
    <i name="pawpsdc">   4089.70223946 </i>
    <i name="pawaedc">  -3505.73287585 </i>
    <i name="eentropy">     -0.19499112 </i>
    <i name="bandstr">  -1385.04005315 </i>
    <i name="atom">   6761.44252427 </i>
    <i name="e_fr_energy">   -191.52783075 </i>
    <i name="e_wo_entrp">   -191.33283963 </i>
    <i name="e_0_energy">   -191.43033519 </i>
   </energy>
  </scstep>
  <structure>
   <crystal>
    <varray name="basis" >
     <v>       8.28680106       4.76818398       0.00000000 </v>
     <v>      -8.28814088       4.77050986       0.00000000 </v>
     <v>       0.00000000       0.00000000      30.00000000 </v>
    </varray>
    <i name="volume">   2371.54940282 </i>
    <varray name="rec_basis" >
     <v>       0.06034675       0.10484463       0.00000000 </v>
     <v>      -0.06031733       0.10482768       0.00000000 </v>
     <v>       0.00000000       0.00000000       0.03333333 </v>
    </varray>
   </crystal>
   <varray name="positions" >
    <v>       0.00120755       0.66241558       0.00002877 </v>
    <v>       0.33449515      -0.00433271       0.00007139 </v>
    <v>       0.66985857       0.33655099      -0.00048817 </v>
    <v>       1.01167414       0.33626290      -0.00018657 </v>
    <v>       0.33544297       0.65451420       0.00006328 </v>
    <v>       0.65800273       0.67258256       0.00011496 </v>
    <v>      -0.01200255      -0.00016343       0.00034112 </v>
    <v>       0.33191841       0.34905812      -0.00001066 </v>
    <v>       0.67045778      -0.00873124      -0.00002145 </v>
    <v>       0.11236502       0.22150309       0.94669197 </v>
    <v>       0.22479563       0.10968209       0.04923446 </v>
    <v>       0.10835441       0.55938817       0.94843654 </v>
    <v>       0.22279172       0.44419694       0.05506403 </v>
    <v>       0.11265731       0.88597821       0.95087785 </v>
    <v>       0.21905932       0.77958418       0.04970238 </v>
    <v>       0.44634178       0.22046399       0.95142643 </v>
    <v>       0.55362908       0.11346850       0.04925535 </v>
    <v>       0.44397271       0.55492658       0.94496065 </v>
    <v>       0.55732116       0.44086202       0.05078384 </v>
    <v>       0.44211516       0.89142280       0.94929312 </v>
    <v>       0.55495018       0.77870373       0.05432051 </v>
    <v>       0.77438651       0.22391536       0.94994131 </v>
    <v>       0.88793092       0.11100838       0.05344339 </v>
    <v>       0.78061150       0.55323054       0.95052286 </v>
    <v>       0.88630118       0.44749358       0.05010693 </v>
    <v>       0.77770169       0.88925722       0.94566535 </v>
    <v>       0.89187443       0.77497211       0.05036026 </v>
   </varray>
  </structure>
  <varray name="forces" >
   <v>       0.23700945       0.03124808       0.00023592 </v>
   <v>       0.30228186       0.03507681       0.04201999 </v>
   <v>      -0.03598161      -0.04846573      -0.05357390 </v>
   <v>       0.21346363       0.16625496       0.09196959 </v>
   <v>       0.06439927      -0.10240610       0.07415701 </v>
   <v>      -0.27346599       0.11579686      -0.09086300 </v>
   <v>      -0.36280770      -0.25805504      -0.05090264 </v>
   <v>      -0.22380300       0.13612512      -0.04113820 </v>
   <v>       0.26991326      -0.07873659       0.09967975 </v>
   <v>       0.10120603       0.03248748      -0.11984161 </v>
   <v>      -0.20891204       0.03207463      -0.24995851 </v>
   <v>       0.18931522       0.03579755      -0.07937212 </v>
   <v>      -0.06940312       0.01395467       0.32394829 </v>
   <v>      -0.12909027      -0.04150649       0.09521625 </v>
   <v>       0.19035249      -0.04612221       0.03873427 </v>
   <v>      -0.20556166       0.00729279       0.08220836 </v>
   <v>       0.15257391       0.02642263      -0.00319985 </v>
   <v>       0.02966969       0.07081550      -0.29318656 </v>
   <v>      -0.19908630       0.05831645      -0.01469646 </v>
   <v>       0.20177493      -0.06956648      -0.03561266 </v>
   <v>      -0.14356780      -0.09703690       0.22774926 </v>
   <v>       0.20898459       0.05420109       0.11508376 </v>
   <v>      -0.16280932       0.04537353       0.18952540 </v>
   <v>      -0.17734266       0.03624559       0.07330423 </v>
   <v>       0.14158306       0.02222229      -0.00335055 </v>
   <v>       0.04213657      -0.06910499      -0.35517273 </v>
   <v>      -0.15283248      -0.10870549      -0.06296329 </v>
  </varray>
  <varray name="stress" >
   <v>       0.95372095      -0.02372455      -0.80291800 </v>
   <v>      -0.02372460      -0.28153589      -0.12446088 </v>
   <v>      -0.80291798      -0.12446090       0.02423964 </v>
  </varray>
  <energy>
   <i name="e_fr_energy">   -191.52783075 </i>
   <i name="e_wo_entrp">   -191.43033519 </i>
   <i name="e_0_energy">     -0.19499112 </i>
  </energy>
  <time name="totalsc">  370.75  371.72</time>
 </calculation>
 <calculation>
  <scstep>
   <time name="dav">   22.81   22.87</time>
   <time name="total">   23.32   23.38</time>
   <energy>
    <i name="alphaZ">     89.99463840 </i>
    <i name="ewald">  44575.62715446 </i>
    <i name="hartreedc"> -50581.93381018 </i>
    <i name="XCdc">   -233.55876431 </i>
    <i name="pawpsdc">   4089.87420724 </i>
    <i name="pawaedc">  -3505.90239080 </i>
    <i name="eentropy">     -0.19665589 </i>
    <i name="bandstr">  -1386.93322660 </i>
    <i name="atom">   6761.44252427 </i>
    <i name="e_fr_energy">   -191.58632340 </i>
    <i name="e_wo_entrp">   -191.38966751 </i>
    <i name="e_0_energy">   -191.48799546 </i>
   </energy>
  </scstep>
  <scstep>
   <time name="dav">   31.98   32.06</time>
   <time name="total">   32.49   32.57</time>
   <energy>
    <i name="e_fr_energy">   -191.66304037 </i>
    <i name="e_wo_entrp">   -191.45303867 </i>
    <i name="e_0_energy">   -191.55803952 </i>
   </energy>
  </scstep>
  <scstep>
   <time name="dav">   31.95   32.03</time>
   <time name="total">   32.46   32.55</time>
   <energy>
    <i name="e_fr_energy">   -191.59407373 </i>
    <i name="e_wo_entrp">   -191.39542161 </i>
    <i name="e_0_energy">   -191.49474767 </i>
   </energy>
  </scstep>
  <scstep>
   <time name="dav">   30.47   30.54</time>
   <time name="total">   30.98   31.06</time>
   <energy>
    <i name="e_fr_energy">   -191.59795080 </i>
    <i name="e_wo_entrp">   -191.39863878 </i>
    <i name="e_0_energy">   -191.49829479 </i>
   </energy>
  </scstep>
  <scstep>
   <time name="dav">   30.35   30.42</time>
   <time name="total">   30.86   30.94</time>
   <energy>
    <i name="e_fr_energy">   -191.59187288 </i>
    <i name="e_wo_entrp">   -191.39128125 </i>
    <i name="e_0_energy">   -191.49157707 </i>
   </energy>
  </scstep>
  <scstep>
   <time name="dav">   29.83   29.91</time>
   <time name="total">   30.35   30.43</time>
   <energy>
    <i name="e_fr_energy">   -191.59227992 </i>
    <i name="e_wo_entrp">   -191.39350501 </i>
    <i name="e_0_energy">   -191.49289247 </i>
   </energy>
  </scstep>
  <scstep>
   <time name="dav">   29.92   29.99</time>
   <time name="total">   30.42   30.50</time>
   <energy>
    <i name="e_fr_energy">   -191.59157038 </i>
    <i name="e_wo_entrp">   -191.39153972 </i>
    <i name="e_0_energy">   -191.49155505 </i>
   </energy>
  </scstep>
  <scstep>
   <time name="dav">   25.06   25.12</time>
   <time name="total">   25.57   25.64</time>
   <energy>
    <i name="e_fr_energy">   -191.59119090 </i>
    <i name="e_wo_entrp">   -191.39160297 </i>
    <i name="e_0_energy">   -191.49139694 </i>
   </energy>
  </scstep>
  <scstep>
   <time name="dav">   18.90   18.95</time>
   <time name="total">   18.94   18.99</time>
   <energy>
    <i name="alphaZ">     89.99463840 </i>
    <i name="ewald">  44575.62715446 </i>
    <i name="hartreedc"> -50585.16423511 </i>
    <i name="XCdc">   -233.44503309 </i>
    <i name="pawpsdc">   4085.03163564 </i>
    <i name="pawaedc">  -3500.99446445 </i>
    <i name="eentropy">     -0.19967573 </i>
    <i name="bandstr">  -1383.88372709 </i>
    <i name="atom">   6761.44252427 </i>
    <i name="e_fr_energy">   -191.59118269 </i>
    <i name="e_wo_entrp">   -191.39150697 </i>
    <i name="e_0_energy">   -191.49134483 </i>
   </energy>
  </scstep>
  <structure>
   <crystal>
    <varray name="basis" >
     <v>       8.31129748       4.76823596       0.00000000 </v>
     <v>      -8.31313349       4.77141733       0.00000000 </v>
     <v>       0.00000000       0.00000000      30.00000000 </v>
    </varray>
    <i name="volume">   2378.86952766 </i>
    <varray name="rec_basis" >
     <v>       0.06017250       0.10483719       0.00000000 </v>
     <v>      -0.06013238       0.10481404       0.00000000 </v>
     <v>       0.00000000       0.00000000       0.03333333 </v>
    </varray>
   </crystal>
   <varray name="positions" >
    <v>       0.00194070       0.66200697       0.00002917 </v>
    <v>       0.33542044      -0.00488904       0.00013199 </v>
    <v>       0.66949656       0.33638274      -0.00055598 </v>
    <v>       1.01269247       0.33642828      -0.00004115 </v>
    <v>       0.33506422       0.65419948       0.00018074 </v>
    <v>       0.65803410       0.67365262      -0.00002802 </v>
    <v>      -0.01383273      -0.00040075       0.00025093 </v>
    <v>       0.33201189       0.34990277      -0.00008117 </v>
    <v>       0.67067814      -0.00958396       0.00013526 </v>
    <v>       0.11276509       0.22137893       0.94665006 </v>
    <v>       0.22436088       0.11036593       0.04881562 </v>
    <v>       0.10902373       0.55900863       0.94843727 </v>
    <v>       0.22267410       0.44442599       0.05535639 </v>
    <v>       0.11212239       0.88617143       0.95109665 </v>
    <v>       0.21937690       0.77888173       0.04966278 </v>
    <v>       0.44581481       0.22104391       0.95161290 </v>
    <v>       0.55416420       0.11315459       0.04916722 </v>
    <v>       0.44436642       0.55513743       0.94471250 </v>
    <v>       0.55703563       0.44166204       0.05066757 </v>
    <v>       0.44236888       0.89058964       0.94933335 </v>
    <v>       0.55416349       0.77865767       0.05449109 </v>
    <v>       0.77519130       0.22358676       0.95018624 </v>
    <v>       0.88771257       0.11160493       0.05358321 </v>
    <v>       0.78028662       0.55386040       0.95071959 </v>
    <v>       0.88678404       0.44719460       0.04999638 </v>
    <v>       0.77752091       0.88885655       0.94530659 </v>
    <v>       0.89097671       0.77493419       0.05018273 </v>
   </varray>
  </structure>
  <varray name="forces" >
   <v>       0.26839270       0.02730976      -0.02520870 </v>
   <v>       0.36951314       0.04258562       0.02182504 </v>
   <v>      -0.08617600      -0.04729692      -0.07592833 </v>
   <v>       0.24932832       0.21392444       0.02240564 </v>
   <v>       0.13696108      -0.11671223      -0.01768588 </v>
   <v>      -0.34149982       0.09868055      -0.01791019 </v>
   <v>      -0.41045528      -0.29894980      -0.00929197 </v>
   <v>      -0.31087213       0.20575623       0.02604684 </v>
   <v>       0.32326658      -0.11332660       0.00559897 </v>
   <v>       0.05101170       0.00709402      -0.07515487 </v>
   <v>      -0.12693265      -0.00474963      -0.27958625 </v>
   <v>       0.11492520       0.00931436      -0.06395380 </v>
   <v>       0.00309885       0.01888757       0.24723424 </v>
   <v>      -0.09312778      -0.01807064       0.13134222 </v>
   <v>       0.10605890      -0.03060992       0.07243650 </v>
   <v>      -0.12676374      -0.00921368       0.08246651 </v>
   <v>       0.10056324       0.02219959       0.01467591 </v>
   <v>      -0.03307042       0.04546384      -0.19925339 </v>
   <v>      -0.12739769       0.05807680      -0.02886420 </v>
   <v>       0.11809778      -0.03540386      -0.03190274 </v>
   <v>      -0.07104939      -0.06756687       0.18594495 </v>
   <v>       0.12914873       0.02974131       0.15025469 </v>
   <v>      -0.08999709       0.02625714       0.15698150 </v>
   <v>      -0.11115850       0.03081230       0.08058238 </v>
   <v>       0.08879393       0.00907545      -0.00448734 </v>
   <v>      -0.03484624      -0.04097219      -0.29094834 </v>
   <v>      -0.09581342      -0.06230665      -0.07761938 </v>
  </varray>
  <varray name="stress" >
   <v>      -0.26481740       0.03036931      -0.25343260 </v>
   <v>       0.03036911      -0.34623300      -0.05712200 </v>
   <v>      -0.25343264      -0.05712196      -0.69196877 </v>
  </varray>
  <energy>
   <i name="e_fr_energy">   -191.59118269 </i>
   <i name="e_wo_entrp">   -191.49134483 </i>
   <i name="e_0_energy">     -0.19967573 </i>
  </energy>
  <time name="totalsc">  298.92  299.70</time>
 </calculation>
 <calculation>
  <scstep>
   <time name="dav">   22.84   22.90</time>
   <time name="total">   23.35   23.41</time>
   <energy>
    <i name="alphaZ">     90.23606983 </i>
    <i name="ewald">  44667.10431681 </i>
    <i name="hartreedc"> -50679.75976453 </i>
    <i name="XCdc">   -233.35212185 </i>
    <i name="pawpsdc">   4084.65674724 </i>
    <i name="pawaedc">  -3500.61580608 </i>
    <i name="eentropy">     -0.19579279 </i>
    <i name="bandstr">  -1381.19346896 </i>
    <i name="atom">   6761.44252427 </i>
    <i name="e_fr_energy">   -191.67729606 </i>
    <i name="e_wo_entrp">   -191.48150327 </i>
    <i name="e_0_energy">   -191.57939966 </i>
   </energy>
  </scstep>
  <scstep>
   <time name="dav">   32.68   32.76</time>
   <time name="total">   33.19   33.29</time>
   <energy>
    <i name="e_fr_energy">   -191.77814879 </i>
    <i name="e_wo_entrp">   -191.56039278 </i>
    <i name="e_0_energy">   -191.66927079 </i>
   </energy>
  </scstep>
  <scstep>
   <time name="dav">   31.98   32.05</time>
   <time name="total">   32.49   32.57</time>
   <energy>
    <i name="e_fr_energy">   -191.68901762 </i>
    <i name="e_wo_entrp">   -191.49023747 </i>
    <i name="e_0_energy">   -191.58962755 </i>
   </energy>
  </scstep>
  <scstep>
   <time name="dav">   30.23   30.30</time>
   <time name="total">   30.73   30.81</time>
   <energy>
    <i name="e_fr_energy">   -191.69384906 </i>
    <i name="e_wo_entrp">   -191.49538472 </i>
    <i name="e_0_energy">   -191.59461689 </i>
   </energy>
  </scstep>
  <scstep>
   <time name="dav">   30.44   30.51</time>
   <time name="total">   30.95   31.03</time>
   <energy>
    <i name="e_fr_energy">   -191.68347520 </i>
    <i name="e_wo_entrp">   -191.48251069 </i>
    <i name="e_0_energy">   -191.58299294 </i>
   </energy>
  </scstep>
  <scstep>
   <time name="dav">   30.07   30.14</time>
   <time name="total">   30.58   30.66</time>
   <energy>
    <i name="e_fr_energy">   -191.68349609 </i>
    <i name="e_wo_entrp">   -191.48308486 </i>
    <i name="e_0_energy">   -191.58329048 </i>
   </energy>
  </scstep>
  <scstep>
   <time name="dav">   30.02   30.09</time>
   <time name="total">   30.53   30.61</time>
   <energy>
    <i name="e_fr_energy">   -191.68333908 </i>
    <i name="e_wo_entrp">   -191.48109776 </i>
    <i name="e_0_energy">   -191.58221842 </i>
   </energy>
  </scstep>
  <scstep>
   <time name="dav">   27.00   27.06</time>
   <time name="total">   27.50   27.58</time>
   <energy>
    <i name="e_fr_energy">   -191.68244733 </i>
    <i name="e_wo_entrp">   -191.48119173 </i>
    <i name="e_0_energy">   -191.58181953 </i>
   </energy>
  </scstep>
  <scstep>
   <time name="dav">   19.65   19.70</time>
   <time name="total">   19.69   19.74</time>
   <energy>
    <i name="alphaZ">     90.23606983 </i>
    <i name="ewald">  44667.10431681 </i>
    <i name="hartreedc"> -50678.34198833 </i>
    <i name="XCdc">   -233.40388457 </i>
[...]
      <set comment="kpoint 31">
       <r>  -17.5403    1.0000 </r>
       <r>  -17.2859    1.0000 </r>
       <r>  -16.9143    1.0000 </r>
       <r>  -16.6582    1.0000 </r>
       <r>  -16.5298    1.0000 </r>
       <r>  -16.4674    1.0000 </r>
       <r>  -16.2814    1.0000 </r>
       <r>  -16.2588    1.0000 </r>
       <r>  -16.1912    1.0000 </r>
       <r>  -16.1268    1.0000 </r>
       <r>  -15.9202    1.0000 </r>
       <r>  -15.7777    1.0000 </r>
       <r>  -15.7277    1.0000 </r>
       <r>  -15.6982    1.0000 </r>
       <r>  -15.5240    1.0000 </r>
       <r>  -15.4419    1.0000 </r>
       <r>  -15.4001    1.0000 </r>
       <r>  -15.2241    1.0000 </r>
       <r>   -9.7843    1.0000 </r>
       <r>   -9.5267    1.0000 </r>
       <r>   -9.3405    1.0000 </r>
       <r>   -8.9997    1.0000 </r>
       <r>   -8.8261    1.0000 </r>
       <r>   -8.6660    1.0000 </r>
       <r>   -8.6230    1.0000 </r>
       <r>   -8.5630    1.0000 </r>
       <r>   -8.4767    1.0000 </r>
       <r>   -8.3656    1.0000 </r>
       <r>   -8.2410    1.0000 </r>
       <r>   -8.1826    1.0000 </r>
       <r>   -8.1014    1.0000 </r>
       <r>   -8.0515    1.0000 </r>
       <r>   -7.9286    1.0000 </r>
       <r>   -7.9046    1.0000 </r>
       <r>   -7.8062    1.0000 </r>
       <r>   -7.7028    1.0000 </r>
       <r>   -7.5946    1.0000 </r>
       <r>   -7.4868    1.0000 </r>
       <r>   -7.4236    1.0000 </r>
       <r>   -7.2804    1.0000 </r>
       <r>   -7.0930    1.0000 </r>
       <r>   -7.0623    1.0000 </r>
       <r>   -7.0296    1.0000 </r>
       <r>   -6.9309    1.0000 </r>
       <r>   -6.8692    1.0000 </r>
       <r>   -6.7568    1.0000 </r>
       <r>   -6.6990    1.0000 </r>
       <r>   -6.6258    1.0000 </r>
       <r>   -6.4770    1.0000 </r>
       <r>   -6.4324    1.0000 </r>
       <r>   -6.3537    1.0000 </r>
       <r>   -6.3395    1.0000 </r>
       <r>   -6.2557    1.0000 </r>
       <r>   -6.2176    1.0000 </r>
       <r>   -6.1640    1.0000 </r>
       <r>   -6.0625    1.0000 </r>
       <r>   -6.0261    1.0000 </r>
       <r>   -5.9769    1.0000 </r>
       <r>   -5.8662    1.0000 </r>
       <r>   -5.7211    1.0000 </r>
       <r>   -5.6937    1.0000 </r>
       <r>   -5.5477    1.0000 </r>
       <r>   -5.4923    1.0000 </r>
       <r>   -5.3851    1.0000 </r>
       <r>   -5.2841    1.0000 </r>
       <r>   -5.2197    1.0000 </r>
       <r>   -4.9890    1.0000 </r>
       <r>   -4.8579    1.0000 </r>
       <r>   -4.7637    1.0000 </r>
       <r>   -4.6532    1.0000 </r>
       <r>   -4.5165    1.0000 </r>
       <r>   -4.4544    1.0000 </r>
       <r>   -4.3539    1.0000 </r>
       <r>   -4.2512    1.0000 </r>
       <r>   -4.1477    1.0000 </r>
       <r>   -4.0281    1.0000 </r>
       <r>   -3.9172    1.0000 </r>
       <r>   -3.7551    0.9997 </r>
       <r>   -3.6495    0.9968 </r>
       <r>   -3.2772    0.5355 </r>
       <r>   -2.9391    0.0107 </r>
       <r>   -2.8412    0.0014 </r>
       <r>   -2.7233    0.0001 </r>
       <r>   -2.6283    0.0000 </r>
       <r>   -2.4918    0.0000 </r>
       <r>   -2.4621    0.0000 </r>
       <r>   -2.2654    0.0000 </r>
       <r>   -2.1224    0.0000 </r>
       <r>   -2.0357    0.0000 </r>
       <r>   -2.0087    0.0000 </r>
       <r>   -1.8165    0.0000 </r>
       <r>   -1.4441    0.0000 </r>
       <r>   -1.3324    0.0000 </r>
       <r>   -1.2573    0.0000 </r>
       <r>   -1.2012    0.0000 </r>
       <r>   -1.1115    0.0000 </r>
       <r>   -1.0809    0.0000 </r>
       <r>   -1.0367    0.0000 </r>
       <r>   -0.9259    0.0000 </r>
       <r>   -0.8474    0.0000 </r>
       <r>   -0.8131    0.0000 </r>
       <r>   -0.7322    0.0000 </r>
       <r>   -0.6824    0.0000 </r>
       <r>   -0.5721    0.0000 </r>
       <r>   -0.4588    0.0000 </r>
       <r>   -0.3845    0.0000 </r>
       <r>   -0.2561    0.0000 </r>
       <r>   -0.0577    0.0000 </r>
       <r>    0.0809    0.0000 </r>
       <r>    0.2357    0.0000 </r>
       <r>    0.2891    0.0000 </r>
       <r>    0.4702    0.0000 </r>
       <r>    0.7656    0.0000 </r>
       <r>    0.8907    0.0000 </r>
       <r>    1.0897    0.0000 </r>
       <r>    1.1793    0.0000 </r>
       <r>    1.4902    0.0000 </r>
       <r>    2.1379    0.0000 </r>
       <r>    2.3014    0.0000 </r>
       <r>    2.4071    0.0000 </r>
      </set>
      <set comment="kpoint 32">
       <r>  -17.5730    1.0000 </r>
       <r>  -17.1440    1.0000 </r>
       <r>  -17.0765    1.0000 </r>
       <r>  -16.6773    1.0000 </r>
       <r>  -16.4782    1.0000 </r>
       <r>  -16.3292    1.0000 </r>
       <r>  -16.3227    1.0000 </r>
       <r>  -16.2663    1.0000 </r>
       <r>  -16.2443    1.0000 </r>
       <r>  -16.0555    1.0000 </r>
       <r>  -15.9888    1.0000 </r>
       <r>  -15.7991    1.0000 </r>
       <r>  -15.7420    1.0000 </r>
       <r>  -15.6750    1.0000 </r>
       <r>  -15.5536    1.0000 </r>
       <r>  -15.4861    1.0000 </r>
       <r>  -15.3639    1.0000 </r>
       <r>  -15.1952    1.0000 </r>
       <r>   -9.6550    1.0000 </r>
       <r>   -9.6127    1.0000 </r>
       <r>   -9.4502    1.0000 </r>
       <r>   -9.0581    1.0000 </r>
       <r>   -8.7703    1.0000 </r>
       <r>   -8.5603    1.0000 </r>
       <r>   -8.5033    1.0000 </r>
       <r>   -8.4720    1.0000 </r>
       <r>   -8.4302    1.0000 </r>
       <r>   -8.3923    1.0000 </r>
       <r>   -8.3070    1.0000 </r>
       <r>   -8.2640    1.0000 </r>
       <r>   -8.1708    1.0000 </r>
       <r>   -8.0870    1.0000 </r>
       <r>   -7.9981    1.0000 </r>
       <r>   -7.9041    1.0000 </r>
       <r>   -7.8166    1.0000 </r>
       <r>   -7.6536    1.0000 </r>
       <r>   -7.5474    1.0000 </r>
       <r>   -7.4658    1.0000 </r>
       <r>   -7.4382    1.0000 </r>
       <r>   -7.3089    1.0000 </r>
       <r>   -7.1139    1.0000 </r>
       <r>   -7.0576    1.0000 </r>
       <r>   -7.0416    1.0000 </r>
       <r>   -6.9998    1.0000 </r>
       <r>   -6.8602    1.0000 </r>
       <r>   -6.7899    1.0000 </r>
       <r>   -6.7038    1.0000 </r>
       <r>   -6.5367    1.0000 </r>
       <r>   -6.4513    1.0000 </r>
       <r>   -6.4252    1.0000 </r>
       <r>   -6.3734    1.0000 </r>
       <r>   -6.3447    1.0000 </r>
       <r>   -6.2336    1.0000 </r>
       <r>   -6.1816    1.0000 </r>
       <r>   -6.1419    1.0000 </r>
       <r>   -6.0753    1.0000 </r>
       <r>   -6.0061    1.0000 </r>
       <r>   -5.8774    1.0000 </r>
       <r>   -5.8490    1.0000 </r>
       <r>   -5.7287    1.0000 </r>
       <r>   -5.6739    1.0000 </r>
       <r>   -5.6231    1.0000 </r>
       <r>   -5.4889    1.0000 </r>
       <r>   -5.4249    1.0000 </r>
       <r>   -5.3275    1.0000 </r>
       <r>   -5.2500    1.0000 </r>
       <r>   -5.1488    1.0000 </r>
       <r>   -4.8249    1.0000 </r>
       <r>   -4.7011    1.0000 </r>
       <r>   -4.6427    1.0000 </r>
       <r>   -4.4997    1.0000 </r>
       <r>   -4.4338    1.0000 </r>
       <r>   -4.3783    1.0000 </r>
       <r>   -4.2754    1.0000 </r>
       <r>   -4.1492    1.0000 </r>
       <r>   -4.0811    1.0000 </r>
       <r>   -3.9924    1.0000 </r>
       <r>   -3.7763    0.9999 </r>
       <r>   -3.5166    0.9626 </r>
       <r>   -3.2308    0.4054 </r>
       <r>   -2.9420    0.0113 </r>
       <r>   -2.7964    0.0005 </r>
       <r>   -2.6937    0.0000 </r>
       <r>   -2.6155    0.0000 </r>
       <r>   -2.4773    0.0000 </r>
       <r>   -2.4117    0.0000 </r>
       <r>   -2.2151    0.0000 </r>
       <r>   -2.1040    0.0000 </r>
       <r>   -2.0245    0.0000 </r>
       <r>   -1.9890    0.0000 </r>
       <r>   -1.8447    0.0000 </r>
       <r>   -1.5003    0.0000 </r>
       <r>   -1.4213    0.0000 </r>
       <r>   -1.2908    0.0000 </r>
       <r>   -1.2664    0.0000 </r>
       <r>   -1.1072    0.0000 </r>
       <r>   -1.0929    0.0000 </r>
       <r>   -1.0314    0.0000 </r>
       <r>   -0.9489    0.0000 </r>
       <r>   -0.8811    0.0000 </r>
       <r>   -0.8318    0.0000 </r>
       <r>   -0.7550    0.0000 </r>
       <r>   -0.6621    0.0000 </r>
       <r>   -0.6013    0.0000 </r>
       <r>   -0.3744    0.0000 </r>
       <r>   -0.3010    0.0000 </r>
       <r>   -0.1886    0.0000 </r>
       <r>   -0.0284    0.0000 </r>
       <r>    0.0258    0.0000 </r>
       <r>    0.1779    0.0000 </r>
       <r>    0.3212    0.0000 </r>
       <r>    0.4743    0.0000 </r>
       <r>    0.8315    0.0000 </r>
       <r>    0.8473    0.0000 </r>
       <r>    1.0485    0.0000 </r>
       <r>    1.1864    0.0000 </r>
       <r>    1.3712    0.0000 </r>
       <r>    2.0950    0.0000 </r>
       <r>    2.2722    0.0000 </r>
       <r>    2.5633    0.0000 </r>
      </set>
      <set comment="kpoint 33">
       <r>  -17.5802    1.0000 </r>
       <r>  -17.2144    1.0000 </r>
       <r>  -16.9418    1.0000 </r>
       <r>  -16.6913    1.0000 </r>
       <r>  -16.5036    1.0000 </r>
       <r>  -16.4140    1.0000 </r>
       <r>  -16.3504    1.0000 </r>
       <r>  -16.3011    1.0000 </r>
       <r>  -16.1202    1.0000 </r>
       <r>  -16.0254    1.0000 </r>
       <r>  -15.9527    1.0000 </r>
       <r>  -15.8031    1.0000 </r>
       <r>  -15.7650    1.0000 </r>
       <r>  -15.6595    1.0000 </r>
       <r>  -15.5843    1.0000 </r>
       <r>  -15.5599    1.0000 </r>
       <r>  -15.3138    1.0000 </r>
       <r>  -15.1943    1.0000 </r>
       <r>   -9.7211    1.0000 </r>
       <r>   -9.4574    1.0000 </r>
       <r>   -9.3719    1.0000 </r>
       <r>   -9.1073    1.0000 </r>
       <r>   -8.9607    1.0000 </r>
       <r>   -8.7488    1.0000 </r>
       <r>   -8.4746    1.0000 </r>
       <r>   -8.4499    1.0000 </r>
       <r>   -8.4086    1.0000 </r>
       <r>   -8.2957    1.0000 </r>
       <r>   -8.2500    1.0000 </r>
       <r>   -8.2090    1.0000 </r>
       <r>   -8.1852    1.0000 </r>
       <r>   -8.1287    1.0000 </r>
       <r>   -8.0340    1.0000 </r>
       <r>   -7.8639    1.0000 </r>
       <r>   -7.6955    1.0000 </r>
       <r>   -7.6662    1.0000 </r>
       <r>   -7.5622    1.0000 </r>
       <r>   -7.5054    1.0000 </r>
       <r>   -7.3583    1.0000 </r>
       <r>   -7.2908    1.0000 </r>
       <r>   -7.1533    1.0000 </r>
       <r>   -7.1091    1.0000 </r>
       <r>   -7.0452    1.0000 </r>
       <r>   -6.9176    1.0000 </r>
       <r>   -6.8691    1.0000 </r>
       <r>   -6.7738    1.0000 </r>
       <r>   -6.6699    1.0000 </r>
       <r>   -6.5317    1.0000 </r>
       <r>   -6.5119    1.0000 </r>
       <r>   -6.4465    1.0000 </r>
       <r>   -6.3581    1.0000 </r>
       <r>   -6.3276    1.0000 </r>
       <r>   -6.2703    1.0000 </r>
       <r>   -6.1733    1.0000 </r>
       <r>   -6.1188    1.0000 </r>
       <r>   -6.0586    1.0000 </r>
       <r>   -6.0386    1.0000 </r>
       <r>   -5.9431    1.0000 </r>
       <r>   -5.8877    1.0000 </r>
       <r>   -5.7324    1.0000 </r>
       <r>   -5.7296    1.0000 </r>
       <r>   -5.6368    1.0000 </r>
       <r>   -5.5554    1.0000 </r>
       <r>   -5.4136    1.0000 </r>
       <r>   -5.3664    1.0000 </r>
       <r>   -5.1624    1.0000 </r>
       <r>   -5.0868    1.0000 </r>
       <r>   -4.8013    1.0000 </r>
       <r>   -4.7285    1.0000 </r>
       <r>   -4.6005    1.0000 </r>
       <r>   -4.5608    1.0000 </r>
       <r>   -4.4424    1.0000 </r>
       <r>   -4.3084    1.0000 </r>
       <r>   -4.2291    1.0000 </r>
       <r>   -4.1663    1.0000 </r>
       <r>   -4.1178    1.0000 </r>
       <r>   -4.0491    1.0000 </r>
       <r>   -3.8440    1.0000 </r>
       <r>   -3.4607    0.9172 </r>
       <r>   -3.1471    0.2029 </r>
       <r>   -2.9989    0.0301 </r>
       <r>   -2.7478    0.0001 </r>
       <r>   -2.6784    0.0000 </r>
       <r>   -2.5867    0.0000 </r>
       <r>   -2.4613    0.0000 </r>
       <r>   -2.3414    0.0000 </r>
       <r>   -2.1715    0.0000 </r>
       <r>   -2.0846    0.0000 </r>
       <r>   -2.0144    0.0000 </r>
       <r>   -1.9361    0.0000 </r>
       <r>   -1.8461    0.0000 </r>
       <r>   -1.5731    0.0000 </r>
       <r>   -1.4964    0.0000 </r>
       <r>   -1.3520    0.0000 </r>
       <r>   -1.2998    0.0000 </r>
       <r>   -1.1467    0.0000 </r>
       <r>   -1.0969    0.0000 </r>
       <r>   -1.0237    0.0000 </r>
       <r>   -0.9460    0.0000 </r>
       <r>   -0.9163    0.0000 </r>
       <r>   -0.8326    0.0000 </r>
       <r>   -0.7858    0.0000 </r>
       <r>   -0.7298    0.0000 </r>
       <r>   -0.5692    0.0000 </r>
       <r>   -0.3398    0.0000 </r>
       <r>   -0.2096    0.0000 </r>
       <r>   -0.1536    0.0000 </r>
       <r>   -0.0625    0.0000 </r>
       <r>    0.0008    0.0000 </r>
       <r>    0.1472    0.0000 </r>
       <r>    0.3852    0.0000 </r>
       <r>    0.4976    0.0000 </r>
       <r>    0.7809    0.0000 </r>
       <r>    0.9054    0.0000 </r>
       <r>    0.9987    0.0000 </r>
       <r>    1.2190    0.0000 </r>
       <r>    1.3264    0.0000 </r>
       <r>    2.1093    0.0000 </r>
       <r>    2.3016    0.0000 </r>
       <r>    2.3726    0.0000 </r>
      </set>
      <set comment="kpoint 34">
       <r>  -17.5774    1.0000 </r>
       <r>  -17.2607    1.0000 </r>
       <r>  -16.7783    1.0000 </r>
       <r>  -16.6988    1.0000 </r>
       <r>  -16.6636    1.0000 </r>
       <r>  -16.3818    1.0000 </r>
       <r>  -16.3510    1.0000 </r>
       <r>  -16.3389    1.0000 </r>
       <r>  -16.0791    1.0000 </r>
       <r>  -16.0382    1.0000 </r>
       <r>  -15.8700    1.0000 </r>
       <r>  -15.8235    1.0000 </r>
       <r>  -15.7398    1.0000 </r>
       <r>  -15.6815    1.0000 </r>
       <r>  -15.6270    1.0000 </r>
       <r>  -15.5755    1.0000 </r>
       <r>  -15.2857    1.0000 </r>
       <r>  -15.2058    1.0000 </r>
       <r>   -9.7596    1.0000 </r>
       <r>   -9.2856    1.0000 </r>
       <r>   -9.2371    1.0000 </r>
       <r>   -9.1986    1.0000 </r>
       <r>   -9.0931    1.0000 </r>
       <r>   -8.9279    1.0000 </r>
       <r>   -8.4706    1.0000 </r>
       <r>   -8.4583    1.0000 </r>
       <r>   -8.4198    1.0000 </r>
       <r>   -8.2755    1.0000 </r>
       <r>   -8.1936    1.0000 </r>
       <r>   -8.1880    1.0000 </r>
       <r>   -8.1545    1.0000 </r>
       <r>   -8.1328    1.0000 </r>
       <r>   -7.9799    1.0000 </r>
       <r>   -7.8908    1.0000 </r>
       <r>   -7.8079    1.0000 </r>
       <r>   -7.5863    1.0000 </r>
       <r>   -7.5151    1.0000 </r>
       <r>   -7.3966    1.0000 </r>
       <r>   -7.3442    1.0000 </r>
       <r>   -7.3022    1.0000 </r>
       <r>   -7.1573    1.0000 </r>
       <r>   -7.1068    1.0000 </r>
       <r>   -7.0645    1.0000 </r>
       <r>   -7.0098    1.0000 </r>
       <r>   -6.8538    1.0000 </r>
       <r>   -6.7006    1.0000 </r>
       <r>   -6.5803    1.0000 </r>
       <r>   -6.5562    1.0000 </r>
       <r>   -6.5498    1.0000 </r>
       <r>   -6.4725    1.0000 </r>
       <r>   -6.4046    1.0000 </r>
       <r>   -6.3326    1.0000 </r>
       <r>   -6.2555    1.0000 </r>
       <r>   -6.2401    1.0000 </r>
       <r>   -6.1440    1.0000 </r>
       <r>   -6.1053    1.0000 </r>
       <r>   -6.0154    1.0000 </r>
       <r>   -5.9029    1.0000 </r>
       <r>   -5.8249    1.0000 </r>
       <r>   -5.8179    1.0000 </r>
       <r>   -5.7272    1.0000 </r>
       <r>   -5.7127    1.0000 </r>
       <r>   -5.5373    1.0000 </r>
       <r>   -5.4963    1.0000 </r>
       <r>   -5.3103    1.0000 </r>
       <r>   -5.1488    1.0000 </r>
       <r>   -4.9251    1.0000 </r>
       <r>   -4.8729    1.0000 </r>
       <r>   -4.6696    1.0000 </r>
       <r>   -4.6681    1.0000 </r>
       <r>   -4.5351    1.0000 </r>
       <r>   -4.4779    1.0000 </r>
       <r>   -4.3193    1.0000 </r>
       <r>   -4.2003    1.0000 </r>
       <r>   -4.1312    1.0000 </r>
       <r>   -4.1110    1.0000 </r>
       <r>   -4.0457    1.0000 </r>
       <r>   -3.9145    1.0000 </r>
       <r>   -3.4542    0.9100 </r>
       <r>   -3.1124    0.1408 </r>
       <r>   -3.0261    0.0458 </r>
       <r>   -2.7298    0.0001 </r>
       <r>   -2.6791    0.0000 </r>
       <r>   -2.5698    0.0000 </r>
       <r>   -2.4502    0.0000 </r>
       <r>   -2.3161    0.0000 </r>
       <r>   -2.1517    0.0000 </r>
       <r>   -2.0633    0.0000 </r>
       <r>   -2.0121    0.0000 </r>
       <r>   -1.9097    0.0000 </r>
       <r>   -1.8459    0.0000 </r>
       <r>   -1.6166    0.0000 </r>
       <r>   -1.4892    0.0000 </r>
       <r>   -1.4138    0.0000 </r>
       <r>   -1.2980    0.0000 </r>
       <r>   -1.1720    0.0000 </r>
       <r>   -1.0948    0.0000 </r>
       <r>   -1.0244    0.0000 </r>
       <r>   -0.9563    0.0000 </r>
       <r>   -0.8992    0.0000 </r>
       <r>   -0.8529    0.0000 </r>
       <r>   -0.8087    0.0000 </r>
       <r>   -0.7462    0.0000 </r>
       <r>   -0.5527    0.0000 </r>
       <r>   -0.3141    0.0000 </r>
       <r>   -0.2704    0.0000 </r>
       <r>   -0.1516    0.0000 </r>
       <r>   -0.0504    0.0000 </r>
       <r>    0.0753    0.0000 </r>
       <r>    0.1220    0.0000 </r>
       <r>    0.3865    0.0000 </r>
       <r>    0.5138    0.0000 </r>
       <r>    0.7597    0.0000 </r>
       <r>    0.9107    0.0000 </r>
       <r>    0.9964    0.0000 </r>
       <r>    1.2275    0.0000 </r>
       <r>    1.3443    0.0000 </r>
       <r>    2.1500    0.0000 </r>
       <r>    2.2588    0.0000 </r>
       <r>    2.3828    0.0000 </r>
      </set>
     </set>
    </set>
   </array>
  </eigenvalues>
  <separator name="orbital magnetization" >
   <v name="MAGDIPOLOUT">      0.00000000      0.00000000      0.00000000</v>
  </separator>
 </calculation>
 <structure name="finalpos" >
  <crystal>
   <varray name="basis" >
    <v>       8.36088446       4.79193681       0.00000000 </v>
    <v>      -8.36548447       4.79991686       0.00000000 </v>
    <v>       0.00000000       0.00000000      30.00000000 </v>
   </varray>
   <i name="volume">   2406.55269957 </i>
   <varray name="rec_basis" >
    <v>       0.05983559       0.10428383       0.00000000 </v>
    <v>      -0.05973611       0.10422649       0.00000000 </v>
    <v>       0.00000000       0.00000000       0.03333333 </v>
   </varray>
  </crystal>
  <varray name="positions" >
   <v>       0.01414072       0.64553384       0.00164333 </v>
   <v>       0.34322876      -0.02161419       0.00092886 </v>
   <v>       0.68560998       0.31472069       0.00166286 </v>
   <v>       1.02185476       0.34847892       0.00060794 </v>
   <v>       0.33556201       0.65980099       0.00044022 </v>
   <v>       0.64941492       0.68653113      -0.00204105 </v>
   <v>      -0.03113861       0.00759392      -0.00215907 </v>
   <v>       0.33035110       0.36384022      -0.00101960 </v>
   <v>       0.65350929      -0.02131842       0.00011512 </v>
   <v>       0.11536550       0.22510311       0.94546108 </v>
   <v>       0.22089906       0.11055882       0.04140379 </v>
   <v>       0.11210347       0.55784451       0.94660372 </v>
   <v>       0.22585235       0.44938459       0.05707077 </v>
   <v>       0.10874810       0.88568262       0.95637015 </v>
   <v>       0.21990948       0.77759420       0.05285907 </v>
   <v>       0.45044066       0.22534037       0.95736483 </v>
   <v>       0.55154209       0.10831102       0.05224003 </v>
   <v>       0.44394379       0.55939199       0.94230628 </v>
   <v>       0.56156934       0.44623022       0.04558528 </v>
   <v>       0.44047791       0.88776305       0.94624032 </v>
   <v>       0.54964297       0.77840507       0.05635153 </v>
   <v>       0.78170584       0.22036225       0.95009905 </v>
   <v>       0.88082683       0.11436405       0.05276261 </v>
   <v>       0.78000967       0.55474246       0.95751267 </v>
   <v>       0.89218572       0.44583107       0.05354102 </v>
   <v>       0.77028581       0.89092032       0.94166910 </v>
   <v>       0.89017290       0.77681763       0.04437999 </v>
  </varray>
 </structure>
</modeling>
