unknown system                          
           1
     8.860046    5.103088    0.000000
    -8.859766    5.102606    0.000000
     0.000000    0.000000   30.000000
   V    Mo   W    S 
   3   3   3  18
Direct configuration=     1
   0.00000000  0.66666669  0.00000000
   0.33333334  0.00000000  0.00000000
   0.66666669  0.33333334  0.00000000
   1.00000000  0.33333334  0.00000000
   0.33333334  0.66666669  0.00000000
   0.66666669  0.66666669  0.00000000
   0.00000000  0.00000000  0.00000000
   0.33333334  0.33333334  0.00000000
   0.66666669  0.00000000  0.00000000
   0.11068511  0.22244981  0.95539999
   0.22244981  0.11068511  0.04460000
   0.11068511  0.55578315  0.95539999
   0.22244981  0.44401845  0.04460000
   0.11068511  0.88911647  0.95539999
   0.22244981  0.77735180  0.04460000
   0.44401845  0.22244981  0.95539999
   0.55578315  0.11068511  0.04460000
   0.44401845  0.55578315  0.95539999
   0.55578315  0.44401845  0.04460000
   0.44401845  0.88911647  0.95539999
   0.55578315  0.77735180  0.04460000
   0.77735180  0.22244981  0.95539999
   0.88911647  0.11068511  0.04460000
   0.77735180  0.55578315  0.95539999
   0.88911647  0.44401845  0.04460000
   0.77735180  0.88911647  0.95539999
   0.88911647  0.77735180  0.04460000
unknown system                          
           1
     8.670001    4.996535    0.000000
    -8.669753    4.996110    0.000000
     0.000000    0.000000   30.000000
   V    Mo   W    S 
   3   3   3  18
Direct configuration=     2
   0.00001852  0.66541847  0.00002435
   0.33330918 -0.00121606  0.00001558
   0.66789783  0.33463747 -0.00004462
   1.00127051  0.33471240  0.00016984
   0.33312472  0.66535246  0.00024564
   0.66544226  0.66668507 -0.00021425
  -0.00133636 -0.00043050 -0.00021311
   0.33368491  0.33612758 -0.00026725
   0.66631947 -0.00119076  0.00021779
   0.11159035  0.22156598  0.95074953
   0.22412568  0.10900497  0.04793891
   0.10860454  0.55791059  0.95199852
   0.22247177  0.44399517  0.04934952
   0.11275154  0.88707392  0.95305653
   0.21996381  0.77983611  0.04693290
   0.44606130  0.22036317  0.95309923
   0.55373027  0.11271411  0.04695089
   0.44397611  0.55433713  0.95069090
   0.55695954  0.44141896  0.04798700
   0.44289133  0.89167392  0.95203147
   0.55584623  0.77877847  0.04925600
   0.77483353  0.22361019  0.95206926
   0.88824680  0.11034354  0.04930466
   0.77981360  0.55324195  0.95306505
   0.88662347  0.44652392  0.04697371
   0.77828780  0.88950363  0.95065546
   0.89170575  0.77622261  0.04795636
unknown system                          
           1
     8.489032    4.897355    0.000000
    -8.489306    4.897832    0.000000
     0.000000    0.000000   30.000000
   V    Mo   W    S 
   3   3   3  18
Direct configuration=     3
   0.00005358  0.66507588  0.00002724
   0.33334249 -0.00152743  0.00002344
   0.66820372  0.33494264 -0.00009554
   1.00200565  0.33497581  0.00014156
   0.33322574  0.66456943  0.00026026
   0.66486709  0.66696113 -0.00018883
  -0.00204491 -0.00045172 -0.00016729
   0.33364402  0.33720667 -0.00027441
   0.66650629 -0.00173054  0.00022877
   0.11171453  0.22148057  0.95072463
   0.22404140  0.10912374  0.04778345
   0.10855985  0.55799070  0.95197091
   0.22262633  0.44386920  0.04949632
   0.11264536  0.88714403  0.95314117
   0.21991750  0.77984985  0.04689555
   0.44596639  0.22047437  0.95323428
   0.55383287  0.11261958  0.04686732
   0.44382592  0.55412394  0.95053240
   0.55674926  0.44125346  0.04795267
   0.44307612  0.89179922  0.95206845
   0.55596187  0.77900147  0.04935947
   0.77468020  0.22341016  0.95215688
   0.88814689  0.11010824  0.04931883
   0.77985449  0.55319751  0.95310982
   0.88659613  0.44658539  0.04697691
   0.77836232  0.88974364  0.95057690
   0.89185335  0.77641751  0.04787878
unknown system                          
           1
     8.286801    4.768184    0.000000
    -8.288141    4.770510    0.000000
     0.000000    0.000000   30.000000
   V    Mo   W    S 
   3   3   3  18
Direct configuration=     4
   0.00024374  0.66402318  0.00002798
   0.33353328 -0.00252899  0.00004077
   0.66906039  0.33577967 -0.00026876
   1.00513140  0.33542935 -0.00001107
   0.33398813  0.66118286  0.00021221
   0.66251447  0.66862085 -0.00004292
  -0.00519445 -0.00025069  0.00006534
   0.33302702  0.34126313 -0.00018911
   0.66782797 -0.00402005  0.00015516
   0.11184313  0.22145598  0.94900368
   0.22448244  0.10902354  0.04858574
   0.10815236  0.55874947  0.95045463
   0.22281888  0.44378829  0.05173209
   0.11292838  0.88662003  0.95213511
   0.21938460  0.78015971  0.04805802
   0.44630568  0.22017809  0.95243756
   0.55351502  0.11309893  0.04788847
   0.44373262  0.55431211  0.94825861
   0.55709609  0.44070542  0.04924276
   0.44260562  0.89209455  0.95080082
   0.55589379  0.77898796  0.05138933
   0.77417329  0.22371323  0.95110196
   0.88814964  0.11008993  0.05102096
   0.78036736  0.55283969  0.95199857
   0.88616703  0.44714806  0.04830007
   0.77817952  0.88983907  0.94859260
   0.89228705  0.77591110  0.04900933
unknown system                          
           1
     8.311297    4.768236    0.000000
    -8.313133    4.771417    0.000000
     0.000000    0.000000   30.000000
   V    Mo   W    S 
   3   3   3  18
Direct configuration=     5
   0.00120755  0.66241558  0.00002877
   0.33449515 -0.00433271  0.00007139
   0.66985857  0.33655099 -0.00048817
   1.01167414  0.33626290 -0.00018657
   0.33544297  0.65451420  0.00006328
   0.65800273  0.67258256  0.00011496
  -0.01200255 -0.00016343  0.00034112
   0.33191841  0.34905812 -0.00001066
   0.67045778 -0.00873124 -0.00002145
   0.11236502  0.22150309  0.94669197
   0.22479563  0.10968209  0.04923446
   0.10835441  0.55938817  0.94843654
   0.22279172  0.44419694  0.05506403
   0.11265731  0.88597821  0.95087785
   0.21905932  0.77958418  0.04970238
   0.44634178  0.22046399  0.95142643
   0.55362908  0.11346850  0.04925535
   0.44397271  0.55492658  0.94496065
   0.55732116  0.44086202  0.05078384
   0.44211516  0.89142280  0.94929312
   0.55495018  0.77870373  0.05432051
   0.77438651  0.22391536  0.94994131
   0.88793092  0.11100838  0.05344339
   0.78061150  0.55323054  0.95052286
   0.88630118  0.44749358  0.05010693
   0.77770169  0.88925722  0.94566535
   0.89187443  0.77497211  0.05036026
unknown system                          
           1
     8.302634    4.761335    0.000000
    -8.303695    4.763165    0.000000
     0.000000    0.000000   30.000000
   V    Mo   W    S 
   3   3   3  18
Direct configuration=     6
   0.00194070  0.66200697  0.00002917
   0.33542044 -0.00488904  0.00013199
   0.66949656  0.33638274 -0.00055598
   1.01269247  0.33642828 -0.00004115
   0.33506422  0.65419948  0.00018074
   0.65803410  0.67365262 -0.00002802
  -0.01383273 -0.00040075  0.00025093
   0.33201189  0.34990277 -0.00008117
   0.67067814 -0.00958396  0.00013526
   0.11276509  0.22137893  0.94665006
   0.22436088  0.11036593  0.04881562
   0.10902373  0.55900863  0.94843727
   0.22267410  0.44442599  0.05535639
   0.11212239  0.88617143  0.95109665
   0.21937690  0.77888173  0.04966278
   0.44581481  0.22104391  0.95161290
   0.55416420  0.11315459  0.04916722
   0.44436642  0.55513743  0.94471250
   0.55703563  0.44166204  0.05066757
   0.44236888  0.89058964  0.94933335
   0.55416349  0.77865767  0.05449109
   0.77519130  0.22358676  0.95018624
   0.88771257  0.11160493  0.05358321
   0.78028662  0.55386040  0.95071959
   0.88678404  0.44719460  0.04999638
   0.77752091  0.88885655  0.94530659
   0.89097671  0.77493419  0.05018273
unknown system                          
           1
     8.313029    4.764339    0.000000
    -8.313774    4.765615    0.000000
     0.000000    0.000000   30.000000
   V    Mo   W    S 
   3   3   3  18
Direct configuration=     7
   0.00302832  0.66121822 -0.00001544
   0.33692778 -0.00593115  0.00017537
   0.66896650  0.33641371 -0.00070284
   1.01498260  0.33685968  0.00000018
   0.33488523  0.65284606  0.00015067
   0.65732721  0.67550427 -0.00006185
  -0.01717015 -0.00076201  0.00024019
   0.33212528  0.35237793 -0.00003211
   0.67119428 -0.01147228  0.00014761
   0.11300774  0.22125146  0.94641397
   0.22392143  0.11080359  0.04833257
   0.10948557  0.55870031  0.94823634
   0.22277961  0.44455090  0.05595008
   0.11168968  0.88634931  0.95128407
   0.21954754  0.77831507  0.04986060
   0.44533508  0.22143490  0.95172167
   0.55463807  0.11295959  0.04924994
   0.44454854  0.55553754  0.94420728
   0.55695254  0.44244241  0.05067987
   0.44253662  0.88994347  0.94921023
   0.55347717  0.77849016  0.05495385
   0.77582239  0.22333634  0.95041111
   0.88755339  0.11211115  0.05397373
   0.78009755  0.55443406  0.95080821
   0.88714663  0.44696128  0.05006037
   0.77715016  0.88869100  0.94464663
   0.89025770  0.77484748  0.05009759
unknown system                          
           1
     8.321864    4.765399    0.000000
    -8.321779    4.765228    0.000000
     0.000000    0.000000   30.000000
   V    Mo   W    S 
   3   3   3  18
Direct configuration=     8
   0.00353029  0.66083741 -0.00002027
   0.33771665 -0.00642442  0.00022401
   0.66859557  0.33652166 -0.00078456
   1.01558174  0.33709614  0.00004517
   0.33461086  0.65279905  0.00018965
   0.65731347  0.67599144 -0.00010075
  -0.01819910 -0.00095309  0.00020890
   0.33237124  0.35296975 -0.00004068
   0.67109265 -0.01198961  0.00020145
   0.11308932  0.22116862  0.94645702
   0.22370928  0.11083894  0.04803410
   0.10959579  0.55853037  0.94822349
   0.22283563  0.44462047  0.05602394
   0.11159837  0.88648008  0.95146585
   0.21957396  0.77819267  0.04986948
   0.44513370  0.22148020  0.95183725
   0.55478700  0.11288113  0.04921056
   0.44462023  0.55567257  0.94416278
   0.55695072  0.44274335  0.05062737
   0.44264237  0.88979497  0.94918219
   0.55323011  0.77845339  0.05499594
   0.77601588  0.22323545  0.95059693
   0.88744108  0.11226049  0.05399863
   0.78006107  0.55461841  0.95093322
   0.88723522  0.44686748  0.04997779
   0.77702259  0.88865328  0.94450072
   0.89005876  0.77487427  0.04997971
unknown system                          
           1
     8.323491    4.765921    0.000000
    -8.323150    4.765301    0.000000
     0.000000    0.000000   30.000000
   V    Mo   W    S 
   3   3   3  18
Direct configuration=     9
   0.00456501  0.65997830 -0.00003496
   0.33935446 -0.00751113  0.00031260
   0.66783727  0.33686127 -0.00096000
   1.01710627  0.33765940  0.00010350
   0.33412675  0.65238180  0.00021932
   0.65703010  0.67705444 -0.00014983
  -0.02051496 -0.00131838  0.00016395
   0.33282643  0.35452942 -0.00002680
   0.67097496 -0.01327874  0.00025837
   0.11325157  0.22105456  0.94645955
   0.22334581  0.11092732  0.04747336
   0.10978579  0.55821550  0.94812110
   0.22295829  0.44473805  0.05628873
   0.11141558  0.88669569  0.95177281
   0.21958860  0.77791730  0.04998265
   0.44474145  0.22156628  0.95200970
   0.55509959  0.11277458  0.04920671
   0.44472918  0.55598467  0.94395931
   0.55697306  0.44332346  0.05059548
   0.44282318  0.88950294  0.94905832
   0.55275459  0.77833470  0.05519560
   0.77639163  0.22308633  0.95092825
   0.88723897  0.11258967  0.05413423
   0.78001824  0.55501631  0.95110412
   0.88740751  0.44668529  0.04989428
   0.77671754  0.88858163  0.94412976
   0.88966756  0.77486379  0.04979980
unknown system                          
           1
     8.310030    4.759139    0.000000
    -8.311109    4.760999    0.000000
     0.000000    0.000000   30.000000
   V    Mo   W    S 
   3   3   3  18
Direct configuration=    10
   0.00483415  0.65975707 -0.00003626
   0.33977447 -0.00780070  0.00033715
   0.66760238  0.33699533 -0.00100803
   1.01744683  0.33781689  0.00011602
   0.33400401  0.65236462  0.00022323
   0.65696463  0.67725582 -0.00015870
  -0.02101323 -0.00140447  0.00015046
   0.33298079  0.35486944 -0.00002061
   0.67088433 -0.01358821  0.00026738
   0.11328046  0.22103105  0.94647598
   0.22327039  0.11091320  0.04732575
   0.10981138  0.55814326  0.94809832
   0.22300068  0.44476416  0.05633197
   0.11139099  0.88675200  0.95185905
   0.21958049  0.77786550  0.05001289
   0.44464436  0.22155560  0.95205257
   0.55517020  0.11275885  0.04920283
   0.44473705  0.55605928  0.94393017
   0.55698752  0.44344332  0.05059139
   0.44286551  0.88945952  0.94902451
   0.55265512  0.77829938  0.05522920
   0.77645366  0.22306002  0.95102259
   0.88718622  0.11265056  0.05414903
   0.78002639  0.55511031  0.95114568
   0.88743225  0.44664044  0.04986720
   0.77664064  0.88857884  0.94406166
   0.88960278  0.77486338  0.04974848
unknown system                          
           1
     8.333332    4.769453    0.000000
    -8.331695    4.766572    0.000000
     0.000000    0.000000   30.000000
   V    Mo   W    S 
   3   3   3  18
Direct configuration=    11
   0.00428006  0.66027549 -0.00005763
   0.33880045 -0.00717838  0.00025759
   0.66837062  0.33642764 -0.00088002
   1.01675766  0.33741701  0.00009524
   0.33432422  0.65224240  0.00020937
   0.65718022  0.67728525 -0.00014634
  -0.02037339 -0.00132806  0.00018553
   0.33252178  0.35430539 -0.00003659
   0.67138488 -0.01300852  0.00024893
   0.11318976  0.22102755  0.94640882
   0.22336918  0.11103246  0.04769672
   0.10977037  0.55833431  0.94817402
   0.22287116  0.44465942  0.05627919
   0.11136862  0.88660484  0.95163403
   0.21957389  0.77795103  0.04991386
   0.44489404  0.22169784  0.95196475
   0.55501861  0.11281736  0.04922340
   0.44476696  0.55587366  0.94397514
   0.55690662  0.44317634  0.05054888
   0.44276461  0.88950358  0.94915359
   0.55284178  0.77837846  0.05516855
   0.77637327  0.22306825  0.95074082
   0.88735893  0.11253530  0.05415995
   0.77996220  0.55486692  0.95107228
   0.88739658  0.44679006  0.04994958
   0.77684749  0.88859261  0.94417237
   0.88969389  0.77486625  0.04988786
unknown system                          
           1
     8.338604    4.771570    0.000000
    -8.336054    4.767093    0.000000
     0.000000    0.000000   30.000000
   V    Mo   W    S 
   3   3   3  18
Direct configuration=    12
   0.00606569  0.65875180 -0.00003370
   0.34167800 -0.00912286  0.00045715
   0.66646979  0.33767019 -0.00123269
   1.01898139  0.33853302  0.00017631
   0.33346366  0.65235473  0.00024850
   0.65663375  0.67808074 -0.00020029
  -0.02316663 -0.00176198  0.00008607
   0.33371852  0.35637461  0.00000565
   0.67040002 -0.01498832  0.00031360
   0.11342218  0.22092687  0.94653406
   0.22294703  0.11082306  0.04665282
   0.10993588  0.55782361  0.94796559
   0.22320361  0.44490822  0.05654842
   0.11129737  0.88701140  0.95224729
   0.21955344  0.77763043  0.05017070
   0.44418859  0.22147346  0.95223400
   0.55549027  0.11268146  0.04919254
   0.44476692  0.55640394  0.94377184
   0.55706290  0.44398175  0.05060482
   0.44305156  0.88926258  0.94884285
   0.55218821  0.77813587  0.05540394
   0.77671430  0.22294685  0.95145497
   0.88692359  0.11292453  0.05422744
   0.78007995  0.55555128  0.95131347
   0.88753776  0.44642846  0.04975701
   0.77628574  0.88855427  0.94373329
   0.88932094  0.77485446  0.04952427
unknown system                          
           1
     8.332720    4.768341    0.000000
    -8.330684    4.764763    0.000000
     0.000000    0.000000   30.000000
   V    Mo   W    S 
   3   3   3  18
Direct configuration=    13
   0.00686467  0.65811572 -0.00002178
   0.34271093 -0.00992940  0.00053856
   0.66572580  0.33820610 -0.00137458
   1.01985410  0.33901949  0.00021199
   0.33317441  0.65248408  0.00026260
   0.65639884  0.67849248 -0.00022503
  -0.02428745 -0.00195199  0.00003911
   0.33423504  0.35721055  0.00002428
   0.66999353 -0.01586140  0.00033986
   0.11349483  0.22088111  0.94657690
   0.22278514  0.11071200  0.04625902
   0.10998003  0.55764806  0.94787700
   0.22334741  0.44501155  0.05665859
   0.11126345  0.88713994  0.95248050
   0.21951021  0.77748590  0.05027988
   0.44390731  0.22135410  0.95231813
   0.55569899  0.11268240  0.04919126
   0.44476625  0.55660749  0.94369258
   0.55712341  0.44426750  0.05063507
   0.44317366  0.88915839  0.94871388
   0.55191776  0.77801943  0.05550773
   0.77682806  0.22291138  0.95172482
   0.88675377  0.11306023  0.05425953
   0.78016797  0.55583502  0.95139421
   0.88756359  0.44630138  0.04969354
   0.77606062  0.88853473  0.94355019
   0.88920212  0.77481821  0.04939204
unknown system                          
           1
     8.332719    4.768329    0.000000
    -8.330657    4.764704    0.000000
     0.000000    0.000000   30.000000
   V    Mo   W    S 
   3   3   3  18
Direct configuration=    14
   0.00644280  0.65842117 -0.00004238
   0.34240247 -0.00959634  0.00049635
   0.66611982  0.33784621 -0.00130092
   1.01948699  0.33876884  0.00019657
   0.33322907  0.65231636  0.00026011
   0.65654901  0.67838649 -0.00021464
  -0.02392159 -0.00189537  0.00006302
   0.33394257  0.35689232  0.00001336
   0.67029695 -0.01542441  0.00033354
   0.11345268  0.22087761  0.94655546
   0.22284282  0.11080912  0.04644484
   0.10995542  0.55773821  0.94793581
   0.22324958  0.44493515  0.05660887
   0.11126746  0.88711188  0.95236367
   0.21952918  0.77757734  0.05020894
   0.44406213  0.22147750  0.95229891
   0.55558298  0.11266471  0.04919915
   0.44477747  0.55650816  0.94373230
   0.55707140  0.44412354  0.05060132
   0.44310445  0.88920768  0.94878645
   0.55205933  0.77809554  0.05543750
   0.77680137  0.22290643  0.95156465
   0.88685542  0.11301496  0.05425425
   0.78006784  0.55565136  0.95137039
   0.88756536  0.44637652  0.04972312
   0.77618714  0.88855391  0.94364174
   0.88923432  0.77486958  0.04946753
unknown system                          
           1
     8.335394    4.771218    0.000000
    -8.333524    4.767934    0.000000
     0.000000    0.000000   30.000000
   V    Mo   W    S 
   3   3   3  18
Direct configuration=    15
   0.00646878  0.65840124 -0.00004091
   0.34242454 -0.00961840  0.00049916
   0.66609209  0.33787288 -0.00130563
   1.01951439  0.33878622  0.00019747
   0.33322465  0.65232453  0.00026023
   0.65653853  0.67839157 -0.00021525
  -0.02394894 -0.00189891  0.00006150
   0.33396112  0.35691486  0.00001384
   0.67027813 -0.01545568  0.00033382
   0.11345551  0.22087868  0.94655803
   0.22283998  0.11080455  0.04643335
   0.10995684  0.55773275  0.94793357
   0.22325561  0.44493866  0.05660994
   0.11126727  0.88711287  0.95237115
   0.21952812  0.77757223  0.05021233
   0.44405361  0.22147101  0.95230066
   0.55558871  0.11266548  0.04919753
   0.44477589  0.55651272  0.94373151
   0.55707345  0.44413111  0.05060312
   0.44310828  0.88920611  0.94878298
   0.55205305  0.77809165  0.05543987
   0.77680229  0.22290670  0.95157560
   0.88684964  0.11301615  0.05425266
   0.78007392  0.55566221  0.95137243
   0.88756537  0.44637185  0.04972022
   0.77618096  0.88855400  0.94363888
   0.88923266  0.77486744  0.04946185
unknown system                          
           1
     8.340415    4.772434    0.000000
    -8.336175    4.765012    0.000000
     0.000000    0.000000   30.000000
   V    Mo   W    S 
   3   3   3  18
Direct configuration=    16
   0.00525328  0.65962013 -0.00023321
   0.34339158 -0.00893430  0.00032583
   0.66685393  0.33541648 -0.00099085
   1.01878025  0.33747035  0.00025809
   0.33348276  0.65231515  0.00030775
   0.65695212  0.67853878 -0.00020418
  -0.02346678 -0.00148903  0.00008059
   0.33298969  0.35651327  0.00003556
   0.67043335 -0.01428604  0.00033533
   0.11338209  0.22084006  0.94648975
   0.22276074  0.11081700  0.04673854
   0.11023261  0.55791949  0.94804240
   0.22294238  0.44488565  0.05653744
   0.11132585  0.88737762  0.95211659
   0.21995603  0.77800899  0.04996915
   0.44433652  0.22180864  0.95233249
   0.55554582  0.11254891  0.04929499
   0.44484320  0.55665433  0.94381681
   0.55711759  0.44407488  0.05038673
   0.44301865  0.88912980  0.94903972
   0.55201321  0.77829331  0.05520986
   0.77696927  0.22279943  0.95100620
   0.88706713  0.11316115  0.05430317
   0.77952787  0.55506013  0.95137639
   0.88722989  0.44616766  0.04988300
   0.77618435  0.88852826  0.94377026
   0.88909109  0.77497436  0.04977151
unknown system                          
           1
     8.345762    4.775210    0.000000
    -8.341405    4.767583    0.000000
     0.000000    0.000000   30.000000
   V    Mo   W    S 
   3   3   3  18
Direct configuration=    17
   0.00637038  0.65843509 -0.00018794
   0.34457780 -0.01014228  0.00051392
   0.66610370  0.33624654 -0.00133320
   1.01986464  0.33856854  0.00022063
   0.33285749  0.65222169  0.00029284
   0.65668054  0.67928799 -0.00023894
  -0.02503488 -0.00204333  0.00005948
   0.33390262  0.35760861  0.00004195
   0.67020979 -0.01517932  0.00033998
   0.11353426  0.22079555  0.94657284
   0.22261569  0.11056969  0.04594304
   0.11004009  0.55744583  0.94798360
   0.22323487  0.44518401  0.05677031
   0.11137461  0.88767879  0.95262626
   0.21967308  0.77774515  0.05016783
   0.44380824  0.22148737  0.95253146
   0.55583874  0.11251072  0.04941141
   0.44477125  0.55690486  0.94371468
   0.55712111  0.44452666  0.05040483
   0.44327075  0.88885274  0.94862664
   0.55168987  0.77809908  0.05547427
   0.77725352  0.22290620  0.95155382
   0.88661163  0.11319562  0.05433976
   0.77961108  0.55540980  0.95160536
   0.88751117  0.44621347  0.04965019
   0.77578318  0.88857242  0.94348274
   0.88893924  0.77511297  0.04943213
unknown system                          
           1
     8.353281    4.779048    0.000000
    -8.347618    4.769140    0.000000
     0.000000    0.000000   30.000000
   V    Mo   W    S 
   3   3   3  18
Direct configuration=    18
   0.00706470  0.65787299 -0.00014671
   0.34522853 -0.01080981  0.00058188
   0.66546250  0.33680408 -0.00145316
   1.02057476  0.33909541  0.00027669
   0.33268265  0.65238942  0.00030723
   0.65636033  0.67950875 -0.00024840
  -0.02582577 -0.00220250 -0.00000235
   0.33442903  0.35829107  0.00006984
   0.66975185 -0.01594282  0.00036548
   0.11359835  0.22080576  0.94661787
   0.22258081  0.11042027  0.04561072
   0.11001112  0.55731530  0.94788232
   0.22336033  0.44524423  0.05681601
   0.11140954  0.88776207  0.95284018
   0.21956685  0.77757548  0.05028790
   0.44355429  0.22127026  0.95258446
   0.55600100  0.11253839  0.04942098
   0.44472865  0.55703327  0.94366225
   0.55718742  0.44472721  0.05044809
   0.44337299  0.88880325  0.94849347
   0.55152891  0.77801140  0.05554153
   0.77733648  0.22294845  0.95179556
   0.88645561  0.11326695  0.05433360
   0.77972924  0.55569531  0.95165742
   0.88755412  0.44614629  0.04958159
   0.77563796  0.88861176  0.94336461
   0.88887222  0.77503223  0.04931085
unknown system                          
           1
     8.355310    4.780219    0.000000
    -8.349438    4.769945    0.000000
     0.000000    0.000000   30.000000
   V    Mo   W    S 
   3   3   3  18
Direct configuration=    19
   0.00859510  0.65663049 -0.00005328
   0.34653180 -0.01219508  0.00074366
   0.66395007  0.33820442 -0.00173800
   1.02212075  0.34022768  0.00033431
   0.33228647  0.65278687  0.00030818
   0.65568901  0.67984366 -0.00028998
  -0.02739943 -0.00245908 -0.00010410
   0.33560418  0.35965344  0.00010364
   0.66868635 -0.01762070  0.00039189
   0.11376133  0.22088907  0.94675879
   0.22249622  0.11011394  0.04488801
   0.10998408  0.55701525  0.94770056
   0.22369333  0.44542498  0.05692166
   0.11146246  0.88788658  0.95330623
   0.21938775  0.77720244  0.05053504
   0.44301554  0.22079600  0.95269693
   0.55636494  0.11259440  0.04940345
   0.44462014  0.55730862  0.94357801
   0.55733284  0.44517627  0.05056346
   0.44361938  0.88868724  0.94823106
   0.55115595  0.77780835  0.05569505
   0.77748373  0.22302969  0.95238862
   0.88611448  0.11337475  0.05427452
   0.78002445  0.55633730  0.95177933
   0.88761735  0.44595531  0.04942910
   0.77526488  0.88865070  0.94314842
   0.88875132  0.77489187  0.04900532
unknown system                          
           1
     8.350894    4.776374    0.000000
    -8.345767    4.767405    0.000000
     0.000000    0.000000   30.000000
   V    Mo   W    S 
   3   3   3  18
Direct configuration=    20
   0.00882538  0.65648753 -0.00003248
   0.34670069 -0.01238343  0.00077145
   0.66365823  0.33847201 -0.00177748
   1.02235008  0.34037728  0.00034393
   0.33228146  0.65290644  0.00030853
   0.65557678  0.67982317 -0.00029388
  -0.02756941 -0.00247571 -0.00011893
   0.33578866  0.35981967  0.00011082
   0.66845137 -0.01788983  0.00039143
   0.11379521  0.22091031  0.94677397
   0.22249506  0.11006032  0.04479085
   0.11000238  0.55697388  0.94766695
   0.22375651  0.44545961  0.05693602
   0.11147837  0.88788888  0.95336974
   0.21938913  0.77715604  0.05057223
   0.44293210  0.22070867  0.95270299
   0.55641099  0.11260578  0.04938899
   0.44460361  0.55735307  0.94356066
   0.55736245  0.44523791  0.05059276
   0.44364650  0.88867267  0.94819682
   0.55109116  0.77776339  0.05572023
   0.77748290  0.22304819  0.95248988
   0.88606412  0.11339237  0.05426126
   0.78008899  0.55644617  0.95178627
   0.88760190  0.44589713  0.04940871
   0.77520569  0.88864481  0.94311913
   0.88874414  0.77485815  0.04895904
unknown system                          
           1
     8.350049    4.776522    0.000000
    -8.345087    4.767840    0.000000
     0.000000    0.000000   30.000000
   V    Mo   W    S 
   3   3   3  18
Direct configuration=    21
   0.00835124  0.65669769 -0.00009250
   0.34692090 -0.01214996  0.00071928
   0.66413977  0.33751994 -0.00173137
   1.02179876  0.33998245  0.00036518
   0.33225220  0.65281168  0.00032670
   0.65580121  0.68003080 -0.00027094
  -0.02745883 -0.00254406 -0.00009436
   0.33572814  0.35973825  0.00012355
   0.66888615 -0.01727602  0.00041854
   0.11365327  0.22081313  0.94673563
   0.22246745  0.11009034  0.04487255
   0.10995465  0.55699279  0.94761264
   0.22357694  0.44532866  0.05696713
   0.11149922  0.88807019  0.95329019
   0.21938427  0.77732289  0.05055041
   0.44316570  0.22088552  0.95276431
   0.55633949  0.11264783  0.04945867
   0.44462587  0.55731160  0.94353123
   0.55735834  0.44513751  0.05048793
   0.44360470  0.88872245  0.94821373
   0.55109473  0.77783982  0.05571733
   0.77752814  0.22306035  0.95223653
   0.88621543  0.11346457  0.05435264
   0.77979375  0.55607219  0.95182327
   0.88753578  0.44595880  0.04948874
   0.77534164  0.88872160  0.94306288
   0.88865554  0.77496342  0.04907001
unknown system                          
           1
     8.349445    4.780282    0.000000
    -8.343411    4.769719    0.000000
     0.000000    0.000000   30.000000
   V    Mo   W    S 
   3   3   3  18
Direct configuration=    22
   0.00801978  0.65681814 -0.00014721
   0.34695013 -0.01198091  0.00068141
   0.66460442  0.33679547 -0.00168375
   1.02139204  0.33978051  0.00035847
   0.33217628  0.65268749  0.00032575
   0.65592561  0.68017710 -0.00027797
  -0.02734490 -0.00257312 -0.00008641
   0.33562040  0.35965616  0.00012529
   0.66922337 -0.01679321  0.00042457
   0.11357504  0.22078645  0.94671986
   0.22247702  0.11011313  0.04494498
   0.10989422  0.55701374  0.94762145
   0.22346312  0.44525629  0.05696794
   0.11152651  0.88817072  0.95323207
   0.21936544  0.77742542  0.05051981
   0.44329166  0.22097429  0.95278779
   0.55632101  0.11267277  0.04952727
   0.44463863  0.55729687  0.94353503
   0.55738968  0.44509497  0.05042204
   0.44359275  0.88873953  0.94822654
   0.55112140  0.77791614  0.05570406
   0.77756789  0.22305786  0.95204518
   0.88630123  0.11348285  0.05441321
   0.77960578  0.55583029  0.95185234
   0.88751283  0.44603974  0.04953934
   0.77540127  0.88877048  0.94306142
   0.88860183  0.77500528  0.04915943
unknown system                          
           1
     8.352127    4.782275    0.000000
    -8.347268    4.773771    0.000000
     0.000000    0.000000   30.000000
   V    Mo   W    S 
   3   3   3  18
Direct configuration=    23
   0.00873267  0.65637616 -0.00020787
   0.34775130 -0.01296717  0.00072174
   0.66508645  0.33522313 -0.00171642
   1.02135368  0.34020811  0.00039260
   0.33160519  0.65274397  0.00033400
   0.65575532  0.68116647 -0.00032526
  -0.02839411 -0.00291144 -0.00008337
   0.33602470  0.36046213  0.00016970
   0.66919018 -0.01662485  0.00048478
   0.11364170  0.22098945  0.94686446
   0.22252852  0.10989656  0.04450124
   0.10965240  0.55689924  0.94759077
   0.22348257  0.44527191  0.05694117
   0.11170265  0.88842761  0.95351971
   0.21912870  0.77740615  0.05054780
   0.44289726  0.22055506  0.95291665
   0.55640611  0.11253450  0.04970945
   0.44451408  0.55750965  0.94354349
   0.55760074  0.44556809  0.05030609
   0.44377613  0.88872549  0.94811457
   0.55091769  0.77802844  0.05567303
   0.77789480  0.22297584  0.95193529
   0.88621534  0.11345332  0.05440036
   0.77950873  0.55603058  0.95206158
   0.88770805  0.44631916  0.04954008
   0.77516145  0.88895151  0.94301137
   0.88837214  0.77499540  0.04905291
unknown system                          
           1
     8.357287    4.787966    0.000000
    -8.352273    4.779188    0.000000
     0.000000    0.000000   30.000000
   V    Mo   W    S 
   3   3   3  18
Direct configuration=    24
   0.00917233  0.65584905 -0.00046498
   0.34928632 -0.01426566  0.00063111
   0.66779993  0.32864106 -0.00178977
   1.01974663  0.34064830  0.00054438
   0.33038679  0.65239113  0.00035303
   0.65553077  0.68386201 -0.00042708
  -0.02998477 -0.00381617 -0.00007214
   0.33688954  0.36186859  0.00026298
   0.66986879 -0.01444713  0.00068487
   0.11364181  0.22139405  0.94714539
   0.22265587  0.10956496  0.04371406
   0.10916115  0.55674229  0.94736756
   0.22309265  0.44522711  0.05694470
   0.11212327  0.88915674  0.95398110
   0.21856326  0.77742129  0.05071264
   0.44270846  0.21995612  0.95342055
   0.55636434  0.11228848  0.05037469
   0.44425446  0.55799694  0.94354171
   0.55815442  0.44663439  0.04966318
   0.44417690  0.88861003  0.94787765