   27   27  100    1
  0.9710400E+02  0.1002848E-08  0.1002848E-08  0.3000000E-08  0.5000000E-15
  1.000000000000000E-004
  CAR 
 unknown system                          
    159     34    120
 
  0.0000000E+00  0.0000000E+00  0.0000000E+00  0.1562500E-01
    1      -17.860866   1.000000
    2      -16.800279   1.000000
    3      -16.688685   1.000000
    4      -16.606308   1.000000
    5      -16.579894   1.000000
    6      -16.431159   1.000000
    7      -16.354455   1.000000
    8      -16.339174   1.000000
    9      -16.243433   1.000000
   10      -16.139897   1.000000
   11      -16.077388   1.000000
   12      -15.983150   1.000000
   13      -15.868982   1.000000
   14      -15.632571   1.000000
   15      -15.581984   1.000000
   16      -15.461325   1.000000
   17      -15.222488   1.000000
   18      -15.186969   1.000000
   19       -9.475502   1.000000
   20       -9.058928   1.000000
   21       -9.030565   1.000000
   22       -8.926845   1.000000
   23       -8.758460   1.000000
   24       -8.710250   1.000000
   25       -8.643802   1.000000
   26       -8.570251   1.000000
   27       -8.486686   1.000000
   28       -8.453970   1.000000
   29       -8.407535   1.000000
   30       -8.361617   1.000000
   31       -8.232638   1.000000
   32       -8.198957   1.000000
   33       -8.153083   1.000000
   34       -8.055489   1.000000
   35       -7.810232   1.000000
   36       -7.770386   1.000000
   37       -7.633257   1.000000
   38       -7.614916   1.000000
   39       -7.501550   1.000000
   40       -7.371599   1.000000
   41       -7.305063   1.000000
   42       -7.210397   1.000000
   43       -7.085451   1.000000
   44       -6.962132   1.000000
   45       -6.830264   1.000000
   46       -6.826026   1.000000
   47       -6.753312   1.000000
   48       -6.718880   1.000000
   49       -6.641737   1.000000
   50       -6.512047   1.000000
   51       -6.399158   1.000000
   52       -6.250165   1.000000
   53       -6.208104   1.000000
   54       -6.176115   1.000000
   55       -6.117558   1.000000
   56       -6.037921   1.000000
   57       -5.979446   1.000000
   58       -5.873845   1.000000
   59       -5.851789   1.000000
   60       -5.727267   1.000000
   61       -5.607879   1.000000
   62       -5.342330   1.000000
   63       -5.294298   1.000000
   64       -5.046535   1.000000
   65       -4.987546   1.000000
   66       -4.896929   1.000000
   67       -4.852162   1.000000
   68       -4.781416   1.000000
   69       -4.749267   1.000000
   70       -4.717851   1.000000
   71       -4.656641   1.000000
   72       -4.618473   1.000000
   73       -4.410425   1.000000
   74       -4.359318   1.000000
   75       -4.283956   1.000000
   76       -3.988408   1.000000
   77       -3.751042   0.999915
   78       -3.578833   0.994500
   79       -3.503131   0.977648
   80       -3.184555   0.403136
   81       -3.145767   0.301701
   82       -2.847091   0.004251
   83       -2.688919   0.000088
   84       -2.665824   0.000046
   85       -2.514674   0.000000
   86       -2.509507   0.000000
   87       -2.287835   0.000000
   88       -2.227762   0.000000
   89       -2.184691   0.000000
   90       -1.927071   0.000000
   91       -1.732330   0.000000
   92       -1.613601   0.000000
   93       -1.500480   0.000000
   94       -1.185412   0.000000
   95       -1.127616   0.000000
   96       -1.019182   0.000000
   97       -0.956712   0.000000
   98       -0.876446   0.000000
   99       -0.813001   0.000000
  100       -0.632597   0.000000
  101       -0.544989   0.000000
  102       -0.498095   0.000000
  103       -0.376504   0.000000
  104       -0.229720   0.000000
  105       -0.130655   0.000000
  106       -0.066305   0.000000
  107       -0.027778   0.000000
  108        0.019252   0.000000
  109        0.128279   0.000000
  110        0.182191   0.000000
  111        0.436425   0.000000
  112        0.543301   0.000000
  113        0.613396   0.000000
  114        0.893162   0.000000
  115        0.978169   0.000000
  116        1.021027   0.000000
  117        1.140414   0.000000
  118        1.648962   0.000000
  119        1.842794   0.000000
  120        2.172057   0.000000
 
  0.1250000E+00  0.2775558E-16  0.0000000E+00  0.3125000E-01
    1      -17.836248   1.000000
    2      -16.819564   1.000000
    3      -16.796763   1.000000
    4      -16.628099   1.000000
    5      -16.512868   1.000000
    6      -16.447360   1.000000
    7      -16.377291   1.000000
    8      -16.316704   1.000000
    9      -16.292545   1.000000
   10      -16.064513   1.000000
   11      -16.030000   1.000000
   12      -15.968571   1.000000
   13      -15.848325   1.000000
   14      -15.628245   1.000000
   15      -15.575623   1.000000
   16      -15.471386   1.000000
   17      -15.247620   1.000000
   18      -15.185378   1.000000
   19       -9.479638   1.000000
   20       -9.172806   1.000000
   21       -9.115933   1.000000
   22       -9.046262   1.000000
   23       -8.762107   1.000000
   24       -8.724616   1.000000
   25       -8.617385   1.000000
   26       -8.575819   1.000000
   27       -8.521042   1.000000
   28       -8.419729   1.000000
   29       -8.395035   1.000000
   30       -8.293265   1.000000
   31       -8.253671   1.000000
   32       -8.081811   1.000000
   33       -7.986988   1.000000
   34       -7.944889   1.000000
   35       -7.834532   1.000000
   36       -7.772901   1.000000
   37       -7.701475   1.000000
   38       -7.523595   1.000000
   39       -7.421458   1.000000
   40       -7.394603   1.000000
   41       -7.321226   1.000000
   42       -7.239602   1.000000
   43       -7.119085   1.000000
   44       -6.981433   1.000000
   45       -6.909547   1.000000
   46       -6.813794   1.000000
   47       -6.761779   1.000000
   48       -6.699472   1.000000
   49       -6.601471   1.000000
   50       -6.516133   1.000000
   51       -6.381084   1.000000
   52       -6.281102   1.000000
   53       -6.229808   1.000000
   54       -6.170323   1.000000
   55       -6.138303   1.000000
   56       -6.038366   1.000000
   57       -5.956519   1.000000
   58       -5.882772   1.000000
   59       -5.788218   1.000000
   60       -5.652423   1.000000
   61       -5.562711   1.000000
   62       -5.358659   1.000000
   63       -5.329611   1.000000
   64       -5.212443   1.000000
   65       -5.050306   1.000000
   66       -5.013064   1.000000
   67       -4.904210   1.000000
   68       -4.859451   1.000000
   69       -4.750709   1.000000
   70       -4.621230   1.000000
   71       -4.585099   1.000000
   72       -4.493763   1.000000
   73       -4.421086   1.000000
   74       -4.299152   1.000000
   75       -4.247496   1.000000
   76       -3.902418   0.999999
   77       -3.788568   0.999972
   78       -3.703238   0.999690
   79       -3.485712   0.970235
   80       -3.385546   0.880198
   81       -2.957268   0.031984
   82       -2.855159   0.005020
   83       -2.701158   0.000124
   84       -2.650467   0.000029
   85       -2.514079   0.000000
   86       -2.495579   0.000000
   87       -2.284341   0.000000
   88       -2.193039   0.000000
   89       -2.157888   0.000000
   90       -1.919636   0.000000
   91       -1.750336   0.000000
   92       -1.593829   0.000000
   93       -1.474680   0.000000
   94       -1.193669   0.000000
   95       -1.126435   0.000000
   96       -1.011874   0.000000
   97       -0.969105   0.000000
   98       -0.880574   0.000000
   99       -0.812633   0.000000
  100       -0.678022   0.000000
  101       -0.604795   0.000000
  102       -0.524387   0.000000
  103       -0.452933   0.000000
  104       -0.312529   0.000000
  105       -0.182468   0.000000
  106       -0.139437   0.000000
  107       -0.113331   0.000000
  108        0.030053   0.000000
  109        0.163991   0.000000
  110        0.228409   0.000000
  111        0.504970   0.000000
  112        0.565286   0.000000
  113        0.633661   0.000000
  114        0.805715   0.000000
  115        0.967213   0.000000
  116        1.075273   0.000000
  117        1.216855   0.000000
  118        1.693989   0.000000
  119        1.881154   0.000000
  120        2.207494   0.000000
 
  0.2500000E+00  0.5551115E-16  0.0000000E+00  0.3125000E-01
    1      -17.764404   1.000000
    2      -17.022064   1.000000
    3      -16.788270   1.000000
    4      -16.660944   1.000000
    5      -16.557937   1.000000
    6      -16.477889   1.000000
    7      -16.363340   1.000000
    8      -16.276901   1.000000
    9      -16.247492   1.000000
   10      -16.066323   1.000000
   11      -15.962176   1.000000
   12      -15.883780   1.000000
   13      -15.793674   1.000000
   14      -15.607054   1.000000
   15      -15.560038   1.000000
   16      -15.491496   1.000000
   17      -15.295540   1.000000
   18      -15.198667   1.000000
   19       -9.606543   1.000000
   20       -9.317281   1.000000
   21       -9.233575   1.000000
   22       -9.138050   1.000000
   23       -8.839268   1.000000
   24       -8.726605   1.000000
   25       -8.618986   1.000000
   26       -8.577239   1.000000
   27       -8.504726   1.000000
   28       -8.427774   1.000000
   29       -8.324022   1.000000
   30       -8.215966   1.000000
   31       -8.116080   1.000000
   32       -8.047537   1.000000
   33       -7.963844   1.000000
   34       -7.840877   1.000000
   35       -7.754855   1.000000
   36       -7.650013   1.000000
   37       -7.571118   1.000000
   38       -7.501764   1.000000
   39       -7.444954   1.000000
   40       -7.382905   1.000000
   41       -7.334435   1.000000
   42       -7.223716   1.000000
   43       -7.118547   1.000000
   44       -6.984186   1.000000
   45       -6.957285   1.000000
   46       -6.798894   1.000000
   47       -6.755661   1.000000
   48       -6.713087   1.000000
   49       -6.541392   1.000000
   50       -6.437972   1.000000
   51       -6.405448   1.000000
   52       -6.304074   1.000000
   53       -6.278655   1.000000
   54       -6.176498   1.000000
   55       -6.132259   1.000000
   56       -6.044852   1.000000
   57       -5.890748   1.000000
   58       -5.851193   1.000000
   59       -5.764787   1.000000
   60       -5.647152   1.000000
   61       -5.567277   1.000000
   62       -5.502929   1.000000
   63       -5.452215   1.000000
   64       -5.273504   1.000000
   65       -5.151241   1.000000
   66       -5.120058   1.000000
   67       -5.013425   1.000000
   68       -4.875581   1.000000
   69       -4.729468   1.000000
   70       -4.560287   1.000000
   71       -4.473661   1.000000
   72       -4.427286   1.000000
   73       -4.304634   1.000000
   74       -4.261359   1.000000
   75       -4.146843   1.000000
   76       -4.010021   1.000000
   77       -3.915768   1.000000
   78       -3.750532   0.999914
   79       -3.477871   0.966286
   80       -3.414956   0.916811
   81       -2.931689   0.021012
   82       -2.821662   0.002467
   83       -2.692625   0.000098
   84       -2.624537   0.000013
   85       -2.523693   0.000000
   86       -2.452818   0.000000
   87       -2.286234   0.000000
   88       -2.130108   0.000000
   89       -2.065704   0.000000
   90       -1.904930   0.000000
   91       -1.770178   0.000000
   92       -1.554723   0.000000
   93       -1.410322   0.000000
   94       -1.222378   0.000000
   95       -1.125884   0.000000
   96       -1.042868   0.000000
   97       -0.997987   0.000000
   98       -0.888270   0.000000
   99       -0.822267   0.000000
  100       -0.784028   0.000000
  101       -0.726745   0.000000
  102       -0.611114   0.000000
  103       -0.550930   0.000000
  104       -0.434534   0.000000
  105       -0.316928   0.000000
  106       -0.275967   0.000000
  107       -0.203496   0.000000
  108       -0.018470   0.000000
  109        0.185844   0.000000
  110        0.277109   0.000000
  111        0.491716   0.000000
  112        0.584422   0.000000
  113        0.693398   0.000000
  114        0.771227   0.000000
  115        1.032142   0.000000
  116        1.137938   0.000000
  117        1.361664   0.000000
  118        1.818911   0.000000
  119        1.992263   0.000000
  120        2.312479   0.000000
 
  0.3750000E+00  0.0000000E+00  0.0000000E+00  0.3125000E-01
    1      -17.655079   1.000000
    2      -17.223202   1.000000
    3      -16.778947   1.000000
    4      -16.687304   1.000000
    5      -16.613693   1.000000
    6      -16.514872   1.000000
    7      -16.330261   1.000000
    8      -16.238103   1.000000
    9      -16.202825   1.000000
   10      -16.079759   1.000000
   11      -15.874140   1.000000
   12      -15.845169   1.000000
   13      -15.757749   1.000000
   14      -15.616021   1.000000
   15      -15.543312   1.000000
   16      -15.465669   1.000000
   17      -15.332578   1.000000
   18      -15.229335   1.000000
   19       -9.796652   1.000000
   20       -9.409372   1.000000
   21       -9.288386   1.000000
   22       -9.108799   1.000000
   23       -8.894996   1.000000
   24       -8.773022   1.000000
   25       -8.634387   1.000000
   26       -8.569633   1.000000
   27       -8.482626   1.000000
   28       -8.331638   1.000000
   29       -8.287630   1.000000
   30       -8.200441   1.000000
   31       -8.103646   1.000000
   32       -8.019492   1.000000
   33       -7.924142   1.000000
   34       -7.822709   1.000000
   35       -7.767488   1.000000
   36       -7.661935   1.000000
   37       -7.572292   1.000000
   38       -7.513135   1.000000
   39       -7.472637   1.000000
   40       -7.300871   1.000000
   41       -7.171446   1.000000
   42       -7.133930   1.000000
   43       -7.015302   1.000000
   44       -6.971521   1.000000
   45       -6.887657   1.000000
   46       -6.800343   1.000000
   47       -6.734133   1.000000
   48       -6.615090   1.000000
   49       -6.509408   1.000000
   50       -6.453757   1.000000
   51       -6.338673   1.000000
   52       -6.293514   1.000000
   53       -6.224139   1.000000
   54       -6.189058   1.000000
   55       -6.145917   1.000000
   56       -6.038128   1.000000
   57       -6.026287   1.000000
   58       -5.967511   1.000000
   59       -5.853386   1.000000
   60       -5.717268   1.000000
   61       -5.624695   1.000000
   62       -5.574192   1.000000
   63       -5.450512   1.000000
   64       -5.353784   1.000000
   65       -5.163575   1.000000
   66       -5.095680   1.000000
   67       -5.004417   1.000000
   68       -4.825453   1.000000
   69       -4.755046   1.000000
   70       -4.653615   1.000000
   71       -4.506345   1.000000
   72       -4.416204   1.000000
   73       -4.279824   1.000000
   74       -4.202266   1.000000
   75       -4.160037   1.000000
   76       -4.056415   1.000000
   77       -3.892333   0.999999
   78       -3.748067   0.999908
   79       -3.519913   0.983252
   80       -3.268478   0.636150
   81       -2.980940   0.045992
   82       -2.800865   0.001547
   83       -2.681806   0.000072
   84       -2.630371   0.000016
   85       -2.529187   0.000001
   86       -2.396996   0.000000
   87       -2.270901   0.000000
   88       -2.091128   0.000000
   89       -1.965928   0.000000
   90       -1.869168   0.000000
   91       -1.772430   0.000000
   92       -1.550741   0.000000
   93       -1.329618   0.000000
   94       -1.240278   0.000000
   95       -1.155846   0.000000
   96       -1.135707   0.000000
   97       -1.035793   0.000000
   98       -0.911843   0.000000
   99       -0.873582   0.000000
  100       -0.805572   0.000000
  101       -0.788451   0.000000
  102       -0.719980   0.000000
  103       -0.607258   0.000000
  104       -0.536500   0.000000
  105       -0.499228   0.000000
  106       -0.332199   0.000000
  107       -0.253592   0.000000
  108       -0.065859   0.000000
  109        0.151574   0.000000
  110        0.263523   0.000000
  111        0.424355   0.000000
  112        0.608364   0.000000
  113        0.750759   0.000000
  114        0.779144   0.000000
  115        1.117765   0.000000
  116        1.222476   0.000000
  117        1.478893   0.000000
  118        2.005421   0.000000
  119        2.168513   0.000000
  120        2.477994   0.000000
 
  0.5000000E+00  0.1110223E-15  0.0000000E+00  0.1562500E-01
    1      -17.570830   1.000000
    2      -17.340102   1.000000
    3      -16.774632   1.000000
    4      -16.697893   1.000000
    5      -16.632522   1.000000
    6      -16.528666   1.000000
    7      -16.317914   1.000000
    8      -16.226569   1.000000
    9      -16.190040   1.000000
   10      -16.075670   1.000000
   11      -15.863444   1.000000
   12      -15.775184   1.000000
   13      -15.762108   1.000000
   14      -15.660259   1.000000
   15      -15.531404   1.000000
   16      -15.440982   1.000000
   17      -15.333158   1.000000
   18      -15.253980   1.000000
   19       -9.871255   1.000000
   20       -9.448069   1.000000
   21       -9.315950   1.000000
   22       -9.047325   1.000000
   23       -8.911709   1.000000
   24       -8.802492   1.000000
   25       -8.647794   1.000000
   26       -8.624948   1.000000
   27       -8.421557   1.000000
   28       -8.333279   1.000000
   29       -8.204653   1.000000
   30       -8.160104   1.000000
   31       -8.124105   1.000000
   32       -8.022736   1.000000
   33       -7.943293   1.000000
   34       -7.839745   1.000000
   35       -7.778474   1.000000
   36       -7.677762   1.000000
   37       -7.600492   1.000000
   38       -7.565481   1.000000
   39       -7.476578   1.000000
   40       -7.314254   1.000000
   41       -7.086057   1.000000
   42       -7.023892   1.000000
   43       -6.940625   1.000000
   44       -6.901335   1.000000
   45       -6.848715   1.000000
   46       -6.684339   1.000000
   47       -6.634845   1.000000
   48       -6.567094   1.000000
   49       -6.536245   1.000000
   50       -6.477555   1.000000
   51       -6.455051   1.000000
   52       -6.396436   1.000000
   53       -6.264669   1.000000
   54       -6.252528   1.000000
   55       -6.175098   1.000000
   56       -6.071116   1.000000
   57       -5.987309   1.000000
   58       -5.875583   1.000000
   59       -5.841670   1.000000
   60       -5.729836   1.000000
   61       -5.657420   1.000000
   62       -5.555589   1.000000
   63       -5.514572   1.000000
   64       -5.389941   1.000000
   65       -5.185632   1.000000
   66       -5.047439   1.000000
   67       -5.026667   1.000000
   68       -4.918495   1.000000
   69       -4.789118   1.000000
   70       -4.599568   1.000000
   71       -4.516064   1.000000
   72       -4.463635   1.000000
   73       -4.278918   1.000000
   74       -4.219023   1.000000
   75       -4.162366   1.000000
   76       -3.997020   1.000000
   77       -3.833456   0.999993
   78       -3.763620   0.999941
   79       -3.550937   0.990498
   80       -3.186496   0.408458
   81       -2.988426   0.051331
   82       -2.826963   0.002770
   83       -2.696976   0.000111
   84       -2.619152   0.000011
   85       -2.527795   0.000001
   86       -2.372261   0.000000
   87       -2.258866   0.000000
   88       -2.071480   0.000000
   89       -1.936788   0.000000
   90       -1.846470   0.000000
   91       -1.767141   0.000000
   92       -1.555998   0.000000
   93       -1.299639   0.000000
   94       -1.237511   0.000000
   95       -1.188679   0.000000
   96       -1.173270   0.000000
   97       -1.057535   0.000000
   98       -0.930659   0.000000
   99       -0.880189   0.000000
  100       -0.823958   0.000000
  101       -0.782501   0.000000
  102       -0.765730   0.000000
  103       -0.627468   0.000000
  104       -0.592664   0.000000
  105       -0.574246   0.000000
  106       -0.343861   0.000000
  107       -0.268262   0.000000
  108       -0.089712   0.000000
  109        0.131801   0.000000
  110        0.246840   0.000000
  111        0.409351   0.000000
  112        0.615487   0.000000
  113        0.772312   0.000000
  114        0.780463   0.000000
  115        1.149614   0.000000
  116        1.260926   0.000000
  117        1.523545   0.000000
  118        2.225680   0.000000
  119        2.260016   0.000000
  120        2.390129   0.000000
 
  0.0000000E+00  0.1250000E+00  0.0000000E+00  0.3125000E-01
    1      -17.836617   1.000000
    2      -16.830861   1.000000
    3      -16.781104   1.000000
    4      -16.611836   1.000000
    5      -16.542073   1.000000
    6      -16.443713   1.000000
    7      -16.382370   1.000000
    8      -16.325501   1.000000
    9      -16.269623   1.000000
   10      -16.053529   1.000000
   11      -16.022659   1.000000
   12      -16.002081   1.000000
   13      -15.835007   1.000000
   14      -15.632233   1.000000
   15      -15.576571   1.000000
   16      -15.467123   1.000000
   17      -15.247998   1.000000
   18      -15.186464   1.000000
   19       -9.484518   1.000000
   20       -9.153188   1.000000
   21       -9.109562   1.000000
   22       -9.042774   1.000000
   23       -8.784377   1.000000
   24       -8.699541   1.000000
   25       -8.634340   1.000000
   26       -8.574791   1.000000
   27       -8.505946   1.000000
   28       -8.491313   1.000000
   29       -8.393695   1.000000
   30       -8.311250   1.000000
   31       -8.203640   1.000000
   32       -8.077848   1.000000
   33       -8.009796   1.000000
   34       -7.914208   1.000000
   35       -7.840495   1.000000
   36       -7.758235   1.000000
   37       -7.699613   1.000000
   38       -7.494950   1.000000
   39       -7.436995   1.000000
   40       -7.406154   1.000000
   41       -7.337961   1.000000
   42       -7.201065   1.000000
   43       -7.136231   1.000000
   44       -7.002217   1.000000
   45       -6.886234   1.000000
   46       -6.853934   1.000000
   47       -6.743083   1.000000
   48       -6.679676   1.000000
   49       -6.617180   1.000000
   50       -6.540189   1.000000
   51       -6.385575   1.000000
   52       -6.272665   1.000000
   53       -6.237262   1.000000
   54       -6.169910   1.000000
   55       -6.127970   1.000000
   56       -6.031735   1.000000
   57       -5.976712   1.000000
   58       -5.850797   1.000000
   59       -5.776259   1.000000
   60       -5.663582   1.000000
   61       -5.563281   1.000000
   62       -5.364792   1.000000
   63       -5.313993   1.000000
   64       -5.213471   1.000000
   65       -5.058979   1.000000
   66       -5.011095   1.000000
   67       -4.887074   1.000000
   68       -4.864552   1.000000
   69       -4.772561   1.000000
   70       -4.647913   1.000000
   71       -4.581310   1.000000
   72       -4.477205   1.000000
   73       -4.376715   1.000000
   74       -4.298844   1.000000
   75       -4.275370   1.000000
   76       -3.907164   0.999999
   77       -3.811370   0.999986
   78       -3.672656   0.999327
   79       -3.478801   0.966776
   80       -3.395754   0.894014
   81       -2.956425   0.031559
   82       -2.857944   0.005313
   83       -2.707189   0.000147
   84       -2.638384   0.000020
   85       -2.511329   0.000000
   86       -2.501481   0.000000
   87       -2.285785   0.000000
   88       -2.196039   0.000000
   89       -2.156194   0.000000
   90       -1.932361   0.000000
   91       -1.736598   0.000000
   92       -1.596377   0.000000
   93       -1.481614   0.000000
   94       -1.185816   0.000000
   95       -1.129614   0.000000
   96       -1.009463   0.000000
   97       -0.965862   0.000000
   98       -0.880212   0.000000
   99       -0.820046   0.000000
  100       -0.670165   0.000000
  101       -0.603062   0.000000
  102       -0.559792   0.000000
  103       -0.461144   0.000000
  104       -0.316175   0.000000
  105       -0.200188   0.000000
  106       -0.134414   0.000000
  107       -0.057137   0.000000
  108        0.068577   0.000000
  109        0.162818   0.000000
  110        0.220261   0.000000
  111        0.430639   0.000000
  112        0.542460   0.000000
  113        0.626123   0.000000
  114        0.815233   0.000000
  115        0.995234   0.000000
  116        1.089346   0.000000
  117        1.230646   0.000000
  118        1.694221   0.000000
  119        1.881995   0.000000
  120        2.207564   0.000000
 
  0.1250000E+00  0.1250000E+00  0.0000000E+00  0.3125000E-01
    1      -17.786889   1.000000
    2      -16.971899   1.000000
    3      -16.772816   1.000000
    4      -16.679067   1.000000
    5      -16.528257   1.000000
    6      -16.465238   1.000000
    7      -16.370602   1.000000
    8      -16.290723   1.000000
    9      -16.243109   1.000000
   10      -16.087454   1.000000
   11      -16.013406   1.000000
   12      -15.897893   1.000000
   13      -15.785320   1.000000
   14      -15.605010   1.000000
   15      -15.560787   1.000000
   16      -15.472488   1.000000
   17      -15.293974   1.000000
   18      -15.201444   1.000000
   19       -9.560208   1.000000
   20       -9.305594   1.000000
   21       -9.212138   1.000000
   22       -9.078281   1.000000
   23       -8.840704   1.000000
   24       -8.663561   1.000000
   25       -8.661872   1.000000
   26       -8.524174   1.000000
   27       -8.495841   1.000000
   28       -8.426859   1.000000
   29       -8.374282   1.000000
   30       -8.343925   1.000000
   31       -8.169118   1.000000
   32       -8.055972   1.000000
   33       -7.973592   1.000000
   34       -7.857711   1.000000
   35       -7.711102   1.000000
   36       -7.631839   1.000000
   37       -7.600091   1.000000
   38       -7.514798   1.000000
   39       -7.431083   1.000000
   40       -7.336128   1.000000
   41       -7.313578   1.000000
   42       -7.227857   1.000000
   43       -7.155630   1.000000
   44       -7.032950   1.000000
   45       -6.984985   1.000000
   46       -6.866937   1.000000
   47       -6.739009   1.000000
   48       -6.709013   1.000000
   49       -6.564970   1.000000
   50       -6.494077   1.000000
   51       -6.382943   1.000000
   52       -6.320205   1.000000
   53       -6.292024   1.000000
   54       -6.191644   1.000000
   55       -6.107125   1.000000
   56       -6.027159   1.000000
   57       -5.890770   1.000000
   58       -5.765314   1.000000
   59       -5.731164   1.000000
   60       -5.661281   1.000000
   61       -5.531007   1.000000
   62       -5.490053   1.000000
   63       -5.298838   1.000000
   64       -5.247053   1.000000
   65       -5.213716   1.000000
   66       -5.160454   1.000000
   67       -5.045942   1.000000
   68       -4.836374   1.000000
   69       -4.753091   1.000000
   70       -4.619232   1.000000
   71       -4.472842   1.000000
   72       -4.434291   1.000000
   73       -4.290866   1.000000
   74       -4.253640   1.000000
   75       -4.152902   1.000000
   76       -3.984842   1.000000
   77       -3.864301   0.999997
   78       -3.686135   0.999519
   79       -3.586210   0.995269
   80       -3.396441   0.894901
   81       -2.948633   0.027844
   82       -2.848203   0.004350
   83       -2.708522   0.000152
   84       -2.600188   0.000006
   85       -2.517778   0.000000
   86       -2.484668   0.000000
   87       -2.320161   0.000000
   88       -2.159367   0.000000
   89       -2.087206   0.000000
   90       -1.930185   0.000000
   91       -1.762220   0.000000
   92       -1.535059   0.000000
   93       -1.444719   0.000000
   94       -1.205669   0.000000
   95       -1.115145   0.000000
   96       -1.014104   0.000000
   97       -0.979672   0.000000
   98       -0.879675   0.000000
   99       -0.833288   0.000000
  100       -0.707202   0.000000
  101       -0.659430   0.000000
  102       -0.620252   0.000000
  103       -0.538501   0.000000
  104       -0.455601   0.000000
  105       -0.316055   0.000000
  106       -0.202203   0.000000
  107       -0.108837   0.000000
  108       -0.026679   0.000000
  109        0.145462   0.000000
  110        0.208570   0.000000
  111        0.517546   0.000000
  112        0.573766   0.000000
  113        0.645068   0.000000
  114        0.748686   0.000000
  115        1.037616   0.000000
  116        1.157732   0.000000
  117        1.394178   0.000000
  118        1.781325   0.000000
  119        1.954695   0.000000
  120        2.278479   0.000000
 
  0.2500000E+00  0.1250000E+00  0.0000000E+00  0.3125000E-01
    1      -17.694090   1.000000
    2      -17.144189   1.000000
    3      -16.823898   1.000000
    4      -16.724175   1.000000
    5      -16.545684   1.000000
    6      -16.459367   1.000000
    7      -16.328890   1.000000
    8      -16.252012   1.000000
    9      -16.209216   1.000000
   10      -16.106647   1.000000
   11      -15.962392   1.000000
   12      -15.852828   1.000000
   13      -15.748723   1.000000
   14      -15.568423   1.000000
   15      -15.542177   1.000000
   16      -15.465967   1.000000
   17      -15.334600   1.000000
   18      -15.233237   1.000000
   19       -9.720008   1.000000
   20       -9.470592   1.000000
   21       -9.239350   1.000000
   22       -9.144043   1.000000
   23       -8.809546   1.000000
   24       -8.722203   1.000000
   25       -8.605791   1.000000
   26       -8.531418   1.000000
   27       -8.492973   1.000000
   28       -8.347763   1.000000
   29       -8.319472   1.000000
   30       -8.237295   1.000000
   31       -8.158153   1.000000
   32       -8.072803   1.000000
   33       -7.980482   1.000000
   34       -7.907258   1.000000
   35       -7.796939   1.000000
   36       -7.602558   1.000000
   37       -7.485120   1.000000
   38       -7.425461   1.000000
   39       -7.371455   1.000000
   40       -7.321143   1.000000
   41       -7.248381   1.000000
   42       -7.168562   1.000000
   43       -7.095627   1.000000
   44       -6.985394   1.000000
   45       -6.938229   1.000000
   46       -6.831812   1.000000
   47       -6.733781   1.000000