       N       E                     dE             d eps       ncg     rms          rms(c)
DAV:   1     0.112404574249E+04    0.11240E+04   -0.35869E+04  8160   0.577E+02
DAV:   2    -0.385671690628E+01   -0.11279E+04   -0.10874E+04 11040   0.173E+02
DAV:   3    -0.199758581480E+03   -0.19590E+03   -0.18785E+03 10880   0.819E+01
DAV:   4    -0.208977366634E+03   -0.92188E+01   -0.89243E+01 12000   0.261E+01
DAV:   5    -0.209324495249E+03   -0.34713E+00   -0.34617E+00 11560   0.370E+00    0.275E+01
DAV:   6    -0.236772065440E+03   -0.27448E+02   -0.10622E+02 12760   0.604E+01    0.594E+01
DAV:   7    -0.196505577763E+03    0.40266E+02   -0.17667E+02 13120   0.152E+02    0.200E+01
DAV:   8    -0.189388314152E+03    0.71173E+01   -0.17502E+01 11800   0.127E+01    0.125E+01
DAV:   9    -0.188129539164E+03    0.12588E+01   -0.30490E+00 13240   0.648E+00    0.902E+00
DAV:  10    -0.187011100512E+03    0.11184E+01   -0.21792E+00 13520   0.716E+00    0.285E+00
DAV:  11    -0.186969678863E+03    0.41422E-01   -0.60995E-01 13440   0.261E+00    0.277E+00
DAV:  12    -0.187106439077E+03   -0.13676E+00   -0.87409E-01 12600   0.501E+00    0.514E+00
DAV:  13    -0.186888014321E+03    0.21842E+00   -0.61050E-01 13000   0.417E+00    0.219E+00
DAV:  14    -0.186862508874E+03    0.25505E-01   -0.13813E-01 13320   0.216E+00    0.178E+00
DAV:  15    -0.186839168065E+03    0.23341E-01   -0.74860E-02 12720   0.165E+00    0.824E-01
DAV:  16    -0.186832216259E+03    0.69518E-02   -0.11455E-02 12160   0.430E-01    0.469E-01
DAV:  17    -0.186830451136E+03    0.17651E-02   -0.78626E-03 12960   0.397E-01    0.238E-01
DAV:  18    -0.186829686948E+03    0.76419E-03   -0.29761E-03 12040   0.168E-01    0.203E-01
DAV:  19    -0.186829294841E+03    0.39211E-03   -0.10973E-03 11200   0.158E-01    0.469E-02
DAV:  20    -0.186830029400E+03   -0.73456E-03   -0.69688E-04  9200   0.576E-02    0.498E-02
DAV:  21    -0.186830609711E+03   -0.58031E-03   -0.25400E-04  8080   0.435E-02    0.415E-02
DAV:  22    -0.186831783721E+03   -0.11740E-02   -0.19823E-04  7520   0.535E-02    0.337E-02
DAV:  23    -0.186833016282E+03   -0.12326E-02   -0.13301E-04  7520   0.399E-02    0.106E-02
DAV:  24    -0.186833615992E+03   -0.59971E-03   -0.30506E-05  6640   0.136E-02    0.675E-03
DAV:  25    -0.186833978770E+03   -0.36278E-03   -0.14965E-05  5680   0.108E-02    0.465E-03
DAV:  26    -0.186834214423E+03   -0.23565E-03   -0.92005E-06  6800   0.724E-03    0.149E-03
DAV:  27    -0.186834314225E+03   -0.99802E-04   -0.37232E-06  7240   0.464E-03
   1 F= -.18683431E+03 E0= -.18666211E+03  d E =-.186834E+03
       N       E                     dE             d eps       ncg     rms          rms(c)
DAV:   1    -0.187451485789E+03   -0.61727E+00   -0.27164E+02  8160   0.350E+01    0.460E+00
DAV:   2    -0.189261164970E+03   -0.18097E+01   -0.20061E+01 12240   0.149E+01    0.802E+00
DAV:   3    -0.189363013951E+03   -0.10185E+00   -0.36582E+00 12480   0.118E+01    0.691E+00
DAV:   4    -0.188719707572E+03    0.64331E+00   -0.62151E-01 12680   0.487E+00    0.179E+00
DAV:   5    -0.188739039570E+03   -0.19332E-01   -0.32427E-01 11440   0.184E+00    0.267E+00
DAV:   6    -0.188700578240E+03    0.38461E-01   -0.38334E-01 12920   0.305E+00    0.296E+00
DAV:   7    -0.188662693024E+03    0.37885E-01   -0.25032E-01 12040   0.279E+00    0.174E+00
DAV:   8    -0.188631723222E+03    0.30970E-01   -0.64933E-02 12840   0.129E+00    0.653E-01
DAV:   9    -0.188629634762E+03    0.20885E-02   -0.15034E-02 12920   0.697E-01    0.509E-01
DAV:  10    -0.188627929811E+03    0.17050E-02   -0.46089E-03 13600   0.363E-01    0.181E-01
DAV:  11    -0.188627453361E+03    0.47645E-03   -0.21399E-03 12600   0.148E-01    0.112E-01
DAV:  12    -0.188627467253E+03   -0.13892E-04   -0.95074E-04 11000   0.944E-02
   2 F= -.18862747E+03 E0= -.18848555E+03  d E =-.179315E+01
       N       E                     dE             d eps       ncg     rms          rms(c)
DAV:   1    -0.190545858888E+03   -0.19184E+01   -0.30833E+01  9320   0.142E+01    0.448E+00
DAV:   2    -0.190566751249E+03   -0.20892E-01   -0.28829E+00 11360   0.992E+00    0.763E+00
DAV:   3    -0.190010161030E+03    0.55659E+00   -0.13349E+00 12360   0.872E+00    0.408E+00
DAV:   4    -0.189810293886E+03    0.19987E+00   -0.67666E-01 12720   0.397E+00    0.250E+00
DAV:   5    -0.189734286675E+03    0.76007E-01   -0.31043E-01 11520   0.213E+00    0.149E+00
DAV:   6    -0.189713507007E+03    0.20780E-01   -0.81846E-02 11960   0.168E+00    0.930E-01
DAV:   7    -0.189705608094E+03    0.78989E-02   -0.16933E-02 12640   0.729E-01    0.195E-01
DAV:   8    -0.189705664305E+03   -0.56211E-04   -0.25170E-03 11080   0.173E-01    0.149E-01
DAV:   9    -0.189705865397E+03   -0.20109E-03   -0.10975E-03 10880   0.171E-01    0.175E-01
DAV:  10    -0.189706249382E+03   -0.38399E-03   -0.15258E-03 10480   0.270E-01    0.242E-01
DAV:  11    -0.189705678076E+03    0.57131E-03   -0.85435E-04 10000   0.182E-01    0.265E-02
DAV:  12    -0.189705705790E+03   -0.27714E-04   -0.81710E-05  6080   0.335E-02
   3 F= -.18970571E+03 E0= -.18958636E+03  d E =-.107824E+01
       N       E                     dE             d eps       ncg     rms          rms(c)
DAV:   1    -0.191210684124E+03   -0.15050E+01   -0.66580E+01  8160   0.187E+01    0.457E+00
DAV:   2    -0.191158325237E+03    0.52359E-01   -0.53476E+00 13520   0.879E+00    0.561E+00
DAV:   3    -0.191079865937E+03    0.78459E-01   -0.15394E+00 12000   0.918E+00    0.582E+00
DAV:   4    -0.190760406068E+03    0.31946E+00   -0.10844E+00 13080   0.644E+00    0.276E+00
DAV:   5    -0.190745271122E+03    0.15135E-01   -0.41599E-01 12200   0.411E+00    0.301E+00
DAV:   6    -0.190641831395E+03    0.10344E+00   -0.18791E-01 12240   0.312E+00    0.963E-01
DAV:   7    -0.190635410266E+03    0.64211E-02   -0.36225E-02 12520   0.100E+00    0.501E-01
DAV:   8    -0.190633688503E+03    0.17218E-02   -0.11108E-02 11240   0.666E-01    0.503E-01
DAV:   9    -0.190631374887E+03    0.23136E-02   -0.40057E-03 11440   0.459E-01    0.144E-01
DAV:  10    -0.190631711467E+03   -0.33658E-03   -0.11943E-03 10280   0.132E-01    0.124E-01
DAV:  11    -0.190631515323E+03    0.19614E-03   -0.78260E-04 10840   0.106E-01    0.465E-02
DAV:  12    -0.190631517553E+03   -0.22299E-05   -0.11497E-04  7080   0.435E-02
   4 F= -.19063152E+03 E0= -.19053168E+03  d E =-.925812E+00
       N       E                     dE             d eps       ncg     rms          rms(c)
DAV:   1    -0.192081369584E+03   -0.14499E+01   -0.14188E+02  8160   0.269E+01    0.590E+00
DAV:   2    -0.191884644741E+03    0.19672E+00   -0.98889E+00 12640   0.983E+00    0.529E+00
DAV:   3    -0.192166850274E+03   -0.28221E+00   -0.24606E+00 10920   0.114E+01    0.941E+00
DAV:   4    -0.191532809685E+03    0.63404E+00   -0.29972E+00 12120   0.118E+01    0.413E+00
DAV:   5    -0.191457990350E+03    0.74819E-01   -0.86249E-01 12240   0.627E+00    0.374E+00
DAV:   6    -0.191265640888E+03    0.19235E+00   -0.29372E-01 12240   0.402E+00    0.984E-01
DAV:   7    -0.191258995271E+03    0.66456E-02   -0.54111E-02 12160   0.112E+00    0.547E-01
DAV:   8    -0.191254172268E+03    0.48230E-02   -0.11047E-02 10600   0.519E-01    0.286E-01
DAV:   9    -0.191254750440E+03   -0.57817E-03   -0.43166E-03 12680   0.482E-01    0.347E-01
DAV:  10    -0.191254054463E+03    0.69598E-03   -0.31363E-03 11240   0.355E-01    0.104E-01
DAV:  11    -0.191253963278E+03    0.91185E-04   -0.70868E-04 10720   0.103E-01
   5 F= -.19125396E+03 E0= -.19116161E+03  d E =-.622446E+00
       N       E                     dE             d eps       ncg     rms          rms(c)
DAV:   1    -0.191313263911E+03   -0.59209E-01   -0.51753E+00  8160   0.481E+00    0.637E-01
DAV:   2    -0.191371798065E+03   -0.58534E-01   -0.23659E-01 13520   0.266E+00    0.225E+00
DAV:   3    -0.191322760650E+03    0.49037E-01   -0.11380E-01 11800   0.235E+00    0.516E-01
DAV:   4    -0.191322512913E+03    0.24774E-03   -0.13066E-02 11480   0.780E-01    0.532E-01
DAV:   5    -0.191319679914E+03    0.28330E-02   -0.63258E-03 11320   0.603E-01    0.216E-01
DAV:   6    -0.191319210477E+03    0.46944E-03   -0.17311E-03 11040   0.221E-01    0.121E-01
DAV:   7    -0.191319606327E+03   -0.39585E-03   -0.17248E-03 11640   0.282E-01    0.228E-01
DAV:   8    -0.191319074785E+03    0.53154E-03   -0.10556E-03  9720   0.249E-01    0.603E-02
DAV:   9    -0.191319042799E+03    0.31986E-04   -0.10239E-04  6240   0.587E-02
   6 F= -.19131904E+03 E0= -.19122339E+03  d E =-.650795E-01
       N       E                     dE             d eps       ncg     rms          rms(c)
DAV:   1    -0.191361687341E+03   -0.42613E-01   -0.25105E+00  8160   0.335E+00    0.424E-01
DAV:   2    -0.191385317918E+03   -0.23631E-01   -0.98291E-02 13600   0.169E+00    0.142E+00
DAV:   3    -0.191365232200E+03    0.20086E-01   -0.46123E-02 12040   0.150E+00    0.348E-01
DAV:   4    -0.191365299735E+03   -0.67535E-04   -0.60280E-03 11240   0.526E-01    0.371E-01
DAV:   5    -0.191363935564E+03    0.13642E-02   -0.30545E-03 11120   0.418E-01    0.148E-01
DAV:   6    -0.191363739220E+03    0.19634E-03   -0.86250E-04 10520   0.155E-01    0.849E-02
DAV:   7    -0.191363882157E+03   -0.14294E-03   -0.73229E-04 10400   0.179E-01    0.141E-01
DAV:   8    -0.191363677998E+03    0.20416E-03   -0.42389E-04  8840   0.159E-01    0.414E-02
DAV:   9    -0.191363666549E+03    0.11449E-04   -0.49492E-05  6320   0.422E-02
   7 F= -.19136367E+03 E0= -.19126601E+03  d E =-.446238E-01
       N       E                     dE             d eps       ncg     rms          rms(c)
DAV:   1    -0.191351203381E+03    0.12475E-01   -0.19060E-01  8160   0.927E-01    0.118E-01
DAV:   2    -0.191352779898E+03   -0.15765E-02   -0.71475E-03 13600   0.467E-01    0.352E-01
DAV:   3    -0.191351402058E+03    0.13778E-02   -0.26255E-03 11120   0.383E-01    0.868E-02
DAV:   4    -0.191351434062E+03   -0.32004E-04   -0.43177E-04  8600   0.139E-01
   8 F= -.19135143E+03 E0= -.19125426E+03  d E =0.122325E-01
       N       E                     dE             d eps       ncg     rms          rms(c)
DAV:   1    -0.191325107288E+03    0.26295E-01   -0.14795E+00  8160   0.258E+00    0.287E-01
DAV:   2    -0.191330309640E+03   -0.52024E-02   -0.40767E-02 13600   0.821E-01    0.584E-01
DAV:   3    -0.191327496321E+03    0.28133E-02   -0.12321E-02 12480   0.785E-01    0.364E-01
DAV:   4    -0.191326370657E+03    0.11257E-02   -0.35835E-03 11680   0.382E-01    0.172E-01
DAV:   5    -0.191326081903E+03    0.28875E-03   -0.11445E-03 10520   0.210E-01    0.136E-01
DAV:   6    -0.191326043268E+03    0.38635E-04   -0.95880E-04 10480   0.228E-01
   9 F= -.19132604E+03 E0= -.19122959E+03  d E =0.253908E-01
       N       E                     dE             d eps       ncg     rms          rms(c)
DAV:   1    -0.191373220645E+03   -0.47139E-01   -0.36892E+00  8160   0.405E+00    0.481E-01
DAV:   2    -0.191399454592E+03   -0.26234E-01   -0.12529E-01 13520   0.162E+00    0.148E+00
DAV:   3    -0.191378762102E+03    0.20692E-01   -0.57876E-02 11920   0.164E+00    0.473E-01
DAV:   4    -0.191377710442E+03    0.10517E-02   -0.84328E-03 11080   0.585E-01    0.388E-01
DAV:   5    -0.191376355366E+03    0.13551E-02   -0.40856E-03 11080   0.482E-01    0.208E-01
DAV:   6    -0.191375940319E+03    0.41505E-03   -0.14759E-03 10560   0.218E-01    0.112E-01
DAV:   7    -0.191376106923E+03   -0.16660E-03   -0.11269E-03 10600   0.219E-01    0.166E-01
DAV:   8    -0.191375830353E+03    0.27657E-03   -0.65196E-04  8760   0.197E-01    0.599E-02
DAV:   9    -0.191375792779E+03    0.37574E-04   -0.88742E-05  5960   0.573E-02
  10 F= -.19137579E+03 E0= -.19127699E+03  d E =-.497495E-01
       N       E                     dE             d eps       ncg     rms          rms(c)
DAV:   1    -0.191389644196E+03   -0.13814E-01   -0.29035E-01  8160   0.115E+00    0.134E-01
DAV:   2    -0.191391033091E+03   -0.13889E-02   -0.91784E-03 13600   0.451E-01    0.307E-01
DAV:   3    -0.191389987744E+03    0.10453E-02   -0.26397E-03 11600   0.381E-01    0.106E-01
DAV:   4    -0.191389931146E+03    0.56597E-04   -0.47821E-04  8280   0.128E-01
  11 F= -.19138993E+03 E0= -.19129069E+03  d E =-.141384E-01
       N       E                     dE             d eps       ncg     rms          rms(c)
DAV:   1    -0.191351971455E+03    0.38016E-01   -0.60649E+00  8160   0.525E+00    0.688E-01
DAV:   2    -0.191408624048E+03   -0.56653E-01   -0.23282E-01 13600   0.265E+00    0.222E+00
DAV:   3    -0.191358556452E+03    0.50068E-01   -0.10578E-01 12360   0.233E+00    0.619E-01
DAV:   4    -0.191356962275E+03    0.15942E-02   -0.16856E-02 11080   0.831E-01    0.536E-01
DAV:   5    -0.191354599294E+03    0.23630E-02   -0.92624E-03 11520   0.697E-01    0.339E-01
DAV:   6    -0.191353216403E+03    0.13829E-02   -0.37538E-03 11760   0.387E-01    0.152E-01
DAV:   7    -0.191353731937E+03   -0.51553E-03   -0.25951E-03 11960   0.354E-01    0.266E-01
DAV:   8    -0.191352990765E+03    0.74117E-03   -0.14471E-03  9800   0.286E-01    0.623E-02
DAV:   9    -0.191352941740E+03    0.49025E-04   -0.12559E-04  5680   0.610E-02
  12 F= -.19135294E+03 E0= -.19125447E+03  d E =0.369894E-01
       N       E                     dE             d eps       ncg     rms          rms(c)
DAV:   1    -0.191419071529E+03   -0.66081E-01   -0.66064E+00  8160   0.552E+00    0.757E-01
DAV:   2    -0.191469903013E+03   -0.50831E-01   -0.26410E-01 13560   0.275E+00    0.211E+00
DAV:   3    -0.191425078211E+03    0.44825E-01   -0.11244E-01 12280   0.239E+00    0.594E-01
DAV:   4    -0.191425080128E+03   -0.19173E-05   -0.20864E-02 12240   0.934E-01    0.704E-01
DAV:   5    -0.191421039333E+03    0.40408E-02   -0.14858E-02 12160   0.885E-01    0.416E-01
DAV:   6    -0.191419242118E+03    0.17972E-02   -0.55723E-03 11360   0.447E-01    0.199E-01
DAV:   7    -0.191419726651E+03   -0.48453E-03   -0.36679E-03 12080   0.423E-01    0.304E-01
DAV:   8    -0.191418774878E+03    0.95177E-03   -0.18559E-03 10160   0.322E-01    0.733E-02
DAV:   9    -0.191418694676E+03    0.80202E-04   -0.17766E-04  6000   0.713E-02
  13 F= -.19141869E+03 E0= -.19131744E+03  d E =-.657529E-01
       N       E                     dE             d eps       ncg     rms          rms(c)
DAV:   1    -0.191445970775E+03   -0.27196E-01   -0.12432E+00  8160   0.236E+00    0.289E-01
DAV:   2    -0.191456501165E+03   -0.10530E-01   -0.45917E-02 13600   0.105E+00    0.982E-01
DAV:   3    -0.191447501769E+03    0.89994E-02   -0.21499E-02 12200   0.999E-01    0.230E-01
DAV:   4    -0.191447349116E+03    0.15265E-03   -0.20749E-03 11000   0.269E-01    0.210E-01
DAV:   5    -0.191447014993E+03    0.33412E-03   -0.14351E-03 10600   0.286E-01    0.140E-01
DAV:   6    -0.191446896516E+03    0.11848E-03   -0.71952E-04  9960   0.169E-01    0.781E-02
DAV:   7    -0.191446904117E+03   -0.76019E-05   -0.37184E-04  9400   0.135E-01
  14 F= -.19144690E+03 E0= -.19134530E+03  d E =-.282094E-01
       N       E                     dE             d eps       ncg     rms          rms(c)
DAV:   1    -0.191490316194E+03   -0.43420E-01   -0.27392E+00  8160   0.353E+00    0.406E-01
DAV:   2    -0.191505516646E+03   -0.15200E-01   -0.90827E-02 13600   0.138E+00    0.111E+00
DAV:   3    -0.191494502105E+03    0.11015E-01   -0.34871E-02 12200   0.126E+00    0.394E-01
DAV:   4    -0.191493981557E+03    0.52055E-03   -0.58498E-03 11400   0.501E-01    0.342E-01
DAV:   5    -0.191492887679E+03    0.10939E-02   -0.33329E-03 11480   0.438E-01    0.195E-01
DAV:   6    -0.191492624629E+03    0.26305E-03   -0.15427E-03 10080   0.243E-01    0.125E-01
DAV:   7    -0.191492782622E+03   -0.15799E-03   -0.11448E-03 10600   0.247E-01    0.174E-01
DAV:   8    -0.191492433950E+03    0.34867E-03   -0.53832E-04  8680   0.180E-01    0.319E-02
DAV:   9    -0.191492429985E+03    0.39655E-05   -0.59551E-05  5920   0.374E-02
  15 F= -.19149243E+03 E0= -.19139067E+03  d E =-.455259E-01
       N       E                     dE             d eps       ncg     rms          rms(c)
DAV:   1    -0.191464450087E+03    0.27984E-01   -0.10099E+00  8160   0.215E+00    0.242E-01
DAV:   2    -0.191467506439E+03   -0.30564E-02   -0.29214E-02 13400   0.667E-01    0.431E-01
DAV:   3    -0.191465886834E+03    0.16196E-02   -0.72164E-03 12360   0.609E-01    0.269E-01
DAV:   4    -0.191465519662E+03    0.36717E-03   -0.26788E-03 10880   0.328E-01    0.209E-01
DAV:   5    -0.191465166084E+03    0.35358E-03   -0.14045E-03 10000   0.273E-01    0.140E-01
DAV:   6    -0.191465005539E+03    0.16055E-03   -0.67054E-04  8840   0.171E-01    0.683E-02
DAV:   7    -0.191464999078E+03    0.64610E-05   -0.26608E-04  7200   0.104E-01
  16 F= -.19146500E+03 E0= -.19136310E+03  d E =0.274309E-01
       N       E                     dE             d eps       ncg     rms          rms(c)
DAV:   1    -0.191535883873E+03   -0.70878E-01   -0.66206E+00  8160   0.554E+00    0.710E-01
DAV:   2    -0.191575678990E+03   -0.39795E-01   -0.24608E-01 13440   0.240E+00    0.192E+00
DAV:   3    -0.191544135269E+03    0.31544E-01   -0.10449E-01 11960   0.214E+00    0.654E-01
DAV:   4    -0.191543621680E+03    0.51359E-03   -0.20457E-02 12280   0.100E+00    0.699E-01
DAV:   5    -0.191538711515E+03    0.49102E-02   -0.12591E-02 11960   0.853E-01    0.325E-01
DAV:   6    -0.191537836953E+03    0.87456E-03   -0.50727E-03 11000   0.405E-01    0.214E-01
DAV:   7    -0.191538011058E+03   -0.17410E-03   -0.33264E-03 12000   0.418E-01    0.267E-01
DAV:   8    -0.191537226016E+03    0.78504E-03   -0.14145E-03  9960   0.284E-01    0.603E-02
DAV:   9    -0.191537173261E+03    0.52755E-04   -0.15433E-04  5720   0.612E-02
  17 F= -.19153717E+03 E0= -.19143581E+03  d E =-.721742E-01
       N       E                     dE             d eps       ncg     rms          rms(c)
DAV:   1    -0.191571876052E+03   -0.34650E-01   -0.16410E+00  8160   0.272E+00    0.285E-01
DAV:   2    -0.191577434473E+03   -0.55584E-02   -0.47682E-02 12920   0.817E-01    0.594E-01
DAV:   3    -0.191574851353E+03    0.25831E-02   -0.13415E-02 12200   0.785E-01    0.333E-01
DAV:   4    -0.191573907689E+03    0.94366E-03   -0.24851E-03 11160   0.309E-01    0.158E-01
DAV:   5    -0.191573813947E+03    0.93742E-04   -0.13329E-03 10480   0.256E-01    0.168E-01
DAV:   6    -0.191573720256E+03    0.93691E-04   -0.11993E-03 10600   0.248E-01    0.120E-01
DAV:   7    -0.191573569991E+03    0.15027E-03   -0.41935E-04  8360   0.133E-01    0.569E-02
DAV:   8    -0.191573542687E+03    0.27304E-04   -0.10452E-04  6800   0.833E-02
  18 F= -.19157354E+03 E0= -.19147331E+03  d E =-.363694E-01
       N       E                     dE             d eps       ncg     rms          rms(c)
DAV:   1    -0.191602504214E+03   -0.28934E-01   -0.10859E+00  8160   0.222E+00    0.231E-01
DAV:   2    -0.191605309090E+03   -0.28049E-02   -0.30416E-02 12640   0.602E-01    0.383E-01
DAV:   3    -0.191604643572E+03    0.66552E-03   -0.73533E-03 12040   0.589E-01    0.305E-01
DAV:   4    -0.191603832904E+03    0.81067E-03   -0.20531E-03 10720   0.303E-01    0.139E-01
DAV:   5    -0.191603716999E+03    0.11591E-03   -0.82200E-04  9960   0.214E-01    0.122E-01
DAV:   6    -0.191603656654E+03    0.60345E-04   -0.62896E-04  9400   0.179E-01
  19 F= -.19160366E+03 E0= -.19150484E+03  d E =-.301140E-01
       N       E                     dE             d eps       ncg     rms          rms(c)
DAV:   1    -0.191581760302E+03    0.21957E-01   -0.64277E-01  8160   0.173E+00    0.213E-01
DAV:   2    -0.191584765681E+03   -0.30054E-02   -0.23717E-02 12280   0.697E-01    0.474E-01
DAV:   3    -0.191582676903E+03    0.20888E-02   -0.67846E-03 12240   0.615E-01    0.204E-01
DAV:   4    -0.191582244836E+03    0.43207E-03   -0.14122E-03  9880   0.240E-01    0.119E-01
DAV:   5    -0.191582292807E+03   -0.47972E-04   -0.96234E-04 10400   0.229E-01
  20 F= -.19158229E+03 E0= -.19148228E+03  d E =0.213638E-01
       N       E                     dE             d eps       ncg     rms          rms(c)
DAV:   1    -0.191648472426E+03   -0.66228E-01   -0.67035E+00  8160   0.554E+00    0.643E-01
DAV:   2    -0.191674885230E+03   -0.26413E-01   -0.21731E-01 12720   0.189E+00    0.149E+00
DAV:   3    -0.191658631751E+03    0.16253E-01   -0.73448E-02 12000   0.179E+00    0.651E-01
DAV:   4    -0.191654320664E+03    0.43111E-02   -0.11828E-02 12240   0.661E-01    0.352E-01
DAV:   5    -0.191653493034E+03    0.82763E-03   -0.66636E-03 10640   0.575E-01    0.359E-01
DAV:   6    -0.191652788266E+03    0.70477E-03   -0.56981E-03 11240   0.547E-01    0.240E-01
DAV:   7    -0.191652248421E+03    0.53984E-03   -0.19783E-03 11040   0.301E-01    0.144E-01
DAV:   8    -0.191652026656E+03    0.22177E-03   -0.58185E-04  9840   0.188E-01    0.642E-02
DAV:   9    -0.191651975669E+03    0.50987E-04   -0.14655E-04  6760   0.775E-02
  21 F= -.19165198E+03 E0= -.19155443E+03  d E =-.696829E-01
       N       E                     dE             d eps       ncg     rms          rms(c)
DAV:   1    -0.191695832564E+03   -0.43806E-01   -0.28269E+00  8160   0.359E+00    0.370E-01
DAV:   2    -0.191702102242E+03   -0.62697E-02   -0.86742E-02 12040   0.892E-01    0.397E-01
DAV:   3    -0.191703653507E+03   -0.15513E-02   -0.13344E-02 12360   0.851E-01    0.590E-01
DAV:   4    -0.191700286931E+03    0.33666E-02   -0.69154E-03 12200   0.612E-01    0.190E-01
DAV:   5    -0.191700154780E+03    0.13215E-03   -0.20656E-03 10320   0.286E-01    0.187E-01
DAV:   6    -0.191700224511E+03   -0.69732E-04   -0.21562E-03 11920   0.339E-01    0.190E-01
DAV:   7    -0.191699790398E+03    0.43411E-03   -0.78963E-04  9040   0.200E-01    0.495E-02
DAV:   8    -0.191699777453E+03    0.12945E-04   -0.12548E-04  5920   0.836E-02
  22 F= -.19169978E+03 E0= -.19160488E+03  d E =-.478018E-01
       N       E                     dE             d eps       ncg     rms          rms(c)
DAV:   1    -0.191725336291E+03   -0.25546E-01   -0.89190E-01  8160   0.203E+00    0.218E-01
DAV:   2    -0.191726814245E+03   -0.14780E-02   -0.27380E-02 12120   0.433E-01    0.137E-01
DAV:   3    -0.191727067153E+03   -0.25291E-03   -0.23568E-03 12400   0.301E-01    0.230E-01
DAV:   4    -0.191726556041E+03    0.51111E-03   -0.16193E-03 10360   0.316E-01    0.126E-01
DAV:   5    -0.191726442919E+03    0.11312E-03   -0.64657E-04  9360   0.161E-01    0.779E-02
DAV:   6    -0.191726493386E+03   -0.50467E-04   -0.43089E-04  9000   0.156E-01
  23 F= -.19172649E+03 E0= -.19163280E+03  d E =-.267159E-01
       N       E                     dE             d eps       ncg     rms          rms(c)
DAV:   1    -0.191812680096E+03   -0.86237E-01   -0.17319E+01  8160   0.893E+00    0.915E-01
DAV:   2    -0.191849664467E+03   -0.36984E-01   -0.53126E-01 11560   0.206E+00    0.844E-01
DAV:   3    -0.191860966239E+03   -0.11302E-01   -0.66366E-02 12240   0.201E+00    0.143E+00
DAV:   4    -0.191840266089E+03    0.20700E-01   -0.37336E-02 12040   0.156E+00    0.447E-01
DAV:   5    -0.191839165059E+03    0.11010E-02   -0.10455E-02 12000   0.670E-01    0.431E-01
DAV:   6    -0.191839602324E+03   -0.43727E-03   -0.11534E-02 12760   0.846E-01    0.450E-01
DAV:   7    -0.191836977786E+03    0.26245E-02   -0.42369E-03 11320   0.495E-01    0.121E-01
DAV:   8    -0.191836897917E+03    0.79868E-04   -0.70524E-04 10880   0.195E-01
  24 F= -.19183690E+03 E0= -.19174976E+03  d E =-.110405E+00
       N       E                     dE             d eps       ncg     rms          rms(c)
DAV:   1    -0.191881302408E+03   -0.44325E-01   -0.39991E+00  8160   0.432E+00    0.508E-01
DAV:   2    -0.191888955478E+03   -0.76531E-02   -0.14009E-01 12040   0.105E+00    0.390E-01
DAV:   3    -0.191891283039E+03   -0.23276E-02   -0.17410E-02 12320   0.942E-01    0.660E-01
DAV:   4    -0.191886696043E+03    0.45870E-02   -0.96861E-03 12080   0.818E-01    0.274E-01
DAV:   5    -0.191886292316E+03    0.40373E-03   -0.33222E-03 10360   0.406E-01    0.243E-01
DAV:   6    -0.191886107240E+03    0.18508E-03   -0.25009E-03 12720   0.419E-01    0.195E-01
DAV:   7    -0.191885595060E+03    0.51218E-03   -0.94328E-04  9840   0.224E-01    0.577E-02
DAV:   8    -0.191885589595E+03    0.54645E-05   -0.23595E-04  8240   0.109E-01
  25 F= -.19188559E+03 E0= -.19180162E+03  d E =-.486917E-01
       N       E                     dE             d eps       ncg     rms          rms(c)
DAV:   1    -0.191939966900E+03   -0.54372E-01   -0.12433E+01  8160   0.753E+00    0.781E-01
DAV:   2    -0.191972988235E+03   -0.33021E-01   -0.39449E-01 11560   0.194E+00    0.944E-01
DAV:   3    -0.191972356493E+03    0.63174E-03   -0.48360E-02 10920   0.183E+00    0.102E+00
DAV:   4    -0.191961821003E+03    0.10535E-01   -0.21217E-02 11880   0.119E+00    0.397E-01
DAV:   5    -0.191961065983E+03    0.75502E-03   -0.78780E-03 12000   0.709E-01    0.376E-01
DAV:   6    -0.191960449331E+03    0.61665E-03   -0.53318E-03 12560   0.579E-01    0.253E-01
DAV:   7    -0.191959356680E+03    0.10927E-02   -0.19246E-03 11160   0.259E-01    0.657E-02
DAV:   8    -0.191959392222E+03   -0.35541E-04   -0.33936E-04  9480   0.138E-01
  26 F= -.19195939E+03 E0= -.19188121E+03  d E =-.738026E-01
       N       E                     dE             d eps       ncg     rms          rms(c)
DAV:   1    -0.191977554425E+03   -0.18198E-01   -0.95955E-01  8160   0.210E+00    0.258E-01
DAV:   2    -0.191981039905E+03   -0.34855E-02   -0.39911E-02 12640   0.685E-01    0.364E-01
DAV:   3    -0.191980574675E+03    0.46523E-03   -0.62873E-03 12320   0.659E-01    0.320E-01
DAV:   4    -0.191979440714E+03    0.11340E-02   -0.17877E-03 11800   0.352E-01    0.104E-01
DAV:   5    -0.191979521707E+03   -0.80993E-04   -0.70119E-04 10720   0.218E-01
  27 F= -.19197952E+03 E0= -.19190250E+03  d E =-.201295E-01
       N       E                     dE             d eps       ncg     rms          rms(c)
DAV:   1    -0.192001148228E+03   -0.21708E-01   -0.14545E+00  8160   0.257E+00    0.296E-01
DAV:   2    -0.192004599312E+03   -0.34511E-02   -0.44924E-02 12160   0.713E-01    0.369E-01
DAV:   3    -0.192004585913E+03    0.13400E-04   -0.70938E-03 12360   0.716E-01    0.380E-01
DAV:   4    -0.192002944611E+03    0.16413E-02   -0.24233E-03 11600   0.409E-01    0.118E-01
DAV:   5    -0.192003125398E+03   -0.18079E-03   -0.95594E-04 10880   0.258E-01    0.166E-01
DAV:   6    -0.192002872970E+03    0.25243E-03   -0.74738E-04 10520   0.236E-01    0.703E-02
DAV:   7    -0.192002777113E+03    0.95858E-04   -0.13540E-04  6560   0.776E-02
  28 F= -.19200278E+03 E0= -.19192770E+03  d E =-.232554E-01
       N       E                     dE             d eps       ncg     rms          rms(c)
DAV:   1    -0.192019857261E+03   -0.16984E-01   -0.93007E-01  8160   0.206E+00    0.249E-01
DAV:   2    -0.192023093687E+03   -0.32364E-02   -0.34476E-02 12240   0.758E-01    0.390E-01
DAV:   3    -0.192021803315E+03    0.12904E-02   -0.50690E-03 12280   0.617E-01    0.228E-01
DAV:   4    -0.192021330886E+03    0.47243E-03   -0.15728E-03 10400   0.316E-01    0.152E-01
DAV:   5    -0.192021258233E+03    0.72653E-04   -0.96844E-04 10600   0.269E-01
  29 F= -.19202126E+03 E0= -.19194793E+03  d E =-.184811E-01
       N       E                     dE             d eps       ncg     rms          rms(c)
DAV:   1    -0.192044973982E+03   -0.23643E-01   -0.22314E+00  8160   0.318E+00    0.357E-01
DAV:   2    -0.192050770562E+03   -0.57966E-02   -0.68345E-02 12280   0.903E-01    0.472E-01
DAV:   3    -0.192049955847E+03    0.81472E-03   -0.94795E-03 11000   0.855E-01    0.410E-01
DAV:   4    -0.192048174280E+03    0.17816E-02   -0.31728E-03 11600   0.479E-01    0.174E-01
DAV:   5    -0.192048257320E+03   -0.83040E-04   -0.16243E-03 10720   0.351E-01    0.192E-01
DAV:   6    -0.192047919362E+03    0.33796E-03   -0.90582E-04 10480   0.237E-01    0.627E-02
DAV:   7    -0.192047843827E+03    0.75535E-04   -0.15954E-04  6840   0.809E-02
  30 F= -.19204784E+03 E0= -.19197699E+03  d E =-.265856E-01
       N       E                     dE             d eps       ncg     rms          rms(c)
DAV:   1    -0.192059300832E+03   -0.11381E-01   -0.46938E-01  8160   0.148E+00    0.185E-01
DAV:   2    -0.192060262458E+03   -0.96163E-03   -0.16807E-02 12200   0.415E-01    0.180E-01
DAV:   3    -0.192060413386E+03   -0.15093E-03   -0.23983E-03 12000   0.399E-01    0.226E-01
DAV:   4    -0.192059845854E+03    0.56753E-03   -0.10438E-03 11360   0.298E-01    0.962E-02
DAV:   5    -0.192059771494E+03    0.74359E-04   -0.38575E-04  8960   0.141E-01
  31 F= -.19205977E+03 E0= -.19198961E+03  d E =-.119277E-01
       N       E                     dE             d eps       ncg     rms          rms(c)
DAV:   1    -0.192081283357E+03   -0.21438E-01   -0.22250E+00  8160   0.317E+00    0.338E-01
DAV:   2    -0.192085341156E+03   -0.40578E-02   -0.65067E-02 12160   0.725E-01    0.252E-01
DAV:   3    -0.192087111551E+03   -0.17704E-02   -0.62578E-03 12360   0.687E-01    0.479E-01
DAV:   4    -0.192084451220E+03    0.26603E-02   -0.33485E-03 12240   0.559E-01    0.132E-01
DAV:   5    -0.192084684732E+03   -0.23351E-03   -0.12631E-03 10520   0.267E-01    0.179E-01
DAV:   6    -0.192084421716E+03    0.26302E-03   -0.94874E-04 11440   0.275E-01    0.978E-02
DAV:   7    -0.192084272187E+03    0.14953E-03   -0.22767E-04  7760   0.114E-01    0.259E-02
DAV:   8    -0.192084277384E+03   -0.51971E-05   -0.55494E-05  7920   0.570E-02
  32 F= -.19208428E+03 E0= -.19201598E+03  d E =-.245059E-01
       N       E                     dE             d eps       ncg     rms          rms(c)
DAV:   1    -0.192103319651E+03   -0.19047E-01   -0.22086E+00  8160   0.315E+00    0.355E-01
DAV:   2    -0.192108705802E+03   -0.53862E-02   -0.74520E-02 12160   0.917E-01    0.376E-01
DAV:   3    -0.192108698038E+03    0.77647E-05   -0.87116E-03 12360   0.779E-01    0.395E-01
DAV:   4    -0.192106947433E+03    0.17506E-02   -0.35224E-03 11360   0.518E-01    0.181E-01
DAV:   5    -0.192106884121E+03    0.63312E-04   -0.16004E-03 12120   0.317E-01    0.186E-01
DAV:   6    -0.192106690382E+03    0.19374E-03   -0.10821E-03 11080   0.284E-01    0.111E-01
DAV:   7    -0.192106515520E+03    0.17486E-03   -0.32867E-04  8960   0.119E-01    0.271E-02
DAV:   8    -0.192106510376E+03    0.51441E-05   -0.57198E-05  7280   0.385E-02
  33 F= -.19210651E+03 E0= -.19204010E+03  d E =-.222330E-01
       N       E                     dE             d eps       ncg     rms          rms(c)
DAV:   1    -0.192117132020E+03   -0.10617E-01   -0.74428E-01  8160   0.184E+00    0.216E-01
DAV:   2    -0.192119146051E+03   -0.20140E-02   -0.26550E-02 12480   0.549E-01    0.260E-01
DAV:   3    -0.192119058334E+03    0.87717E-04   -0.37624E-03 12040   0.517E-01    0.261E-01
DAV:   4    -0.192118285733E+03    0.77260E-03   -0.14323E-03 11360   0.310E-01    0.988E-02
DAV:   5    -0.192118255408E+03    0.30325E-04   -0.61302E-04 10000   0.179E-01
  34 F= -.19211826E+03 E0= -.19205242E+03  d E =-.117450E-01
       N       E                     dE             d eps       ncg     rms          rms(c)
DAV:   1    -0.192128975383E+03   -0.10690E-01   -0.91188E-01  8160   0.203E+00    0.224E-01
DAV:   2    -0.192130947898E+03   -0.19725E-02   -0.28764E-02 12200   0.520E-01    0.214E-01
DAV:   3    -0.192131517092E+03   -0.56919E-03   -0.38647E-03 11720   0.524E-01    0.313E-01
DAV:   4    -0.192130304061E+03    0.12130E-02   -0.14874E-03 10400   0.346E-01    0.687E-02
DAV:   5    -0.192130475922E+03   -0.17186E-03   -0.51508E-04 10240   0.161E-01    0.122E-01
DAV:   6    -0.192130311123E+03    0.16480E-03   -0.34418E-04  9600   0.173E-01    0.513E-02
DAV:   7    -0.192130285393E+03    0.25731E-04   -0.82572E-05  6480   0.711E-02
  35 F= -.19213029E+03 E0= -.19206540E+03  d E =-.120300E-01
       N       E                     dE             d eps       ncg     rms          rms(c)
DAV:   1    -0.192144457582E+03   -0.14146E-01   -0.24942E+00  8160   0.335E+00    0.386E-01
DAV:   2    -0.192150405838E+03   -0.59483E-02   -0.87983E-02 12320   0.989E-01    0.383E-01
DAV:   3    -0.192150436401E+03   -0.30564E-04   -0.97651E-03 12480   0.811E-01    0.412E-01
DAV:   4    -0.192148411857E+03    0.20245E-02   -0.40765E-03 12000   0.563E-01    0.185E-01
DAV:   5    -0.192148284889E+03    0.12697E-03   -0.19723E-03 12360   0.298E-01    0.176E-01
DAV:   6    -0.192148213796E+03    0.71093E-04   -0.13315E-03 11600   0.314E-01    0.148E-01
DAV:   7    -0.192147936732E+03    0.27706E-03   -0.44689E-04  9240   0.169E-01    0.331E-02
DAV:   8    -0.192147929535E+03    0.71968E-05   -0.69243E-05  6560   0.480E-02
  36 F= -.19214793E+03 E0= -.19208450E+03  d E =-.176441E-01
       N       E                     dE             d eps       ncg     rms          rms(c)
DAV:   1    -0.192159316097E+03   -0.11379E-01   -0.50339E+00  8160   0.475E+00    0.499E-01
DAV:   2    -0.192170518377E+03   -0.11202E-01   -0.16122E-01 12200   0.115E+00    0.388E-01
DAV:   3    -0.192172487460E+03   -0.19691E-02   -0.14721E-02 12600   0.941E-01    0.617E-01
DAV:   4    -0.192168495903E+03    0.39916E-02   -0.76693E-03 12440   0.801E-01    0.249E-01
DAV:   5    -0.192167712049E+03    0.78385E-03   -0.27478E-03 11120   0.297E-01    0.130E-01
DAV:   6    -0.192167894880E+03   -0.18283E-03   -0.14536E-03 12760   0.253E-01    0.170E-01
DAV:   7    -0.192167553712E+03    0.34117E-03   -0.57721E-04 10320   0.223E-01    0.493E-02
DAV:   8    -0.192167528210E+03    0.25502E-04   -0.67439E-05  6480   0.607E-02
  37 F= -.19216753E+03 E0= -.19210530E+03  d E =-.195987E-01
       N       E                     dE             d eps       ncg     rms          rms(c)
DAV:   1    -0.192173243537E+03   -0.56898E-02   -0.15681E+00  8160   0.265E+00    0.294E-01
DAV:   2    -0.192178041748E+03   -0.47982E-02   -0.55622E-02 12560   0.827E-01    0.379E-01
DAV:   3    -0.192177480175E+03    0.56157E-03   -0.70838E-03 12720   0.732E-01    0.336E-01
DAV:   4    -0.192176221651E+03    0.12585E-02   -0.24997E-03 11800   0.415E-01    0.134E-01
DAV:   5    -0.192176163949E+03    0.57702E-04   -0.99652E-04 11480   0.234E-01
  38 F= -.19217616E+03 E0= -.19211446E+03  d E =-.863574E-02
       N       E                     dE             d eps       ncg     rms          rms(c)
DAV:   1    -0.192178773085E+03   -0.25514E-02   -0.26976E-01  8160   0.112E+00    0.158E-01
DAV:   2    -0.192180413526E+03   -0.16404E-02   -0.10710E-02 13400   0.490E-01    0.325E-01
DAV:   3    -0.192179092810E+03    0.13207E-02   -0.24513E-03 11760   0.443E-01    0.113E-01
DAV:   4    -0.192179053342E+03    0.39468E-04   -0.45621E-04  9360   0.164E-01
  39 F= -.19217905E+03 E0= -.19211762E+03  d E =-.288939E-02
       N       E                     dE             d eps       ncg     rms          rms(c)
DAV:   1    -0.192181731840E+03   -0.26390E-02   -0.32407E+00  8160   0.381E+00    0.430E-01
DAV:   2    -0.192191179596E+03   -0.94478E-02   -0.11061E-01 12480   0.111E+00    0.539E-01
DAV:   3    -0.192190413143E+03    0.76645E-03   -0.15859E-02 11640   0.110E+00    0.515E-01
DAV:   4    -0.192187259384E+03    0.31538E-02   -0.49227E-03 12280   0.579E-01    0.170E-01
DAV:   5    -0.192187161621E+03    0.97763E-04   -0.21874E-03 11560   0.307E-01    0.179E-01
DAV:   6    -0.192187180925E+03   -0.19304E-04   -0.15445E-03 12840   0.338E-01    0.165E-01
DAV:   7    -0.192186802424E+03    0.37850E-03   -0.58605E-04 10440   0.190E-01    0.436E-02
DAV:   8    -0.192186800686E+03    0.17376E-05   -0.76864E-05  7200   0.752E-02
  40 F= -.19218680E+03 E0= -.19212581E+03  d E =-.774734E-02
       N       E                     dE             d eps       ncg     rms          rms(c)
DAV:   1    -0.192187521088E+03   -0.71866E-03   -0.52947E-02  8480   0.493E-01    0.787E-02
DAV:   2    -0.192188023452E+03   -0.50236E-03   -0.33271E-03 12840   0.299E-01    0.179E-01
DAV:   3    -0.192187666245E+03    0.35721E-03   -0.71645E-04 10880   0.243E-01    0.553E-02
DAV:   4    -0.192187636102E+03    0.30142E-04   -0.81746E-05  6240   0.708E-02
  41 F= -.19218764E+03 E0= -.19212655E+03  d E =-.835416E-03
       N       E                     dE             d eps       ncg     rms          rms(c)
DAV:   1    -0.192188379849E+03   -0.71360E-03   -0.12158E+00  8160   0.234E+00    0.254E-01
DAV:   2    -0.192191630688E+03   -0.32508E-02   -0.43878E-02 12160   0.627E-01    0.232E-01
DAV:   3    -0.192192013522E+03   -0.38283E-03   -0.45201E-03 12640   0.548E-01    0.321E-01
DAV:   4    -0.192190842360E+03    0.11712E-02   -0.19601E-03 10760   0.404E-01    0.112E-01
DAV:   5    -0.192190701186E+03    0.14117E-03   -0.71800E-04 10560   0.132E-01    0.667E-02
DAV:   6    -0.192190662996E+03    0.38190E-04   -0.31475E-04  8400   0.682E-02
  42 F= -.19219066E+03 E0= -.19212978E+03  d E =-.302689E-02
       N       E                     dE             d eps       ncg     rms          rms(c)
DAV:   1    -0.192189801364E+03    0.89982E-03   -0.17721E-01  8160   0.893E-01    0.978E-02
DAV:   2    -0.192190375409E+03   -0.57405E-03   -0.57786E-03 13040   0.282E-01    0.151E-01
DAV:   3    -0.192190162412E+03    0.21300E-03   -0.88035E-04 11240   0.253E-01    0.100E-01
DAV:   4    -0.192190061673E+03    0.10074E-03   -0.23639E-04  8600   0.126E-01    0.493E-02
DAV:   5    -0.192190034615E+03    0.27058E-04   -0.92817E-05  6720   0.762E-02
  43 F= -.19219003E+03 E0= -.19212915E+03  d E =0.628382E-03
