<?xml version="1.0" encoding="ISO-8859-1"?>
<modeling>
 <generator>
  <i name="program" type="string">vasp </i>
  <i name="version" type="string">5.4.1  </i>
  <i name="subversion" type="string">05Feb16 (build Jul 05 2020 17:13:04) complex                          parallel </i>
  <i name="platform" type="string">IFC91_ompi </i>
  <i name="date" type="string">2024 04 24 </i>
  <i name="time" type="string">11:05:38 </i>
 </generator>
 <incar>
  <i type="int" name="ISTART">     0</i>
  <i type="string" name="PREC">normal</i>
  <i type="string" name="ALGO"> Normal</i>
  <i type="int" name="ISPIN">     1</i>
  <i type="int" name="ICHARG">     2</i>
  <i type="int" name="IBRION">     1</i>
  <i type="int" name="NSW">   100</i>
  <i type="int" name="ISIF">     3</i>
  <i type="int" name="ISYM">     0</i>
  <i name="SYMPREC">      0.00000001</i>
  <i name="POTIM">      0.50000000</i>
  <i type="logical" name="LREAL"> F  </i>
  <i type="logical" name="LPLANE"> F  </i>
  <i type="int" name="ISMEAR">     0</i>
  <i type="logical" name="LWAVE"> F  </i>
  <i type="logical" name="LCHARG"> F  </i>
  <v type="int" name="KPOINT_BSE">    -1     0     0     0</v>
 </incar>
 <kpoints>
  <generation param="Gamma">
   <v type="int" name="divisions">       8        8        1 </v>
   <v name="usershift">      0.00000000       0.00000000       0.00000000 </v>
   <v name="genvec1">      0.12500000       0.00000000       0.00000000 </v>
   <v name="genvec2">     -0.00000000       0.12500000       0.00000000 </v>
   <v name="genvec3">      0.00000000       0.00000000       1.00000000 </v>
   <v name="shift">      0.00000000       0.00000000       0.00000000 </v>
  </generation>
  <varray name="kpointlist" >
   <v>       0.00000000       0.00000000       0.00000000 </v>
   <v>       0.12500000       0.00000000       0.00000000 </v>
   <v>       0.25000000       0.00000000       0.00000000 </v>
   <v>       0.37500000       0.00000000       0.00000000 </v>
   <v>       0.50000000       0.00000000       0.00000000 </v>
   <v>       0.00000000       0.12500000       0.00000000 </v>
   <v>       0.12500000       0.12500000       0.00000000 </v>
   <v>       0.25000000       0.12500000       0.00000000 </v>
   <v>       0.37500000       0.12500000       0.00000000 </v>
   <v>       0.50000000       0.12500000       0.00000000 </v>
   <v>      -0.37500000       0.12500000       0.00000000 </v>
   <v>      -0.25000000       0.12500000       0.00000000 </v>
   <v>      -0.12500000       0.12500000       0.00000000 </v>
   <v>       0.00000000       0.25000000       0.00000000 </v>
   <v>       0.12500000       0.25000000       0.00000000 </v>
   <v>       0.25000000       0.25000000       0.00000000 </v>
   <v>       0.37500000       0.25000000       0.00000000 </v>
   <v>       0.50000000       0.25000000       0.00000000 </v>
   <v>      -0.37500000       0.25000000       0.00000000 </v>
   <v>      -0.25000000       0.25000000       0.00000000 </v>
   <v>      -0.12500000       0.25000000       0.00000000 </v>
   <v>      -0.00000000       0.37500000       0.00000000 </v>
   <v>       0.12500000       0.37500000       0.00000000 </v>
   <v>       0.25000000       0.37500000       0.00000000 </v>
   <v>       0.37500000       0.37500000       0.00000000 </v>
   <v>       0.50000000       0.37500000       0.00000000 </v>
   <v>      -0.37500000       0.37500000       0.00000000 </v>
   <v>      -0.25000000       0.37500000       0.00000000 </v>
   <v>      -0.12500000       0.37500000       0.00000000 </v>
   <v>       0.00000000       0.50000000       0.00000000 </v>
   <v>       0.12500000       0.50000000       0.00000000 </v>
   <v>       0.25000000       0.50000000       0.00000000 </v>
   <v>       0.37500000       0.50000000       0.00000000 </v>
   <v>       0.50000000       0.50000000       0.00000000 </v>
  </varray>
  <varray name="weights" >
   <v>       0.01562500 </v>
   <v>       0.03125000 </v>
   <v>       0.03125000 </v>
   <v>       0.03125000 </v>
   <v>       0.01562500 </v>
   <v>       0.03125000 </v>
   <v>       0.03125000 </v>
   <v>       0.03125000 </v>
   <v>       0.03125000 </v>
   <v>       0.03125000 </v>
   <v>       0.03125000 </v>
   <v>       0.03125000 </v>
   <v>       0.03125000 </v>
   <v>       0.03125000 </v>
   <v>       0.03125000 </v>
   <v>       0.03125000 </v>
   <v>       0.03125000 </v>
   <v>       0.03125000 </v>
   <v>       0.03125000 </v>
   <v>       0.03125000 </v>
   <v>       0.03125000 </v>
   <v>       0.03125000 </v>
   <v>       0.03125000 </v>
   <v>       0.03125000 </v>
   <v>       0.03125000 </v>
   <v>       0.03125000 </v>
   <v>       0.03125000 </v>
   <v>       0.03125000 </v>
   <v>       0.03125000 </v>
   <v>       0.01562500 </v>
   <v>       0.03125000 </v>
   <v>       0.03125000 </v>
   <v>       0.03125000 </v>
   <v>       0.01562500 </v>
  </varray>
 </kpoints>
 <parameters>
  <separator name="general" >
   <i type="string" name="SYSTEM">unknown system</i>
   <i type="logical" name="LCOMPAT"> F  </i>
  </separator>
  <separator name="electronic" >
   <i type="string" name="PREC">normal</i>
   <i name="ENMAX">    280.00000000</i>
   <i name="ENAUG">    373.43800000</i>
   <i name="EDIFF">      0.00010000</i>
   <i type="int" name="IALGO">    38</i>
   <i type="int" name="IWAVPR">    11</i>
   <i type="int" name="NBANDS">   120</i>
   <i name="NELECT">    159.00000000</i>
   <i type="int" name="TURBO">     0</i>
   <i type="int" name="IRESTART">     0</i>
   <i type="int" name="NREBOOT">     0</i>
   <i type="int" name="NMIN">     0</i>
   <i name="EREF">      0.00000000</i>
   <separator name="electronic smearing" >
    <i type="int" name="ISMEAR">     0</i>
    <i name="SIGMA">      0.20000000</i>
    <i name="KSPACING">      0.50000000</i>
    <i type="logical" name="KGAMMA"> T  </i>
   </separator>
   <separator name="electronic projectors" >
    <i type="logical" name="LREAL"> F  </i>
    <v name="ROPT">      0.00000000      0.00000000      0.00000000      0.00000000</v>
    <i type="int" name="LMAXPAW">  -100</i>
    <i type="int" name="LMAXMIX">     2</i>
    <i type="logical" name="NLSPLINE"> F  </i>
   </separator>
   <separator name="electronic startup" >
    <i type="int" name="ISTART">     0</i>
    <i type="int" name="ICHARG">     2</i>
    <i type="int" name="INIWAV">     1</i>
   </separator>
   <separator name="electronic spin" >
    <i type="int" name="ISPIN">     1</i>
    <i type="logical" name="LNONCOLLINEAR"> F  </i>
    <v name="MAGMOM">      1.00000000      1.00000000      1.00000000      1.00000000      1.00000000      1.00000000      1.00000000      1.00000000      1.00000000      1.00000000      1.00000000      1.00000000      1.00000000      1.00000000      1.00000000      1.00000000      1.00000000      1.00000000      1.00000000      1.00000000
      1.00000000      1.00000000      1.00000000      1.00000000      1.00000000      1.00000000      1.00000000</v>
    <i name="NUPDOWN">     -1.00000000</i>
    <i type="logical" name="LSORBIT"> F  </i>
    <v name="SAXIS">      0.00000000      0.00000000      1.00000000</v>
    <i type="logical" name="LSPIRAL"> F  </i>
    <v name="QSPIRAL">      0.00000000      0.00000000      0.00000000</v>
    <i type="logical" name="LZEROZ"> F  </i>
   </separator>
   <separator name="electronic exchange-correlation" >
    <i type="logical" name="LASPH"> F  </i>
    <i type="logical" name="LMETAGGA"> F  </i>
   </separator>
   <separator name="electronic convergence" >
    <i type="int" name="NELM">    60</i>
    <i type="int" name="NELMDL">    -5</i>
    <i type="int" name="NELMIN">     2</i>
    <i name="ENINI">    280.00000000</i>
    <separator name="electronic convergence detail" >
     <i type="logical" name="LDIAG"> T  </i>
     <i type="logical" name="LSUBROT"> F  </i>
     <i name="WEIMIN">      0.00100000</i>
     <i name="EBREAK">      0.00000021</i>
     <i name="DEPER">      0.30000000</i>
     <i type="int" name="NRMM">     4</i>
     <i name="TIME">      0.40000000</i>
    </separator>
   </separator>
   <separator name="electronic mixer" >
    <i name="AMIX">      0.40000000</i>
    <i name="BMIX">      1.00000000</i>
    <i name="AMIN">      0.10000000</i>
    <i name="AMIX_MAG">      1.60000000</i>
    <i name="BMIX_MAG">      1.00000000</i>
    <separator name="electronic mixer details" >
     <i type="int" name="IMIX">     4</i>
     <i type="logical" name="MIXFIRST"> F  </i>
     <i type="int" name="MAXMIX">   -45</i>
     <i name="WC">    100.00000000</i>
     <i type="int" name="INIMIX">     1</i>
     <i type="int" name="MIXPRE">     1</i>
     <i type="int" name="MREMOVE">     5</i>
    </separator>
   </separator>
   <separator name="electronic dipolcorrection" >
    <i type="logical" name="LDIPOL"> F  </i>
    <i type="logical" name="LMONO"> F  </i>
    <i type="int" name="IDIPOL">     0</i>
    <i name="EPSILON">      1.00000000</i>
    <v name="DIPOL">   -100.00000000   -100.00000000   -100.00000000</v>
    <i name="EFIELD">      0.00000000</i>
   </separator>
  </separator>
  <separator name="grids" >
   <i type="int" name="NGX">    42</i>
   <i type="int" name="NGY">    42</i>
   <i type="int" name="NGZ">   126</i>
   <i type="int" name="NGXF">    84</i>
   <i type="int" name="NGYF">    84</i>
   <i type="int" name="NGZF">   252</i>
   <i type="logical" name="ADDGRID"> F  </i>
  </separator>
  <separator name="ionic" >
   <i type="int" name="NSW">   100</i>
   <i type="int" name="IBRION">     1</i>
   <i type="int" name="ISIF">     3</i>
   <i name="PSTRESS">      0.00000000</i>
   <i name="EDIFFG">      0.00100000</i>
   <i type="int" name="NFREE">     0</i>
   <i name="POTIM">      0.50000000</i>
   <i name="SMASS">     -3.00000000</i>
   <i name="SCALEE">      1.00000000</i>
  </separator>
  <separator name="ionic md" >
   <i name="TEBEG">      0.00010000</i>
   <i name="TEEND">      0.00010000</i>
   <i type="int" name="NBLOCK">     1</i>
   <i type="int" name="KBLOCK">   100</i>
   <i type="int" name="NPACO">   256</i>
   <i name="APACO">     16.00000000</i>
  </separator>
  <separator name="symmetry" >
   <i type="int" name="ISYM">     0</i>
   <i name="SYMPREC">      0.00000001</i>
  </separator>
  <separator name="dos" >
   <i type="logical" name="LORBIT"> F  </i>
   <v name="RWIGS">     -1.00000000     -1.00000000     -1.00000000     -1.00000000</v>
   <i type="int" name="NEDOS">   301</i>
   <i name="EMIN">     10.00000000</i>
   <i name="EMAX">    -10.00000000</i>
   <i name="EFERMI">      0.00000000</i>
  </separator>
  <separator name="writing" >
   <i type="int" name="NWRITE">     2</i>
   <i type="logical" name="LWAVE"> F  </i>
   <i type="logical" name="LCHARG"> F  </i>
   <i type="logical" name="LPARD"> F  </i>
   <i type="logical" name="LVTOT"> F  </i>
   <i type="logical" name="LVHAR"> F  </i>
   <i type="logical" name="LELF"> F  </i>
   <i type="logical" name="LOPTICS"> F  </i>
   <v name="STM">      0.00000000      0.00000000      0.00000000      0.00000000      0.00000000      0.00000000      0.00000000</v>
  </separator>
  <separator name="performance" >
   <i type="int" name="NPAR">    40</i>
   <i type="int" name="NSIM">     4</i>
   <i type="int" name="NBLK">    -1</i>
   <i type="logical" name="LPLANE"> F  </i>
   <i type="logical" name="LSCALAPACK"> T  </i>
   <i type="logical" name="LSCAAWARE"> F  </i>
   <i type="logical" name="LSCALU"> F  </i>
   <i type="logical" name="LASYNC"> F  </i>
   <i type="logical" name="LORBITALREAL"> F  </i>
  </separator>
  <separator name="miscellaneous" >
   <i type="int" name="IDIOT">     3</i>
   <i type="logical" name="LMUSIC"> F  </i>
   <v name="POMASS">     50.94100000     95.94000000    183.85000000     32.06600000</v>
   <v name="DARWINR">      0.00000000      0.00000000      0.00000000      0.00000000</v>
   <v name="DARWINV">      1.00000000      1.00000000      1.00000000      1.00000000</v>
   <i type="logical" name="LCORR"> T  </i>
  </separator>
  <i type="logical" name="GGA_COMPAT"> T  </i>
  <i type="logical" name="LBERRY"> F  </i>
  <i type="int" name="ICORELEVEL">     0</i>
  <i type="logical" name="LDAU"> F  </i>
  <i type="int" name="I_CONSTRAINED_M">     0</i>
  <separator name="electronic exchange-correlation" >
   <i type="string" name="GGA">--</i>
   <i type="int" name="VOSKOWN">     0</i>
   <i type="logical" name="LHFCALC"> F  </i>
   <i type="string" name="PRECFOCK"></i>
   <i type="logical" name="LSYMGRAD"> F  </i>
   <i type="logical" name="LHFONE"> F  </i>
   <i type="logical" name="LRHFCALC"> F  </i>
   <i type="logical" name="LTHOMAS"> F  </i>
   <i type="logical" name="LMODELHF"> F  </i>
   <i name="ENCUT4O">     -1.00000000</i>
   <i type="int" name="EXXOEP">     0</i>
   <i type="int" name="FOURORBIT">     0</i>
   <i name="AEXX">      0.00000000</i>
   <i name="HFALPHA">      0.00000000</i>
   <i name="MCALPHA">      0.00000000</i>
   <i name="ALDAX">      1.00000000</i>
   <i name="AGGAX">      1.00000000</i>
   <i name="ALDAC">      1.00000000</i>
   <i name="AGGAC">      1.00000000</i>
   <i type="int" name="NKREDX">     1</i>
   <i type="int" name="NKREDY">     1</i>
   <i type="int" name="NKREDZ">     1</i>
   <i type="logical" name="SHIFTRED"> F  </i>
   <i type="logical" name="ODDONLY"> F  </i>
   <i type="logical" name="EVENONLY"> F  </i>
   <i type="int" name="LMAXFOCK">     0</i>
   <i type="int" name="NMAXFOCKAE">     0</i>
   <i type="logical" name="LFOCKAEDFT"> F  </i>
   <i name="HFSCREEN">      0.00000000</i>
   <i name="HFSCREENC">      0.00000000</i>
   <i type="int" name="NBANDSGWLOW">     0</i>
  </separator>
  <separator name="vdW DFT" >
   <i type="logical" name="LUSE_VDW"> F  </i>
   <i name="Zab_VDW">     -0.84910000</i>
   <i name="PARAM1">      0.12340000</i>
   <i name="PARAM2">      1.00000000</i>
   <i name="PARAM3">      0.00000000</i>
  </separator>
  <separator name="model GW" >
   <i type="int" name="MODEL_GW">     0</i>
   <i name="MODEL_EPS0">     58.26239943</i>
   <i name="MODEL_ALPHA">      1.00000000</i>
  </separator>
  <separator name="linear response parameters" >
   <i type="logical" name="LEPSILON"> F  </i>
   <i type="logical" name="LRPA"> F  </i>
   <i type="logical" name="LNABLA"> F  </i>
   <i type="logical" name="LVEL"> F  </i>
   <i type="int" name="KINTER">     0</i>
   <i name="CSHIFT">      0.10000000</i>
   <i name="OMEGAMAX">     -1.00000000</i>
   <i name="DEG_THRESHOLD">      0.00200000</i>
  </separator>
  <separator name="orbital magnetization" >
   <i type="logical" name="NUCIND"> F  </i>
   <v name="MAGPOS">      0.00000000      0.00000000      0.00000000</v>
   <i type="logical" name="LNICSALL"> T  </i>
   <i type="logical" name="ORBITALMAG"> F  </i>
   <i type="logical" name="LMAGBLOCH"> F  </i>
   <i type="logical" name="LCHIMAG"> F  </i>
   <i type="logical" name="LGAUGE"> T  </i>
   <i type="int" name="MAGATOM">     0</i>
   <v name="MAGDIPOL">      0.00000000      0.00000000      0.00000000</v>
   <v name="AVECCONST">      0.00000000      0.00000000      0.00000000</v>
  </separator>
  <separator name="response functions" >
   <i type="logical" name="LADDER"> F  </i>
   <i type="logical" name="LFXC"> F  </i>
   <i type="logical" name="LHARTREE"> T  </i>
   <i type="int" name="IBSE">     0</i>
   <v type="int" name="KPOINT">    -1     0     0     0</v>
   <i type="logical" name="LTCTE"> F  </i>
   <i type="logical" name="LTETE"> F  </i>
   <i type="logical" name="LTRIPLET"> F  </i>
   <i type="logical" name="LFXCEPS"> F  </i>
   <i type="logical" name="LFXHEG"> F  </i>
   <i type="int" name="NATURALO">     0</i>
   <i type="logical" name="L2ORDER"> F  </i>
   <i type="logical" name="LUSEW"> F  </i>
   <i name="ENCUTGW">     -2.00000000</i>
   <i name="ENCUTGWSOFT">     -2.00000000</i>
   <i name="ENCUTLF">     -1.00000000</i>
   <i type="int" name="LMAXMP2">    -1</i>
   <i name="SCISSOR">      0.00000000</i>
   <i type="int" name="NOMEGA">     0</i>
   <i type="int" name="NOMEGAR">     0</i>
   <i type="int" name="NBANDSGW">    -1</i>
   <i type="int" name="NBANDSO">    -1</i>
   <i type="int" name="NBANDSV">    -1</i>
   <i type="int" name="NELM">     1</i>
   <i type="int" name="NELMHF">     1</i>
   <i type="int" name="DIM">     3</i>
   <i type="int" name="ANTIRES">     0</i>
   <i name="OMEGAMAX">    -30.00000000</i>
   <i name="OMEGAMIN">    -30.00000000</i>
   <i name="OMEGATL">   -200.00000000</i>
   <i type="int" name="OMEGAGRID">     0</i>
   <i name="CSHIFT">     -0.10000000</i>
   <i type="logical" name="SELFENERGY"> F  </i>
   <i type="logical" name="LSPECTRAL"> F  </i>
   <i type="logical" name="LSPECTRALGW"> F  </i>
   <i type="logical" name="LSINGLES"> F  </i>
   <i type="logical" name="LFERMIGW"> F  </i>
   <i type="logical" name="ODDONLYGW"> F  </i>
   <i type="logical" name="EVENONLYGW"> F  </i>
   <i type="int" name="NKREDLFX">     1</i>
   <i type="int" name="NKREDLFY">     1</i>
   <i type="int" name="NKREDLFZ">     1</i>
   <i type="int" name="MAXMEM">  1800</i>
   <i type="int" name="TELESCOPE">     0</i>
   <i type="int" name="TAUPAR">     1</i>
   <i type="int" name="OMEGAPAR">    -1</i>
   <i name="LAMBDA">      1.00000000</i>
  </separator>
  <separator name="External order field" >
   <i name="OFIELD_KAPPA">      0.00000000</i>
   <v name="OFIELD_K">      0.00000000      0.00000000      0.00000000</v>
   <i name="OFIELD_Q6_NEAR">      0.00000000</i>
   <i name="OFIELD_Q6_FAR">      0.00000000</i>
   <i name="OFIELD_A">      0.00000000</i>
  </separator>
 </parameters>
 <atominfo>
  <atoms>      27 </atoms>
  <types>       4 </types>
  <array name="atoms" >
   <dimension dim="1">ion</dimension>
   <field type="string">element</field>
   <field type="int">atomtype</field>
   <set>
    <rc><c>V </c><c>   1</c></rc>
    <rc><c>V </c><c>   1</c></rc>
    <rc><c>V </c><c>   1</c></rc>
    <rc><c>Mo</c><c>   2</c></rc>
    <rc><c>Mo</c><c>   2</c></rc>
    <rc><c>Mo</c><c>   2</c></rc>
    <rc><c>W </c><c>   3</c></rc>
    <rc><c>W </c><c>   3</c></rc>
    <rc><c>W </c><c>   3</c></rc>
    <rc><c>S </c><c>   4</c></rc>
    <rc><c>S </c><c>   4</c></rc>
    <rc><c>S </c><c>   4</c></rc>
    <rc><c>S </c><c>   4</c></rc>
    <rc><c>S </c><c>   4</c></rc>
    <rc><c>S </c><c>   4</c></rc>
    <rc><c>S </c><c>   4</c></rc>
    <rc><c>S </c><c>   4</c></rc>
    <rc><c>S </c><c>   4</c></rc>
    <rc><c>S </c><c>   4</c></rc>
    <rc><c>S </c><c>   4</c></rc>
    <rc><c>S </c><c>   4</c></rc>
    <rc><c>S </c><c>   4</c></rc>
    <rc><c>S </c><c>   4</c></rc>
    <rc><c>S </c><c>   4</c></rc>
    <rc><c>S </c><c>   4</c></rc>
    <rc><c>S </c><c>   4</c></rc>
    <rc><c>S </c><c>   4</c></rc>
   </set>
  </array>
  <array name="atomtypes" >
   <dimension dim="1">type</dimension>
   <field type="int">atomspertype</field>
   <field type="string">element</field>
   <field>mass</field>
   <field>valence</field>
   <field type="string">pseudopotential</field>
   <set>
    <rc><c>   3</c><c>V </c><c>     50.94100000</c><c>      5.00000000</c><c> PAW_PBE V 08Apr2002                    </c></rc>
    <rc><c>   3</c><c>Mo</c><c>     95.94000000</c><c>      6.00000000</c><c> PAW_PBE Mo 08Apr2002                   </c></rc>
    <rc><c>   3</c><c>W </c><c>    183.85000000</c><c>      6.00000000</c><c> PAW_PBE W 08Apr2002                    </c></rc>
    <rc><c>  18</c><c>S </c><c>     32.06600000</c><c>      6.00000000</c><c>  PAW_PBE S 17Jan2003                   </c></rc>
   </set>
  </array>
 </atominfo>
 <structure name="initialpos" >
  <crystal>
   <varray name="basis" >
    <v>       8.66999996       5.03999989       0.00000000 </v>
    <v>      -8.66999982       5.04000013       0.00000000 </v>
    <v>       0.00000000       0.00000000      30.00000000 </v>
   </varray>
   <i name="volume">   2621.80797419 </i>
   <varray name="rec_basis" >
    <v>       0.05767013       0.09920635       0.00000000 </v>
    <v>      -0.05767013       0.09920635       0.00000000 </v>
    <v>       0.00000000       0.00000000       0.03333333 </v>
   </varray>
  </crystal>
  <varray name="positions" >
   <v>       0.66666669       0.33333334       0.00000000 </v>
   <v>       0.33333334       0.66666669       0.00000000 </v>
   <v>       0.00000000       0.66666669       0.00000000 </v>
   <v>       0.33333334       0.33333334       0.00000000 </v>
   <v>       0.33333334       0.00000000       0.00000000 </v>
   <v>       0.66666669       0.66666669       0.00000000 </v>
   <v>       0.00000000       0.00000000       0.00000000 </v>
   <v>       1.00000000       0.33333334       0.00000000 </v>
   <v>       0.66666669       0.00000000       0.00000000 </v>
   <v>       0.11068511       0.22244981       0.95539999 </v>
   <v>       0.22244981       0.11068511       0.04460000 </v>
   <v>       0.11068511       0.55578315       0.95539999 </v>
   <v>       0.22244981       0.44401845       0.04460000 </v>
   <v>       0.11068511       0.88911647       0.95539999 </v>
   <v>       0.22244981       0.77735180       0.04460000 </v>
   <v>       0.44401845       0.22244981       0.95539999 </v>
   <v>       0.55578315       0.11068511       0.04460000 </v>
   <v>       0.44401845       0.55578315       0.95539999 </v>
   <v>       0.55578315       0.44401845       0.04460000 </v>
   <v>       0.44401845       0.88911647       0.95539999 </v>
   <v>       0.55578315       0.77735180       0.04460000 </v>
   <v>       0.77735180       0.22244981       0.95539999 </v>
   <v>       0.88911647       0.11068511       0.04460000 </v>
   <v>       0.77735180       0.55578315       0.95539999 </v>
   <v>       0.88911647       0.44401845       0.04460000 </v>
   <v>       0.77735180       0.88911647       0.95539999 </v>
   <v>       0.88911647       0.77735180       0.04460000 </v>
  </varray>
 </structure>
 <calculation>
  <scstep>
   <time name="dav">   23.23   23.29</time>
   <time name="total">   23.28   23.34</time>
   <energy>
    <i name="alphaZ">     81.65567618 </i>
    <i name="ewald">  41890.23010370 </i>
    <i name="hartreedc"> -47722.87377267 </i>
    <i name="XCdc">   -242.92719654 </i>
    <i name="pawpsdc">   3467.42045192 </i>
    <i name="pawaedc">  -2871.19716117 </i>
    <i name="eentropy">     -0.53334432 </i>
    <i name="bandstr">   -239.17153887 </i>
    <i name="atom">   6761.44252427 </i>
    <i name="e_fr_energy">   1124.04574249 </i>
    <i name="e_wo_entrp">   1124.57908681 </i>
    <i name="e_0_energy">   1124.31241465 </i>
   </energy>
  </scstep>
  <scstep>
   <time name="dav">   29.62   29.69</time>
   <time name="total">   29.62   29.70</time>
   <energy>
    <i name="e_fr_energy">     -3.85671691 </i>
    <i name="e_wo_entrp">     -3.68126492 </i>
    <i name="e_0_energy">     -3.76899091 </i>
   </energy>
  </scstep>
  <scstep>
   <time name="dav">   29.32   29.39</time>
   <time name="total">   29.32   29.40</time>
   <energy>
    <i name="e_fr_energy">   -199.75858148 </i>
    <i name="e_wo_entrp">   -199.49934677 </i>
    <i name="e_0_energy">   -199.62896413 </i>
   </energy>
  </scstep>
  <scstep>
   <time name="dav">   31.72   31.80</time>
   <time name="total">   31.73   31.81</time>
   <energy>
    <i name="e_fr_energy">   -208.97736663 </i>
    <i name="e_wo_entrp">   -208.67788074 </i>
    <i name="e_0_energy">   -208.82762369 </i>
   </energy>
  </scstep>
  <scstep>
   <time name="dav">   30.73   30.80</time>
   <time name="total">   31.19   31.28</time>
   <energy>
    <i name="e_fr_energy">   -209.32449525 </i>
    <i name="e_wo_entrp">   -209.02834567 </i>
    <i name="e_0_energy">   -209.17642046 </i>
   </energy>
  </scstep>
  <scstep>
   <time name="dav">   33.40   33.48</time>
   <time name="total">   33.90   33.99</time>
   <energy>
    <i name="e_fr_energy">   -236.77206544 </i>
    <i name="e_wo_entrp">   -236.49404640 </i>
    <i name="e_0_energy">   -236.63305592 </i>
   </energy>
  </scstep>
  <scstep>
   <time name="dav">   34.25   34.34</time>
   <time name="total">   34.77   34.86</time>
   <energy>
    <i name="e_fr_energy">   -196.50557776 </i>
    <i name="e_wo_entrp">   -196.18612846 </i>
    <i name="e_0_energy">   -196.34585311 </i>
   </energy>
  </scstep>
  <scstep>
   <time name="dav">   31.27   31.34</time>
   <time name="total">   31.78   31.86</time>
   <energy>
    <i name="e_fr_energy">   -189.38831415 </i>
    <i name="e_wo_entrp">   -189.09258196 </i>
    <i name="e_0_energy">   -189.24044806 </i>
   </energy>
  </scstep>
  <scstep>
   <time name="dav">   34.47   34.55</time>
   <time name="total">   35.00   35.09</time>
   <energy>
    <i name="e_fr_energy">   -188.12953916 </i>
    <i name="e_wo_entrp">   -187.79656667 </i>
    <i name="e_0_energy">   -187.96305291 </i>
   </energy>
  </scstep>
  <scstep>
   <time name="dav">   35.05   35.14</time>
   <time name="total">   35.59   35.68</time>
   <energy>
    <i name="e_fr_energy">   -187.01110051 </i>
    <i name="e_wo_entrp">   -186.66601298 </i>
    <i name="e_0_energy">   -186.83855675 </i>
   </energy>
  </scstep>
  <scstep>
   <time name="dav">   34.98   35.06</time>
   <time name="total">   35.52   35.61</time>
   <energy>
    <i name="e_fr_energy">   -186.96967886 </i>
    <i name="e_wo_entrp">   -186.61839073 </i>
    <i name="e_0_energy">   -186.79403479 </i>
   </energy>
  </scstep>
  <scstep>
   <time name="dav">   33.06   33.14</time>
   <time name="total">   33.59   33.68</time>
   <energy>
    <i name="e_fr_energy">   -187.10643908 </i>
    <i name="e_wo_entrp">   -186.76664911 </i>
    <i name="e_0_energy">   -186.93654409 </i>
   </energy>
  </scstep>
  <scstep>
   <time name="dav">   34.02   34.10</time>
   <time name="total">   34.56   34.65</time>
   <energy>
    <i name="e_fr_energy">   -186.88801432 </i>
    <i name="e_wo_entrp">   -186.55260655 </i>
    <i name="e_0_energy">   -186.72031043 </i>
   </energy>
  </scstep>
  <scstep>
   <time name="dav">   34.64   34.72</time>
   <time name="total">   35.18   35.27</time>
   <energy>
    <i name="e_fr_energy">   -186.86250887 </i>
    <i name="e_wo_entrp">   -186.51937713 </i>
    <i name="e_0_energy">   -186.69094300 </i>
   </energy>
  </scstep>
  <scstep>
   <time name="dav">   33.37   33.45</time>
   <time name="total">   33.91   34.00</time>
   <energy>
    <i name="e_fr_energy">   -186.83916807 </i>
    <i name="e_wo_entrp">   -186.49290203 </i>
    <i name="e_0_energy">   -186.66603505 </i>
   </energy>
  </scstep>
  <scstep>
   <time name="dav">   32.02   32.10</time>
   <time name="total">   32.56   32.65</time>
   <energy>
    <i name="e_fr_energy">   -186.83221626 </i>
    <i name="e_wo_entrp">   -186.48589850 </i>
    <i name="e_0_energy">   -186.65905738 </i>
   </energy>
  </scstep>
  <scstep>
   <time name="dav">   33.85   33.93</time>
   <time name="total">   34.39   34.48</time>
   <energy>
    <i name="e_fr_energy">   -186.83045114 </i>
    <i name="e_wo_entrp">   -186.48615854 </i>
    <i name="e_0_energy">   -186.65830484 </i>
   </energy>
  </scstep>
  <scstep>
   <time name="dav">   31.80   31.87</time>
   <time name="total">   32.34   32.42</time>
   <energy>
    <i name="e_fr_energy">   -186.82968695 </i>
    <i name="e_wo_entrp">   -186.48554609 </i>
    <i name="e_0_energy">   -186.65761652 </i>
   </energy>
  </scstep>
  <scstep>
   <time name="dav">   29.97   30.04</time>
   <time name="total">   30.51   30.60</time>
   <energy>
    <i name="e_fr_energy">   -186.82929484 </i>
    <i name="e_wo_entrp">   -186.48461243 </i>
    <i name="e_0_energy">   -186.65695364 </i>
   </energy>
  </scstep>
  <scstep>
   <time name="dav">   25.51   25.57</time>
   <time name="total">   26.05   26.12</time>
   <energy>
    <i name="e_fr_energy">   -186.83002940 </i>
    <i name="e_wo_entrp">   -186.48559174 </i>
    <i name="e_0_energy">   -186.65781057 </i>
   </energy>
  </scstep>
  <scstep>
   <time name="dav">   23.19   23.25</time>
   <time name="total">   23.73   23.80</time>
   <energy>
    <i name="e_fr_energy">   -186.83060971 </i>
    <i name="e_wo_entrp">   -186.48628151 </i>
    <i name="e_0_energy">   -186.65844561 </i>
   </energy>
  </scstep>
  <scstep>
   <time name="dav">   21.90   21.95</time>
   <time name="total">   22.44   22.50</time>
   <energy>
    <i name="e_fr_energy">   -186.83178372 </i>
    <i name="e_wo_entrp">   -186.48731533 </i>
    <i name="e_0_energy">   -186.65954953 </i>
   </energy>
  </scstep>
  <scstep>
   <time name="dav">   21.96   22.01</time>
   <time name="total">   22.50   22.56</time>
   <energy>
    <i name="e_fr_energy">   -186.83301628 </i>
    <i name="e_wo_entrp">   -186.48864494 </i>
    <i name="e_0_energy">   -186.66083061 </i>
   </energy>
  </scstep>
  <scstep>
   <time name="dav">   20.10   20.15</time>
   <time name="total">   20.64   20.70</time>
   <energy>
    <i name="e_fr_energy">   -186.83361599 </i>
    <i name="e_wo_entrp">   -186.48922885 </i>
    <i name="e_0_energy">   -186.66142242 </i>
   </energy>
  </scstep>
  <scstep>
   <time name="dav">   18.07   18.11</time>
   <time name="total">   18.61   18.66</time>
   <energy>
    <i name="e_fr_energy">   -186.83397877 </i>
    <i name="e_wo_entrp">   -186.48955424 </i>
    <i name="e_0_energy">   -186.66176651 </i>
   </energy>
  </scstep>
  <scstep>
   <time name="dav">   20.43   20.48</time>
   <time name="total">   20.97   21.03</time>
   <energy>
    <i name="e_fr_energy">   -186.83421442 </i>
    <i name="e_wo_entrp">   -186.48980571 </i>
    <i name="e_0_energy">   -186.66201007 </i>
   </energy>
  </scstep>
  <scstep>
   <time name="dav">   21.51   21.56</time>
   <time name="total">   21.55   21.61</time>
   <energy>
    <i name="alphaZ">     81.65567618 </i>
    <i name="ewald">  41890.23010370 </i>
    <i name="hartreedc"> -47832.83601859 </i>
    <i name="XCdc">   -231.61154979 </i>
    <i name="pawpsdc">   4192.05267178 </i>
    <i name="pawaedc">  -3610.05384707 </i>
    <i name="eentropy">     -0.34441113 </i>
    <i name="bandstr">  -1437.36946357 </i>
    <i name="atom">   6761.44252427 </i>
    <i name="e_fr_energy">   -186.83431422 </i>
    <i name="e_wo_entrp">   -186.48990310 </i>
    <i name="e_0_energy">   -186.66210866 </i>
   </energy>
  </scstep>
  <structure>
   <crystal>
    <varray name="basis" >
     <v>       8.66999996       5.03999989       0.00000000 </v>
     <v>      -8.66999982       5.04000013       0.00000000 </v>
     <v>       0.00000000       0.00000000      30.00000000 </v>
    </varray>
    <i name="volume">   2621.80797419 </i>
    <varray name="rec_basis" >
     <v>       0.05767013       0.09920635       0.00000000 </v>
     <v>      -0.05767013       0.09920635       0.00000000 </v>
     <v>       0.00000000       0.00000000       0.03333333 </v>
    </varray>
   </crystal>
   <varray name="positions" >
    <v>       0.66666669       0.33333334       0.00000000 </v>
    <v>       0.33333334       0.66666669       0.00000000 </v>
    <v>       0.00000000       0.66666669       0.00000000 </v>
    <v>       0.33333334       0.33333334       0.00000000 </v>
    <v>       0.33333334       0.00000000       0.00000000 </v>
    <v>       0.66666669       0.66666669       0.00000000 </v>
    <v>       0.00000000       0.00000000       0.00000000 </v>
    <v>       1.00000000       0.33333334       0.00000000 </v>
    <v>       0.66666669       0.00000000       0.00000000 </v>
    <v>       0.11068511       0.22244981       0.95539999 </v>
    <v>       0.22244981       0.11068511       0.04460000 </v>
    <v>       0.11068511       0.55578315       0.95539999 </v>
    <v>       0.22244981       0.44401845       0.04460000 </v>
    <v>       0.11068511       0.88911647       0.95539999 </v>
    <v>       0.22244981       0.77735180       0.04460000 </v>
    <v>       0.44401845       0.22244981       0.95539999 </v>
    <v>       0.55578315       0.11068511       0.04460000 </v>
    <v>       0.44401845       0.55578315       0.95539999 </v>
    <v>       0.55578315       0.44401845       0.04460000 </v>
    <v>       0.44401845       0.88911647       0.95539999 </v>
    <v>       0.55578315       0.77735180       0.04460000 </v>
    <v>       0.77735180       0.22244981       0.95539999 </v>
    <v>       0.88911647       0.11068511       0.04460000 </v>
    <v>       0.77735180       0.55578315       0.95539999 </v>
    <v>       0.88911647       0.44401845       0.04460000 </v>
    <v>       0.77735180       0.88911647       0.95539999 </v>
    <v>       0.88911647       0.77735180       0.04460000 </v>
   </varray>
  </structure>
  <varray name="forces" >
   <v>      -0.44199421      -0.15520738      -0.11177282 </v>
   <v>       0.13675430       0.08746325       0.12437258 </v>
   <v>      -0.13099544       0.08128368       0.02491291 </v>
   <v>       0.26114857       0.13881048      -0.14151553 </v>
   <v>      -0.21721749       0.10140022       0.06176155 </v>
   <v>       0.05411608      -0.30277955      -0.08292785 </v>
   <v>       0.33559645       0.14306592      -0.00611553 </v>
   <v>       0.13599779       0.21651348       0.03053823 </v>
   <v>      -0.05951891      -0.33786455       0.12168036 </v>
   <v>       0.06356170      -0.12600967      -2.91905317 </v>
   <v>      -0.21231079      -0.16569210       2.89055434 </v>
   <v>      -0.23962464       0.51897345      -1.41777779 </v>
   <v>      -0.64496582       0.57013460       2.15236472 </v>
   <v>       0.35559996      -0.69845636      -2.18345165 </v>
   <v>       0.33627103      -0.66499022       1.39916690 </v>
   <v>       0.51996188       0.72371109      -2.20379205 </v>
   <v>      -0.34829609       0.70049349       2.14275067 </v>
   <v>      -0.73038377      -0.00719111      -2.10363895 </v>
   <v>       0.74046861       0.01492514       2.13920789 </v>
   <v>       0.60349583      -0.55263928      -2.14999682 </v>
   <v>      -0.64111147      -0.56097218       2.19845668 </v>
   <v>      -0.62827923       0.01118240      -2.11165702 </v>
   <v>      -0.13083821      -0.02498823       2.92753135 </v>
   <v>       0.90021931      -0.02450325      -1.47055999 </v>
   <v>      -0.73503043      -0.00147995       1.43536614 </v>
   <v>       0.07147861       0.15657921      -2.85843667 </v>
   <v>       0.64589636       0.15823742       2.11203153 </v>
  </varray>
  <varray name="stress" >
   <v>       7.36780550       0.00120134      -1.55531735 </v>
   <v>       0.00120140       4.37206643       0.01973958 </v>
   <v>      -1.55531721       0.01973953      30.32864380 </v>
  </varray>
  <energy>
   <i name="e_fr_energy">   -186.83431422 </i>
   <i name="e_wo_entrp">   -186.66210866 </i>
   <i name="e_0_energy">     -0.34441113 </i>
  </energy>
  <time name="totalsc">  839.90  842.14</time>
 </calculation>
 <calculation>
  <scstep>
   <time name="dav">   23.31   23.36</time>
   <time name="total">   23.85   23.91</time>
   <energy>
    <i name="alphaZ">     78.92478253 </i>
    <i name="ewald">  39381.12138354 </i>
    <i name="hartreedc"> -45338.55241668 </i>
    <i name="XCdc">   -239.06874954 </i>
    <i name="pawpsdc">   4192.02566325 </i>
    <i name="pawaedc">  -3610.02720604 </i>
    <i name="eentropy">     -0.28566269 </i>
    <i name="bandstr">  -1413.03180444 </i>
    <i name="atom">   6761.44252427 </i>
    <i name="e_fr_energy">   -187.45148579 </i>
    <i name="e_wo_entrp">   -187.16582310 </i>
    <i name="e_0_energy">   -187.30865445 </i>
   </energy>
  </scstep>
  <scstep>
   <time name="dav">   32.30   32.37</time>
   <time name="total">   32.84   32.92</time>
   <energy>
    <i name="e_fr_energy">   -189.26116497 </i>
    <i name="e_wo_entrp">   -188.94627391 </i>
    <i name="e_0_energy">   -189.10371944 </i>
   </energy>
  </scstep>
  <scstep>
   <time name="dav">   32.73   32.81</time>
   <time name="total">   33.28   33.36</time>
   <energy>
    <i name="e_fr_energy">   -189.36301395 </i>
    <i name="e_wo_entrp">   -189.08534089 </i>
    <i name="e_0_energy">   -189.22417742 </i>
   </energy>
  </scstep>
  <scstep>
   <time name="dav">   33.13   33.21</time>
   <time name="total">   33.68   33.77</time>
   <energy>
    <i name="e_fr_energy">   -188.71970757 </i>
    <i name="e_wo_entrp">   -188.43405158 </i>
    <i name="e_0_energy">   -188.57687957 </i>
   </energy>
  </scstep>
  <scstep>
   <time name="dav">   30.52   30.60</time>
   <time name="total">   31.07   31.15</time>
   <energy>
    <i name="e_fr_energy">   -188.73903957 </i>
    <i name="e_wo_entrp">   -188.45166554 </i>
    <i name="e_0_energy">   -188.59535256 </i>
   </energy>
  </scstep>
  <scstep>
   <time name="dav">   33.69   33.77</time>
   <time name="total">   34.25   34.34</time>
   <energy>
    <i name="e_fr_energy">   -188.70057824 </i>
    <i name="e_wo_entrp">   -188.40960650 </i>
    <i name="e_0_energy">   -188.55509237 </i>
   </energy>
  </scstep>
  <scstep>
   <time name="dav">   31.81   31.89</time>
   <time name="total">   32.36   32.44</time>
   <energy>
    <i name="e_fr_energy">   -188.66269302 </i>
    <i name="e_wo_entrp">   -188.37801198 </i>
    <i name="e_0_energy">   -188.52035250 </i>
   </energy>
  </scstep>
  <scstep>
   <time name="dav">   33.51   33.59</time>
   <time name="total">   34.06   34.15</time>
   <energy>
    <i name="e_fr_energy">   -188.63172322 </i>
    <i name="e_wo_entrp">   -188.34636560 </i>
    <i name="e_0_energy">   -188.48904441 </i>
   </energy>
  </scstep>
  <scstep>
   <time name="dav">   33.75   33.83</time>
   <time name="total">   34.30   34.39</time>
   <energy>
    <i name="e_fr_energy">   -188.62963476 </i>
    <i name="e_wo_entrp">   -188.34526694 </i>
    <i name="e_0_energy">   -188.48745085 </i>
   </energy>
  </scstep>
  <scstep>
   <time name="dav">   35.28   35.37</time>
   <time name="total">   35.84   35.93</time>
   <energy>
    <i name="e_fr_energy">   -188.62792981 </i>
    <i name="e_wo_entrp">   -188.34343763 </i>
    <i name="e_0_energy">   -188.48568372 </i>
   </energy>
  </scstep>
  <scstep>
   <time name="dav">   33.05   33.13</time>
   <time name="total">   33.59   33.68</time>
   <energy>
    <i name="e_fr_energy">   -188.62745336 </i>
    <i name="e_wo_entrp">   -188.34319796 </i>
    <i name="e_0_energy">   -188.48532566 </i>
   </energy>
  </scstep>
  <scstep>
   <time name="dav">   29.47   29.54</time>
   <time name="total">   29.50   29.58</time>
   <energy>
    <i name="alphaZ">     78.92478253 </i>
    <i name="ewald">  39381.12138354 </i>
    <i name="hartreedc"> -45349.59385586 </i>
    <i name="XCdc">   -237.97599000 </i>
    <i name="pawpsdc">   3952.54206533 </i>
    <i name="pawaedc">  -3367.06838810 </i>
    <i name="eentropy">     -0.28384156 </i>
    <i name="bandstr">  -1407.73614741 </i>
    <i name="atom">   6761.44252427 </i>
    <i name="e_fr_energy">   -188.62746725 </i>
    <i name="e_wo_entrp">   -188.34362569 </i>
    <i name="e_0_energy">   -188.48554647 </i>
   </energy>
  </scstep>
  <structure>
   <crystal>
    <varray name="basis" >
     <v>       8.85679105       5.10445840       0.00000000 </v>
     <v>      -8.85675550       5.10439773       0.00000000 </v>
     <v>       0.00000000       0.00000000      30.00000000 </v>
    </varray>
    <i name="volume">   2712.52572469 </i>
    <varray name="rec_basis" >
     <v>       0.05645363       0.09795397       0.00000000 </v>
     <v>      -0.05645430       0.09795436       0.00000000 </v>
     <v>       0.00000000       0.00000000       0.03333333 </v>
    </varray>
   </crystal>
   <varray name="positions" >
    <v>       0.66469417       0.33382022      -0.00017974 </v>
    <v>       0.33413241       0.66670481       0.00020000 </v>
    <v>       0.00002457       0.66742016       0.00004006 </v>
    <v>       0.33472424       0.33327113      -0.00022757 </v>
    <v>       0.33321431       0.00108963       0.00009932 </v>
    <v>       0.66536815       0.66506703      -0.00013336 </v>
    <v>       0.00161839      -0.00024897      -0.00000983 </v>
    <v>       1.00141460       0.33399120       0.00004911 </v>
    <v>       0.66488408      -0.00145142       0.00019567 </v>
    <v>       0.11025887       0.22166989       0.95070589 </v>
    <v>       0.22106613       0.11048279       0.04924827 </v>
    <v>       0.11250223       0.55893362       0.95312008 </v>
    <v>       0.22338406       0.44854150       0.04806119 </v>
    <v>       0.10833165       0.88478433       0.95188881 </v>
    <v>       0.22020274       0.77323361       0.04684998 </v>
    <v>       0.44892874       0.22446686       0.95185610 </v>
    <v>       0.55816668       0.11500667       0.04804573 </v>
    <v>       0.44195199       0.55778078       0.95201715 </v>
    <v>       0.55791469       0.44202978       0.04804003 </v>
    <v>       0.44305256       0.88479252       0.95194260 </v>
    <v>       0.55131468       0.77645067       0.04813531 </v>
    <v>       0.77565734       0.22425130       0.95200426 </v>
    <v>       0.88863286       0.11092953       0.04930773 </v>
    <v>       0.77973908       0.55316133       0.95303520 </v>
    <v>       0.88706441       0.44605634       0.04690819 </v>
    <v>       0.77830005       0.88966699       0.95080337 </v>
    <v>       0.89167077       0.77631213       0.04799633 </v>
   </varray>
  </structure>
  <varray name="forces" >
   <v>      -0.39806791      -0.18030077      -0.04242318 </v>
   <v>       0.16625550       0.14932730       0.03937872 </v>
   <v>      -0.16307518       0.09987643       0.08883532 </v>
   <v>       0.23482100      -0.04143625      -0.04644355 </v>
   <v>      -0.34568422       0.13522161       0.07761488 </v>
   <v>      -0.11218935      -0.20503875      -0.08724490 </v>
   <v>       0.15340213       0.24188281       0.00792588 </v>
   <v>       0.33525657       0.02132245       0.01133779 </v>
   <v>       0.08374300      -0.23912644      -0.05028540 </v>
   <v>      -0.06022114      -0.09277686      -0.04661634 </v>
   <v>      -0.06912929      -0.08872905       0.14468471 </v>
   <v>       0.05986465      -0.06528499       0.14331687 </v>
   <v>      -0.07451170      -0.03271067      -0.01539033 </v>
   <v>      -0.08934419      -0.05646561      -0.05730173 </v>
   <v>      -0.00045473      -0.04458257      -0.11199204 </v>
   <v>       0.03269532       0.08664243      -0.20734944 </v>
   <v>       0.10324016       0.07268555      -0.03001994 </v>
   <v>      -0.06808673      -0.00704379      -0.09117196 </v>
   <v>       0.06061643       0.00874408       0.12857625 </v>
   <v>       0.07345214       0.03702029       0.06779677 </v>
   <v>      -0.08621994       0.01814777       0.10434088 </v>
   <v>       0.08653481       0.00279931       0.20293111 </v>
   <v>       0.03430722      -0.01747476      -0.10383084 </v>
   <v>       0.03853698      -0.00871818       0.04542157 </v>
   <v>       0.10248922       0.00298575      -0.24559214 </v>
   <v>      -0.08683118       0.11534634       0.10815817 </v>
   <v>      -0.01139957       0.08768658      -0.03465716 </v>
  </varray>
  <varray name="stress" >
   <v>     -19.98126257       0.01274669       0.07059810 </v>
   <v>       0.01274672     -19.54567633      -0.00331086 </v>
   <v>       0.07059807      -0.00331084      -1.79020733 </v>
  </varray>
  <energy>
   <i name="e_fr_energy">   -188.62746725 </i>
   <i name="e_wo_entrp">   -188.48554647 </i>
   <i name="e_0_energy">     -0.28384156 </i>
  </energy>
  <time name="totalsc">  432.89  434.03</time>
 </calculation>
 <calculation>
  <scstep>
   <time name="dav">   25.78   25.84</time>
   <time name="total">   26.32   26.38</time>
   <energy>
    <i name="alphaZ">     82.36016327 </i>
    <i name="ewald">  41310.39192822 </i>
    <i name="hartreedc"> -47309.49646402 </i>
    <i name="XCdc">   -233.84409675 </i>
    <i name="pawpsdc">   3950.38289913 </i>
    <i name="pawaedc">  -3364.88491857 </i>
    <i name="eentropy">     -0.23584996 </i>
    <i name="bandstr">  -1386.66204449 </i>
    <i name="atom">   6761.44252427 </i>
    <i name="e_fr_energy">   -190.54585889 </i>
    <i name="e_wo_entrp">   -190.31000893 </i>
    <i name="e_0_energy">   -190.42793391 </i>
   </energy>
  </scstep>
  <scstep>
   <time name="dav">   30.19   30.27</time>
   <time name="total">   30.72   30.81</time>
   <energy>
    <i name="e_fr_energy">   -190.56675125 </i>
    <i name="e_wo_entrp">   -190.32897307 </i>
    <i name="e_0_energy">   -190.44786216 </i>
   </energy>
  </scstep>
  <scstep>
   <time name="dav">   32.42   32.50</time>
   <time name="total">   32.95   33.03</time>
   <energy>
    <i name="e_fr_energy">   -190.01016103 </i>
    <i name="e_wo_entrp">   -189.76276649 </i>
    <i name="e_0_energy">   -189.88646376 </i>
   </energy>
  </scstep>
  <scstep>
   <time name="dav">   33.19   33.27</time>
   <time name="total">   33.73   33.82</time>
   <energy>
    <i name="e_fr_energy">   -189.81029389 </i>
    <i name="e_wo_entrp">   -189.57416913 </i>
    <i name="e_0_energy">   -189.69223151 </i>
   </energy>
  </scstep>
  <scstep>
   <time name="dav">   30.58   30.65</time>
   <time name="total">   31.11   31.20</time>
   <energy>
    <i name="e_fr_energy">   -189.73428667 </i>
    <i name="e_wo_entrp">   -189.49206001 </i>
    <i name="e_0_energy">   -189.61317334 </i>
   </energy>
  </scstep>
  <scstep>
   <time name="dav">   31.53   31.61</time>
   <time name="total">   32.07   32.16</time>
   <energy>
    <i name="e_fr_energy">   -189.71350701 </i>
    <i name="e_wo_entrp">   -189.47521000 </i>
    <i name="e_0_energy">   -189.59435850 </i>
   </energy>
  </scstep>
  <scstep>
   <time name="dav">   33.07   33.15</time>
   <time name="total">   33.60   33.69</time>
   <energy>
    <i name="e_fr_energy">   -189.70560809 </i>
    <i name="e_wo_entrp">   -189.46676290 </i>
    <i name="e_0_energy">   -189.58618549 </i>
   </energy>
  </scstep>
  <scstep>
   <time name="dav">   29.56   29.63</time>
   <time name="total">   30.10   30.18</time>
   <energy>
    <i name="e_fr_energy">   -189.70566430 </i>
    <i name="e_wo_entrp">   -189.46713797 </i>
    <i name="e_0_energy">   -189.58640114 </i>
   </energy>
  </scstep>
  <scstep>
   <time name="dav">   29.26   29.33</time>
   <time name="total">   29.79   29.87</time>
   <energy>
    <i name="e_fr_energy">   -189.70586540 </i>
    <i name="e_wo_entrp">   -189.46701006 </i>
    <i name="e_0_energy">   -189.58643773 </i>
   </energy>
  </scstep>
  <scstep>
   <time name="dav">   28.26   28.33</time>
   <time name="total">   28.80   28.88</time>
   <energy>
    <i name="e_fr_energy">   -189.70624938 </i>
    <i name="e_wo_entrp">   -189.46753759 </i>
    <i name="e_0_energy">   -189.58689349 </i>
   </energy>
  </scstep>
  <scstep>
   <time name="dav">   27.38   27.45</time>
   <time name="total">   27.92   27.99</time>
   <energy>
    <i name="e_fr_energy">   -189.70567808 </i>
    <i name="e_wo_entrp">   -189.46689301 </i>
    <i name="e_0_energy">   -189.58628554 </i>
   </energy>
  </scstep>
  <scstep>
   <time name="dav">   18.90   18.95</time>
   <time name="total">   18.94   18.99</time>
   <energy>
    <i name="alphaZ">     82.36016327 </i>
    <i name="ewald">  41310.39192822 </i>
    <i name="hartreedc"> -47282.74594248 </i>
    <i name="XCdc">   -235.24330555 </i>
    <i name="pawpsdc">   4038.88733654 </i>
    <i name="pawaedc">  -3454.58726146 </i>
    <i name="eentropy">     -0.23869573 </i>
    <i name="bandstr">  -1409.97245287 </i>
    <i name="atom">   6761.44252427 </i>
    <i name="e_fr_energy">   -189.70570579 </i>
    <i name="e_wo_entrp">   -189.46701006 </i>
    <i name="e_0_energy">   -189.58635793 </i>
   </energy>
  </scstep>
  <structure>
   <crystal>
    <varray name="basis" >
     <v>       8.66812017       4.99817293       0.00000000 </v>
     <v>      -8.66794660       4.99787272       0.00000000 </v>
     <v>       0.00000000       0.00000000      30.00000000 </v>
    </varray>
    <i name="volume">   2599.38172094 </i>
    <varray name="rec_basis" >
     <v>       0.05768148       0.10003856       0.00000000 </v>
     <v>      -0.05768494       0.10004056       0.00000000 </v>
     <v>       0.00000000       0.00000000       0.03333333 </v>
    </varray>
   </crystal>
   <varray name="positions" >
    <v>       0.66401156       0.33390206      -0.00020379 </v>
    <v>       0.33454084       0.66679396       0.00022233 </v>
    <v>       0.00003439       0.66774314       0.00009043 </v>
    <v>       0.33488068       0.33297662      -0.00025390 </v>
    <v>       0.33310767       0.00164685       0.00014332 </v>
    <v>       0.66491882       0.66483315      -0.00018282 </v>
    <v>       0.00216868       0.00000672      -0.00000534 </v>
    <v>       1.00177203       0.33370481       0.00005554 </v>
    <v>       0.66456610      -0.00193023       0.00016716 </v>
    <v>       0.11004647       0.22157314       0.95067947 </v>
    <v>       0.22085192       0.11040134       0.04933029 </v>
    <v>       0.11245094       0.55876737       0.95320133 </v>
    <v>       0.22325802       0.44855855       0.04805247 </v>
    <v>       0.10815179       0.88477605       0.95185632 </v>
    <v>       0.22012803       0.77315977       0.04678649 </v>
    <v>       0.44910448       0.22457981       0.95173854 </v>
    <v>       0.55838691       0.11502864       0.04802871 </v>
    <v>       0.44187488       0.55783442       0.95196546 </v>
    <v>       0.55798746       0.44198615       0.04811293 </v>
    <v>       0.44318476       0.88478367       0.95198104 </v>
    <v>       0.55126213       0.77656369       0.04819447 </v>
    <v>       0.77574510       0.22417287       0.95211931 </v>
    <v>       0.88863669       0.11086747       0.04924886 </v>
    <v>       0.77976156       0.55310980       0.95306095 </v>
    <v>       0.88716779       0.44596291       0.04676896 </v>
    <v>       0.77840884       0.88994253       0.95086469 </v>
    <v>       0.89180592       0.77646917       0.04797668 </v>
   </varray>
  </structure>
  <varray name="forces" >
   <v>      -0.37429978      -0.21275983      -0.01309467 </v>
   <v>       0.18982126       0.17627484       0.01198379 </v>
   <v>      -0.18197410       0.11595663       0.08381152 </v>
   <v>       0.22614803      -0.12373032      -0.01027253 </v>
   <v>      -0.38406465       0.14797949       0.05490941 </v>
   <v>      -0.16575965      -0.16818820      -0.05895958 </v>
   <v>       0.08006516       0.28162205       0.00773065 </v>
   <v>       0.40026318      -0.05088976       0.00698189 </v>
   <v>       0.13379641      -0.19175020      -0.07658158 </v>
   <v>      -0.01226994      -0.02322351      -0.62082072 </v>
   <v>      -0.03564488      -0.00576856       0.71035431 </v>
   <v>      -0.01986964       0.07015110      -0.30849190 </v>
   <v>      -0.04942915       0.10330907       0.48701046 </v>
   <v>       0.04361045      -0.11349742      -0.56471473 </v>
   <v>       0.03259868      -0.10126774       0.32787715 </v>
   <v>       0.07638004       0.14592294      -0.72137289 </v>
   <v>      -0.02011712       0.14292666       0.46526446 </v>
   <v>      -0.14863338      -0.02018647      -0.58784475 </v>
   <v>       0.13146975       0.00758855       0.61511503 </v>
   <v>       0.04827567      -0.10316023      -0.42047648 </v>
   <v>      -0.07152308      -0.11861431       0.63067083 </v>
   <v>      -0.06079319       0.00551254      -0.28628965 </v>
   <v>       0.04026599      -0.02468676       0.46078401 </v>
   <v>       0.12239704      -0.00248468      -0.40742736 </v>
   <v>      -0.05105705      -0.00563086       0.19466582 </v>
   <v>      -0.04234452       0.05884670      -0.43437410 </v>
   <v>       0.09268845       0.00974826       0.45356161 </v>
  </varray>
  <varray name="stress" >
   <v>     -10.14368353      -0.00458606       0.06054479 </v>
   <v>      -0.00458608      -9.77766168      -0.00433510 </v>
   <v>       0.06054466      -0.00433511       6.53128250 </v>
  </varray>
  <energy>
   <i name="e_fr_energy">   -189.70570579 </i>
   <i name="e_wo_entrp">   -189.58635793 </i>
   <i name="e_0_energy">     -0.23869573 </i>
  </energy>
  <time name="totalsc">  400.60  401.66</time>
 </calculation>
 <calculation>
  <scstep>
   <time name="dav">   23.28   23.33</time>
   <time name="total">   23.80   23.85</time>
   <energy>
    <i name="alphaZ">     85.80234852 </i>
    <i name="ewald">  42821.75269728 </i>
    <i name="hartreedc"> -48838.34577054 </i>
    <i name="XCdc">   -232.99501910 </i>
    <i name="pawpsdc">   4038.96202038 </i>
    <i name="pawaedc">  -3454.65954254 </i>
    <i name="eentropy">     -0.19404921 </i>
    <i name="bandstr">  -1372.97589320 </i>
    <i name="atom">   6761.44252427 </i>
    <i name="e_fr_energy">   -191.21068412 </i>
    <i name="e_wo_entrp">   -191.01663492 </i>
    <i name="e_0_energy">   -191.11365952 </i>
   </energy>
  </scstep>
  <scstep>
   <time name="dav">   35.06   35.14</time>
   <time name="total">   35.59   35.68</time>
   <energy>
    <i name="e_fr_energy">   -191.15832524 </i>
    <i name="e_wo_entrp">   -190.95738166 </i>
    <i name="e_0_energy">   -191.05785345 </i>
   </energy>
  </scstep>
  <scstep>
   <time name="dav">   31.63   31.70</time>
   <time name="total">   32.14   32.23</time>
   <energy>
    <i name="e_fr_energy">   -191.07986594 </i>
    <i name="e_wo_entrp">   -190.86832688 </i>
    <i name="e_0_energy">   -190.97409641 </i>
   </energy>
  </scstep>
  <scstep>
   <time name="dav">   34.02   34.10</time>
   <time name="total">   34.55   34.64</time>
   <energy>
    <i name="e_fr_energy">   -190.76040607 </i>
    <i name="e_wo_entrp">   -190.56091669 </i>
    <i name="e_0_energy">   -190.66066138 </i>
   </energy>
  </scstep>
  <scstep>
   <time name="dav">   32.06   32.14</time>
   <time name="total">   32.58   32.67</time>
   <energy>
    <i name="e_fr_energy">   -190.74527112 </i>
    <i name="e_wo_entrp">   -190.54787455 </i>
    <i name="e_0_energy">   -190.64657283 </i>
   </energy>
  </scstep>
  <scstep>
   <time name="dav">   32.08   32.15</time>
   <time name="total">   32.61   32.69</time>
   <energy>
    <i name="e_fr_energy">   -190.64183139 </i>
    <i name="e_wo_entrp">   -190.44039508 </i>
    <i name="e_0_energy">   -190.54111324 </i>
   </energy>
  </scstep>
  <scstep>
   <time name="dav">   32.80   32.88</time>
   <time name="total">   33.32   33.41</time>
   <energy>
    <i name="e_fr_energy">   -190.63541027 </i>
    <i name="e_wo_entrp">   -190.43596095 </i>
    <i name="e_0_energy">   -190.53568561 </i>
   </energy>
  </scstep>
  <scstep>
   <time name="dav">   29.94   30.02</time>
   <time name="total">   30.47   30.55</time>
   <energy>
    <i name="e_fr_energy">   -190.63368850 </i>
    <i name="e_wo_entrp">   -190.43404827 </i>
    <i name="e_0_energy">   -190.53386838 </i>
   </energy>
  </scstep>
  <scstep>
   <time name="dav">   30.44   30.52</time>
   <time name="total">   30.96   31.04</time>
   <energy>
    <i name="e_fr_energy">   -190.63137489 </i>
    <i name="e_wo_entrp">   -190.43171632 </i>
    <i name="e_0_energy">   -190.53154560 </i>
   </energy>
  </scstep>
  <scstep>
   <time name="dav">   27.80   27.86</time>
   <time name="total">   28.32   28.40</time>
   <energy>
    <i name="e_fr_energy">   -190.63171147 </i>
    <i name="e_wo_entrp">   -190.43184779 </i>
    <i name="e_0_energy">   -190.53177963 </i>
   </energy>
  </scstep>
  <scstep>
   <time name="dav">   29.17   29.24</time>
   <time name="total">   29.69   29.77</time>
   <energy>
    <i name="e_fr_energy">   -190.63151532 </i>
    <i name="e_wo_entrp">   -190.43180746 </i>
    <i name="e_0_energy">   -190.53166139 </i>
   </energy>
  </scstep>
  <scstep>
   <time name="dav">   21.07   21.12</time>
   <time name="total">   21.11   21.17</time>
   <energy>
    <i name="alphaZ">     85.80234852 </i>
    <i name="ewald">  42821.75269728 </i>
    <i name="hartreedc"> -48810.01475767 </i>
    <i name="XCdc">   -234.32191583 </i>
    <i name="pawpsdc">   4062.15628221 </i>
    <i name="pawaedc">  -3478.00770187 </i>
    <i name="eentropy">     -0.19966869 </i>
    <i name="bandstr">  -1399.24132579 </i>
    <i name="atom">   6761.44252427 </i>
    <i name="e_fr_energy">   -190.63151755 </i>
    <i name="e_wo_entrp">   -190.43184887 </i>
    <i name="e_0_energy">   -190.53168321 </i>
   </energy>
  </scstep>
  <structure>
   <crystal>
    <varray name="basis" >
     <v>       8.48704846       4.89949594       0.00000000 </v>
     <v>      -8.48732890       4.89998275       0.00000000 </v>
     <v>       0.00000000       0.00000000      30.00000000 </v>
    </varray>
    <i name="volume">   2495.10073584 </i>
    <varray name="rec_basis" >
     <v>       0.05891525       0.10204793       0.00000000 </v>
     <v>      -0.05890940       0.10204456       0.00000000 </v>
     <v>       0.00000000       0.00000000       0.03333333 </v>
    </varray>
   </crystal>
   <varray name="positions" >
    <v>       0.66128539       0.33380749      -0.00020619 </v>
    <v>       0.33642749       0.66724463       0.00022406 </v>
    <v>       0.00011606       0.66919096       0.00025934 </v>
    <v>       0.33470690       0.33119661      -0.00024472 </v>
    <v>       0.33262495       0.00404314       0.00023767 </v>
    <v>       0.66328435       0.66454656      -0.00028084 </v>
    <v>       0.00421190       0.00168138       0.00001046 </v>
    <v>       1.00281125       0.33167241       0.00006630 </v>
    <v>       0.66403791      -0.00356584      -0.00001314 </v>
    <v>       0.11009708       0.22157572       0.94891438 </v>
    <v>       0.22093990       0.11065105       0.05127317 </v>
    <v>       0.11303892       0.55972565       0.95218432 </v>
    <v>       0.22409737       0.44968297       0.04948078 </v>
    <v>       0.10764781       0.88357903       0.95026327 </v>
    <v>       0.21951946       0.77222199       0.04783351 </v>
    <v>       0.45050083       0.22530100       0.94981632 </v>
    <v>       0.55920589       0.11634390       0.04940612 </v>
    <v>       0.44106563       0.55832637       0.95033366 </v>
    <v>       0.55860694       0.44145581       0.04979255 </v>
    <v>       0.44233178       0.88365420       0.95070204 </v>
    <v>       0.54994576       0.77572127       0.04993967 </v>
    <v>       0.77535735       0.22464298       0.95111672 </v>
    <v>       0.88861819       0.11054163       0.05067529 </v>
    <v>       0.78032211       0.55254893       0.95183868 </v>
    <v>       0.88670864       0.44630910       0.04754112 </v>
    <v>       0.77854787       0.89026029       0.94951138 </v>
    <v>       0.89215674       0.77585522       0.04932398 </v>
   </varray>
  </structure>
  <varray name="forces" >
   <v>      -0.35540473      -0.20955438       0.04529244 </v>
   <v>       0.21858519       0.20481521      -0.04375382 </v>
   <v>      -0.18476736       0.11649382       0.04614838 </v>
   <v>       0.20017410      -0.23171830       0.02833370 </v>
   <v>      -0.43436986       0.14096275      -0.00815350 </v>
   <v>      -0.22774803      -0.15070103      -0.00929067 </v>
   <v>       0.01632325       0.36389444       0.00440713 </v>
   <v>       0.43334663      -0.06215674       0.01598536 </v>
   <v>       0.20562665      -0.17564656      -0.05290648 </v>
   <v>       0.07372591       0.03621506      -0.50148652 </v>
   <v>      -0.00931587       0.03904345       0.54953112 </v>
   <v>       0.02315949       0.02010269      -0.15607818 </v>
   <v>       0.03731490       0.05193888       0.31977474 </v>
   <v>       0.03219214      -0.01068708      -0.37959019 </v>
   <v>      -0.01629083       0.01885153       0.24491602 </v>
   <v>       0.01097382       0.04612169      -0.56595444 </v>
   <v>      -0.02861527       0.04358650       0.27000219 </v>
   <v>      -0.02738014      -0.04549943      -0.40188675 </v>
   <v>       0.01552906       0.00035792       0.39558106 </v>
   <v>      -0.04899628      -0.06312829      -0.22627757 </v>
   <v>      -0.01594201      -0.06626095       0.47792494 </v>
   <v>      -0.03045597       0.00431984      -0.13924570 </v>
   <v>       0.04938437      -0.04490344       0.33755945 </v>
   <v>       0.01490896      -0.00684735      -0.31709973 </v>
   <v>       0.00182249      -0.02096353       0.07875704 </v>
   <v>       0.05037251       0.01258822      -0.27740250 </v>
   <v>      -0.00415312      -0.01122490       0.26491249 </v>
  </varray>
  <varray name="stress" >
   <v>      -5.86718791       0.01177282      -0.06786036 </v>
   <v>       0.01177278      -5.92683966       0.01747458 </v>
   <v>      -0.06786018       0.01747456       4.44561183 </v>
  </varray>
  <energy>
   <i name="e_fr_energy">   -190.63151755 </i>
   <i name="e_wo_entrp">   -190.53168321 </i>
   <i name="e_0_energy">     -0.19966869 </i>
  </energy>
  <time name="totalsc">  409.67  410.75</time>
 </calculation>
 <calculation>
  <scstep>
   <time name="dav">   23.27   23.33</time>
   <time name="total">   23.78   23.84</time>
   <energy>
    <i name="alphaZ">     90.38598684 </i>
    <i name="ewald">  44762.03211524 </i>
    <i name="hartreedc"> -50808.22067936 </i>
    <i name="XCdc">   -231.68322205 </i>
    <i name="pawpsdc">   4062.10040659 </i>
    <i name="pawaedc">  -3477.94752684 </i>
    <i name="eentropy">     -0.17610653 </i>
    <i name="bandstr">  -1350.01486775 </i>
    <i name="atom">   6761.44252427 </i>
    <i name="e_fr_energy">   -192.08136958 </i>
    <i name="e_wo_entrp">   -191.90526306 </i>
    <i name="e_0_energy">   -191.99331632 </i>
   </energy>
  </scstep>
  <scstep>
   <time name="dav">   33.02   33.10</time>
   <time name="total">   33.54   33.63</time>
   <energy>
    <i name="e_fr_energy">   -191.88464474 </i>
    <i name="e_wo_entrp">   -191.69811545 </i>
    <i name="e_0_energy">   -191.79138010 </i>
   </energy>
  </scstep>
  <scstep>
   <time name="dav">   29.27   29.34</time>
   <time name="total">   29.77   29.85</time>
   <energy>
    <i name="e_fr_energy">   -192.16685027 </i>
    <i name="e_wo_entrp">   -191.96593689 </i>
    <i name="e_0_energy">   -192.06639358 </i>
   </energy>
  </scstep>
  <scstep>
   <time name="dav">   31.82   31.90</time>
   <time name="total">   32.34   32.43</time>
   <energy>
    <i name="e_fr_energy">   -191.53280969 </i>
    <i name="e_wo_entrp">   -191.34968592 </i>
    <i name="e_0_energy">   -191.44124780 </i>
   </energy>
  </scstep>
  <scstep>
   <time name="dav">   32.14   32.22</time>
   <time name="total">   32.65   32.74</time>
   <energy>
    <i name="e_fr_energy">   -191.45799035 </i>
    <i name="e_wo_entrp">   -191.27857172 </i>
    <i name="e_0_energy">   -191.36828104 </i>
   </energy>
  </scstep>
  <scstep>
   <time name="dav">   32.09   32.16</time>
   <time name="total">   32.61   32.69</time>
   <energy>
    <i name="e_fr_energy">   -191.26564089 </i>
    <i name="e_wo_entrp">   -191.08018185 </i>
    <i name="e_0_energy">   -191.17291137 </i>
   </energy>
  </scstep>
  <scstep>
   <time name="dav">   31.97   32.04</time>
   <time name="total">   32.47   32.56</time>
   <energy>
    <i name="e_fr_energy">   -191.25899527 </i>
    <i name="e_wo_entrp">   -191.07449107 </i>
    <i name="e_0_energy">   -191.16674317 </i>
   </energy>
  </scstep>
  <scstep>
   <time name="dav">   28.57   28.63</time>
   <time name="total">   29.09   29.17</time>
   <energy>
    <i name="e_fr_energy">   -191.25417227 </i>
    <i name="e_wo_entrp">   -191.06960471 </i>
    <i name="e_0_energy">   -191.16188849 </i>
   </energy>
  </scstep>
  <scstep>
   <time name="dav">   33.16   33.24</time>
   <time name="total">   33.67   33.75</time>
   <energy>
    <i name="e_fr_energy">   -191.25475044 </i>
    <i name="e_wo_entrp">   -191.07019864 </i>
    <i name="e_0_energy">   -191.16247454 </i>
   </energy>
  </scstep>
  <scstep>
   <time name="dav">   29.90   29.97</time>
   <time name="total">   30.42   30.51</time>
   <energy>
    <i name="e_fr_energy">   -191.25405446 </i>
    <i name="e_wo_entrp">   -191.06948685 </i>
    <i name="e_0_energy">   -191.16177066 </i>
   </energy>
  </scstep>
  <scstep>
   <time name="dav">   28.89   28.96</time>
   <time name="total">   28.93   29.01</time>
   <energy>
    <i name="alphaZ">     90.38598684 </i>
    <i name="ewald">  44762.03211524 </i>
    <i name="hartreedc"> -50771.93176499 </i>
    <i name="XCdc">   -233.32208685 </i>
    <i name="pawpsdc">   4083.80573877 </i>
    <i name="pawaedc">  -3499.72952060 </i>
    <i name="eentropy">     -0.18470507 </i>
    <i name="bandstr">  -1383.75225089 </i>
    <i name="atom">   6761.44252427 </i>
    <i name="e_fr_energy">   -191.25396328 </i>
    <i name="e_wo_entrp">   -191.06925821 </i>
    <i name="e_0_energy">   -191.16161074 </i>
   </energy>
  </scstep>
  <structure>
   <crystal>
    <varray name="basis" >
     <v>       8.27010733       4.77342007       0.00000000 </v>
     <v>      -8.27005053       4.77332326       0.00000000 </v>
     <v>       0.00000000       0.00000000      30.00000000 </v>
    </varray>
    <i name="volume">   2368.56962475 </i>
    <varray name="rec_basis" >
     <v>       0.06045830       0.10474740       0.00000000 </v>
     <v>      -0.06045953       0.10474812       0.00000000 </v>
     <v>       0.00000000       0.00000000       0.03333333 </v>
    </varray>
   </crystal>
   <varray name="positions" >
    <v>       0.65595703       0.33362651      -0.00002197 </v>
    <v>       0.34065909       0.66825900       0.00004669 </v>
    <v>       0.00025789       0.67209179       0.00046546 </v>
    <v>       0.33318819       0.32673180      -0.00011240 </v>
    <v>       0.33127017       0.00906590       0.00021596 </v>
    <v>       0.65976373       0.66441441      -0.00031788 </v>
    <v>       0.00884884       0.00620620       0.00003029 </v>
    <v>       1.00507204       0.32744379       0.00012273 </v>
    <v>       0.66344673      -0.00719035      -0.00027137 </v>
    <v>       0.11119670       0.22160445       0.94619269 </v>
    <v>       0.22156916       0.11135309       0.05420732 </v>
    <v>       0.11377529       0.56048629       0.95099357 </v>
    <v>       0.22548185       0.45060924       0.05140648 </v>
    <v>       0.10763958       0.88261684       0.94807585 </v>
    <v>       0.21936625       0.77209421       0.04933963 </v>
    <v>       0.45165732       0.22601470       0.94687030 </v>
    <v>       0.55972679       0.11769334       0.05113495 </v>
    <v>       0.44003330       0.55821619       0.94806484 </v>
    <v>       0.55897293       0.44111703       0.05204371 </v>
    <v>       0.44073795       0.88266847       0.94916127 </v>
    <v>       0.54845858       0.77452743       0.05253384 </v>
    <v>       0.77491406       0.22521603       0.94996008 </v>
    <v>       0.88842537       0.10962502       0.05271345 </v>
    <v>       0.78062371       0.55212668       0.95001757 </v>
    <v>       0.88613835       0.44635034       0.04838091 </v>
    <v>       0.77896971       0.88997789       0.94772504 </v>
    <v>       0.89206384       0.77526817       0.05102090 </v>
   </varray>
  </structure>
  <varray name="forces" >
   <v>      -0.32338691      -0.10067261      -0.00761874 </v>
   <v>       0.20068164       0.18215674      -0.02897539 </v>
   <v>      -0.15694755       0.07615079       0.03127866 </v>
   <v>       0.03549795      -0.24453829      -0.01269051 </v>
   <v>      -0.30119024       0.03259579      -0.02441853 </v>
   <v>      -0.20622211      -0.09224201      -0.01564400 </v>
   <v>      -0.05719351       0.33411258       0.02584918 </v>
   <v>       0.37117667      -0.01754719       0.00283064 </v>
   <v>       0.29898037      -0.10948184       0.01390378 </v>
   <v>       0.12353916       0.06427311      -0.26326555 </v>
   <v>       0.00912767       0.02868838       0.25590410 </v>
   <v>       0.08411479      -0.03403799       0.10852272 </v>
   <v>       0.10888936      -0.02712843       0.03772585 </v>
   <v>      -0.06125128       0.09020037      -0.08369973 </v>
   <v>      -0.04569383       0.16148781      -0.05949119 </v>
   <v>      -0.07515852      -0.04330826      -0.16648695 </v>
   <v>       0.00926173      -0.08028432      -0.09477409 </v>
   <v>       0.09853665      -0.09138157      -0.06523423 </v>
   <v>      -0.11345448      -0.03759153       0.09481818 </v>
   <v>      -0.14481162       0.02163972       0.06198068 </v>
   <v>       0.01894789       0.00542037       0.17869173 </v>
   <v>       0.04324725      -0.01160309       0.16180026 </v>
   <v>       0.08718588      -0.07064934       0.12776813 </v>
   <v>      -0.10742684      -0.02921192      -0.02401625 </v>
   <v>       0.10086692      -0.05464262      -0.17583564 </v>
   <v>       0.15051707       0.01578437      -0.02646575 </v>
   <v>      -0.14783412       0.03181100      -0.05245738 </v>
  </varray>
  <varray name="stress" >
   <v>      -0.01756596      -0.11825051      -0.09555360 </v>
   <v>      -0.11825056      -0.08058509      -0.03035344 </v>
   <v>      -0.09555363      -0.03035335      -0.38412735 </v>
  </varray>
  <energy>
   <i name="e_fr_energy">   -191.25396328 </i>
   <i name="e_wo_entrp">   -191.16161074 </i>
   <i name="e_0_energy">     -0.18470507 </i>
  </energy>
  <time name="totalsc">  383.76  384.77</time>
 </calculation>
 <calculation>
  <scstep>
   <time name="dav">   23.19   23.25</time>
   <time name="total">   23.71   23.77</time>
   <energy>
    <i name="alphaZ">     90.41961090 </i>
    <i name="ewald">  44760.27537505 </i>
    <i name="hartreedc"> -50771.31314383 </i>
    <i name="XCdc">   -233.37133417 </i>
    <i name="pawpsdc">   4084.26688843 </i>
    <i name="pawaedc">  -3500.18839067 </i>
    <i name="eentropy">     -0.19008644 </i>
    <i name="bandstr">  -1382.65470747 </i>
    <i name="atom">   6761.44252427 </i>
    <i name="e_fr_energy">   -191.31326391 </i>
    <i name="e_wo_entrp">   -191.12317747 </i>
    <i name="e_0_energy">   -191.21822069 </i>
   </energy>
  </scstep>
  <scstep>
   <time name="dav">   35.13   35.21</time>
   <time name="total">   35.63   35.73</time>
   <energy>
    <i name="e_fr_energy">   -191.37179806 </i>
    <i name="e_wo_entrp">   -191.17427956 </i>
    <i name="e_0_energy">   -191.27303881 </i>
   </energy>
  </scstep>
  <scstep>
   <time name="dav">   31.13   31.21</time>
   <time name="total">   31.66   31.74</time>
   <energy>
    <i name="e_fr_energy">   -191.32276065 </i>
    <i name="e_wo_entrp">   -191.13195443 </i>
    <i name="e_0_energy">   -191.22735754 </i>
   </energy>
  </scstep>
  <scstep>
   <time name="dav">   30.53   30.60</time>
   <time name="total">   31.04   31.12</time>
   <energy>
    <i name="e_fr_energy">   -191.32251291 </i>
    <i name="e_wo_entrp">   -191.13178599 </i>
    <i name="e_0_energy">   -191.22714945 </i>
   </energy>
  </scstep>
  <scstep>
   <time name="dav">   30.11   30.19</time>
   <time name="total">   30.64   30.72</time>
   <energy>
    <i name="e_fr_energy">   -191.31967991 </i>
    <i name="e_wo_entrp">   -191.12833657 </i>
    <i name="e_0_energy">   -191.22400824 </i>
   </energy>
  </scstep>
  <scstep>
   <time name="dav">   29.58   29.65</time>
   <time name="total">   30.09   30.17</time>
   <energy>
    <i name="e_fr_energy">   -191.31921048 </i>
    <i name="e_wo_entrp">   -191.12790318 </i>
    <i name="e_0_energy">   -191.22355683 </i>
   </energy>
  </scstep>
  <scstep>
   <time name="dav">   30.83   30.90</time>
   <time name="total">   31.35   31.43</time>
   <energy>
    <i name="e_fr_energy">   -191.31960633 </i>
    <i name="e_wo_entrp">   -191.12828476 </i>
    <i name="e_0_energy">   -191.22394555 </i>
   </energy>
  </scstep>
  <scstep>
   <time name="dav">   26.73   26.79</time>
   <time name="total">   27.24   27.31</time>
   <energy>
    <i name="e_fr_energy">   -191.31907478 </i>
    <i name="e_wo_entrp">   -191.12774407 </i>
    <i name="e_0_energy">   -191.22340943 </i>
   </energy>
  </scstep>
  <scstep>
   <time name="dav">   19.27   19.32</time>
   <time name="total">   19.31   19.36</time>
   <energy>
    <i name="alphaZ">     90.41961090 </i>
    <i name="ewald">  44760.27537505 </i>
    <i name="hartreedc"> -50772.03564532 </i>
    <i name="XCdc">   -233.36514018 </i>
    <i name="pawpsdc">   4082.49417974 </i>
    <i name="pawaedc">  -3498.38156692 </i>
    <i name="eentropy">     -0.19129980 </i>
    <i name="bandstr">  -1381.97708055 </i>
    <i name="atom">   6761.44252427 </i>
    <i name="e_fr_energy">   -191.31904280 </i>
    <i name="e_wo_entrp">   -191.12774299 </i>
    <i name="e_0_energy">   -191.22339290 </i>
   </energy>
  </scstep>
  <structure>
   <crystal>
    <varray name="basis" >
     <v>       8.26776376       4.76953424       0.00000000 </v>
     <v>      -8.27070623       4.77463383       0.00000000 </v>
     <v>       0.00000000       0.00000000      30.00000000 </v>
    </varray>
    <i name="volume">   2367.68883203 </i>
    <varray name="rec_basis" >
     <v>       0.06049740       0.10479468       0.00000000 </v>
     <v>      -0.06043278       0.10475739       0.00000000 </v>
     <v>       0.00000000       0.00000000       0.03333333 </v>
    </varray>
   </crystal>
   <varray name="positions" >
    <v>       0.65447746       0.33406261      -0.00003365 </v>
    <v>       0.34218885       0.66859978      -0.00000080 </v>
    <v>       0.00018506       0.67294980       0.00051682 </v>
    <v>       0.33204388       0.32536866      -0.00013242 </v>
    <v>       0.33054750       0.01013323       0.00017641 </v>
    <v>       0.65867747       0.66455035      -0.00034331 </v>
    <v>       0.01039558       0.00808842       0.00007217 </v>
    <v>       1.00607955       0.32624998       0.00012749 </v>
    <v>       0.66376556      -0.00863663      -0.00024989 </v>
    <v>       0.11188996       0.22156906       0.94575570 </v>
    <v>       0.22174446       0.11147495       0.05463319 </v>
    <v>       0.11385238       0.56007075       0.95116362 </v>
    <v>       0.22566937       0.45015642       0.05147573 </v>
    <v>       0.10791808       0.88325023       0.94793128 </v>
    <v>       0.22005184       0.77304752       0.04924989 </v>
    <v>       0.45122194       0.22601808       0.94658915 </v>
    <v>       0.55934815       0.11726424       0.05098920 </v>
    <v>       0.43985365       0.55746284       0.94794986 </v>
    <v>       0.55845089       0.44125708       0.05220649 </v>
    <v>       0.44041644       0.88319855       0.94925466 </v>
    <v>       0.54853522       0.77449407       0.05283351 </v>
    <v>       0.77497976       0.22503289       0.95021635 </v>
    <v>       0.88832139       0.10900691       0.05292883 </v>
    <v>       0.78016179       0.55229135       0.94997108 </v>
    <v>       0.88615377       0.44577756       0.04810066 </v>
    <v>       0.77949277       0.88961537       0.94767442 </v>
    <v>       0.89179168       0.77586040       0.05094347 </v>
   </varray>
  </structure>
  <varray name="forces" >
   <v>      -0.37315341      -0.05809896       0.00937360 </v>
   <v>       0.19070120       0.18365471      -0.03219716 </v>
   <v>      -0.16765975       0.07180984       0.05380410 </v>
   <v>       0.03579094      -0.22651604       0.02637291 </v>
   <v>      -0.33223591       0.00634904      -0.00401929 </v>
   <v>      -0.19414712      -0.11868949       0.00064694 </v>
   <v>      -0.05403468       0.33579614       0.02409587 </v>
   <v>       0.39857593      -0.01358032      -0.00401777 </v>
   <v>       0.35021520      -0.12223173      -0.02459011 </v>
   <v>       0.08502211       0.03555932      -0.23789176 </v>
   <v>      -0.00248800       0.02362526       0.20499092 </v>
   <v>       0.07060492      -0.02759414       0.13295881 </v>
   <v>       0.07173442      -0.01440114       0.03816679 </v>
   <v>      -0.05464796       0.05426064      -0.06872610 </v>
   <v>      -0.01966613       0.11069708      -0.09931815 </v>
   <v>      -0.05672123      -0.02427299      -0.14108165 </v>
   <v>       0.02434538      -0.04070861      -0.14302513 </v>
   <v>       0.05646705      -0.07517256      -0.06027955 </v>
   <v>      -0.08713815      -0.03520169       0.05504877 </v>
   <v>      -0.08346520       0.02468101       0.09695094 </v>
   <v>       0.01639033      -0.00780854       0.17000296 </v>
   <v>       0.04304365      -0.01888223       0.19862854 </v>
   <v>       0.06540263      -0.04060752       0.10665277 </v>
   <v>      -0.07351289      -0.02909990      -0.00944239 </v>
   <v>       0.08392335      -0.04721009      -0.21302853 </v>
   <v>       0.12373317       0.02258215      -0.00811578 </v>
   <v>      -0.11707983       0.03106078      -0.07196054 </v>
  </varray>
  <varray name="stress" >
   <v>      -0.00297153      -0.02130912      -0.08515995 </v>
   <v>      -0.02130913      -0.04666651       0.01744858 </v>
   <v>      -0.08515983       0.01744883      -1.02597895 </v>
  </varray>
  <energy>
   <i name="e_fr_energy">   -191.31904280 </i>
   <i name="e_wo_entrp">   -191.22339290 </i>
   <i name="e_0_energy">     -0.19129980 </i>
  </energy>
  <time name="totalsc">  305.34  306.14</time>
 </calculation>
 <calculation>
  <scstep>
   <time name="dav">   23.27   23.33</time>
   <time name="total">   23.78   23.84</time>
   <energy>
    <i name="alphaZ">     90.42821867 </i>
    <i name="ewald">  44761.80314535 </i>
    <i name="hartreedc"> -50773.77575551 </i>
    <i name="XCdc">   -233.36944208 </i>
    <i name="pawpsdc">   4082.46758208 </i>
    <i name="pawaedc">  -3498.35489653 </i>
    <i name="eentropy">     -0.19426253 </i>
    <i name="bandstr">  -1381.80880106 </i>
    <i name="atom">   6761.44252427 </i>
    <i name="e_fr_energy">   -191.36168734 </i>
    <i name="e_wo_entrp">   -191.16742481 </i>
    <i name="e_0_energy">   -191.26455608 </i>
   </energy>
  </scstep>
  <scstep>
   <time name="dav">   35.26   35.34</time>
   <time name="total">   35.78   35.87</time>
   <energy>
    <i name="e_fr_energy">   -191.38531792 </i>
    <i name="e_wo_entrp">   -191.18473641 </i>
    <i name="e_0_energy">   -191.28502716 </i>
   </energy>
  </scstep>
  <scstep>
   <time name="dav">   31.74   31.81</time>
   <time name="total">   32.24   32.33</time>
   <energy>
    <i name="e_fr_energy">   -191.36523220 </i>
    <i name="e_wo_entrp">   -191.17044328 </i>
    <i name="e_0_energy">   -191.26783774 </i>
   </energy>
  </scstep>
  <scstep>
   <time name="dav">   29.91   29.98</time>
   <time name="total">   30.43   30.51</time>
   <energy>
    <i name="e_fr_energy">   -191.36529974 </i>
    <i name="e_wo_entrp">   -191.17055941 </i>
    <i name="e_0_energy">   -191.26792957 </i>
   </energy>
  </scstep>
  <scstep>
   <time name="dav">   29.76   29.83</time>
   <time name="total">   30.26   30.34</time>
   <energy>
    <i name="e_fr_energy">   -191.36393556 </i>
    <i name="e_wo_entrp">   -191.16860471 </i>
    <i name="e_0_energy">   -191.26627014 </i>
   </energy>
  </scstep>
  <scstep>
   <time name="dav">   28.38   28.45</time>
   <time name="total">   28.91   28.99</time>
   <energy>
    <i name="e_fr_energy">   -191.36373922 </i>
    <i name="e_wo_entrp">   -191.16844321 </i>
    <i name="e_0_energy">   -191.26609122 </i>
   </energy>
  </scstep>
  <scstep>
   <time name="dav">   28.19   28.26</time>
   <time name="total">   28.70   28.77</time>
   <energy>
    <i name="e_fr_energy">   -191.36388216 </i>
    <i name="e_wo_entrp">   -191.16858793 </i>
    <i name="e_0_energy">   -191.26623504 </i>
   </energy>
  </scstep>
  <scstep>
   <time name="dav">   24.82   24.88</time>
   <time name="total">   25.35   25.42</time>
   <energy>
    <i name="e_fr_energy">   -191.36367800 </i>
    <i name="e_wo_entrp">   -191.16835903 </i>
    <i name="e_0_energy">   -191.26601851 </i>
   </energy>
  </scstep>
  <scstep>
   <time name="dav">   19.51   19.56</time>
   <time name="total">   19.55   19.61</time>
   <energy>
    <i name="alphaZ">     90.42821867 </i>
    <i name="ewald">  44761.80314535 </i>
    <i name="hartreedc"> -50774.23464498 </i>
    <i name="XCdc">   -233.35819029 </i>
[...]
      <set comment="kpoint 31">
       <r>  -17.6007    1.0000 </r>
       <r>  -17.2650    1.0000 </r>
       <r>  -16.9178    1.0000 </r>
       <r>  -16.6988    1.0000 </r>
       <r>  -16.5400    1.0000 </r>
       <r>  -16.4727    1.0000 </r>
       <r>  -16.3385    1.0000 </r>
       <r>  -16.2260    1.0000 </r>
       <r>  -16.1775    1.0000 </r>
       <r>  -16.0486    1.0000 </r>
       <r>  -15.9254    1.0000 </r>
       <r>  -15.8384    1.0000 </r>
       <r>  -15.7616    1.0000 </r>
       <r>  -15.6116    1.0000 </r>
       <r>  -15.5383    1.0000 </r>
       <r>  -15.4366    1.0000 </r>
       <r>  -15.3520    1.0000 </r>
       <r>  -15.2280    1.0000 </r>
       <r>   -9.8070    1.0000 </r>
       <r>   -9.5236    1.0000 </r>
       <r>   -9.3981    1.0000 </r>
       <r>   -9.0731    1.0000 </r>
       <r>   -8.8515    1.0000 </r>
       <r>   -8.6668    1.0000 </r>
       <r>   -8.5902    1.0000 </r>
       <r>   -8.5375    1.0000 </r>
       <r>   -8.4275    1.0000 </r>
       <r>   -8.3410    1.0000 </r>
       <r>   -8.2881    1.0000 </r>
       <r>   -8.2049    1.0000 </r>
       <r>   -8.1451    1.0000 </r>
       <r>   -8.0514    1.0000 </r>
       <r>   -7.9555    1.0000 </r>
       <r>   -7.9013    1.0000 </r>
       <r>   -7.7752    1.0000 </r>
       <r>   -7.7018    1.0000 </r>
       <r>   -7.6144    1.0000 </r>
       <r>   -7.5101    1.0000 </r>
       <r>   -7.4063    1.0000 </r>
       <r>   -7.2485    1.0000 </r>
       <r>   -7.1491    1.0000 </r>
       <r>   -7.0687    1.0000 </r>
       <r>   -7.0436    1.0000 </r>
       <r>   -6.9390    1.0000 </r>
       <r>   -6.8875    1.0000 </r>
       <r>   -6.7612    1.0000 </r>
       <r>   -6.6550    1.0000 </r>
       <r>   -6.5538    1.0000 </r>
       <r>   -6.5213    1.0000 </r>
       <r>   -6.4342    1.0000 </r>
       <r>   -6.3573    1.0000 </r>
       <r>   -6.3297    1.0000 </r>
       <r>   -6.2478    1.0000 </r>
       <r>   -6.1735    1.0000 </r>
       <r>   -6.1113    1.0000 </r>
       <r>   -6.0612    1.0000 </r>
       <r>   -5.9823    1.0000 </r>
       <r>   -5.9414    1.0000 </r>
       <r>   -5.8594    1.0000 </r>
       <r>   -5.6963    1.0000 </r>
       <r>   -5.6282    1.0000 </r>
       <r>   -5.5459    1.0000 </r>
       <r>   -5.4820    1.0000 </r>
       <r>   -5.3876    1.0000 </r>
       <r>   -5.2567    1.0000 </r>
       <r>   -5.2353    1.0000 </r>
       <r>   -4.9414    1.0000 </r>
       <r>   -4.8757    1.0000 </r>
       <r>   -4.7875    1.0000 </r>
       <r>   -4.6924    1.0000 </r>
       <r>   -4.4798    1.0000 </r>
       <r>   -4.4472    1.0000 </r>
       <r>   -4.3266    1.0000 </r>
       <r>   -4.2080    1.0000 </r>
       <r>   -4.1436    1.0000 </r>
       <r>   -3.9885    1.0000 </r>
       <r>   -3.8995    1.0000 </r>
       <r>   -3.6905    0.9996 </r>
       <r>   -3.5732    0.9938 </r>
       <r>   -3.1368    0.2801 </r>
       <r>   -2.9630    0.0350 </r>
       <r>   -2.8913    0.0102 </r>
       <r>   -2.6633    0.0000 </r>
       <r>   -2.5465    0.0000 </r>
       <r>   -2.5219    0.0000 </r>
       <r>   -2.3863    0.0000 </r>
       <r>   -2.2091    0.0000 </r>
       <r>   -2.0639    0.0000 </r>
       <r>   -1.9975    0.0000 </r>
       <r>   -1.8853    0.0000 </r>
       <r>   -1.7615    0.0000 </r>
       <r>   -1.4838    0.0000 </r>
       <r>   -1.3491    0.0000 </r>
       <r>   -1.3124    0.0000 </r>
       <r>   -1.1826    0.0000 </r>
       <r>   -1.1409    0.0000 </r>
       <r>   -1.0690    0.0000 </r>
       <r>   -0.9802    0.0000 </r>
       <r>   -0.9386    0.0000 </r>
       <r>   -0.8457    0.0000 </r>
       <r>   -0.8036    0.0000 </r>
       <r>   -0.7728    0.0000 </r>
       <r>   -0.7191    0.0000 </r>
       <r>   -0.5825    0.0000 </r>
       <r>   -0.4671    0.0000 </r>
       <r>   -0.2386    0.0000 </r>
       <r>   -0.1838    0.0000 </r>
       <r>   -0.0453    0.0000 </r>
       <r>    0.0387    0.0000 </r>
       <r>    0.1622    0.0000 </r>
       <r>    0.4330    0.0000 </r>
       <r>    0.5578    0.0000 </r>
       <r>    0.7049    0.0000 </r>
       <r>    0.8436    0.0000 </r>
       <r>    1.1707    0.0000 </r>
       <r>    1.2468    0.0000 </r>
       <r>    1.5260    0.0000 </r>
       <r>    2.1395    0.0000 </r>
       <r>    2.3097    0.0000 </r>
       <r>    2.3979    0.0000 </r>
      </set>
      <set comment="kpoint 32">
       <r>  -17.6215    1.0000 </r>
       <r>  -17.1453    1.0000 </r>
       <r>  -17.0692    1.0000 </r>
       <r>  -16.7107    1.0000 </r>
       <r>  -16.5005    1.0000 </r>
       <r>  -16.3905    1.0000 </r>
       <r>  -16.2909    1.0000 </r>
       <r>  -16.2584    1.0000 </r>
       <r>  -16.2143    1.0000 </r>
       <r>  -16.0344    1.0000 </r>
       <r>  -15.9576    1.0000 </r>
       <r>  -15.8497    1.0000 </r>
       <r>  -15.7514    1.0000 </r>
       <r>  -15.6288    1.0000 </r>
       <r>  -15.5655    1.0000 </r>
       <r>  -15.4740    1.0000 </r>
       <r>  -15.3232    1.0000 </r>
       <r>  -15.1933    1.0000 </r>
       <r>   -9.7039    1.0000 </r>
       <r>   -9.5962    1.0000 </r>
       <r>   -9.5045    1.0000 </r>
       <r>   -9.1133    1.0000 </r>
       <r>   -8.7826    1.0000 </r>
       <r>   -8.5495    1.0000 </r>
       <r>   -8.5234    1.0000 </r>
       <r>   -8.4303    1.0000 </r>
       <r>   -8.3992    1.0000 </r>
       <r>   -8.3619    1.0000 </r>
       <r>   -8.3190    1.0000 </r>
       <r>   -8.2921    1.0000 </r>
       <r>   -8.1908    1.0000 </r>
       <r>   -8.0934    1.0000 </r>
       <r>   -8.0004    1.0000 </r>
       <r>   -7.9259    1.0000 </r>
       <r>   -7.7941    1.0000 </r>
       <r>   -7.7330    1.0000 </r>
       <r>   -7.6131    1.0000 </r>
       <r>   -7.4544    1.0000 </r>
       <r>   -7.3832    1.0000 </r>
       <r>   -7.2640    1.0000 </r>
       <r>   -7.1390    1.0000 </r>
       <r>   -7.0748    1.0000 </r>
       <r>   -7.0620    1.0000 </r>
       <r>   -6.9709    1.0000 </r>
       <r>   -6.8416    1.0000 </r>
       <r>   -6.7904    1.0000 </r>
       <r>   -6.6498    1.0000 </r>
       <r>   -6.5437    1.0000 </r>
       <r>   -6.4538    1.0000 </r>
       <r>   -6.4273    1.0000 </r>
       <r>   -6.3627    1.0000 </r>
       <r>   -6.3129    1.0000 </r>
       <r>   -6.2561    1.0000 </r>
       <r>   -6.1690    1.0000 </r>
       <r>   -6.1306    1.0000 </r>
       <r>   -6.0407    1.0000 </r>
       <r>   -5.9955    1.0000 </r>
       <r>   -5.8825    1.0000 </r>
       <r>   -5.8232    1.0000 </r>
       <r>   -5.7021    1.0000 </r>
       <r>   -5.6240    1.0000 </r>
       <r>   -5.5775    1.0000 </r>
       <r>   -5.4782    1.0000 </r>
       <r>   -5.4228    1.0000 </r>
       <r>   -5.3584    1.0000 </r>
       <r>   -5.2210    1.0000 </r>
       <r>   -5.1447    1.0000 </r>
       <r>   -4.8129    1.0000 </r>
       <r>   -4.7088    1.0000 </r>
       <r>   -4.6666    1.0000 </r>
       <r>   -4.4680    1.0000 </r>
       <r>   -4.3997    1.0000 </r>
       <r>   -4.3489    1.0000 </r>
       <r>   -4.2280    1.0000 </r>
       <r>   -4.1776    1.0000 </r>
       <r>   -4.0270    1.0000 </r>
       <r>   -3.9903    1.0000 </r>
       <r>   -3.6367    0.9984 </r>
       <r>   -3.5377    0.9878 </r>
       <r>   -3.1393    0.2860 </r>
       <r>   -2.9214    0.0176 </r>
       <r>   -2.8012    0.0016 </r>
       <r>   -2.6825    0.0001 </r>
       <r>   -2.5471    0.0000 </r>
       <r>   -2.4558    0.0000 </r>
       <r>   -2.3872    0.0000 </r>
       <r>   -2.1667    0.0000 </r>
       <r>   -2.0125    0.0000 </r>
       <r>   -1.9516    0.0000 </r>
       <r>   -1.9163    0.0000 </r>
       <r>   -1.7398    0.0000 </r>
       <r>   -1.5251    0.0000 </r>
       <r>   -1.4273    0.0000 </r>
       <r>   -1.3274    0.0000 </r>
       <r>   -1.2453    0.0000 </r>
       <r>   -1.1989    0.0000 </r>
       <r>   -1.0457    0.0000 </r>
       <r>   -1.0006    0.0000 </r>
       <r>   -0.9452    0.0000 </r>
       <r>   -0.8887    0.0000 </r>
       <r>   -0.8478    0.0000 </r>
       <r>   -0.7257    0.0000 </r>
       <r>   -0.6755    0.0000 </r>
       <r>   -0.5762    0.0000 </r>
       <r>   -0.3624    0.0000 </r>
       <r>   -0.2574    0.0000 </r>
       <r>   -0.1479    0.0000 </r>
       <r>   -0.0464    0.0000 </r>
       <r>    0.1176    0.0000 </r>
       <r>    0.2089    0.0000 </r>
       <r>    0.3966    0.0000 </r>
       <r>    0.5925    0.0000 </r>
       <r>    0.6862    0.0000 </r>
       <r>    0.8174    0.0000 </r>
       <r>    1.0756    0.0000 </r>
       <r>    1.2217    0.0000 </r>
       <r>    1.4145    0.0000 </r>
       <r>    2.0989    0.0000 </r>
       <r>    2.2802    0.0000 </r>
       <r>    2.5520    0.0000 </r>
      </set>
      <set comment="kpoint 33">
       <r>  -17.6255    1.0000 </r>
       <r>  -17.2167    1.0000 </r>
       <r>  -16.9361    1.0000 </r>
       <r>  -16.7200    1.0000 </r>
       <r>  -16.5387    1.0000 </r>
       <r>  -16.4273    1.0000 </r>
       <r>  -16.3504    1.0000 </r>
       <r>  -16.2759    1.0000 </r>
       <r>  -16.1188    1.0000 </r>
       <r>  -15.9876    1.0000 </r>
       <r>  -15.9454    1.0000 </r>
       <r>  -15.8513    1.0000 </r>
       <r>  -15.7482    1.0000 </r>
       <r>  -15.6512    1.0000 </r>
       <r>  -15.5867    1.0000 </r>
       <r>  -15.5337    1.0000 </r>
       <r>  -15.2749    1.0000 </r>
       <r>  -15.1930    1.0000 </r>
       <r>   -9.7573    1.0000 </r>
       <r>   -9.4711    1.0000 </r>
       <r>   -9.4451    1.0000 </r>
       <r>   -9.1402    1.0000 </r>
       <r>   -8.9524    1.0000 </r>
       <r>   -8.7161    1.0000 </r>
       <r>   -8.5183    1.0000 </r>
       <r>   -8.4111    1.0000 </r>
       <r>   -8.3790    1.0000 </r>
       <r>   -8.3192    1.0000 </r>
       <r>   -8.2729    1.0000 </r>
       <r>   -8.2131    1.0000 </r>
       <r>   -8.1912    1.0000 </r>
       <r>   -8.1071    1.0000 </r>
       <r>   -8.0282    1.0000 </r>
       <r>   -7.8495    1.0000 </r>
       <r>   -7.7799    1.0000 </r>
       <r>   -7.7085    1.0000 </r>
       <r>   -7.6599    1.0000 </r>
       <r>   -7.4121    1.0000 </r>
       <r>   -7.3150    1.0000 </r>
       <r>   -7.2867    1.0000 </r>
       <r>   -7.1598    1.0000 </r>
       <r>   -7.1059    1.0000 </r>
       <r>   -7.0426    1.0000 </r>
       <r>   -6.8777    1.0000 </r>
       <r>   -6.8426    1.0000 </r>
       <r>   -6.7328    1.0000 </r>
       <r>   -6.6537    1.0000 </r>
       <r>   -6.5835    1.0000 </r>
       <r>   -6.4857    1.0000 </r>
       <r>   -6.4286    1.0000 </r>
       <r>   -6.3896    1.0000 </r>
       <r>   -6.3339    1.0000 </r>
       <r>   -6.2608    1.0000 </r>
       <r>   -6.1608    1.0000 </r>
       <r>   -6.1322    1.0000 </r>
       <r>   -6.0645    1.0000 </r>
       <r>   -6.0281    1.0000 </r>
       <r>   -5.9229    1.0000 </r>
       <r>   -5.8329    1.0000 </r>
       <r>   -5.7732    1.0000 </r>
       <r>   -5.6984    1.0000 </r>
       <r>   -5.5754    1.0000 </r>
       <r>   -5.4937    1.0000 </r>
       <r>   -5.4093    1.0000 </r>
       <r>   -5.3303    1.0000 </r>
       <r>   -5.1991    1.0000 </r>
       <r>   -5.1148    1.0000 </r>
       <r>   -4.7925    1.0000 </r>
       <r>   -4.7437    1.0000 </r>
       <r>   -4.5723    1.0000 </r>
       <r>   -4.5353    1.0000 </r>
       <r>   -4.3803    1.0000 </r>
       <r>   -4.2863    1.0000 </r>
       <r>   -4.2562    1.0000 </r>
       <r>   -4.1381    1.0000 </r>
       <r>   -4.0650    1.0000 </r>
       <r>   -4.0354    1.0000 </r>
       <r>   -3.6608    0.9991 </r>
       <r>   -3.5667    0.9930 </r>
       <r>   -3.0811    0.1644 </r>
       <r>   -2.9559    0.0313 </r>
       <r>   -2.7135    0.0002 </r>
       <r>   -2.6821    0.0001 </r>
       <r>   -2.5501    0.0000 </r>
       <r>   -2.3999    0.0000 </r>
       <r>   -2.3700    0.0000 </r>
       <r>   -2.1361    0.0000 </r>
       <r>   -1.9848    0.0000 </r>
       <r>   -1.8883    0.0000 </r>
       <r>   -1.8601    0.0000 </r>
       <r>   -1.7126    0.0000 </r>
       <r>   -1.5576    0.0000 </r>
       <r>   -1.5342    0.0000 </r>
       <r>   -1.3655    0.0000 </r>
       <r>   -1.2783    0.0000 </r>
       <r>   -1.2391    0.0000 </r>
       <r>   -1.0743    0.0000 </r>
       <r>   -0.9893    0.0000 </r>
       <r>   -0.9745    0.0000 </r>
       <r>   -0.9200    0.0000 </r>
       <r>   -0.8667    0.0000 </r>
       <r>   -0.7265    0.0000 </r>
       <r>   -0.6607    0.0000 </r>
       <r>   -0.5397    0.0000 </r>
       <r>   -0.3343    0.0000 </r>
       <r>   -0.2632    0.0000 </r>
       <r>   -0.1022    0.0000 </r>
       <r>   -0.0332    0.0000 </r>
       <r>    0.1398    0.0000 </r>
       <r>    0.2516    0.0000 </r>
       <r>    0.3977    0.0000 </r>
       <r>    0.5776    0.0000 </r>
       <r>    0.7136    0.0000 </r>
       <r>    0.8531    0.0000 </r>
       <r>    0.9938    0.0000 </r>
       <r>    1.1914    0.0000 </r>
       <r>    1.3631    0.0000 </r>
       <r>    2.1152    0.0000 </r>
       <r>    2.3116    0.0000 </r>
       <r>    2.3758    0.0000 </r>
      </set>
      <set comment="kpoint 34">
       <r>  -17.6229    1.0000 </r>
       <r>  -17.2607    1.0000 </r>
       <r>  -16.7585    1.0000 </r>
       <r>  -16.7273    1.0000 </r>
       <r>  -16.6972    1.0000 </r>
       <r>  -16.4321    1.0000 </r>
       <r>  -16.3284    1.0000 </r>
       <r>  -16.3177    1.0000 </r>
       <r>  -16.0831    1.0000 </r>
       <r>  -15.9784    1.0000 </r>
       <r>  -15.9176    1.0000 </r>
       <r>  -15.8165    1.0000 </r>
       <r>  -15.7479    1.0000 </r>
       <r>  -15.6830    1.0000 </r>
       <r>  -15.6010    1.0000 </r>
       <r>  -15.5586    1.0000 </r>
       <r>  -15.2348    1.0000 </r>
       <r>  -15.2174    1.0000 </r>
       <r>   -9.7952    1.0000 </r>
       <r>   -9.3873    1.0000 </r>
       <r>   -9.3114    1.0000 </r>
       <r>   -9.1623    1.0000 </r>
       <r>   -9.0902    1.0000 </r>
       <r>   -8.8639    1.0000 </r>
       <r>   -8.5165    1.0000 </r>
       <r>   -8.4262    1.0000 </r>
       <r>   -8.3841    1.0000 </r>
       <r>   -8.2986    1.0000 </r>
       <r>   -8.2457    1.0000 </r>
       <r>   -8.2178    1.0000 </r>
       <r>   -8.1568    1.0000 </r>
       <r>   -8.0918    1.0000 </r>
       <r>   -7.9367    1.0000 </r>
       <r>   -7.8806    1.0000 </r>
       <r>   -7.8436    1.0000 </r>
       <r>   -7.7607    1.0000 </r>
       <r>   -7.4859    1.0000 </r>
       <r>   -7.3526    1.0000 </r>
       <r>   -7.3385    1.0000 </r>
       <r>   -7.2551    1.0000 </r>
       <r>   -7.1335    1.0000 </r>
       <r>   -7.0993    1.0000 </r>
       <r>   -7.0530    1.0000 </r>
       <r>   -7.0133    1.0000 </r>
       <r>   -6.8079    1.0000 </r>
       <r>   -6.6970    1.0000 </r>
       <r>   -6.6007    1.0000 </r>
       <r>   -6.5442    1.0000 </r>
       <r>   -6.5388    1.0000 </r>
       <r>   -6.4847    1.0000 </r>
       <r>   -6.4145    1.0000 </r>
       <r>   -6.3068    1.0000 </r>
       <r>   -6.2467    1.0000 </r>
       <r>   -6.2300    1.0000 </r>
       <r>   -6.1481    1.0000 </r>
       <r>   -6.0883    1.0000 </r>
       <r>   -6.0584    1.0000 </r>
       <r>   -5.8891    1.0000 </r>
       <r>   -5.8199    1.0000 </r>
       <r>   -5.7723    1.0000 </r>
       <r>   -5.7486    1.0000 </r>
       <r>   -5.6723    1.0000 </r>
       <r>   -5.4888    1.0000 </r>
       <r>   -5.3671    1.0000 </r>
       <r>   -5.2967    1.0000 </r>
       <r>   -5.2715    1.0000 </r>
       <r>   -4.9192    1.0000 </r>
       <r>   -4.8711    1.0000 </r>
       <r>   -4.7058    1.0000 </r>
       <r>   -4.6385    1.0000 </r>
       <r>   -4.5141    1.0000 </r>
       <r>   -4.3363    1.0000 </r>
       <r>   -4.3164    1.0000 </r>
       <r>   -4.2653    1.0000 </r>
       <r>   -4.1413    1.0000 </r>
       <r>   -4.0603    1.0000 </r>
       <r>   -3.9797    1.0000 </r>
       <r>   -3.7047    0.9997 </r>
       <r>   -3.5959    0.9961 </r>
       <r>   -3.0661    0.1394 </r>
       <r>   -2.9724    0.0405 </r>
       <r>   -2.6899    0.0001 </r>
       <r>   -2.6655    0.0000 </r>
       <r>   -2.5486    0.0000 </r>
       <r>   -2.4039    0.0000 </r>
       <r>   -2.3372    0.0000 </r>
       <r>   -2.1242    0.0000 </r>
       <r>   -1.9717    0.0000 </r>
       <r>   -1.8576    0.0000 </r>
       <r>   -1.8257    0.0000 </r>
       <r>   -1.6786    0.0000 </r>
       <r>   -1.5981    0.0000 </r>
       <r>   -1.5703    0.0000 </r>
       <r>   -1.3878    0.0000 </r>
       <r>   -1.2818    0.0000 </r>
       <r>   -1.2608    0.0000 </r>
       <r>   -1.0863    0.0000 </r>
       <r>   -1.0041    0.0000 </r>
       <r>   -0.9765    0.0000 </r>
       <r>   -0.9266    0.0000 </r>
       <r>   -0.8739    0.0000 </r>
       <r>   -0.7472    0.0000 </r>
       <r>   -0.6437    0.0000 </r>
       <r>   -0.5316    0.0000 </r>
       <r>   -0.3437    0.0000 </r>
       <r>   -0.2468    0.0000 </r>
       <r>   -0.0955    0.0000 </r>
       <r>   -0.0204    0.0000 </r>
       <r>    0.1143    0.0000 </r>
       <r>    0.2862    0.0000 </r>
       <r>    0.4097    0.0000 </r>
       <r>    0.6230    0.0000 </r>
       <r>    0.6616    0.0000 </r>
       <r>    0.8781    0.0000 </r>
       <r>    0.9807    0.0000 </r>
       <r>    1.1831    0.0000 </r>
       <r>    1.3592    0.0000 </r>
       <r>    2.1576    0.0000 </r>
       <r>    2.2610    0.0000 </r>
       <r>    2.3987    0.0000 </r>
      </set>
     </set>
    </set>
   </array>
  </eigenvalues>
  <separator name="orbital magnetization" >
   <v name="MAGDIPOLOUT">      0.00000000      0.00000000      0.00000000</v>
  </separator>
 </calculation>
 <structure name="finalpos" >
  <crystal>
   <varray name="basis" >
    <v>       8.34656642       4.79282973       0.00000000 </v>
    <v>      -8.34192380       4.78478671       0.00000000 </v>
    <v>       0.00000000       0.00000000      30.00000000 </v>
   </varray>
   <i name="volume">   2397.53881517 </i>
   <varray name="rec_basis" >
    <v>       0.05987123       0.10438109       0.00000000 </v>
    <v>      -0.05997187       0.10443918       0.00000000 </v>
    <v>       0.00000000       0.00000000       0.03333333 </v>
   </varray>
  </crystal>
  <varray name="positions" >
   <v>       0.64376414       0.34525261      -0.00185867 </v>
   <v>       0.34963050       0.64940085       0.00199034 </v>
   <v>      -0.01330697       0.68932654      -0.00155791 </v>
   <v>       0.33224208       0.33017915      -0.00018925 </v>
   <v>       0.31586318       0.02091535      -0.00174115 </v>
   <v>       0.64533520       0.65182899      -0.00041295 </v>
   <v>       0.01789407       0.01972150      -0.00000657 </v>
   <v>       1.02014924       0.31930272       0.00105901 </v>
   <v>       0.68404077      -0.02361159       0.00268925 </v>
   <v>       0.11633876       0.22249261       0.94329192 </v>
   <v>       0.22184373       0.11673823       0.05618345 </v>
   <v>       0.11396026       0.56023400       0.95615542 </v>
   <v>       0.22623661       0.44883438       0.05502662 </v>
   <v>       0.10711433       0.88954044       0.94480710 </v>
   <v>       0.22048005       0.77521382       0.04302628 </v>
   <v>       0.44836164       0.22829066       0.94419498 </v>
   <v>       0.55863948       0.11250904       0.04439964 </v>
   <v>       0.43864447       0.55463601       0.94553505 </v>
   <v>       0.55543807       0.44046671       0.05377441 </v>
   <v>       0.44348533       0.88640818       0.95715666 </v>
   <v>       0.54927384       0.76852462       0.05613297 </v>
   <v>       0.77451395       0.21994745       0.95686224 </v>
   <v>       0.89341665       0.11093818       0.05647017 </v>
   <v>       0.77607297       0.55173192       0.94731862 </v>
   <v>       0.88860331       0.44674675       0.04190432 </v>
   <v>       0.78324367       0.88192134       0.94757758 </v>
   <v>       0.88693510       0.78072399       0.05021040 </v>
  </varray>
 </structure>
</modeling>
