unknown system                          
           1
     8.856791    5.104458    0.000000
    -8.856755    5.104398    0.000000
     0.000000    0.000000   30.000000
   V    Mo   W    S 
   3   3   3  18
Direct configuration=     1
   0.66666669  0.33333334  0.00000000
   0.33333334  0.66666669  0.00000000
   0.00000000  0.66666669  0.00000000
   0.33333334  0.33333334  0.00000000
   0.33333334  0.00000000  0.00000000
   0.66666669  0.66666669  0.00000000
   0.00000000  0.00000000  0.00000000
   1.00000000  0.33333334  0.00000000
   0.66666669  0.00000000  0.00000000
   0.11068511  0.22244981  0.95539999
   0.22244981  0.11068511  0.04460000
   0.11068511  0.55578315  0.95539999
   0.22244981  0.44401845  0.04460000
   0.11068511  0.88911647  0.95539999
   0.22244981  0.77735180  0.04460000
   0.44401845  0.22244981  0.95539999
   0.55578315  0.11068511  0.04460000
   0.44401845  0.55578315  0.95539999
   0.55578315  0.44401845  0.04460000
   0.44401845  0.88911647  0.95539999
   0.55578315  0.77735180  0.04460000
   0.77735180  0.22244981  0.95539999
   0.88911647  0.11068511  0.04460000
   0.77735180  0.55578315  0.95539999
   0.88911647  0.44401845  0.04460000
   0.77735180  0.88911647  0.95539999
   0.88911647  0.77735180  0.04460000
unknown system                          
           1
     8.668120    4.998173    0.000000
    -8.667947    4.997873    0.000000
     0.000000    0.000000   30.000000
   V    Mo   W    S 
   3   3   3  18
Direct configuration=     2
   0.66469417  0.33382022 -0.00017974
   0.33413241  0.66670481  0.00020000
   0.00002457  0.66742016  0.00004006
   0.33472424  0.33327113 -0.00022757
   0.33321431  0.00108963  0.00009932
   0.66536815  0.66506703 -0.00013336
   0.00161839 -0.00024897 -0.00000983
   1.00141460  0.33399120  0.00004911
   0.66488408 -0.00145142  0.00019567
   0.11025887  0.22166989  0.95070589
   0.22106613  0.11048279  0.04924827
   0.11250223  0.55893362  0.95312008
   0.22338406  0.44854150  0.04806119
   0.10833165  0.88478433  0.95188881
   0.22020274  0.77323361  0.04684998
   0.44892874  0.22446686  0.95185610
   0.55816668  0.11500667  0.04804573
   0.44195199  0.55778078  0.95201715
   0.55791469  0.44202978  0.04804003
   0.44305256  0.88479252  0.95194260
   0.55131468  0.77645067  0.04813531
   0.77565734  0.22425130  0.95200426
   0.88863286  0.11092953  0.04930773
   0.77973908  0.55316133  0.95303520
   0.88706441  0.44605634  0.04690819
   0.77830005  0.88966699  0.95080337
   0.89167077  0.77631213  0.04799633
unknown system                          
           1
     8.487048    4.899496    0.000000
    -8.487329    4.899983    0.000000
     0.000000    0.000000   30.000000
   V    Mo   W    S 
   3   3   3  18
Direct configuration=     3
   0.66401156  0.33390206 -0.00020379
   0.33454084  0.66679396  0.00022233
   0.00003439  0.66774314  0.00009043
   0.33488068  0.33297662 -0.00025390
   0.33310767  0.00164685  0.00014332
   0.66491882  0.66483315 -0.00018282
   0.00216868  0.00000672 -0.00000534
   1.00177203  0.33370481  0.00005554
   0.66456610 -0.00193023  0.00016716
   0.11004647  0.22157314  0.95067947
   0.22085192  0.11040134  0.04933029
   0.11245094  0.55876737  0.95320133
   0.22325802  0.44855855  0.04805247
   0.10815179  0.88477605  0.95185632
   0.22012803  0.77315977  0.04678649
   0.44910448  0.22457981  0.95173854
   0.55838691  0.11502864  0.04802871
   0.44187488  0.55783442  0.95196546
   0.55798746  0.44198615  0.04811293
   0.44318476  0.88478367  0.95198104
   0.55126213  0.77656369  0.04819447
   0.77574510  0.22417287  0.95211931
   0.88863669  0.11086747  0.04924886
   0.77976156  0.55310980  0.95306095
   0.88716779  0.44596291  0.04676896
   0.77840884  0.88994253  0.95086469
   0.89180592  0.77646917  0.04797668
unknown system                          
           1
     8.270107    4.773420    0.000000
    -8.270051    4.773323    0.000000
     0.000000    0.000000   30.000000
   V    Mo   W    S 
   3   3   3  18
Direct configuration=     4
   0.66128539  0.33380749 -0.00020619
   0.33642749  0.66724463  0.00022406
   0.00011606  0.66919096  0.00025934
   0.33470690  0.33119661 -0.00024472
   0.33262495  0.00404314  0.00023767
   0.66328435  0.66454656 -0.00028084
   0.00421190  0.00168138  0.00001046
   1.00281125  0.33167241  0.00006630
   0.66403791 -0.00356584 -0.00001314
   0.11009708  0.22157572  0.94891438
   0.22093990  0.11065105  0.05127317
   0.11303892  0.55972565  0.95218432
   0.22409737  0.44968297  0.04948078
   0.10764781  0.88357903  0.95026327
   0.21951946  0.77222199  0.04783351
   0.45050083  0.22530100  0.94981632
   0.55920589  0.11634390  0.04940612
   0.44106563  0.55832637  0.95033366
   0.55860694  0.44145581  0.04979255
   0.44233178  0.88365420  0.95070204
   0.54994576  0.77572127  0.04993967
   0.77535735  0.22464298  0.95111672
   0.88861819  0.11054163  0.05067529
   0.78032211  0.55254893  0.95183868
   0.88670864  0.44630910  0.04754112
   0.77854787  0.89026029  0.94951138
   0.89215674  0.77585522  0.04932398
unknown system                          
           1
     8.267764    4.769534    0.000000
    -8.270706    4.774634    0.000000
     0.000000    0.000000   30.000000
   V    Mo   W    S 
   3   3   3  18
Direct configuration=     5
   0.65595703  0.33362651 -0.00002197
   0.34065909  0.66825900  0.00004669
   0.00025789  0.67209179  0.00046546
   0.33318819  0.32673180 -0.00011240
   0.33127017  0.00906590  0.00021596
   0.65976373  0.66441441 -0.00031788
   0.00884884  0.00620620  0.00003029
   1.00507204  0.32744379  0.00012273
   0.66344673 -0.00719035 -0.00027137
   0.11119670  0.22160445  0.94619269
   0.22156916  0.11135309  0.05420732
   0.11377529  0.56048629  0.95099357
   0.22548185  0.45060924  0.05140648
   0.10763958  0.88261684  0.94807585
   0.21936625  0.77209421  0.04933963
   0.45165732  0.22601470  0.94687030
   0.55972679  0.11769334  0.05113495
   0.44003330  0.55821619  0.94806484
   0.55897293  0.44111703  0.05204371
   0.44073795  0.88266847  0.94916127
   0.54845858  0.77452743  0.05253384
   0.77491406  0.22521603  0.94996008
   0.88842537  0.10962502  0.05271345
   0.78062371  0.55212668  0.95001757
   0.88613835  0.44635034  0.04838091
   0.77896971  0.88997789  0.94772504
   0.89206384  0.77526817  0.05102090
unknown system                          
           1
     8.267515    4.768793    0.000000
    -8.270831    4.774539    0.000000
     0.000000    0.000000   30.000000
   V    Mo   W    S 
   3   3   3  18
Direct configuration=     6
   0.65447746  0.33406261 -0.00003365
   0.34218885  0.66859978 -0.00000080
   0.00018506  0.67294980  0.00051682
   0.33204388  0.32536866 -0.00013242
   0.33054750  0.01013323  0.00017641
   0.65867747  0.66455035 -0.00034331
   0.01039558  0.00808842  0.00007217
   1.00607955  0.32624998  0.00012749
   0.66376556 -0.00863663 -0.00024989
   0.11188996  0.22156906  0.94575570
   0.22174446  0.11147495  0.05463319
   0.11385238  0.56007075  0.95116362
   0.22566937  0.45015642  0.05147573
   0.10791808  0.88325023  0.94793128
   0.22005184  0.77304752  0.04924989
   0.45122194  0.22601808  0.94658915
   0.55934815  0.11726424  0.05098920
   0.43985365  0.55746284  0.94794986
   0.55845089  0.44125708  0.05220649
   0.44041644  0.88319855  0.94925466
   0.54853522  0.77449407  0.05283351
   0.77497976  0.22503289  0.95021635
   0.88832139  0.10900691  0.05292883
   0.78016179  0.55229135  0.94997108
   0.88615377  0.44577756  0.04810066
   0.77949277  0.88961537  0.94767442
   0.89179168  0.77586040  0.05094347
unknown system                          
           1
     8.266190    4.768457    0.000000
    -8.269290    4.773831    0.000000
     0.000000    0.000000   30.000000
   V    Mo   W    S 
   3   3   3  18
Direct configuration=     7
   0.65351701  0.33461377 -0.00002317
   0.34322012  0.66885821 -0.00003676
   0.00009744  0.67354132  0.00057689
   0.33132135  0.32450110 -0.00010298
   0.32989667  0.01082845  0.00017192
   0.65786730  0.66452692 -0.00034260
   0.01146498  0.00937619  0.00009907
   1.00683953  0.32539527  0.00012301
   0.66404598 -0.00977443 -0.00027736
   0.11218716  0.22152177  0.94548977
   0.22182243  0.11156295  0.05486245
   0.11389870  0.55983124  0.95131180
   0.22576438  0.44996089  0.05151864
   0.10799780  0.88355099  0.94785422
   0.22040041  0.77347560  0.04913930
   0.45102204  0.22604782  0.94643123
   0.55925466  0.11707239  0.05082987
   0.43970411  0.55708488  0.94788223
   0.55815091  0.44130987  0.05226830
   0.44033368  0.88345386  0.94936259
   0.54854079  0.77443333  0.05302365
   0.77500062  0.22487967  0.95043782
   0.88831135  0.10873196  0.05304820
   0.77991082  0.55233797  0.94996025
   0.88615802  0.44544217  0.04786308
   0.77982270  0.88944414  0.94766506
   0.89166349  0.77620615  0.05086344
unknown system                          
           1
     8.266558    4.769285    0.000000
    -8.270271    4.775721    0.000000
     0.000000    0.000000   30.000000
   V    Mo   W    S 
   3   3   3  18
Direct configuration=     8
   0.65375686  0.33438539 -0.00001827
   0.34294437  0.66879284 -0.00002791
   0.00013377  0.67335003  0.00055886
   0.33147081  0.32466661 -0.00010072
   0.33012086  0.01068267  0.00017728
   0.65811029  0.66457283 -0.00033613
   0.01120972  0.00908287  0.00009360
   1.00661629  0.32561058  0.00012295
   0.66393674 -0.00941592 -0.00027473
   0.11212366  0.22153259  0.94555899
   0.22182181  0.11154760  0.05479921
   0.11388673  0.55987448  0.95126755
   0.22575371  0.44998068  0.05150082
   0.10799661  0.88350242  0.94787275
   0.22033837  0.77341339  0.04917433
   0.45106086  0.22604064  0.94646074
   0.55924517  0.11710673  0.05089063
   0.43974753  0.55715409  0.94789960
   0.55822313  0.44129994  0.05224059
   0.44033670  0.88340116  0.94932792
   0.54855282  0.77446095  0.05297228
   0.77499895  0.22491511  0.95036892
   0.88830431  0.10877735  0.05301817
   0.77995430  0.55233562  0.94996412
   0.88615584  0.44551945  0.04793327
   0.77972599  0.88949787  0.94767236
   0.89168825  0.77612649  0.05088272
unknown system                          
           1
     8.264706    4.767486    0.000000
    -8.268524    4.774102    0.000000
     0.000000    0.000000   30.000000
   V    Mo   W    S 
   3   3   3  18
Direct configuration=     9
   0.65394098  0.33316366 -0.00001804
   0.34275490  0.66887218 -0.00001134
   0.00035947  0.67242318  0.00047722
   0.33166872  0.32478054 -0.00014006
   0.33136964  0.01080061  0.00013517
   0.65818291  0.66479401 -0.00033416
   0.01084332  0.00893518  0.00007119
   1.00619986  0.32607584  0.00013817
   0.66302648 -0.00874326 -0.00028554
   0.11213022  0.22154807  0.94558130
   0.22183424  0.11144325  0.05482380
   0.11411286  0.55996647  0.95112823
   0.22590284  0.45010127  0.05145085
   0.10810887  0.88364329  0.94788977
   0.22055108  0.77349688  0.04927101
   0.45119041  0.22610105  0.94645433
   0.55904739  0.11719945  0.05117956
   0.43973528  0.55720325  0.94795365
   0.55834991  0.44125139  0.05219101
   0.44005412  0.88316840  0.94921341
   0.54839247  0.77451990  0.05290860
   0.77497555  0.22508954  0.95013923
   0.88822703  0.10868939  0.05301383
   0.77985416  0.55230136  0.94999610
   0.88597560  0.44548085  0.04815224
   0.77966067  0.88974407  0.94769166
   0.89176546  0.77616462  0.05092869
unknown system                          
           1
     8.266475    4.768062    0.000000
    -8.270437    4.774927    0.000000
     0.000000    0.000000   30.000000
   V    Mo   W    S 
   3   3   3  18
Direct configuration=    10
   0.65283227  0.33368068 -0.00001271
   0.34397539  0.66927146 -0.00002444
   0.00027081  0.67295445  0.00059010
   0.33060945  0.32350773 -0.00006448
   0.33065700  0.01171229  0.00017811
   0.65723274  0.66481087 -0.00032683
   0.01248753  0.01058691  0.00013578
   1.00719765  0.32513583  0.00014883
   0.66303426 -0.01006758 -0.00030571
   0.11243361  0.22155847  0.94529169
   0.22192872  0.11150736  0.05500564
   0.11416473  0.55966576  0.95130983
   0.22597779  0.44984439  0.05146983
   0.10817741  0.88396152  0.94790118
   0.22089237  0.77393077  0.04906687
   0.45102357  0.22619893  0.94625243
   0.55902055  0.11700436  0.05102641
   0.43952513  0.55675060  0.94786578
   0.55798366  0.44131952  0.05221852
   0.43995165  0.88342073  0.94928557
   0.54837885  0.77454649  0.05314232
   0.77504749  0.22487810  0.95043390
   0.88810588  0.10841717  0.05305356
   0.77957732  0.55235485  0.95007230
   0.88600466  0.44507862  0.04782424
   0.78002791  0.88965283  0.94776584
   0.89169608  0.77653133  0.05069535
unknown system                          
           1
     8.253298    4.762744    0.000000
    -8.259404    4.773330    0.000000
     0.000000    0.000000   30.000000
   V    Mo   W    S 
   3   3   3  18
Direct configuration=    11
   0.65262864  0.33413670 -0.00001680
   0.34420290  0.66928263 -0.00004268
   0.00019137  0.67331028  0.00061022
   0.33052106  0.32344095 -0.00007404
   0.33023579  0.01175836  0.00016752
   0.65703752  0.66471305 -0.00033617
   0.01265671  0.01078024  0.00013317
   1.00742387  0.32488885  0.00014131
   0.66335291 -0.01047354 -0.00030794
   0.11248039  0.22153508  0.94523683
   0.22192313  0.11154565  0.05506751
   0.11412446  0.55962487  0.95136795
   0.22595693  0.44981714  0.05150215
   0.10815813  0.88396602  0.94786563
   0.22089841  0.77395806  0.04903850
   0.45095588  0.22617570  0.94624317
   0.55906102  0.11696175  0.05091418
   0.43950491  0.55670240  0.94784687
   0.55791242  0.44133312  0.05225948
   0.44001463  0.88351346  0.94934588
   0.54840804  0.77449463  0.05318938
   0.77504346  0.22482511  0.95052502
   0.88815122  0.10840045  0.05309409
   0.77957055  0.55236010  0.95004471
   0.88603781  0.44503436  0.04773954
   0.78011613  0.88954490  0.94774147
   0.89164617  0.77658413  0.05070295
unknown system                          
           1
     8.270356    4.770803    0.000000
    -8.275711    4.780083    0.000000
     0.000000    0.000000   30.000000
   V    Mo   W    S 
   3   3   3  18
Direct configuration=    12
   0.65253203  0.33151858 -0.00001837
   0.34419498  0.66983703 -0.00004290
   0.00061759  0.67122937  0.00052058
   0.33021946  0.32265460 -0.00018185
   0.33280689  0.01257033  0.00006582
   0.65687111  0.66529612 -0.00035355
   0.01329035  0.01137495  0.00005671
   1.00703112  0.32561419  0.00015318
   0.66087386 -0.00952545 -0.00035494
   0.11244719  0.22173875  0.94525921
   0.22211956  0.11136649  0.05516735
   0.11444587  0.55961931  0.95109720
   0.22613337  0.44983134  0.05144461
   0.10849060  0.88428024  0.94803119
   0.22130544  0.77418264  0.04915346
   0.45117258  0.22633030  0.94617993
   0.55884739  0.11717047  0.05151318
   0.43941449  0.55668383  0.94791516
   0.55805834  0.44122437  0.05213987
   0.43952308  0.88319200  0.94904306
   0.54821291  0.77486805  0.05321405
   0.77511604  0.22500874  0.95020980
   0.88771467  0.10826917  0.05294630
   0.77935357  0.55223092  0.95021230
   0.88572096  0.44476711  0.04804579
   0.77993955  0.89028028  0.94797289
   0.89176147  0.77660073  0.05060985
unknown system                          
           1
     8.267664    4.769109    0.000000
    -8.273317    4.778905    0.000000
     0.000000    0.000000   30.000000
   V    Mo   W    S 
   3   3   3  18
Direct configuration=    13
   0.65149649  0.33348272 -0.00000457
   0.34543780  0.67005438 -0.00005716
   0.00024721  0.67257703  0.00069015
   0.32936516  0.32191529 -0.00005696
   0.33100774  0.01298061  0.00015090
   0.65578367  0.66489365 -0.00033251
   0.01475302  0.01272622  0.00017670
   1.00842669  0.32457779  0.00019100
   0.66165288 -0.01156189 -0.00031381
   0.11275315  0.22163992  0.94487421
   0.22213371  0.11149577  0.05537810
   0.11434258  0.55938393  0.95136003
   0.22613144  0.44961639  0.05152573
   0.10839966  0.88437251  0.94791998
   0.22142196  0.77443589  0.04893008
   0.45092564  0.22633831  0.94598206
   0.55899913  0.11697616  0.05108347
   0.43920821  0.55626817  0.94776923
   0.55761799  0.44131889  0.05224662
   0.43960862  0.88357997  0.94919528
   0.54827151  0.77468255  0.05346351
   0.77511313  0.22474244  0.95064838
   0.88787580  0.10806547  0.05304151
   0.77921352  0.55229497  0.95017240
   0.88584273  0.44444825  0.04759126
   0.78054283  0.88989651  0.94792546
   0.89164220  0.77701254  0.05044885
unknown system                          
           1
     8.270881    4.770209    0.000000
    -8.276472    4.779896    0.000000
     0.000000    0.000000   30.000000
   V    Mo   W    S 
   3   3   3  18
Direct configuration=    14
   0.65085088  0.33393447 -0.00002969
   0.34616926  0.67034544 -0.00009370
   0.00016758  0.67277693  0.00074753
   0.32887780  0.32136404 -0.00008158
   0.33074980  0.01340617  0.00012624
   0.65499219  0.66474789 -0.00036401
   0.01577447  0.01363762  0.00017205
   1.00919191  0.32427482  0.00017530
   0.66126468 -0.01260427 -0.00034893
   0.11289550  0.22162681  0.94473795
   0.22221184  0.11152687  0.05553404
   0.11437937  0.55924857  0.95146352
   0.22617714  0.44953403  0.05154889
   0.10845248  0.88453202  0.94793462
   0.22160940  0.77461398  0.04882556
   0.45081963  0.22636549  0.94593335
   0.55904781  0.11694611  0.05097204
   0.43908553  0.55607961  0.94775853
   0.55741666  0.44134841  0.05227799
   0.43956554  0.88369128  0.94925212
   0.54823211  0.77465071  0.05358809
   0.77514306  0.22463382  0.95086814
   0.88787331  0.10793063  0.05302518
   0.77905960  0.55229160  0.95021454
   0.88582086  0.44417299  0.04740739
   0.78080791  0.88988190  0.94802391
   0.89157816  0.77725652  0.05033084
unknown system                          
           1
     8.265902    4.768497    0.000000
    -8.271934    4.778950    0.000000
     0.000000    0.000000   30.000000
   V    Mo   W    S 
   3   3   3  18
Direct configuration=    15
   0.65004638  0.33514080 -0.00006348
   0.34709642  0.67054124 -0.00014177
  -0.00003029  0.67356768  0.00083659
   0.32841477  0.32094522 -0.00009277
   0.32983622  0.01374168  0.00011272
   0.65400768  0.66440884 -0.00039696
   0.01682894  0.01459573  0.00018191
   1.01023717  0.32371421  0.00015312
   0.66141240 -0.01416542 -0.00037846
   0.11310562  0.22156025  0.94453764
   0.22227427  0.11162186  0.05573407
   0.11436192  0.55909265  0.95164955
   0.22620735  0.44944999  0.05161619
   0.10845020  0.88466384  0.94788751
   0.22177083  0.77479914  0.04868033
   0.45061666  0.22634828  0.94587650
   0.55916468  0.11686135  0.05068671
   0.43893026  0.55583555  0.94770501
   0.55712918  0.44141374  0.05237454
   0.43960446  0.88390472  0.94939066
   0.54821386  0.77450133  0.05376047
   0.77514945  0.22446095  0.95121816
   0.88797283  0.10778911  0.05306012
   0.77891111  0.55232269  0.95020317
   0.88586595  0.44388072  0.04710927
   0.78118918  0.88965540  0.94806889
   0.89144697  0.77756290  0.05023017
unknown system                          
           1
     8.282433    4.775944    0.000000
    -8.287669    4.785013    0.000000
     0.000000    0.000000   30.000000
   V    Mo   W    S 
   3   3   3  18
Direct configuration=    16
   0.65042947  0.33428905 -0.00003921
   0.34664621  0.67058484 -0.00012515
   0.00008392  0.67282228  0.00078711
   0.32849533  0.32095535 -0.00011148
   0.33057657  0.01367478  0.00010466
   0.65454846  0.66473136 -0.00038576
   0.01642317  0.01431328  0.00016333
   1.00966636  0.32398404  0.00015865
   0.66106682 -0.01328481 -0.00037809
   0.11298334  0.22162142  0.94463393
   0.22225534  0.11152281  0.05566385
   0.11438036  0.55914069  0.95152034
   0.22618886  0.44943433  0.05158183
   0.10848762  0.88465221  0.94794417
   0.22172570  0.77476558  0.04876945
   0.45072640  0.22637928  0.94588939
   0.55906753  0.11689957  0.05091153
   0.43902725  0.55593902  0.94774119
   0.55727767  0.44136221  0.05230550
   0.43953790  0.88380261  0.94927701
   0.54824440  0.77464547  0.05368863
   0.77518619  0.22455037  0.95100202
   0.88788236  0.10783001  0.05302756
   0.77896116  0.55230367  0.95023261
   0.88581066  0.44397733  0.04729445
   0.78099832  0.88988211  0.94809041
   0.89153709  0.77743560  0.05025196
unknown system                          
           1
     8.282974    4.775548    0.000000
    -8.287542    4.783457    0.000000
     0.000000    0.000000   30.000000
   V    Mo   W    S 
   3   3   3  18
Direct configuration=    17
   0.64927458  0.33622477 -0.00008980
   0.34803078  0.67076590 -0.00016076
  -0.00019284  0.67420245  0.00094043
   0.32794885  0.32053997 -0.00004444
   0.32911061  0.01407943  0.00013902
   0.65288878  0.66401695 -0.00039969
   0.01803530  0.01554508  0.00024043
   1.01139244  0.32337867  0.00016687
   0.66116950 -0.01577464 -0.00036955
   0.11335186  0.22151103  0.94426899
   0.22238611  0.11172559  0.05592238
   0.11440194  0.55898233  0.95179491
   0.22630116  0.44941807  0.05168060
   0.10846445  0.88478020  0.94782230
   0.22197019  0.77497424  0.04854026
   0.45044863  0.22634488  0.94576492
   0.55929791  0.11682991  0.05044680
   0.43869787  0.55556757  0.94761106
   0.55682095  0.44148297  0.05247431
   0.43953597  0.88405255  0.94945511
   0.54811897  0.77434370  0.05395004
   0.77512575  0.22431413  0.95154864
   0.88804405  0.10763505  0.05306670
   0.77875308  0.55235078  0.95018536
   0.88587364  0.44355769  0.04683238
   0.78163053  0.88947201  0.94810198
   0.89133341  0.77789318  0.05011067
unknown system                          
           1
     8.285596    4.776302    0.000000
    -8.289578    4.783193    0.000000
     0.000000    0.000000   30.000000
   V    Mo   W    S 
   3   3   3  18
Direct configuration=    18
   0.64868139  0.33714948 -0.00014364
   0.34868649  0.67079490 -0.00019599
  -0.00031959  0.67494123  0.00101011
   0.32773500  0.32037983 -0.00004697
   0.32843340  0.01429489  0.00013185
   0.65200132  0.66362511 -0.00043379
   0.01889134  0.01613490  0.00024047
   1.01230613  0.32315085  0.00014701
   0.66113142 -0.01704790 -0.00039636
   0.11351883  0.22143268  0.94415772
   0.22247559  0.11184522  0.05604372
   0.11439467  0.55887797  0.95195069
   0.22634615  0.44940479  0.05172760
   0.10847623  0.88486939  0.94779237
   0.22208085  0.77508685  0.04841520
   0.45028392  0.22631137  0.94574955
   0.55944059  0.11681046  0.05020021
   0.43854462  0.55538764  0.94756906
   0.55661199  0.44156244  0.05255583
   0.43957017  0.88418238  0.94956750
   0.54805661  0.77418997  0.05407522
   0.77508966  0.22417658  0.95186948
   0.88813413  0.10754972  0.05304612
   0.77861671  0.55237553  0.95018878
   0.88592780  0.44334370  0.04658417
   0.78188960  0.88926537  0.94816570
   0.89120941  0.77811910  0.05002829
unknown system                          
           1
     8.289239    4.779014    0.000000
    -8.293666    4.786678    0.000000
     0.000000    0.000000   30.000000
   V    Mo   W    S 
   3   3   3  18
Direct configuration=    19
   0.64821445  0.33794139 -0.00018381
   0.34918794  0.67076209 -0.00022026
  -0.00043314  0.67563716  0.00106578
   0.32762974  0.32033120 -0.00004089
   0.32782266  0.01443798  0.00013182
   0.65131803  0.66328535 -0.00045549
   0.01948570  0.01652904  0.00024689
   1.01301146  0.32294866  0.00013525
   0.66123490 -0.01805127 -0.00041035
   0.11365500  0.22136392  0.94406193
   0.22254015  0.11195373  0.05613887
   0.11438007  0.55880315  0.95208046
   0.22637750  0.44940591  0.05177347
   0.10847728  0.88492201  0.94774875
   0.22215805  0.77516902  0.04831495
   0.45015047  0.22627769  0.94573192
   0.55956208  0.11679213  0.04998431
   0.43841819  0.55524433  0.94752241
   0.55645314  0.44162796  0.05263055
   0.43960931  0.88429130  0.94966739
   0.54800977  0.77404996  0.05417552
   0.77504866  0.22406885  0.95212757
   0.88821732  0.10748820  0.05304391
   0.77851544  0.55239494  0.95017681
   0.88598090  0.44319226  0.04637912
   0.78209196  0.88906098  0.94819319
   0.89109740  0.77828651  0.04997984
unknown system                          
           1
     8.305671    4.785336    0.000000
    -8.309001    4.791093    0.000000
     0.000000    0.000000   30.000000
   V    Mo   W    S 
   3   3   3  18
Direct configuration=    20
   0.64847356  0.33749422 -0.00014059
   0.34891303  0.67091601 -0.00021124
  -0.00040494  0.67485771  0.00104499
   0.32776002  0.32035703 -0.00005597
   0.32844750  0.01441449  0.00013313
   0.65170643  0.66342584 -0.00044005
   0.01913441  0.01635622  0.00024143
   1.01256369  0.32314076  0.00013885
   0.66088695 -0.01745077 -0.00041762
   0.11354728  0.22144268  0.94411228
   0.22250107  0.11184606  0.05609642
   0.11443788  0.55887192  0.95197332
   0.22636506  0.44939690  0.05173727
   0.10847107  0.88488890  0.94779663
   0.22211431  0.77508822  0.04838158
   0.45030435  0.22635400  0.94574473
   0.55949325  0.11685968  0.05016571
   0.43850434  0.55535941  0.94757085
   0.55656704  0.44153396  0.05255635
   0.43953964  0.88416268  0.94956967
   0.54802986  0.77417229  0.05411368
   0.77509420  0.22416462  0.95194107
   0.88815716  0.10753337  0.05303401
   0.77855845  0.55233192  0.95020478
   0.88586540  0.44324559  0.04652971
   0.78197235  0.88927033  0.94820626
   0.89121111  0.77818042  0.04997262
unknown system                          
           1
     8.305861    4.785127    0.000000
    -8.306883    4.786877    0.000000
     0.000000    0.000000   30.000000
   V    Mo   W    S 
   3   3   3  18
Direct configuration=    21
   0.64725848  0.33936531 -0.00026704
   0.35027574  0.67099347 -0.00022878
  -0.00072681  0.67583827  0.00119982
   0.32763908  0.32022316  0.00000557
   0.32753236  0.01504836  0.00018048
   0.64953488  0.66225536 -0.00046356
   0.02096061  0.01762449  0.00029957
   1.01452884  0.32310318  0.00013193
   0.66032414 -0.02012090 -0.00042331
   0.11391305  0.22128622  0.94390549
   0.22269719  0.11212280  0.05623493
   0.11457121  0.55873259  0.95227072
   0.22647335  0.44945282  0.05177503
   0.10853042  0.88508267  0.94775944
   0.22240379  0.77525410  0.04808975
   0.45012128  0.22634495  0.94572203
   0.55987486  0.11699198  0.04962613
   0.43812684  0.55503793  0.94745900
   0.55616590  0.44167875  0.05273191
   0.43951647  0.88428018  0.94976289
   0.54781927  0.77382099  0.05429731
   0.77493674  0.22396291  0.95266391
   0.88836416  0.10739914  0.05288432
   0.77816223  0.55227446  0.95021971
   0.88579591  0.44267241  0.04603434
   0.78248733  0.88882442  0.94835827
   0.89092713  0.77866445  0.04977003
unknown system                          
           1
     8.311200    4.787028    0.000000
    -8.311302    4.787182    0.000000
     0.000000    0.000000   30.000000
   V    Mo   W    S 
   3   3   3  18
Direct configuration=    22
   0.64679519  0.34048407 -0.00037153
   0.35069062  0.67050060 -0.00026962
  -0.00087564  0.67737885  0.00128241
   0.32756806  0.32040687  0.00001795
   0.32632917  0.01502781  0.00015008
   0.64855548  0.66169467 -0.00049237
   0.02184394  0.01783816  0.00028185
   1.01575980  0.32310519  0.00010598
   0.66065829 -0.02151613 -0.00044429
   0.11420743  0.22113728  0.94377203
   0.22289684  0.11244018  0.05641799
   0.11446319  0.55865837  0.95247153
   0.22661164  0.44952309  0.05191904
   0.10855189  0.88510319  0.94767089
   0.22244219  0.77539806  0.04792964
   0.44976330  0.22619137  0.94565069
   0.56014088  0.11694918  0.04927888
   0.43783966  0.55470376  0.94730937
   0.55591860  0.44190222  0.05292325
   0.43958325  0.88449342  0.94992097
   0.54770732  0.77349183  0.05451039
   0.77478461  0.22376426  0.95312140
   0.88849452  0.10728760  0.05286636
   0.77805054  0.55246714  0.95016086
   0.88601814  0.44255675  0.04569783
   0.78275587  0.88835315  0.94839784
   0.89065970  0.77887350  0.04972049
unknown system                          
           1
     8.329432    4.792018    0.000000
    -8.324239    4.782978    0.000000
     0.000000    0.000000   30.000000
   V    Mo   W    S 
   3   3   3  18
Direct configuration=    23
   0.64646552  0.34108536 -0.00042219
   0.35096019  0.67018681 -0.00027782
  -0.00098128  0.67815928  0.00131812
   0.32761431  0.32057792  0.00003873
   0.32576133  0.01510818  0.00015341
   0.64789264  0.66128169 -0.00049750
   0.02234190  0.01800057  0.00029643
   1.01649807  0.32317597  0.00010453
   0.66075841 -0.02234109 -0.00042768
   0.11436540  0.22104107  0.94369098
   0.22300271  0.11261860  0.05649977
   0.11442658  0.55863132  0.95257879
   0.22669030  0.44958088  0.05199514
   0.10855509  0.88509309  0.94759737
   0.22247480  0.77546020  0.04783722
   0.44960297  0.22612771  0.94561628
   0.56028389  0.11694641  0.04907346
   0.43768518  0.55453592  0.94722573
   0.55580094  0.44200567  0.05301312
   0.43960853  0.88458036  0.95001007
   0.54761608  0.77330971  0.05460412
   0.77469767  0.22367378  0.95338068
   0.88858295  0.10723206  0.05284242
   0.77797770  0.55256157  0.95012761
   0.88611471  0.44247973  0.04550846
   0.78292900  0.88809276  0.94840709
   0.89048885  0.77900894  0.04970556
unknown system                          
           1
     8.345306    4.797160    0.000000
    -8.338847    4.785925    0.000000
     0.000000    0.000000   30.000000
   V    Mo   W    S 
   3   3   3  18
Direct configuration=    24
   0.64525182  0.34337349 -0.00066990
   0.35173385  0.66823441 -0.00029459
  -0.00145805  0.68216324  0.00141144
   0.32792681  0.32164561  0.00011303
   0.32295114  0.01523576  0.00013080
   0.64533360  0.65962866 -0.00054051
   0.02417370  0.01825186  0.00032715
   1.01972437  0.32367677  0.00008914
   0.66171325 -0.02562863 -0.00036258
   0.11503291  0.22050988  0.94344134
   0.22347253  0.11353262  0.05681229
   0.11412145  0.55853079  0.95308935
   0.22704859  0.44984642  0.05238251
   0.10852457  0.88497328  0.94724735
   0.22242117  0.77570788  0.04739598
   0.44878508  0.22578064  0.94550781
   0.56081321  0.11678875  0.04813475
   0.43706132  0.55376992  0.94684621
   0.55535803  0.44250589  0.05338852
   0.43984361  0.88499378  0.95052466