   27   27  100    1
  0.9710400E+02  0.1002848E-08  0.1002848E-08  0.3000000E-08  0.5000000E-15
  1.000000000000000E-004
  CAR 
 unknown system                          
    159     34    120
 
  0.0000000E+00  0.0000000E+00  0.0000000E+00  0.1562500E-01
    1      -17.860579   1.000000
    2      -16.799256   1.000000
    3      -16.688756   1.000000
    4      -16.607816   1.000000
    5      -16.579408   1.000000
    6      -16.430587   1.000000
    7      -16.357080   1.000000
    8      -16.342190   1.000000
    9      -16.242045   1.000000
   10      -16.139374   1.000000
   11      -16.082644   1.000000
   12      -15.985090   1.000000
   13      -15.870570   1.000000
   14      -15.633332   1.000000
   15      -15.580113   1.000000
   16      -15.465465   1.000000
   17      -15.225662   1.000000
   18      -15.183366   1.000000
   19       -9.476237   1.000000
   20       -9.057066   1.000000
   21       -9.028350   1.000000
   22       -8.926692   1.000000
   23       -8.761097   1.000000
   24       -8.708677   1.000000
   25       -8.642221   1.000000
   26       -8.570374   1.000000
   27       -8.485235   1.000000
   28       -8.456244   1.000000
   29       -8.408676   1.000000
   30       -8.361948   1.000000
   31       -8.228597   1.000000
   32       -8.199564   1.000000
   33       -8.151995   1.000000
   34       -8.055400   1.000000
   35       -7.813467   1.000000
   36       -7.769474   1.000000
   37       -7.638604   1.000000
   38       -7.616117   1.000000
   39       -7.504813   1.000000
   40       -7.367557   1.000000
   41       -7.303301   1.000000
   42       -7.207578   1.000000
   43       -7.085588   1.000000
   44       -6.964087   1.000000
   45       -6.831213   1.000000
   46       -6.828986   1.000000
   47       -6.754623   1.000000
   48       -6.719910   1.000000
   49       -6.644142   1.000000
   50       -6.513107   1.000000
   51       -6.400851   1.000000
   52       -6.252083   1.000000
   53       -6.208815   1.000000
   54       -6.174798   1.000000
   55       -6.119730   1.000000
   56       -6.036205   1.000000
   57       -5.978228   1.000000
   58       -5.874223   1.000000
   59       -5.851301   1.000000
   60       -5.725131   1.000000
   61       -5.615133   1.000000
   62       -5.341916   1.000000
   63       -5.295133   1.000000
   64       -5.046736   1.000000
   65       -4.989392   1.000000
   66       -4.897021   1.000000
   67       -4.854258   1.000000
   68       -4.783873   1.000000
   69       -4.752622   1.000000
   70       -4.714886   1.000000
   71       -4.656901   1.000000
   72       -4.618009   1.000000
   73       -4.408207   1.000000
   74       -4.358368   1.000000
   75       -4.285339   1.000000
   76       -3.987920   1.000000
   77       -3.753991   0.999920
   78       -3.580589   0.994609
   79       -3.515416   0.981640
   80       -3.183062   0.396961
   81       -3.140543   0.287100
   82       -2.850338   0.004475
   83       -2.687490   0.000083
   84       -2.667139   0.000046
   85       -2.514830   0.000000
   86       -2.509297   0.000000
   87       -2.282193   0.000000
   88       -2.225597   0.000000
   89       -2.191246   0.000000
   90       -1.932609   0.000000
   91       -1.745201   0.000000
   92       -1.615767   0.000000
   93       -1.504309   0.000000
   94       -1.183938   0.000000
   95       -1.127433   0.000000
   96       -1.021948   0.000000
   97       -0.963944   0.000000
   98       -0.878589   0.000000
   99       -0.814268   0.000000
  100       -0.632466   0.000000
  101       -0.547110   0.000000
  102       -0.499509   0.000000
  103       -0.380005   0.000000
  104       -0.234704   0.000000
  105       -0.134458   0.000000
  106       -0.072497   0.000000
  107       -0.030109   0.000000
  108        0.016847   0.000000
  109        0.127303   0.000000
  110        0.181757   0.000000
  111        0.430737   0.000000
  112        0.542661   0.000000
  113        0.613459   0.000000
  114        0.889277   0.000000
  115        0.974354   0.000000
  116        1.017256   0.000000
  117        1.140011   0.000000
  118        1.647837   0.000000
  119        1.841445   0.000000
  120        2.173087   0.000000
 
  0.1250000E+00  0.2775558E-16  0.0000000E+00  0.3125000E-01
    1      -17.837901   1.000000
    2      -16.836341   1.000000
    3      -16.721739   1.000000
    4      -16.658156   1.000000
    5      -16.597902   1.000000
    6      -16.431820   1.000000
    7      -16.350358   1.000000
    8      -16.313949   1.000000
    9      -16.241650   1.000000
   10      -16.113361   1.000000
   11      -16.004235   1.000000
   12      -15.968787   1.000000
   13      -15.865628   1.000000
   14      -15.646188   1.000000
   15      -15.577585   1.000000
   16      -15.483022   1.000000
   17      -15.226832   1.000000
   18      -15.186995   1.000000
   19       -9.469702   1.000000
   20       -9.201550   1.000000
   21       -9.061676   1.000000
   22       -9.012983   1.000000
   23       -8.833247   1.000000
   24       -8.751949   1.000000
   25       -8.666588   1.000000
   26       -8.575187   1.000000
   27       -8.489710   1.000000
   28       -8.447921   1.000000
   29       -8.361365   1.000000
   30       -8.241098   1.000000
   31       -8.146515   1.000000
   32       -8.106334   1.000000
   33       -8.049582   1.000000
   34       -8.026901   1.000000
   35       -7.750547   1.000000
   36       -7.725126   1.000000
   37       -7.663472   1.000000
   38       -7.585956   1.000000
   39       -7.488637   1.000000
   40       -7.479188   1.000000
   41       -7.262096   1.000000
   42       -7.217252   1.000000
   43       -7.121662   1.000000
   44       -7.012646   1.000000
   45       -6.907109   1.000000
   46       -6.800494   1.000000
   47       -6.735539   1.000000
   48       -6.667625   1.000000
   49       -6.570804   1.000000
   50       -6.460183   1.000000
   51       -6.421461   1.000000
   52       -6.308068   1.000000
   53       -6.207180   1.000000
   54       -6.158177   1.000000
   55       -6.123876   1.000000
   56       -6.062103   1.000000
   57       -5.996702   1.000000
   58       -5.930676   1.000000
   59       -5.765464   1.000000
   60       -5.681841   1.000000
   61       -5.582554   1.000000
   62       -5.455120   1.000000
   63       -5.377928   1.000000
   64       -5.138396   1.000000
   65       -5.062925   1.000000
   66       -4.925922   1.000000
   67       -4.847021   1.000000
   68       -4.793512   1.000000
   69       -4.750341   1.000000
   70       -4.649162   1.000000
   71       -4.605076   1.000000
   72       -4.535818   1.000000
   73       -4.412543   1.000000
   74       -4.299266   1.000000
   75       -4.257256   1.000000
   76       -4.054142   1.000000
   77       -3.761027   0.999935
   78       -3.654437   0.998937
   79       -3.575384   0.994013
   80       -3.147390   0.303814
   81       -3.103661   0.205348
   82       -2.811837   0.001950
   83       -2.668343   0.000048
   84       -2.643022   0.000023
   85       -2.511550   0.000000
   86       -2.493068   0.000000
   87       -2.262385   0.000000
   88       -2.201390   0.000000
   89       -2.141507   0.000000
   90       -1.937045   0.000000
   91       -1.761735   0.000000
   92       -1.607275   0.000000
   93       -1.482850   0.000000
   94       -1.194429   0.000000
   95       -1.141583   0.000000
   96       -1.038259   0.000000
   97       -0.954165   0.000000
   98       -0.887669   0.000000
   99       -0.821122   0.000000
  100       -0.710211   0.000000
  101       -0.645365   0.000000
  102       -0.549275   0.000000
  103       -0.480914   0.000000
  104       -0.316308   0.000000
  105       -0.182735   0.000000
  106       -0.077353   0.000000
  107        0.000712   0.000000
  108        0.039469   0.000000
  109        0.137133   0.000000
  110        0.235786   0.000000
  111        0.477690   0.000000
  112        0.548061   0.000000
  113        0.591838   0.000000
  114        0.928592   0.000000
  115        0.971087   0.000000
  116        1.035216   0.000000
  117        1.102104   0.000000
  118        1.689657   0.000000
  119        1.882348   0.000000
  120        2.207667   0.000000
 
  0.2500000E+00  0.5551115E-16  0.0000000E+00  0.3125000E-01
    1      -17.772995   1.000000
    2      -16.991631   1.000000
    3      -16.742279   1.000000
    4      -16.704313   1.000000
    5      -16.649204   1.000000
    6      -16.426363   1.000000
    7      -16.339919   1.000000
    8      -16.300400   1.000000
    9      -16.200494   1.000000
   10      -16.046905   1.000000
   11      -15.958522   1.000000
   12      -15.870206   1.000000
   13      -15.826055   1.000000
   14      -15.677427   1.000000
   15      -15.572844   1.000000
   16      -15.528978   1.000000
   17      -15.230560   1.000000
   18      -15.196850   1.000000
   19       -9.543595   1.000000
   20       -9.364129   1.000000
   21       -9.190795   1.000000
   22       -9.093121   1.000000
   23       -8.981791   1.000000
   24       -8.807848   1.000000
   25       -8.606299   1.000000
   26       -8.548353   1.000000
   27       -8.468785   1.000000
   28       -8.400181   1.000000
   29       -8.267787   1.000000
   30       -8.235919   1.000000
   31       -8.118770   1.000000
   32       -8.048063   1.000000
   33       -7.852259   1.000000
   34       -7.821028   1.000000
   35       -7.758965   1.000000
   36       -7.704632   1.000000
   37       -7.616557   1.000000
   38       -7.584403   1.000000
   39       -7.499591   1.000000
   40       -7.365842   1.000000
   41       -7.270628   1.000000
   42       -7.186736   1.000000
   43       -7.134892   1.000000
   44       -7.054873   1.000000
   45       -6.912394   1.000000
   46       -6.798528   1.000000
   47       -6.715271   1.000000
   48       -6.655467   1.000000
   49       -6.469845   1.000000
   50       -6.409217   1.000000
   51       -6.365301   1.000000
   52       -6.321310   1.000000
   53       -6.271610   1.000000
   54       -6.201244   1.000000
   55       -6.137782   1.000000
   56       -6.057779   1.000000
   57       -6.030919   1.000000
   58       -5.890136   1.000000
   59       -5.733212   1.000000
   60       -5.691627   1.000000
   61       -5.663486   1.000000
   62       -5.513127   1.000000
   63       -5.459811   1.000000
   64       -5.364082   1.000000
   65       -5.274252   1.000000
   66       -4.962569   1.000000
   67       -4.870600   1.000000
   68       -4.750142   1.000000
   69       -4.693875   1.000000
   70       -4.603558   1.000000
   71       -4.488409   1.000000
   72       -4.405844   1.000000
   73       -4.376738   1.000000
   74       -4.297568   1.000000
   75       -4.222047   1.000000
   76       -4.179718   1.000000
   77       -3.810233   0.999985
   78       -3.749689   0.999910
   79       -3.624777   0.997896
   80       -3.099438   0.196959
   81       -3.038708   0.099929
   82       -2.744303   0.000385
   83       -2.659921   0.000037
   84       -2.574666   0.000003
   85       -2.486419   0.000000
   86       -2.446250   0.000000
   87       -2.212097   0.000000
   88       -2.130899   0.000000
   89       -2.012888   0.000000
   90       -1.927916   0.000000
   91       -1.773039   0.000000
   92       -1.590440   0.000000
   93       -1.458143   0.000000
   94       -1.240996   0.000000
   95       -1.201311   0.000000
   96       -1.103319   0.000000
   97       -0.958483   0.000000
   98       -0.925433   0.000000
   99       -0.899698   0.000000
  100       -0.822471   0.000000
  101       -0.772376   0.000000
  102       -0.655958   0.000000
  103       -0.593403   0.000000
  104       -0.483900   0.000000
  105       -0.264254   0.000000
  106       -0.146991   0.000000
  107        0.000300   0.000000
  108        0.060158   0.000000
  109        0.160633   0.000000
  110        0.306473   0.000000
  111        0.411558   0.000000
  112        0.586672   0.000000
  113        0.628207   0.000000
  114        0.907259   0.000000
  115        1.016955   0.000000
  116        1.043006   0.000000
  117        1.170823   0.000000
  118        1.806469   0.000000
  119        1.998910   0.000000
  120        2.309809   0.000000
 
  0.3750000E+00  0.0000000E+00  0.0000000E+00  0.3125000E-01
    1      -17.680810   1.000000
    2      -17.170280   1.000000
    3      -16.750775   1.000000
    4      -16.726009   1.000000
    5      -16.686200   1.000000
    6      -16.429387   1.000000
    7      -16.333379   1.000000
    8      -16.310945   1.000000
    9      -16.126539   1.000000
   10      -15.988170   1.000000
   11      -15.932541   1.000000
   12      -15.840535   1.000000
   13      -15.751958   1.000000
   14      -15.682706   1.000000
   15      -15.597071   1.000000
   16      -15.557623   1.000000
   17      -15.235500   1.000000
   18      -15.208460   1.000000
   19       -9.722410   1.000000
   20       -9.373762   1.000000
   21       -9.288296   1.000000
   22       -9.142191   1.000000
   23       -9.071516   1.000000
   24       -8.851528   1.000000
   25       -8.533639   1.000000
   26       -8.471423   1.000000
   27       -8.429054   1.000000
   28       -8.309333   1.000000
   29       -8.270439   1.000000
   30       -8.208764   1.000000
   31       -8.134643   1.000000
   32       -8.098414   1.000000
   33       -7.892427   1.000000
   34       -7.831193   1.000000
   35       -7.766465   1.000000
   36       -7.741115   1.000000
   37       -7.549953   1.000000
   38       -7.414032   1.000000
   39       -7.388260   1.000000
   40       -7.305963   1.000000
   41       -7.228940   1.000000
   42       -7.134528   1.000000
   43       -7.072215   1.000000
   44       -7.008816   1.000000
   45       -6.827079   1.000000
   46       -6.754854   1.000000
   47       -6.679109   1.000000
   48       -6.588638   1.000000
   49       -6.505163   1.000000
   50       -6.422725   1.000000
   51       -6.385548   1.000000
   52       -6.320813   1.000000
   53       -6.281835   1.000000
   54       -6.216894   1.000000
   55       -6.113616   1.000000
   56       -6.063097   1.000000
   57       -6.028818   1.000000
   58       -5.875243   1.000000
   59       -5.833228   1.000000
   60       -5.763736   1.000000
   61       -5.691630   1.000000
   62       -5.594874   1.000000
   63       -5.566892   1.000000
   64       -5.443814   1.000000
   65       -5.343360   1.000000
   66       -5.010576   1.000000
   67       -4.881275   1.000000
   68       -4.797181   1.000000
   69       -4.695394   1.000000
   70       -4.649487   1.000000
   71       -4.531265   1.000000
   72       -4.380790   1.000000
   73       -4.334058   1.000000
   74       -4.274369   1.000000
   75       -4.161744   1.000000
   76       -4.101912   1.000000
   77       -3.934564   1.000000
   78       -3.724623   0.999820
   79       -3.617756   0.997542
   80       -3.075258   0.153033
   81       -2.987892   0.050369
   82       -2.701601   0.000123
   83       -2.667581   0.000047
   84       -2.550700   0.000001
   85       -2.412728   0.000000
   86       -2.391594   0.000000
   87       -2.148030   0.000000
   88       -2.030933   0.000000
   89       -1.897631   0.000000
   90       -1.873854   0.000000
   91       -1.734354   0.000000
   92       -1.581079   0.000000
   93       -1.500938   0.000000
   94       -1.355426   0.000000
   95       -1.272959   0.000000
   96       -1.194600   0.000000
   97       -1.043235   0.000000
   98       -0.987630   0.000000
   99       -0.945437   0.000000
  100       -0.898980   0.000000
  101       -0.851094   0.000000
  102       -0.729882   0.000000
  103       -0.630577   0.000000
  104       -0.549675   0.000000
  105       -0.320469   0.000000
  106       -0.220037   0.000000
  107       -0.061177   0.000000
  108        0.010502   0.000000
  109        0.138069   0.000000
  110        0.300877   0.000000
  111        0.396210   0.000000
  112        0.611179   0.000000
  113        0.654682   0.000000
  114        0.882260   0.000000
  115        0.982935   0.000000
  116        1.138116   0.000000
  117        1.299157   0.000000
  118        1.981244   0.000000
  119        2.177084   0.000000
  120        2.417844   0.000000
 
  0.5000000E+00  0.1110223E-15  0.0000000E+00  0.1562500E-01
    1      -17.622309   1.000000
    2      -17.260690   1.000000
    3      -16.758458   1.000000
    4      -16.728728   1.000000
    5      -16.698154   1.000000
    6      -16.432152   1.000000
    7      -16.327971   1.000000
    8      -16.319877   1.000000
    9      -16.085061   1.000000
   10      -15.978861   1.000000
   11      -15.919177   1.000000
   12      -15.816097   1.000000
   13      -15.749352   1.000000
   14      -15.685539   1.000000
   15      -15.601544   1.000000
   16      -15.561762   1.000000
   17      -15.237932   1.000000
   18      -15.213869   1.000000
   19       -9.793382   1.000000
   20       -9.387001   1.000000
   21       -9.311149   1.000000
   22       -9.163010   1.000000
   23       -9.089592   1.000000
   24       -8.865794   1.000000
   25       -8.514839   1.000000
   26       -8.424412   1.000000
   27       -8.381283   1.000000
   28       -8.296975   1.000000
   29       -8.244789   1.000000
   30       -8.217648   1.000000
   31       -8.156211   1.000000
   32       -8.092604   1.000000
   33       -7.938662   1.000000
   34       -7.881263   1.000000
   35       -7.845638   1.000000
   36       -7.760661   1.000000
   37       -7.489785   1.000000
   38       -7.352076   1.000000
   39       -7.334624   1.000000
   40       -7.260143   1.000000
   41       -7.135488   1.000000
   42       -7.100253   1.000000
   43       -7.056280   1.000000
   44       -7.013819   1.000000
   45       -6.809136   1.000000
   46       -6.695865   1.000000
   47       -6.598975   1.000000
   48       -6.547234   1.000000
   49       -6.537235   1.000000
   50       -6.485193   1.000000
   51       -6.419745   1.000000
   52       -6.304822   1.000000
   53       -6.248851   1.000000
   54       -6.231398   1.000000
   55       -6.153363   1.000000
   56       -6.087835   1.000000
   57       -6.059841   1.000000
   58       -5.895219   1.000000
   59       -5.818839   1.000000
   60       -5.768577   1.000000
   61       -5.743157   1.000000
   62       -5.670345   1.000000
   63       -5.490091   1.000000
   64       -5.364923   1.000000
   65       -5.290096   1.000000
   66       -5.279115   1.000000
   67       -4.922360   1.000000
   68       -4.874318   1.000000
   69       -4.708206   1.000000
   70       -4.640722   1.000000
   71       -4.507709   1.000000
   72       -4.334633   1.000000
   73       -4.314292   1.000000
   74       -4.266806   1.000000
   75       -4.145865   1.000000
   76       -4.060293   1.000000
   77       -3.982361   1.000000
   78       -3.710527   0.999738
   79       -3.600745   0.996451
   80       -3.070163   0.144678
   81       -2.968901   0.037902
   82       -2.690292   0.000090
   83       -2.668504   0.000048
   84       -2.550461   0.000001
   85       -2.401003   0.000000
   86       -2.340573   0.000000
   87       -2.115652   0.000000
   88       -1.968439   0.000000
   89       -1.860982   0.000000
   90       -1.833566   0.000000
   91       -1.686316   0.000000
   92       -1.595828   0.000000
   93       -1.575718   0.000000
   94       -1.388873   0.000000
   95       -1.288034   0.000000
   96       -1.262075   0.000000
   97       -1.090023   0.000000
   98       -1.008873   0.000000
   99       -0.978597   0.000000
  100       -0.926479   0.000000
  101       -0.875381   0.000000
  102       -0.749538   0.000000
  103       -0.646837   0.000000
  104       -0.535049   0.000000
  105       -0.343301   0.000000
  106       -0.251091   0.000000
  107       -0.097040   0.000000
  108       -0.022187   0.000000
  109        0.113008   0.000000
  110        0.283172   0.000000
  111        0.410731   0.000000
  112        0.618114   0.000000
  113        0.659770   0.000000
  114        0.875491   0.000000
  115        0.976884   0.000000
  116        1.178850   0.000000
  117        1.350263   0.000000
  118        2.156478   0.000000
  119        2.257949   0.000000
  120        2.397405   0.000000
 
  0.0000000E+00  0.1250000E+00  0.0000000E+00  0.3125000E-01
    1      -17.835957   1.000000
    2      -16.819594   1.000000
    3      -16.795569   1.000000
    4      -16.630003   1.000000
    5      -16.512980   1.000000
    6      -16.447100   1.000000
    7      -16.378473   1.000000
    8      -16.317252   1.000000
    9      -16.294482   1.000000
   10      -16.066976   1.000000
   11      -16.030814   1.000000
   12      -15.971547   1.000000
   13      -15.849705   1.000000
   14      -15.629231   1.000000
   15      -15.573690   1.000000
   16      -15.475509   1.000000
   17      -15.248953   1.000000
   18      -15.183646   1.000000
   19       -9.480003   1.000000
   20       -9.173026   1.000000
   21       -9.113515   1.000000
   22       -9.045749   1.000000
   23       -8.760882   1.000000
   24       -8.726453   1.000000
   25       -8.615425   1.000000
   26       -8.574726   1.000000
   27       -8.520809   1.000000
   28       -8.419158   1.000000
   29       -8.396486   1.000000
   30       -8.293339   1.000000
   31       -8.252755   1.000000
   32       -8.081445   1.000000
   33       -7.987784   1.000000
   34       -7.943488   1.000000
   35       -7.836510   1.000000
   36       -7.774203   1.000000
   37       -7.705720   1.000000
   38       -7.523752   1.000000
   39       -7.421589   1.000000
   40       -7.395684   1.000000
   41       -7.318718   1.000000
   42       -7.237263   1.000000
   43       -7.118890   1.000000
   44       -6.982538   1.000000
   45       -6.911395   1.000000
   46       -6.814229   1.000000
   47       -6.764878   1.000000
   48       -6.699553   1.000000
   49       -6.604457   1.000000
   50       -6.517548   1.000000
   51       -6.383519   1.000000
   52       -6.283040   1.000000
   53       -6.228934   1.000000
   54       -6.170915   1.000000
   55       -6.138892   1.000000
   56       -6.038196   1.000000
   57       -5.956813   1.000000
   58       -5.881704   1.000000
   59       -5.785014   1.000000
   60       -5.654644   1.000000
   61       -5.569269   1.000000
   62       -5.359435   1.000000
   63       -5.328116   1.000000
   64       -5.213824   1.000000
   65       -5.051859   1.000000
   66       -5.013836   1.000000
   67       -4.902496   1.000000
   68       -4.860648   1.000000
   69       -4.753968   1.000000
   70       -4.620790   1.000000
   71       -4.584411   1.000000
   72       -4.491822   1.000000
   73       -4.418486   1.000000
   74       -4.299172   1.000000
   75       -4.250726   1.000000
   76       -3.903634   0.999999
   77       -3.791877   0.999974
   78       -3.706497   0.999709
   79       -3.488651   0.971258
   80       -3.388167   0.882798
   81       -2.954433   0.030199
   82       -2.857516   0.005186
   83       -2.703059   0.000128
   84       -2.649010   0.000027
   85       -2.514085   0.000000
   86       -2.494397   0.000000
   87       -2.284027   0.000000
   88       -2.189370   0.000000
   89       -2.161875   0.000000
   90       -1.925025   0.000000
   91       -1.763158   0.000000
   92       -1.596194   0.000000
   93       -1.477728   0.000000
   94       -1.193498   0.000000
   95       -1.126021   0.000000
   96       -1.014503   0.000000
   97       -0.974512   0.000000
   98       -0.883445   0.000000
   99       -0.814260   0.000000
  100       -0.679078   0.000000
  101       -0.606743   0.000000
  102       -0.525810   0.000000
  103       -0.456576   0.000000
  104       -0.316664   0.000000
  105       -0.183462   0.000000
  106       -0.142682   0.000000
  107       -0.117482   0.000000
  108        0.026117   0.000000
  109        0.157915   0.000000
  110        0.232363   0.000000
  111        0.498812   0.000000
  112        0.564463   0.000000
  113        0.633086   0.000000
  114        0.800969   0.000000
  115        0.964921   0.000000
  116        1.074320   0.000000
  117        1.212816   0.000000
  118        1.692865   0.000000
  119        1.879816   0.000000
  120        2.208527   0.000000
 
  0.1250000E+00  0.1250000E+00  0.0000000E+00  0.3125000E-01
    1      -17.791421   1.000000
    2      -16.917131   1.000000
    3      -16.833646   1.000000
    4      -16.699369   1.000000
    5      -16.520665   1.000000
    6      -16.426846   1.000000
    7      -16.360712   1.000000
    8      -16.308139   1.000000
    9      -16.266681   1.000000
   10      -16.045269   1.000000
   11      -15.967569   1.000000
   12      -15.892096   1.000000
   13      -15.849527   1.000000
   14      -15.645379   1.000000
   15      -15.568637   1.000000
   16      -15.509880   1.000000
   17      -15.254717   1.000000
   18      -15.184844   1.000000
   19       -9.501387   1.000000
   20       -9.321464   1.000000
   21       -9.261491   1.000000
   22       -9.109845   1.000000
   23       -8.811110   1.000000
   24       -8.760598   1.000000
   25       -8.617908   1.000000
   26       -8.541348   1.000000
   27       -8.508890   1.000000
   28       -8.359857   1.000000
   29       -8.316973   1.000000
   30       -8.288345   1.000000
   31       -8.102536   1.000000
   32       -8.060304   1.000000
   33       -7.962499   1.000000
   34       -7.904510   1.000000
   35       -7.755222   1.000000
   36       -7.694434   1.000000
   37       -7.617700   1.000000
   38       -7.548378   1.000000
   39       -7.497063   1.000000
   40       -7.389123   1.000000
   41       -7.268607   1.000000
   42       -7.225450   1.000000
   43       -7.127269   1.000000
   44       -7.053651   1.000000
   45       -6.896744   1.000000
   46       -6.793161   1.000000
   47       -6.762487   1.000000
   48       -6.680955   1.000000
   49       -6.519445   1.000000
   50       -6.409797   1.000000
   51       -6.360475   1.000000
   52       -6.312799   1.000000
   53       -6.280879   1.000000
   54       -6.197243   1.000000
   55       -6.125272   1.000000
   56       -6.051704   1.000000
   57       -6.013444   1.000000
   58       -5.892993   1.000000
   59       -5.751931   1.000000
   60       -5.645053   1.000000
   61       -5.575895   1.000000
   62       -5.472710   1.000000
   63       -5.455693   1.000000
   64       -5.255599   1.000000
   65       -5.202076   1.000000
   66       -5.076821   1.000000
   67       -4.896820   1.000000
   68       -4.813403   1.000000
   69       -4.698768   1.000000
   70       -4.594867   1.000000
   71       -4.473474   1.000000
   72       -4.434420   1.000000
   73       -4.418261   1.000000
   74       -4.261061   1.000000
   75       -4.177929   1.000000
   76       -4.099351   1.000000
   77       -3.894761   0.999999
   78       -3.703212   0.999683
   79       -3.548856   0.989973
   80       -3.284680   0.676280
   81       -2.929641   0.020027
   82       -2.804821   0.001663
   83       -2.659244   0.000037
   84       -2.631437   0.000016
   85       -2.512790   0.000000
   86       -2.455710   0.000000
   87       -2.239996   0.000000
   88       -2.134005   0.000000
   89       -2.088018   0.000000
   90       -1.919905   0.000000
   91       -1.774136   0.000000
   92       -1.590387   0.000000
   93       -1.444361   0.000000
   94       -1.227655   0.000000
   95       -1.157002   0.000000
   96       -1.061426   0.000000
   97       -0.970705   0.000000
   98       -0.907432   0.000000
   99       -0.843805   0.000000
  100       -0.784609   0.000000
  101       -0.721390   0.000000
  102       -0.615721   0.000000
  103       -0.554696   0.000000
  104       -0.413371   0.000000
  105       -0.277295   0.000000
  106       -0.178026   0.000000
  107       -0.089726   0.000000
  108        0.052951   0.000000
  109        0.182283   0.000000
  110        0.310150   0.000000
  111        0.465645   0.000000
  112        0.576989   0.000000
  113        0.654767   0.000000
  114        0.840463   0.000000
  115        0.999286   0.000000
  116        1.069588   0.000000
  117        1.181716   0.000000
  118        1.772085   0.000000
  119        1.958512   0.000000
  120        2.277077   0.000000
 
  0.2500000E+00  0.1250000E+00  0.0000000E+00  0.3125000E-01
    1      -17.710336   1.000000
    2      -17.078087   1.000000
    3      -16.899180   1.000000
    4      -16.718882   1.000000
    5      -16.529976   1.000000
    6      -16.428233   1.000000
    7      -16.334657   1.000000
    8      -16.309815   1.000000
    9      -16.183595   1.000000
   10      -16.032693   1.000000
   11      -15.928173   1.000000
   12      -15.851712   1.000000
   13      -15.775218   1.000000
   14      -15.666602   1.000000
   15      -15.569342   1.000000
   16      -15.545976   1.000000
   17      -15.264473   1.000000
   18      -15.188406   1.000000
   19       -9.636684   1.000000
   20       -9.459881   1.000000
   21       -9.328685   1.000000
   22       -9.173994   1.000000
   23       -8.886678   1.000000
   24       -8.752718   1.000000
   25       -8.534409   1.000000
   26       -8.494393   1.000000
   27       -8.434517   1.000000
   28       -8.369256   1.000000
   29       -8.274806   1.000000
   30       -8.232425   1.000000
   31       -8.136499   1.000000
   32       -8.073143   1.000000
   33       -7.986796   1.000000
   34       -7.831713   1.000000
   35       -7.731471   1.000000
   36       -7.674946   1.000000
   37       -7.600442   1.000000
   38       -7.500439   1.000000
   39       -7.431820   1.000000
   40       -7.329808   1.000000
   41       -7.216617   1.000000
   42       -7.167913   1.000000
   43       -7.108166   1.000000
   44       -6.979955   1.000000
   45       -6.890575   1.000000
   46       -6.760247   1.000000
   47       -6.686304   1.000000