       N       E                     dE             d eps       ncg     rms          rms(c)
DAV:   1     0.112601489187E+04    0.11260E+04   -0.35975E+04  8160   0.577E+02
DAV:   2    -0.379026244470E+01   -0.11298E+04   -0.10888E+04 11480   0.173E+02
DAV:   3    -0.200018460001E+03   -0.19623E+03   -0.18881E+03 10880   0.820E+01
DAV:   4    -0.209059933353E+03   -0.90415E+01   -0.88068E+01 12520   0.261E+01
DAV:   5    -0.209325606683E+03   -0.26567E+00   -0.26488E+00 11160   0.315E+00    0.275E+01
DAV:   6    -0.236774757871E+03   -0.27449E+02   -0.10607E+02 12640   0.604E+01    0.594E+01
DAV:   7    -0.196507708571E+03    0.40267E+02   -0.17670E+02 13240   0.152E+02    0.200E+01
DAV:   8    -0.189379713687E+03    0.71280E+01   -0.17371E+01 11960   0.127E+01    0.125E+01
DAV:   9    -0.188121118957E+03    0.12586E+01   -0.30189E+00 13240   0.651E+00    0.898E+00
DAV:  10    -0.187010111337E+03    0.11110E+01   -0.21626E+00 13440   0.713E+00    0.283E+00
DAV:  11    -0.186971844636E+03    0.38267E-01   -0.61828E-01 13320   0.260E+00    0.278E+00
DAV:  12    -0.187103206664E+03   -0.13136E+00   -0.85313E-01 12520   0.498E+00    0.510E+00
DAV:  13    -0.186888009571E+03    0.21520E+00   -0.57940E-01 12880   0.414E+00    0.217E+00
DAV:  14    -0.186863876265E+03    0.24133E-01   -0.14044E-01 13400   0.217E+00    0.179E+00
DAV:  15    -0.186839945256E+03    0.23931E-01   -0.75933E-02 12640   0.165E+00    0.820E-01
DAV:  16    -0.186833135500E+03    0.68098E-02   -0.11116E-02 12160   0.414E-01    0.461E-01
DAV:  17    -0.186831433163E+03    0.17023E-02   -0.79724E-03 12880   0.395E-01    0.240E-01
DAV:  18    -0.186830652856E+03    0.78031E-03   -0.29218E-03 12160   0.165E-01    0.201E-01
DAV:  19    -0.186830267962E+03    0.38489E-03   -0.10781E-03 11320   0.159E-01    0.472E-02
DAV:  20    -0.186831051311E+03   -0.78335E-03   -0.75227E-04  9160   0.605E-02    0.502E-02
DAV:  21    -0.186831661384E+03   -0.61007E-03   -0.21962E-04  8240   0.404E-02    0.403E-02
DAV:  22    -0.186832762429E+03   -0.11010E-02   -0.18070E-04  7480   0.518E-02    0.355E-02
DAV:  23    -0.186833991129E+03   -0.12287E-02   -0.13656E-04  7440   0.430E-02    0.124E-02
DAV:  24    -0.186834585661E+03   -0.59453E-03   -0.30578E-05  6760   0.142E-02    0.610E-03
DAV:  25    -0.186834940652E+03   -0.35499E-03   -0.15226E-05  5480   0.975E-03    0.470E-03
DAV:  26    -0.186835185146E+03   -0.24449E-03   -0.94778E-06  6800   0.742E-03    0.143E-03
DAV:  27    -0.186835283202E+03   -0.98056E-04   -0.36172E-06  7240   0.449E-03
   1 F= -.18683528E+03 E0= -.18666299E+03  d E =-.186835E+03
       N       E                     dE             d eps       ncg     rms          rms(c)
DAV:   1    -0.187450463027E+03   -0.61528E+00   -0.27134E+02  8160   0.350E+01    0.460E+00
DAV:   2    -0.189254777212E+03   -0.18043E+01   -0.20036E+01 12240   0.149E+01    0.793E+00
DAV:   3    -0.189356899906E+03   -0.10212E+00   -0.35843E+00 12480   0.116E+01    0.695E+00
DAV:   4    -0.188720790173E+03    0.63611E+00   -0.63890E-01 12760   0.490E+00    0.183E+00
DAV:   5    -0.188727976203E+03   -0.71860E-02   -0.30593E-01 10880   0.147E+00    0.234E+00
DAV:   6    -0.188649668276E+03    0.78308E-01   -0.29877E-01 11240   0.154E+00    0.118E+00
DAV:   7    -0.188657314991E+03   -0.76467E-02   -0.11985E-01 12320   0.182E+00    0.189E+00
DAV:   8    -0.188630080055E+03    0.27235E-01   -0.58962E-02 13360   0.142E+00    0.556E-01
DAV:   9    -0.188626688229E+03    0.33918E-02   -0.80148E-03 11600   0.377E-01    0.262E-01
DAV:  10    -0.188627782796E+03   -0.10946E-02   -0.51070E-03 13480   0.411E-01    0.463E-01
DAV:  11    -0.188626158973E+03    0.16238E-02   -0.38472E-03 12840   0.344E-01    0.125E-01
DAV:  12    -0.188626100148E+03    0.58826E-04   -0.96019E-04 11960   0.104E-01
   2 F= -.18862610E+03 E0= -.18848419E+03  d E =-.179082E+01
       N       E                     dE             d eps       ncg     rms          rms(c)
DAV:   1    -0.190541617554E+03   -0.19155E+01   -0.30738E+01  9280   0.141E+01    0.447E+00
DAV:   2    -0.190560941421E+03   -0.19324E-01   -0.28718E+00 11440   0.989E+00    0.762E+00
DAV:   3    -0.190007421557E+03    0.55352E+00   -0.13309E+00 12360   0.870E+00    0.407E+00
DAV:   4    -0.189807613128E+03    0.19981E+00   -0.67376E-01 12720   0.396E+00    0.249E+00
DAV:   5    -0.189731440355E+03    0.76173E-01   -0.30643E-01 11360   0.212E+00    0.148E+00
DAV:   6    -0.189711344649E+03    0.20096E-01   -0.81771E-02 11960   0.167E+00    0.924E-01
DAV:   7    -0.189703501035E+03    0.78436E-02   -0.16711E-02 12640   0.721E-01    0.193E-01
DAV:   8    -0.189703541693E+03   -0.40658E-04   -0.24952E-03 11080   0.170E-01    0.145E-01
DAV:   9    -0.189703798348E+03   -0.25666E-03   -0.11293E-03 10800   0.174E-01    0.183E-01
DAV:  10    -0.189704111847E+03   -0.31350E-03   -0.15253E-03 10600   0.271E-01    0.231E-01
DAV:  11    -0.189703576393E+03    0.53545E-03   -0.82801E-04  9680   0.177E-01    0.268E-02
DAV:  12    -0.189703600958E+03   -0.24564E-04   -0.81302E-05  6160   0.340E-02
   3 F= -.18970360E+03 E0= -.18958424E+03  d E =-.107750E+01
       N       E                     dE             d eps       ncg     rms          rms(c)
DAV:   1    -0.191208769047E+03   -0.15052E+01   -0.66292E+01  8160   0.187E+01    0.457E+00
DAV:   2    -0.191158235442E+03    0.50534E-01   -0.53347E+00 13520   0.881E+00    0.563E+00
DAV:   3    -0.191074557520E+03    0.83678E-01   -0.15369E+00 12040   0.918E+00    0.580E+00
DAV:   4    -0.190757815408E+03    0.31674E+00   -0.10804E+00 13080   0.642E+00    0.277E+00
DAV:   5    -0.190743144520E+03    0.14671E-01   -0.41470E-01 12200   0.411E+00    0.303E+00
DAV:   6    -0.190639192688E+03    0.10395E+00   -0.19016E-01 12240   0.314E+00    0.966E-01
DAV:   7    -0.190632855220E+03    0.63375E-02   -0.36211E-02 12520   0.102E+00    0.529E-01
DAV:   8    -0.190631620389E+03    0.12348E-02   -0.12823E-02 11480   0.753E-01    0.567E-01
DAV:   9    -0.190628572645E+03    0.30477E-02   -0.47895E-03 11640   0.499E-01    0.138E-01
DAV:  10    -0.190628933913E+03   -0.36127E-03   -0.12069E-03 10120   0.124E-01    0.124E-01
DAV:  11    -0.190628737641E+03    0.19627E-03   -0.76342E-04 10840   0.106E-01    0.457E-02
DAV:  12    -0.190628741376E+03   -0.37345E-05   -0.11298E-04  7120   0.431E-02
   4 F= -.19062874E+03 E0= -.19052891E+03  d E =-.925140E+00
       N       E                     dE             d eps       ncg     rms          rms(c)
DAV:   1    -0.192079914546E+03   -0.14512E+01   -0.14266E+02  8160   0.270E+01    0.591E+00
DAV:   2    -0.191884262666E+03    0.19565E+00   -0.99515E+00 12600   0.984E+00    0.529E+00
DAV:   3    -0.192169022881E+03   -0.28476E+00   -0.24622E+00 10920   0.114E+01    0.942E+00
DAV:   4    -0.191531384289E+03    0.63764E+00   -0.29803E+00 12120   0.118E+01    0.412E+00
DAV:   5    -0.191455402201E+03    0.75982E-01   -0.86023E-01 12240   0.624E+00    0.372E+00
DAV:   6    -0.191265111870E+03    0.19029E+00   -0.29159E-01 12280   0.401E+00    0.988E-01
DAV:   7    -0.191258436505E+03    0.66754E-02   -0.54266E-02 12160   0.113E+00    0.545E-01
DAV:   8    -0.191253442626E+03    0.49939E-02   -0.10785E-02 10560   0.490E-01    0.259E-01
DAV:   9    -0.191254407619E+03   -0.96499E-03   -0.43203E-03 12640   0.478E-01    0.373E-01
DAV:  10    -0.191253490576E+03    0.91704E-03   -0.33614E-03 11240   0.387E-01    0.108E-01
DAV:  11    -0.191253393224E+03    0.97352E-04   -0.70887E-04 10400   0.106E-01
   5 F= -.19125339E+03 E0= -.19116125E+03  d E =-.624652E+00
       N       E                     dE             d eps       ncg     rms          rms(c)
DAV:   1    -0.191313810140E+03   -0.60320E-01   -0.53273E+00  8160   0.488E+00    0.637E-01
DAV:   2    -0.191370398390E+03   -0.56588E-01   -0.23450E-01 13440   0.258E+00    0.220E+00
DAV:   3    -0.191323499430E+03    0.46899E-01   -0.11147E-01 11800   0.232E+00    0.527E-01
DAV:   4    -0.191323172512E+03    0.32692E-03   -0.13279E-02 11440   0.782E-01    0.536E-01
DAV:   5    -0.191320287820E+03    0.28847E-02   -0.64569E-03 11360   0.612E-01    0.220E-01
DAV:   6    -0.191319799489E+03    0.48833E-03   -0.17916E-03 11120   0.226E-01    0.121E-01
DAV:   7    -0.191320151081E+03   -0.35159E-03   -0.16846E-03 11640   0.273E-01    0.219E-01
DAV:   8    -0.191319665123E+03    0.48596E-03   -0.10248E-03  9560   0.246E-01    0.641E-02
DAV:   9    -0.191319627458E+03    0.37665E-04   -0.10808E-04  6160   0.625E-02
   6 F= -.19131963E+03 E0= -.19122420E+03  d E =-.662342E-01
       N       E                     dE             d eps       ncg     rms          rms(c)
DAV:   1    -0.191360337860E+03   -0.40673E-01   -0.22503E+00  8160   0.317E+00    0.406E-01
DAV:   2    -0.191382458426E+03   -0.22121E-01   -0.90960E-02 13600   0.167E+00    0.137E+00
DAV:   3    -0.191363540024E+03    0.18918E-01   -0.42103E-02 11880   0.144E+00    0.324E-01
DAV:   4    -0.191363675784E+03   -0.13576E-03   -0.54939E-03 11320   0.505E-01    0.357E-01
DAV:   5    -0.191362418160E+03    0.12576E-02   -0.27872E-03 11200   0.398E-01    0.139E-01
DAV:   6    -0.191362240970E+03    0.17719E-03   -0.76712E-04 10560   0.143E-01    0.772E-02
DAV:   7    -0.191362344224E+03   -0.10325E-03   -0.58600E-04  9640   0.154E-01    0.122E-01
DAV:   8    -0.191362195020E+03    0.14920E-03   -0.34708E-04  8520   0.145E-01    0.415E-02
DAV:   9    -0.191362182709E+03    0.12312E-04   -0.47226E-05  6400   0.434E-02
   7 F= -.19136218E+03 E0= -.19126482E+03  d E =-.425553E-01
       N       E                     dE             d eps       ncg     rms          rms(c)
DAV:   1    -0.191313702258E+03    0.48493E-01   -0.28319E+00  8160   0.357E+00    0.444E-01
DAV:   2    -0.191335146543E+03   -0.21444E-01   -0.10288E-01 13600   0.171E+00    0.125E+00
DAV:   3    -0.191316823811E+03    0.18323E-01   -0.33050E-02 11960   0.139E+00    0.319E-01
DAV:   4    -0.191317053477E+03   -0.22967E-03   -0.60117E-03 11160   0.495E-01    0.374E-01
DAV:   5    -0.191315776315E+03    0.12772E-02   -0.36162E-03 11280   0.450E-01    0.190E-01
DAV:   6    -0.191315416869E+03    0.35945E-03   -0.12474E-03 10440   0.205E-01    0.856E-02
DAV:   7    -0.191315378582E+03    0.38288E-04   -0.52772E-04 10240   0.104E-01
   8 F= -.19131538E+03 E0= -.19122024E+03  d E =0.468041E-01
       N       E                     dE             d eps       ncg     rms          rms(c)
DAV:   1    -0.191239875424E+03    0.75541E-01   -0.86017E+00  8160   0.622E+00    0.695E-01
DAV:   2    -0.191279276747E+03   -0.39401E-01   -0.25739E-01 13600   0.210E+00    0.152E+00
DAV:   3    -0.191252739445E+03    0.26537E-01   -0.69928E-02 12200   0.196E+00    0.698E-01
DAV:   4    -0.191250283515E+03    0.24559E-02   -0.18137E-02 12640   0.836E-01    0.504E-01
DAV:   5    -0.191248160807E+03    0.21227E-02   -0.86086E-03 11760   0.669E-01    0.381E-01
DAV:   6    -0.191246908898E+03    0.12519E-02   -0.43692E-03 11400   0.465E-01    0.192E-01
DAV:   7    -0.191246822984E+03    0.85914E-04   -0.18603E-03 11920   0.251E-01    0.159E-01
DAV:   8    -0.191246578421E+03    0.24456E-03   -0.83984E-04  9760   0.219E-01    0.100E-01
DAV:   9    -0.191246467675E+03    0.11075E-03   -0.21323E-04  7240   0.107E-01    0.234E-02
DAV:  10    -0.191246471060E+03   -0.33845E-05   -0.62672E-05  7480   0.318E-02
   9 F= -.19124647E+03 E0= -.19115520E+03  d E =0.689075E-01
       N       E                     dE             d eps       ncg     rms          rms(c)
DAV:   1    -0.191290161087E+03   -0.43693E-01   -0.35174E+00  8160   0.397E+00    0.485E-01
DAV:   2    -0.191317404526E+03   -0.27243E-01   -0.13018E-01 13520   0.166E+00    0.151E+00
DAV:   3    -0.191295773573E+03    0.21631E-01   -0.58249E-02 12120   0.166E+00    0.454E-01
DAV:   4    -0.191294764340E+03    0.10092E-02   -0.74260E-03 11080   0.537E-01    0.372E-01
DAV:   5    -0.191293444282E+03    0.13201E-02   -0.35200E-03 11120   0.455E-01    0.195E-01
DAV:   6    -0.191293155316E+03    0.28897E-03   -0.15360E-03 10520   0.234E-01    0.128E-01
DAV:   7    -0.191293271063E+03   -0.11575E-03   -0.12049E-03 10720   0.235E-01    0.172E-01
DAV:   8    -0.191292974989E+03    0.29607E-03   -0.63932E-04  8880   0.196E-01    0.527E-02
DAV:   9    -0.191292950732E+03    0.24256E-04   -0.74820E-05  6320   0.510E-02
  10 F= -.19129295E+03 E0= -.19119846E+03  d E =-.464797E-01
       N       E                     dE             d eps       ncg     rms          rms(c)
DAV:   1    -0.191316050550E+03   -0.23076E-01   -0.80923E-01  8160   0.192E+00    0.280E-01
DAV:   2    -0.191325408901E+03   -0.93584E-02   -0.38272E-02 13600   0.115E+00    0.909E-01
DAV:   3    -0.191316696918E+03    0.87120E-02   -0.17281E-02 11760   0.955E-01    0.196E-01
DAV:   4    -0.191316931201E+03   -0.23428E-03   -0.26116E-03 11360   0.349E-01    0.261E-01
DAV:   5    -0.191316286717E+03    0.64448E-03   -0.16190E-03 10080   0.300E-01    0.115E-01
DAV:   6    -0.191316141032E+03    0.14569E-03   -0.48587E-04  9040   0.122E-01    0.559E-02
DAV:   7    -0.191316191231E+03   -0.50200E-04   -0.32907E-04  7920   0.126E-01
  11 F= -.19131619E+03 E0= -.19121997E+03  d E =-.232405E-01
       N       E                     dE             d eps       ncg     rms          rms(c)
DAV:   1    -0.191373786964E+03   -0.57646E-01   -0.54916E+00  8160   0.497E+00    0.644E-01
DAV:   2    -0.191429092728E+03   -0.55306E-01   -0.22640E-01 13600   0.262E+00    0.226E+00
DAV:   3    -0.191381484801E+03    0.47608E-01   -0.11987E-01 12120   0.233E+00    0.540E-01
DAV:   4    -0.191381436592E+03    0.48209E-04   -0.14590E-02 11640   0.827E-01    0.575E-01
DAV:   5    -0.191378164633E+03    0.32720E-02   -0.75452E-03 11520   0.648E-01    0.238E-01
DAV:   6    -0.191377579829E+03    0.58480E-03   -0.23589E-03 10680   0.265E-01    0.145E-01
DAV:   7    -0.191378105404E+03   -0.52558E-03   -0.22903E-03 11920   0.343E-01    0.267E-01
DAV:   8    -0.191377327018E+03    0.77839E-03   -0.12674E-03 10200   0.269E-01    0.481E-02
DAV:   9    -0.191377307631E+03    0.19387E-04   -0.90532E-05  6120   0.483E-02
  12 F= -.19137731E+03 E0= -.19127747E+03  d E =-.611164E-01
       N       E                     dE             d eps       ncg     rms          rms(c)
DAV:   1    -0.191306117473E+03    0.71210E-01   -0.66839E+00  8160   0.548E+00    0.690E-01
DAV:   2    -0.191359561994E+03   -0.53445E-01   -0.24856E-01 13600   0.266E+00    0.196E+00
DAV:   3    -0.191313512197E+03    0.46050E-01   -0.80895E-02 12280   0.218E+00    0.499E-01
DAV:   4    -0.191313901612E+03   -0.38941E-03   -0.14446E-02 11400   0.772E-01    0.574E-01
DAV:   5    -0.191310875307E+03    0.30263E-02   -0.85486E-03 11400   0.688E-01    0.285E-01
DAV:   6    -0.191310001624E+03    0.87368E-03   -0.27842E-03 12120   0.304E-01    0.125E-01
DAV:   7    -0.191309941133E+03    0.60491E-04   -0.11787E-03 11000   0.164E-01    0.110E-01
DAV:   8    -0.191309829826E+03    0.11131E-03   -0.49918E-04  9240   0.164E-01    0.857E-02
DAV:   9    -0.191309753211E+03    0.76615E-04   -0.14738E-04  6240   0.938E-02
  13 F= -.19130975E+03 E0= -.19121387E+03  d E =0.675544E-01
       N       E                     dE             d eps       ncg     rms          rms(c)
DAV:   1    -0.191233775237E+03    0.76055E-01   -0.87436E+00  8160   0.628E+00    0.726E-01
DAV:   2    -0.191282533708E+03   -0.48758E-01   -0.27964E-01 13600   0.234E+00    0.177E+00
DAV:   3    -0.191246464040E+03    0.36070E-01   -0.86443E-02 12320   0.217E+00    0.696E-01
DAV:   4    -0.191244059132E+03    0.24049E-02   -0.18994E-02 12360   0.847E-01    0.528E-01
DAV:   5    -0.191241750545E+03    0.23086E-02   -0.89028E-03 11840   0.692E-01    0.370E-01
DAV:   6    -0.191240405459E+03    0.13451E-02   -0.40847E-03 11200   0.440E-01    0.177E-01
DAV:   7    -0.191240499866E+03   -0.94407E-04   -0.20758E-03 11840   0.266E-01    0.189E-01
DAV:   8    -0.191240152230E+03    0.34764E-03   -0.11129E-03 10240   0.252E-01    0.111E-01
DAV:   9    -0.191240008880E+03    0.14335E-03   -0.27174E-04  8280   0.113E-01    0.243E-02
DAV:  10    -0.191240012344E+03   -0.34635E-05   -0.57894E-05  7200   0.308E-02
  14 F= -.19124001E+03 E0= -.19114881E+03  d E =0.697409E-01
       N       E                     dE             d eps       ncg     rms          rms(c)
DAV:   1    -0.191282610175E+03   -0.42601E-01   -0.36685E+00  8160   0.405E+00    0.493E-01
DAV:   2    -0.191312834574E+03   -0.30224E-01   -0.13325E-01 13520   0.180E+00    0.159E+00
DAV:   3    -0.191287877472E+03    0.24957E-01   -0.62167E-02 12280   0.174E+00    0.434E-01
DAV:   4    -0.191287340456E+03    0.53702E-03   -0.78807E-03 11400   0.568E-01    0.402E-01
DAV:   5    -0.191285809723E+03    0.15307E-02   -0.38769E-03 11400   0.471E-01    0.193E-01
DAV:   6    -0.191285486371E+03    0.32335E-03   -0.13872E-03 10360   0.223E-01    0.123E-01
DAV:   7    -0.191285771556E+03   -0.28518E-03   -0.13451E-03 10600   0.266E-01    0.204E-01
DAV:   8    -0.191285326629E+03    0.44493E-03   -0.74769E-04  8920   0.212E-01    0.427E-02
DAV:   9    -0.191285316530E+03    0.10099E-04   -0.67838E-05  6160   0.420E-02
  15 F= -.19128532E+03 E0= -.19119051E+03  d E =-.453042E-01
       N       E                     dE             d eps       ncg     rms          rms(c)
DAV:   1    -0.191302343678E+03   -0.17017E-01   -0.49886E-01  8160   0.151E+00    0.220E-01
DAV:   2    -0.191308432660E+03   -0.60890E-02   -0.24191E-02 13600   0.917E-01    0.732E-01
DAV:   3    -0.191302752943E+03    0.56797E-02   -0.11075E-02 11800   0.766E-01    0.154E-01
DAV:   4    -0.191302890869E+03   -0.13793E-03   -0.15756E-03 10120   0.270E-01    0.199E-01
DAV:   5    -0.191302517911E+03    0.37296E-03   -0.95418E-04 10040   0.229E-01    0.888E-02
DAV:   6    -0.191302435191E+03    0.82720E-04   -0.27110E-04  7360   0.956E-02
  16 F= -.19130244E+03 E0= -.19120612E+03  d E =-.171187E-01
       N       E                     dE             d eps       ncg     rms          rms(c)
DAV:   1    -0.191362336771E+03   -0.59819E-01   -0.66167E+00  8160   0.546E+00    0.746E-01
DAV:   2    -0.191438196655E+03   -0.75860E-01   -0.29568E-01 13520   0.308E+00    0.271E+00
DAV:   3    -0.191370788313E+03    0.67408E-01   -0.16917E-01 12200   0.274E+00    0.611E-01
DAV:   4    -0.191371266337E+03   -0.47802E-03   -0.20380E-02 11640   0.994E-01    0.694E-01
DAV:   5    -0.191366344085E+03    0.49223E-02   -0.10587E-02 11680   0.757E-01    0.261E-01
DAV:   6    -0.191365674073E+03    0.67001E-03   -0.32493E-03 11080   0.309E-01    0.181E-01
DAV:   7    -0.191366281853E+03   -0.60778E-03   -0.32671E-03 11880   0.413E-01    0.304E-01
DAV:   8    -0.191365272685E+03    0.10092E-02   -0.16492E-03 10120   0.301E-01    0.532E-02
DAV:   9    -0.191365243286E+03    0.29399E-04   -0.11717E-04  6080   0.523E-02
  17 F= -.19136524E+03 E0= -.19126428E+03  d E =-.628081E-01
       N       E                     dE             d eps       ncg     rms          rms(c)
DAV:   1    -0.191382927044E+03   -0.17654E-01   -0.51289E-01  8160   0.152E+00    0.187E-01
DAV:   2    -0.191386861424E+03   -0.39344E-02   -0.18700E-02 13600   0.687E-01    0.571E-01
DAV:   3    -0.191383601857E+03    0.32596E-02   -0.79155E-03 11680   0.622E-01    0.162E-01
DAV:   4    -0.191383599676E+03    0.21812E-05   -0.11889E-03  9920   0.223E-01    0.160E-01
DAV:   5    -0.191383358950E+03    0.24073E-03   -0.63974E-04  8960   0.190E-01    0.774E-02
DAV:   6    -0.191383316661E+03    0.42289E-04   -0.20274E-04  6440   0.942E-02
  18 F= -.19138332E+03 E0= -.19128147E+03  d E =-.180734E-01
       N       E                     dE             d eps       ncg     rms          rms(c)
DAV:   1    -0.191382802759E+03    0.55619E-03   -0.58396E-02  8160   0.584E-01    0.164E-01
DAV:   2    -0.191385173522E+03   -0.23708E-02   -0.80572E-03 11800   0.606E-01    0.518E-01
DAV:   3    -0.191382320517E+03    0.28530E-02   -0.51504E-03 11280   0.552E-01    0.116E-01
DAV:   4    -0.191382226840E+03    0.93678E-04   -0.55826E-04  8480   0.139E-01
  19 F= -.19138223E+03 E0= -.19128037E+03  d E =0.108982E-02
       N       E                     dE             d eps       ncg     rms          rms(c)
DAV:   1    -0.191433902968E+03   -0.51582E-01   -0.38744E+00  8160   0.422E+00    0.657E-01
DAV:   2    -0.191498399748E+03   -0.64497E-01   -0.22471E-01 12520   0.281E+00    0.256E+00
DAV:   3    -0.191437858833E+03    0.60541E-01   -0.14113E-01 12160   0.251E+00    0.483E-01
DAV:   4    -0.191438756195E+03   -0.89736E-03   -0.14434E-02 11560   0.838E-01    0.599E-01
DAV:   5    -0.191435041548E+03    0.37146E-02   -0.81244E-03 11400   0.659E-01    0.226E-01
DAV:   6    -0.191434817989E+03    0.22356E-03   -0.29388E-03 11640   0.326E-01    0.218E-01
DAV:   7    -0.191434786005E+03    0.31984E-04   -0.25985E-03 11840   0.369E-01    0.210E-01
DAV:   8    -0.191434268375E+03    0.51763E-03   -0.88498E-04  9480   0.205E-01    0.408E-02
DAV:   9    -0.191434246463E+03    0.21912E-04   -0.10444E-04  6360   0.443E-02
  20 F= -.19143425E+03 E0= -.19133076E+03  d E =-.520196E-01
       N       E                     dE             d eps       ncg     rms          rms(c)
DAV:   1    -0.191443137970E+03   -0.88696E-02   -0.11702E-01  8160   0.730E-01    0.900E-02
DAV:   2    -0.191443905676E+03   -0.76771E-03   -0.44049E-03 13520   0.320E-01    0.245E-01
DAV:   3    -0.191443312543E+03    0.59313E-03   -0.15750E-03 10240   0.276E-01    0.815E-02
DAV:   4    -0.191443317615E+03   -0.50720E-05   -0.28580E-04  6840   0.115E-01
  21 F= -.19144332E+03 E0= -.19133976E+03  d E =-.907115E-02
       N       E                     dE             d eps       ncg     rms          rms(c)
DAV:   1    -0.191366072834E+03    0.77240E-01   -0.77147E+00  8160   0.592E+00    0.715E-01
DAV:   2    -0.191410980952E+03   -0.44908E-01   -0.27158E-01 13600   0.251E+00    0.173E+00
DAV:   3    -0.191375689127E+03    0.35292E-01   -0.74311E-02 12280   0.206E+00    0.529E-01
DAV:   4    -0.191374842729E+03    0.84640E-03   -0.14651E-02 11480   0.728E-01    0.524E-01
DAV:   5    -0.191372915150E+03    0.19276E-02   -0.10312E-02 11760   0.722E-01    0.388E-01
DAV:   6    -0.191371589998E+03    0.13252E-02   -0.42093E-03 11880   0.410E-01    0.163E-01
DAV:   7    -0.191371801492E+03   -0.21149E-03   -0.23851E-03 11840   0.302E-01    0.233E-01
DAV:   8    -0.191371250309E+03    0.55118E-03   -0.12828E-03  9760   0.265E-01    0.813E-02
DAV:   9    -0.191371177246E+03    0.73063E-04   -0.17123E-04  6320   0.806E-02
  22 F= -.19137118E+03 E0= -.19126972E+03  d E =0.721404E-01
       N       E                     dE             d eps       ncg     rms          rms(c)
DAV:   1    -0.191355760421E+03    0.15490E-01   -0.48569E-01  8160   0.149E+00    0.168E-01
DAV:   2    -0.191357408338E+03   -0.16479E-02   -0.14382E-02 13400   0.415E-01    0.290E-01
DAV:   3    -0.191356554796E+03    0.85354E-03   -0.36845E-03 11480   0.422E-01    0.196E-01
DAV:   4    -0.191356287897E+03    0.26690E-03   -0.10904E-03  9880   0.222E-01    0.114E-01
DAV:   5    -0.191356212744E+03    0.75153E-04   -0.56519E-04  8960   0.159E-01
  23 F= -.19135621E+03 E0= -.19125556E+03  d E =0.149645E-01
       N       E                     dE             d eps       ncg     rms          rms(c)
DAV:   1    -0.191376527557E+03   -0.20240E-01   -0.15740E+00  8160   0.264E+00    0.337E-01
DAV:   2    -0.191394125475E+03   -0.17598E-01   -0.67866E-02 13600   0.143E+00    0.128E+00
DAV:   3    -0.191378735906E+03    0.15390E-01   -0.33700E-02 12320   0.125E+00    0.237E-01
DAV:   4    -0.191378942952E+03   -0.20705E-03   -0.31429E-03 11280   0.350E-01    0.283E-01
DAV:   5    -0.191378202464E+03    0.74049E-03   -0.20165E-03 10240   0.338E-01    0.135E-01
DAV:   6    -0.191378096524E+03    0.10594E-03   -0.74375E-04  9680   0.165E-01    0.847E-02
DAV:   7    -0.191378162478E+03   -0.65955E-04   -0.51111E-04  9480   0.167E-01
  24 F= -.19137816E+03 E0= -.19127629E+03  d E =-.219497E-01
       N       E                     dE             d eps       ncg     rms          rms(c)
DAV:   1    -0.191404527570E+03   -0.26431E-01   -0.15330E+00  8160   0.268E+00    0.339E-01
DAV:   2    -0.191412686469E+03   -0.81589E-02   -0.54564E-02 13520   0.109E+00    0.774E-01
DAV:   3    -0.191406315678E+03    0.63708E-02   -0.17498E-02 12120   0.967E-01    0.288E-01
DAV:   4    -0.191405835540E+03    0.48014E-03   -0.35581E-03 11320   0.368E-01    0.242E-01
DAV:   5    -0.191405513542E+03    0.32200E-03   -0.25740E-03 10960   0.355E-01    0.219E-01
DAV:   6    -0.191405081112E+03    0.43243E-03   -0.14313E-03  9680   0.248E-01    0.953E-02
DAV:   7    -0.191405089597E+03   -0.84853E-05   -0.57814E-04  8440   0.143E-01
  25 F= -.19140509E+03 E0= -.19130178E+03  d E =-.269271E-01
       N       E                     dE             d eps       ncg     rms          rms(c)
DAV:   1    -0.191411016731E+03   -0.59356E-02   -0.56480E-02  8160   0.527E-01    0.919E-02
DAV:   2    -0.191412481322E+03   -0.14646E-02   -0.44433E-03 13240   0.392E-01    0.368E-01
DAV:   3    -0.191411028915E+03    0.14524E-02   -0.26134E-03 10080   0.364E-01    0.612E-02
DAV:   4    -0.191411042363E+03   -0.13449E-04   -0.17264E-04  6080   0.738E-02
  26 F= -.19141104E+03 E0= -.19130767E+03  d E =-.595277E-02
       N       E                     dE             d eps       ncg     rms          rms(c)
DAV:   1    -0.191351173678E+03    0.59855E-01   -0.74695E+00  8160   0.583E+00    0.761E-01
DAV:   2    -0.191415392155E+03   -0.64218E-01   -0.27815E-01 13600   0.288E+00    0.222E+00
DAV:   3    -0.191356896714E+03    0.58495E-01   -0.10796E-01 12080   0.249E+00    0.573E-01
DAV:   4    -0.191357129795E+03   -0.23308E-03   -0.19098E-02 11240   0.878E-01    0.650E-01
DAV:   5    -0.191353473324E+03    0.36565E-02   -0.11602E-02 12120   0.781E-01    0.369E-01
DAV:   6    -0.191352264650E+03    0.12087E-02   -0.50962E-03 11720   0.459E-01    0.244E-01
DAV:   7    -0.191352650512E+03   -0.38586E-03   -0.38956E-03 11920   0.431E-01    0.307E-01
DAV:   8    -0.191351673355E+03    0.97716E-03   -0.18782E-03  9760   0.304E-01    0.646E-02
DAV:   9    -0.191351612428E+03    0.60926E-04   -0.19446E-04  7080   0.649E-02
  27 F= -.19135161E+03 E0= -.19125094E+03  d E =0.594299E-01
       N       E                     dE             d eps       ncg     rms          rms(c)
DAV:   1    -0.191410392453E+03   -0.58719E-01   -0.63989E+00  8160   0.538E+00    0.759E-01
DAV:   2    -0.191491257579E+03   -0.80865E-01   -0.28514E-01 13560   0.315E+00    0.284E+00
DAV:   3    -0.191414797455E+03    0.76460E-01   -0.17252E-01 12360   0.286E+00    0.540E-01
DAV:   4    -0.191415236921E+03   -0.43947E-03   -0.17849E-02 12280   0.850E-01    0.657E-01
DAV:   5    -0.191411661019E+03    0.35759E-02   -0.12347E-02 12160   0.802E-01    0.366E-01
DAV:   6    -0.191410410712E+03    0.12503E-02   -0.48513E-03 11640   0.433E-01    0.228E-01
DAV:   7    -0.191410604593E+03   -0.19388E-03   -0.34520E-03 11880   0.416E-01    0.261E-01
DAV:   8    -0.191409839243E+03    0.76535E-03   -0.13661E-03  9880   0.265E-01    0.556E-02
DAV:   9    -0.191409787481E+03    0.51762E-04   -0.15393E-04  5920   0.593E-02
  28 F= -.19140979E+03 E0= -.19130620E+03  d E =-.581751E-01
       N       E                     dE             d eps       ncg     rms          rms(c)
DAV:   1    -0.191434551275E+03   -0.24712E-01   -0.11129E+00  8160   0.224E+00    0.278E-01
DAV:   2    -0.191444220724E+03   -0.96694E-02   -0.42626E-02 13600   0.107E+00    0.937E-01
DAV:   3    -0.191435902162E+03    0.83186E-02   -0.19888E-02 12160   0.960E-01    0.221E-01
DAV:   4    -0.191436007252E+03   -0.10509E-03   -0.24291E-03 11440   0.314E-01    0.245E-01
DAV:   5    -0.191435442479E+03    0.56477E-03   -0.15564E-03 10200   0.291E-01    0.117E-01
DAV:   6    -0.191435390506E+03    0.51973E-04   -0.58904E-04  8680   0.154E-01
  29 F= -.19143539E+03 E0= -.19133122E+03  d E =-.256030E-01
       N       E                     dE             d eps       ncg     rms          rms(c)
DAV:   1    -0.191389414821E+03    0.46028E-01   -0.33717E+00  8160   0.393E+00    0.534E-01
DAV:   2    -0.191420534740E+03   -0.31120E-01   -0.14333E-01 13600   0.199E+00    0.164E+00
DAV:   3    -0.191392855297E+03    0.27679E-01   -0.62794E-02 12360   0.180E+00    0.422E-01
DAV:   4    -0.191392125932E+03    0.72936E-03   -0.82258E-03 11120   0.560E-01    0.375E-01
DAV:   5    -0.191390989530E+03    0.11364E-02   -0.52856E-03 11520   0.533E-01    0.275E-01
DAV:   6    -0.191390339094E+03    0.65044E-03   -0.25553E-03 11480   0.336E-01    0.161E-01
DAV:   7    -0.191390530492E+03   -0.19140E-03   -0.18396E-03 10000   0.298E-01    0.211E-01
DAV:   8    -0.191390064598E+03    0.46589E-03   -0.84517E-04  8440   0.207E-01    0.432E-02
DAV:   9    -0.191390047821E+03    0.16777E-04   -0.92589E-05  6240   0.481E-02
  30 F= -.19139005E+03 E0= -.19128733E+03  d E =0.453427E-01
       N       E                     dE             d eps       ncg     rms          rms(c)
DAV:   1    -0.191455070437E+03   -0.65006E-01   -0.68976E+00  8160   0.564E+00    0.801E-01
DAV:   2    -0.191526434970E+03   -0.71365E-01   -0.31351E-01 13520   0.303E+00    0.269E+00
DAV:   3    -0.191461642388E+03    0.64793E-01   -0.17226E-01 12280   0.276E+00    0.640E-01
DAV:   4    -0.191462795702E+03   -0.11533E-02   -0.24029E-02 12240   0.106E+00    0.804E-01
DAV:   5    -0.191456597773E+03    0.61979E-02   -0.16252E-02 11960   0.934E-01    0.362E-01
DAV:   6    -0.191455790145E+03    0.80763E-03   -0.62109E-03 11600   0.486E-01    0.295E-01
DAV:   7    -0.191455607839E+03    0.18231E-03   -0.45555E-03 11800   0.484E-01    0.265E-01
DAV:   8    -0.191454776284E+03    0.83156E-03   -0.14768E-03  9760   0.265E-01    0.564E-02
DAV:   9    -0.191454721806E+03    0.54478E-04   -0.18528E-04  6800   0.595E-02
  31 F= -.19145472E+03 E0= -.19135016E+03  d E =-.646740E-01
       N       E                     dE             d eps       ncg     rms          rms(c)
DAV:   1    -0.191471871284E+03   -0.17095E-01   -0.48998E-01  8160   0.149E+00    0.173E-01
DAV:   2    -0.191474353422E+03   -0.24821E-02   -0.16135E-02 13520   0.539E-01    0.442E-01
DAV:   3    -0.191472593809E+03    0.17596E-02   -0.57965E-03 11840   0.517E-01    0.180E-01
DAV:   4    -0.191472397276E+03    0.19653E-03   -0.95934E-04  9680   0.178E-01    0.111E-01
DAV:   5    -0.191472351154E+03    0.46122E-04   -0.63926E-04  9040   0.179E-01
  32 F= -.19147235E+03 E0= -.19136795E+03  d E =-.176293E-01
       N       E                     dE             d eps       ncg     rms          rms(c)
DAV:   1    -0.191506772761E+03   -0.34375E-01   -0.19431E+00  8160   0.297E+00    0.356E-01
DAV:   2    -0.191518563767E+03   -0.11791E-01   -0.64015E-02 13560   0.120E+00    0.998E-01
DAV:   3    -0.191509111606E+03    0.94522E-02   -0.26279E-02 12400   0.113E+00    0.301E-01
DAV:   4    -0.191508974902E+03    0.13670E-03   -0.37155E-03 11480   0.378E-01    0.305E-01
DAV:   5    -0.191508201393E+03    0.77351E-03   -0.27108E-03 10640   0.383E-01    0.168E-01
DAV:   6    -0.191508069683E+03    0.13171E-03   -0.11159E-03  9680   0.202E-01    0.100E-01
DAV:   7    -0.191508045650E+03    0.24033E-04   -0.58192E-04  9840   0.172E-01
  33 F= -.19150805E+03 E0= -.19140434E+03  d E =-.356945E-01
       N       E                     dE             d eps       ncg     rms          rms(c)
DAV:   1    -0.191507434778E+03    0.63491E-03   -0.16317E-02  8160   0.330E-01    0.641E-02
DAV:   2    -0.191507865088E+03   -0.43031E-03   -0.15117E-03 11880   0.244E-01    0.214E-01
DAV:   3    -0.191507386956E+03    0.47813E-03   -0.86376E-04  8480   0.222E-01    0.445E-02
DAV:   4    -0.191507392658E+03   -0.57030E-05   -0.11394E-04  5600   0.623E-02
  34 F= -.19150739E+03 E0= -.19140323E+03  d E =0.652992E-03
       N       E                     dE             d eps       ncg     rms          rms(c)
DAV:   1    -0.191556809970E+03   -0.49423E-01   -0.43055E+00  8160   0.441E+00    0.513E-01
DAV:   2    -0.191580741001E+03   -0.23931E-01   -0.15010E-01 13040   0.172E+00    0.132E+00
DAV:   3    -0.191563822169E+03    0.16919E-01   -0.53186E-02 12440   0.161E+00    0.462E-01
DAV:   4    -0.191562516509E+03    0.13057E-02   -0.69206E-03 11240   0.491E-01    0.331E-01
DAV:   5    -0.191561824790E+03    0.69172E-03   -0.47208E-03 12440   0.489E-01    0.301E-01
DAV:   6    -0.191561306671E+03    0.51812E-03   -0.30466E-03 11560   0.369E-01    0.166E-01
DAV:   7    -0.191561075576E+03    0.23110E-03   -0.11313E-03  9920   0.197E-01    0.113E-01
DAV:   8    -0.191560940481E+03    0.13510E-03   -0.33245E-04  9360   0.144E-01    0.432E-02
DAV:   9    -0.191560921943E+03    0.18538E-04   -0.71006E-05  6080   0.549E-02
  35 F= -.19156092E+03 E0= -.19145892E+03  d E =-.535293E-01
       N       E                     dE             d eps       ncg     rms          rms(c)
DAV:   1    -0.191469024656E+03    0.91916E-01   -0.10616E+01  8160   0.697E+00    0.789E-01
DAV:   2    -0.191513815890E+03   -0.44791E-01   -0.35924E-01 13200   0.235E+00    0.172E+00
DAV:   3    -0.191488882247E+03    0.24934E-01   -0.10754E-01 12240   0.227E+00    0.846E-01
DAV:   4    -0.191482723024E+03    0.61592E-02   -0.19772E-02 12360   0.835E-01    0.445E-01
DAV:   5    -0.191481420827E+03    0.13022E-02   -0.11417E-02 11640   0.664E-01    0.502E-01
DAV:   6    -0.191480695974E+03    0.72485E-03   -0.10508E-02 11880   0.699E-01    0.378E-01
DAV:   7    -0.191479108685E+03    0.15873E-02   -0.37048E-03 11200   0.339E-01    0.112E-01
DAV:   8    -0.191479048287E+03    0.60397E-04   -0.73231E-04 10040   0.186E-01
  36 F= -.19147905E+03 E0= -.19137470E+03  d E =0.818737E-01
       N       E                     dE             d eps       ncg     rms          rms(c)
DAV:   1    -0.191542328794E+03   -0.63220E-01   -0.73321E+00  8160   0.576E+00    0.632E-01
DAV:   2    -0.191575006131E+03   -0.32677E-01   -0.22918E-01 13320   0.201E+00    0.152E+00
DAV:   3    -0.191554557366E+03    0.20449E-01   -0.77002E-02 12240   0.189E+00    0.651E-01
DAV:   4    -0.191551915674E+03    0.26417E-02   -0.12992E-02 11400   0.692E-01    0.461E-01
DAV:   5    -0.191550422383E+03    0.14933E-02   -0.87129E-03 12480   0.668E-01    0.385E-01
DAV:   6    -0.191549408093E+03    0.10143E-02   -0.50003E-03 12480   0.464E-01    0.194E-01
DAV:   7    -0.191548926501E+03    0.48159E-03   -0.15668E-03 11600   0.179E-01    0.606E-02
DAV:   8    -0.191548862479E+03    0.64022E-04   -0.21047E-04  7040   0.764E-02
  37 F= -.19154886E+03 E0= -.19144582E+03  d E =-.698142E-01
       N       E                     dE             d eps       ncg     rms          rms(c)
DAV:   1    -0.191550046173E+03   -0.11197E-02   -0.16274E-02  8200   0.280E-01    0.727E-02
DAV:   2    -0.191550652188E+03   -0.60602E-03   -0.19407E-03 11600   0.294E-01    0.244E-01
DAV:   3    -0.191549976991E+03    0.67520E-03   -0.10936E-03 10040   0.250E-01    0.455E-02
DAV:   4    -0.191550023998E+03   -0.47007E-04   -0.18334E-04  5760   0.102E-01
  38 F= -.19155002E+03 E0= -.19144694E+03  d E =-.116152E-02
       N       E                     dE             d eps       ncg     rms          rms(c)
DAV:   1    -0.191603106157E+03   -0.53129E-01   -0.49864E+00  8160   0.481E+00    0.600E-01
DAV:   2    -0.191619681818E+03   -0.16576E-01   -0.17250E-01 13440   0.168E+00    0.114E+00
DAV:   3    -0.191610744996E+03    0.89368E-02   -0.51395E-02 12040   0.155E+00    0.658E-01
DAV:   4    -0.191607878743E+03    0.28663E-02   -0.14773E-02 12400   0.822E-01    0.504E-01
DAV:   5    -0.191605930033E+03    0.19487E-02   -0.90574E-03 12000   0.732E-01    0.357E-01
DAV:   6    -0.191604879371E+03    0.10507E-02   -0.45805E-03 12080   0.423E-01    0.186E-01
DAV:   7    -0.191604927014E+03   -0.47643E-04   -0.23220E-03 11360   0.347E-01    0.216E-01
DAV:   8    -0.191604401923E+03    0.52509E-03   -0.97624E-04  9520   0.234E-01    0.501E-02
DAV:   9    -0.191604370099E+03    0.31824E-04   -0.10945E-04  6400   0.518E-02
  39 F= -.19160437E+03 E0= -.19150291E+03  d E =-.543461E-01
       N       E                     dE             d eps       ncg     rms          rms(c)
DAV:   1    -0.191632024313E+03   -0.27622E-01   -0.12480E+00  8160   0.238E+00    0.255E-01
DAV:   2    -0.191636066123E+03   -0.40418E-02   -0.37391E-02 12080   0.701E-01    0.500E-01
DAV:   3    -0.191634353013E+03    0.17131E-02   -0.98758E-03 12440   0.678E-01    0.303E-01
DAV:   4    -0.191633613912E+03    0.73910E-03   -0.22869E-03 10840   0.298E-01    0.143E-01
DAV:   5    -0.191633383894E+03    0.23002E-03   -0.10573E-03 11200   0.198E-01    0.115E-01
DAV:   6    -0.191633470210E+03   -0.86317E-04   -0.87702E-04 10080   0.221E-01
  40 F= -.19163347E+03 E0= -.19153329E+03  d E =-.291001E-01
       N       E                     dE             d eps       ncg     rms          rms(c)
DAV:   1    -0.191655079611E+03   -0.21696E-01   -0.76912E-01  8160   0.189E+00    0.219E-01
DAV:   2    -0.191658217594E+03   -0.31380E-02   -0.25919E-02 12840   0.660E-01    0.435E-01
DAV:   3    -0.191656450664E+03    0.17669E-02   -0.65187E-03 12320   0.596E-01    0.224E-01
DAV:   4    -0.191656349302E+03    0.10136E-03   -0.19735E-03  9920   0.304E-01    0.205E-01
DAV:   5    -0.191655946891E+03    0.40241E-03   -0.10797E-03  9880   0.247E-01    0.102E-01
DAV:   6    -0.191655893090E+03    0.53802E-04   -0.45483E-04  8720   0.126E-01
  41 F= -.19165589E+03 E0= -.19155698E+03  d E =-.224229E-01
       N       E                     dE             d eps       ncg     rms          rms(c)
DAV:   1    -0.191682374054E+03   -0.26427E-01   -0.10773E+00  8160   0.223E+00    0.241E-01
DAV:   2    -0.191684815953E+03   -0.24419E-02   -0.31870E-02 12480   0.557E-01    0.298E-01
DAV:   3    -0.191684706910E+03    0.10904E-03   -0.57302E-03 12160   0.563E-01    0.308E-01
DAV:   4    -0.191683878013E+03    0.82890E-03   -0.26525E-03 11560   0.367E-01    0.157E-01
DAV:   5    -0.191683708208E+03    0.16981E-03   -0.10738E-03  9800   0.235E-01    0.134E-01
DAV:   6    -0.191683663927E+03    0.44281E-04   -0.69354E-04  9040   0.197E-01
  42 F= -.19168366E+03 E0= -.19158665E+03  d E =-.277708E-01
       N       E                     dE             d eps       ncg     rms          rms(c)
DAV:   1    -0.191700091576E+03   -0.16383E-01   -0.48715E-01  8160   0.153E+00    0.234E-01
DAV:   2    -0.191702871390E+03   -0.27798E-02   -0.21762E-02 13360   0.692E-01    0.507E-01
DAV:   3    -0.191700294650E+03    0.25767E-02   -0.79669E-03 11320   0.671E-01    0.200E-01
DAV:   4    -0.191699826613E+03    0.46804E-03   -0.13124E-03 10520   0.216E-01    0.907E-02
DAV:   5    -0.191699775270E+03    0.51343E-04   -0.81863E-04 10720   0.147E-01
  43 F= -.19169978E+03 E0= -.19160281E+03  d E =-.161113E-01
       N       E                     dE             d eps       ncg     rms          rms(c)
DAV:   1    -0.191749934963E+03   -0.50108E-01   -0.47959E+00  8160   0.469E+00    0.497E-01
DAV:   2    -0.191759034569E+03   -0.90996E-02   -0.13919E-01 11960   0.102E+00    0.454E-01
DAV:   3    -0.191761853521E+03   -0.28190E-02   -0.22361E-02 11280   0.107E+00    0.735E-01
DAV:   4    -0.191756282663E+03    0.55709E-02   -0.12019E-02 11400   0.819E-01    0.252E-01
DAV:   5    -0.191755983601E+03    0.29906E-03   -0.35571E-03 10720   0.411E-01    0.253E-01
DAV:   6    -0.191755958508E+03    0.25093E-04   -0.29336E-03 11600   0.420E-01    0.226E-01
DAV:   7    -0.191755369267E+03    0.58924E-03   -0.13284E-03 10280   0.258E-01    0.100E-01
DAV:   8    -0.191755289091E+03    0.80176E-04   -0.31550E-04  8320   0.138E-01
  44 F= -.19175529E+03 E0= -.19166157E+03  d E =-.555138E-01
       N       E                     dE             d eps       ncg     rms          rms(c)
DAV:   1    -0.191827403847E+03   -0.72035E-01   -0.18737E+01  8160   0.928E+00    0.966E-01
DAV:   2    -0.191871116145E+03   -0.43712E-01   -0.58415E-01 12000   0.215E+00    0.968E-01
DAV:   3    -0.191875691064E+03   -0.45749E-02   -0.80929E-02 12280   0.214E+00    0.129E+00
DAV:   4    -0.191858328566E+03    0.17362E-01   -0.34891E-02 12360   0.154E+00    0.499E-01
DAV:   5    -0.191856700918E+03    0.16276E-02   -0.12138E-02 12560   0.820E-01    0.471E-01
DAV:   6    -0.191856705924E+03   -0.50060E-05   -0.10381E-02 12760   0.812E-01    0.427E-01
DAV:   7    -0.191854493897E+03    0.22120E-02   -0.46132E-03 11440   0.489E-01    0.181E-01
DAV:   8    -0.191854223899E+03    0.27000E-03   -0.10803E-03 10560   0.259E-01    0.869E-02
DAV:   9    -0.191854144586E+03    0.79313E-04   -0.28839E-04  8360   0.102E-01
  45 F= -.19185414E+03 E0= -.19176601E+03  d E =-.988555E-01
       N       E                     dE             d eps       ncg     rms          rms(c)
DAV:   1    -0.191896924819E+03   -0.42701E-01   -0.79384E+00  8160   0.608E+00    0.686E-01
DAV:   2    -0.191916937364E+03   -0.20013E-01   -0.27754E-01 12120   0.152E+00    0.724E-01
DAV:   3    -0.191920648002E+03   -0.37106E-02   -0.40428E-02 11920   0.159E+00    0.104E+00
DAV:   4    -0.191909625441E+03    0.11023E-01   -0.19371E-02 12080   0.112E+00    0.300E-01
DAV:   5    -0.191908695087E+03    0.93035E-03   -0.54685E-03 11960   0.427E-01    0.242E-01
DAV:   6    -0.191909197443E+03   -0.50236E-03   -0.52103E-03 11320   0.536E-01    0.318E-01
DAV:   7    -0.191907947013E+03    0.12504E-02   -0.22798E-03 11360   0.374E-01    0.813E-02
DAV:   8    -0.191907920564E+03    0.26449E-04   -0.32772E-04  9040   0.144E-01
  46 F= -.19190792E+03 E0= -.19182258E+03  d E =-.537760E-01
       N       E                     dE             d eps       ncg     rms          rms(c)
DAV:   1    -0.191936620231E+03   -0.28673E-01   -0.69746E+00  8160   0.565E+00    0.629E-01
DAV:   2    -0.191960914906E+03   -0.24295E-01   -0.24761E-01 12120   0.171E+00    0.933E-01
DAV:   3    -0.191954663577E+03    0.62513E-02   -0.37159E-02 12080   0.159E+00    0.684E-01
DAV:   4    -0.191950378474E+03    0.42851E-02   -0.11383E-02 12040   0.854E-01    0.361E-01
DAV:   5    -0.191949423277E+03    0.95520E-03   -0.49696E-03 12200   0.602E-01    0.287E-01
DAV:   6    -0.191949046593E+03    0.37668E-03   -0.31484E-03 12600   0.408E-01    0.177E-01
DAV:   7    -0.191948590155E+03    0.45644E-03   -0.12801E-03 11080   0.211E-01    0.915E-02
DAV:   8    -0.191948522916E+03    0.67239E-04   -0.31280E-04  9600   0.144E-01
  47 F= -.19194852E+03 E0= -.19186577E+03  d E =-.406024E-01
       N       E                     dE             d eps       ncg     rms          rms(c)
DAV:   1    -0.191958053345E+03   -0.94632E-02   -0.43766E-01  8160   0.143E+00    0.195E-01
DAV:   2    -0.191959272195E+03   -0.12188E-02   -0.18605E-02 10880   0.450E-01    0.229E-01
DAV:   3    -0.191959339863E+03   -0.67668E-04   -0.33320E-03 12400   0.472E-01    0.260E-01
DAV:   4    -0.191958592759E+03    0.74710E-03   -0.12289E-03 10920   0.306E-01    0.852E-02
DAV:   5    -0.191958608199E+03   -0.15440E-04   -0.41543E-04  8720   0.161E-01
  48 F= -.19195861E+03 E0= -.19187593E+03  d E =-.100853E-01
       N       E                     dE             d eps       ncg     rms          rms(c)
DAV:   1    -0.191972954408E+03   -0.14362E-01   -0.11612E+00  8160   0.231E+00    0.279E-01
DAV:   2    -0.191975793957E+03   -0.28395E-02   -0.37355E-02 12000   0.651E-01    0.350E-01
DAV:   3    -0.191975729008E+03    0.64949E-04   -0.65028E-03 12280   0.680E-01    0.363E-01
DAV:   4    -0.191974258708E+03    0.14703E-02   -0.22600E-03 12160   0.396E-01    0.103E-01
DAV:   5    -0.191974231454E+03    0.27255E-04   -0.79991E-04 10440   0.159E-01
  49 F= -.19197423E+03 E0= -.19189236E+03  d E =-.156233E-01
       N       E                     dE             d eps       ncg     rms          rms(c)
DAV:   1    -0.191983448191E+03   -0.91895E-02   -0.48293E-01  8160   0.151E+00    0.221E-01
DAV:   2    -0.191987885930E+03   -0.44377E-02   -0.22883E-02 12400   0.822E-01    0.565E-01
DAV:   3    -0.191984042291E+03    0.38436E-02   -0.70298E-03 11920   0.703E-01    0.130E-01
DAV:   4    -0.191984014266E+03    0.28024E-04   -0.72049E-04  9880   0.209E-01
  50 F= -.19198401E+03 E0= -.19190316E+03  d E =-.978281E-02
       N       E                     dE             d eps       ncg     rms          rms(c)
DAV:   1    -0.191993289101E+03   -0.92468E-02   -0.55679E-01  8160   0.161E+00    0.208E-01
DAV:   2    -0.191995248114E+03   -0.19590E-02   -0.18396E-02 12880   0.497E-01    0.327E-01
DAV:   3    -0.191994398239E+03    0.84988E-03   -0.36866E-03 12120   0.529E-01    0.218E-01
DAV:   4    -0.191994018015E+03    0.38022E-03   -0.11129E-03  9960   0.263E-01    0.115E-01
DAV:   5    -0.191993948155E+03    0.69860E-04   -0.53731E-04 10280   0.198E-01
  51 F= -.19199395E+03 E0= -.19191391E+03  d E =-.993389E-02
       N       E                     dE             d eps       ncg     rms          rms(c)
DAV:   1    -0.192001608525E+03   -0.75905E-02   -0.39288E-01  8160   0.135E+00    0.170E-01
DAV:   2    -0.192002865436E+03   -0.12569E-02   -0.13449E-02 11800   0.458E-01    0.258E-01
DAV:   3    -0.192002383854E+03    0.48158E-03   -0.22133E-03 11000   0.424E-01    0.166E-01
DAV:   4    -0.192002088636E+03    0.29522E-03   -0.58782E-04  9640   0.205E-01    0.815E-02
DAV:   5    -0.192002126465E+03   -0.37829E-04   -0.38680E-04  9480   0.175E-01
  52 F= -.19200213E+03 E0= -.19192274E+03  d E =-.817831E-02
       N       E                     dE             d eps       ncg     rms          rms(c)
DAV:   1    -0.192018499885E+03   -0.16411E-01   -0.25396E+00  8160   0.340E+00    0.377E-01
DAV:   2    -0.192025603251E+03   -0.71034E-02   -0.81656E-02 11840   0.950E-01    0.488E-01
DAV:   3    -0.192024812544E+03    0.79071E-03   -0.12099E-02 12440   0.921E-01    0.448E-01
DAV:   4    -0.192022717458E+03    0.20951E-02   -0.39186E-03 12080   0.538E-01    0.174E-01
DAV:   5    -0.192022503433E+03    0.21402E-03   -0.16395E-03 11440   0.277E-01    0.154E-01
DAV:   6    -0.192022609566E+03   -0.10613E-03   -0.13752E-03 11280   0.302E-01    0.163E-01
DAV:   7    -0.192022262875E+03    0.34669E-03   -0.56437E-04  9800   0.186E-01    0.493E-02
DAV:   8    -0.192022245906E+03    0.16969E-04   -0.82151E-05  6200   0.801E-02
  53 F= -.19202225E+03 E0= -.19194485E+03  d E =-.201194E-01
       N       E                     dE             d eps       ncg     rms          rms(c)
DAV:   1    -0.192024015597E+03   -0.17527E-02   -0.37494E-02  8200   0.429E-01    0.833E-02
DAV:   2    -0.192024034911E+03   -0.19314E-04   -0.17010E-03 11000   0.186E-01    0.112E-01
DAV:   3    -0.192023953613E+03    0.81298E-04   -0.47167E-04  9760   0.197E-01
  54 F= -.19202395E+03 E0= -.19194692E+03  d E =-.170771E-02
       N       E                     dE             d eps       ncg     rms          rms(c)
DAV:   1    -0.192033532191E+03   -0.94973E-02   -0.73271E-01  8160   0.183E+00    0.216E-01
DAV:   2    -0.192035738069E+03   -0.22059E-02   -0.23917E-02 12320   0.589E-01    0.326E-01
DAV:   3    -0.192034906105E+03    0.83196E-03   -0.37167E-03 11560   0.531E-01    0.215E-01
DAV:   4    -0.192034483113E+03    0.42299E-03   -0.12278E-03 10080   0.279E-01    0.121E-01
DAV:   5    -0.192034453946E+03    0.29166E-04   -0.74487E-04 10480   0.233E-01
  55 F= -.19203445E+03 E0= -.19195887E+03  d E =-.105003E-01
       N       E                     dE             d eps       ncg     rms          rms(c)
DAV:   1    -0.192028901862E+03    0.55813E-02   -0.17814E-01  8160   0.914E-01    0.105E-01
DAV:   2    -0.192029864925E+03   -0.96306E-03   -0.65025E-03 12840   0.330E-01    0.227E-01
DAV:   3    -0.192029277274E+03    0.58765E-03   -0.13969E-03 10560   0.320E-01    0.981E-02
DAV:   4    -0.192029187470E+03    0.89804E-04   -0.29071E-04  8440   0.124E-01
  56 F= -.19202919E+03 E0= -.19195295E+03  d E =0.526648E-02
       N       E                     dE             d eps       ncg     rms          rms(c)
DAV:   1    -0.192039947094E+03   -0.10670E-01   -0.10110E+00  8160   0.214E+00    0.227E-01
DAV:   2    -0.192043489624E+03   -0.35425E-02   -0.33579E-02 12440   0.753E-01    0.385E-01
DAV:   3    -0.192042167876E+03    0.13217E-02   -0.45858E-03 12120   0.603E-01    0.208E-01
DAV:   4    -0.192041765913E+03    0.40196E-03   -0.10537E-03  9840   0.274E-01    0.132E-01
DAV:   5    -0.192041669306E+03    0.96608E-04   -0.57353E-04 10600   0.221E-01
  57 F= -.19204167E+03 E0= -.19196673E+03  d E =-.124818E-01
       N       E                     dE             d eps       ncg     rms          rms(c)
DAV:   1    -0.192040681359E+03    0.10846E-02   -0.10505E-02  8480   0.242E-01    0.785E-02
DAV:   2    -0.192041140910E+03   -0.45955E-03   -0.15637E-03 12320   0.275E-01    0.203E-01
DAV:   3    -0.192040579806E+03    0.56110E-03   -0.78173E-04 10160   0.254E-01    0.598E-02
DAV:   4    -0.192040544849E+03    0.34957E-04   -0.15802E-04  6440   0.885E-02
  58 F= -.19204054E+03 E0= -.19196535E+03  d E =0.112446E-02
       N       E                     dE             d eps       ncg     rms          rms(c)
DAV:   1    -0.192051007182E+03   -0.10427E-01   -0.84969E-01  8160   0.196E+00    0.215E-01
DAV:   2    -0.192053549109E+03   -0.25419E-02   -0.26193E-02 11960   0.673E-01    0.333E-01
DAV:   3    -0.192052529610E+03    0.10195E-02   -0.36386E-03 12400   0.531E-01    0.181E-01
DAV:   4    -0.192052194063E+03    0.33555E-03   -0.92465E-04  9840   0.239E-01    0.114E-01
DAV:   5    -0.192052223446E+03   -0.29383E-04   -0.69961E-04 10880   0.228E-01
  59 F= -.19205222E+03 E0= -.19197850E+03  d E =-.116786E-01
       N       E                     dE             d eps       ncg     rms          rms(c)
DAV:   1    -0.192035182170E+03    0.17012E-01   -0.15491E+00  8160   0.265E+00    0.296E-01
DAV:   2    -0.192040909478E+03   -0.57273E-02   -0.49032E-02 12160   0.879E-01    0.561E-01
DAV:   3    -0.192038071678E+03    0.28378E-02   -0.95708E-03 12320   0.829E-01    0.280E-01
DAV:   4    -0.192037161666E+03    0.91001E-03   -0.21234E-03 11680   0.315E-01    0.115E-01
DAV:   5    -0.192037043062E+03    0.11860E-03   -0.92332E-04 10720   0.170E-01    0.981E-02
DAV:   6    -0.192037135515E+03   -0.92453E-04   -0.65853E-04 10680   0.221E-01
  60 F= -.19203714E+03 E0= -.19196133E+03  d E =0.150879E-01
       N       E                     dE             d eps       ncg     rms          rms(c)
DAV:   1    -0.192029952271E+03    0.70908E-02   -0.34430E-01  8160   0.125E+00    0.140E-01
DAV:   2    -0.192031148204E+03   -0.11959E-02   -0.10314E-02 12800   0.414E-01    0.258E-01
DAV:   3    -0.192030553956E+03    0.59425E-03   -0.20548E-03 12080   0.383E-01    0.130E-01
DAV:   4    -0.192030386158E+03    0.16780E-03   -0.36013E-04  8800   0.136E-01    0.517E-02
DAV:   5    -0.192030398435E+03   -0.12277E-04   -0.16251E-04  6960   0.930E-02
  61 F= -.19203040E+03 E0= -.19195357E+03  d E =0.673708E-02
       N       E                     dE             d eps       ncg     rms          rms(c)
DAV:   1    -0.192037026199E+03   -0.66400E-02   -0.39121E-01  8160   0.133E+00    0.148E-01
DAV:   2    -0.192038681145E+03   -0.16549E-02   -0.14295E-02 12280   0.444E-01    0.268E-01
DAV:   3    -0.192038016948E+03    0.66420E-03   -0.23836E-03 12320   0.413E-01    0.152E-01
DAV:   4    -0.192037785807E+03    0.23114E-03   -0.54512E-04  8720   0.171E-01    0.619E-02
DAV:   5    -0.192037727165E+03    0.58642E-04   -0.15688E-04  6920   0.696E-02
  62 F= -.19203773E+03 E0= -.19196171E+03  d E =-.732873E-02
       N       E                     dE             d eps       ncg     rms          rms(c)
DAV:   1    -0.192031822635E+03    0.59632E-02   -0.21910E-01  8160   0.998E-01    0.127E-01
DAV:   2    -0.192033488507E+03   -0.16659E-02   -0.87374E-03 12640   0.465E-01    0.317E-01
DAV:   3    -0.192032207538E+03    0.12810E-02   -0.21651E-03 11640   0.411E-01    0.768E-02
DAV:   4    -0.192032211463E+03   -0.39256E-05   -0.30343E-04  8320   0.125E-01
  63 F= -.19203221E+03 E0= -.19195555E+03  d E =0.551570E-02
       N       E                     dE             d eps       ncg     rms          rms(c)
DAV:   1    -0.192037254825E+03   -0.50473E-02   -0.22676E-01  8160   0.105E+00    0.174E-01
DAV:   2    -0.192037831400E+03   -0.57657E-03   -0.98207E-03 11480   0.468E-01    0.274E-01
DAV:   3    -0.192037156283E+03    0.67512E-03   -0.23592E-03 11400   0.426E-01    0.148E-01
DAV:   4    -0.192036930342E+03    0.22594E-03   -0.83421E-04 10160   0.225E-01    0.113E-01
DAV:   5    -0.192036896118E+03    0.34224E-04   -0.54393E-04  9360   0.207E-01
  64 F= -.19203690E+03 E0= -.19196134E+03  d E =-.468465E-02
       N       E                     dE             d eps       ncg     rms          rms(c)
DAV:   1    -0.192043547233E+03   -0.66169E-02   -0.33918E-01  8160   0.125E+00    0.137E-01
DAV:   2    -0.192044239380E+03   -0.69215E-03   -0.10778E-02 12040   0.276E-01    0.101E-01
DAV:   3    -0.192044302257E+03   -0.62877E-04   -0.10602E-03 11880   0.212E-01    0.142E-01
DAV:   4    -0.192044109907E+03    0.19235E-03   -0.48962E-04  9840   0.203E-01    0.813E-02
DAV:   5    -0.192044049118E+03    0.60789E-04   -0.24857E-04  7840   0.111E-01
  65 F= -.19204405E+03 E0= -.19196931E+03  d E =-.715300E-02
       N       E                     dE             d eps       ncg     rms          rms(c)
DAV:   1    -0.192047366993E+03   -0.32571E-02   -0.98008E-02  8160   0.669E-01    0.866E-02
DAV:   2    -0.192047856562E+03   -0.48957E-03   -0.31887E-03 12720   0.267E-01    0.180E-01
DAV:   3    -0.192047448655E+03    0.40791E-03   -0.75122E-04 10240   0.241E-01    0.515E-02
DAV:   4    -0.192047434409E+03    0.14245E-04   -0.59985E-05  6080   0.582E-02
  66 F= -.19204743E+03 E0= -.19197330E+03  d E =-.338529E-02
       N       E                     dE             d eps       ncg     rms          rms(c)
DAV:   1    -0.192057872481E+03   -0.10424E-01   -0.88047E-01  8160   0.199E+00    0.209E-01
DAV:   2    -0.192059515893E+03   -0.16434E-02   -0.24183E-02 12240   0.462E-01    0.190E-01
DAV:   3    -0.192059973272E+03   -0.45738E-03   -0.30481E-03 12520   0.469E-01    0.284E-01
DAV:   4    -0.192059027788E+03    0.94548E-03   -0.14226E-03 10240   0.331E-01    0.821E-02
DAV:   5    -0.192059062479E+03   -0.34691E-04   -0.47854E-04  9880   0.140E-01
  67 F= -.19205906E+03 E0= -.19198630E+03  d E =-.116281E-01
       N       E                     dE             d eps       ncg     rms          rms(c)
DAV:   1    -0.192058680950E+03    0.34684E-03   -0.12861E-03 11080   0.181E-01    0.788E-02
DAV:   2    -0.192059661564E+03   -0.98061E-03   -0.17615E-03 11240   0.388E-01    0.276E-01
DAV:   3    -0.192058590308E+03    0.10713E-02   -0.10166E-03 10200   0.318E-01    0.295E-02
DAV:   4    -0.192058592491E+03   -0.21833E-05   -0.37012E-05  5880   0.381E-02
  68 F= -.19205859E+03 E0= -.19198580E+03  d E =0.469988E-03
       N       E                     dE             d eps       ncg     rms          rms(c)
DAV:   1    -0.192058608080E+03   -0.17772E-04   -0.67441E-03  8480   0.200E-01    0.560E-02
DAV:   2    -0.192058621948E+03   -0.13868E-04   -0.51957E-04 10520   0.139E-01
  69 F= -.19205862E+03 E0= -.19198594E+03  d E =-.294567E-04
       N       E                     dE             d eps       ncg     rms          rms(c)
DAV:   1    -0.192068737387E+03   -0.10129E-01   -0.85188E-01  8160   0.196E+00    0.195E-01
DAV:   2    -0.192070509284E+03   -0.17719E-02   -0.22963E-02 12080   0.452E-01    0.212E-01
DAV:   3    -0.192070723188E+03   -0.21390E-03   -0.28128E-03 11920   0.458E-01    0.263E-01
DAV:   4    -0.192069942312E+03    0.78088E-03   -0.10893E-03 10640   0.288E-01    0.721E-02
DAV:   5    -0.192070023597E+03   -0.81285E-04   -0.47567E-04  9440   0.150E-01
  70 F= -.19207002E+03 E0= -.19199856E+03  d E =-.114016E-01
       N       E                     dE             d eps       ncg     rms          rms(c)
DAV:   1    -0.192061160181E+03    0.87821E-02   -0.44344E-01  8160   0.141E+00    0.158E-01
DAV:   2    -0.192063143841E+03   -0.19837E-02   -0.13994E-02 12480   0.491E-01    0.322E-01
DAV:   3    -0.192061927132E+03    0.12167E-02   -0.27709E-03 12080   0.455E-01    0.130E-01
DAV:   4    -0.192061829876E+03    0.97256E-04   -0.65027E-04  8920   0.182E-01
  71 F= -.19206183E+03 E0= -.19198945E+03  d E =0.819372E-02
       N       E                     dE             d eps       ncg     rms          rms(c)
DAV:   1    -0.192050259228E+03    0.11668E-01   -0.80765E-01  8160   0.190E+00    0.220E-01
DAV:   2    -0.192052284300E+03   -0.20251E-02   -0.22110E-02 12360   0.541E-01    0.319E-01
DAV:   3    -0.192051690951E+03    0.59335E-03   -0.39008E-03 12360   0.548E-01    0.243E-01
DAV:   4    -0.192051077349E+03    0.61360E-03   -0.12436E-03 10280   0.269E-01    0.940E-02
DAV:   5    -0.192051035022E+03    0.42328E-04   -0.67158E-04 10880   0.146E-01
  72 F= -.19205104E+03 E0= -.19197753E+03  d E =0.107949E-01
       N       E                     dE             d eps       ncg     rms          rms(c)
DAV:   1    -0.192046834393E+03    0.42430E-02   -0.12461E-01  8160   0.766E-01    0.109E-01
DAV:   2    -0.192047902302E+03   -0.10679E-02   -0.46284E-03 13200   0.394E-01    0.272E-01
DAV:   3    -0.192046928569E+03    0.97373E-03   -0.15044E-03 11480   0.347E-01    0.637E-02
DAV:   4    -0.192046952254E+03   -0.23685E-04   -0.22019E-04  7640   0.101E-01
  73 F= -.19204695E+03 E0= -.19197292E+03  d E =0.408277E-02
       N       E                     dE             d eps       ncg     rms          rms(c)
DAV:   1    -0.192058702244E+03   -0.11774E-01   -0.12701E+00  8160   0.239E+00    0.235E-01
DAV:   2    -0.192061512869E+03   -0.28106E-02   -0.37451E-02 12040   0.591E-01    0.232E-01
DAV:   3    -0.192062031118E+03   -0.51825E-03   -0.42222E-03 12240   0.548E-01    0.329E-01
DAV:   4    -0.192060781241E+03    0.12499E-02   -0.18383E-03 10280   0.373E-01    0.919E-02
DAV:   5    -0.192060767046E+03    0.14195E-04   -0.54707E-04 10360   0.140E-01
  74 F= -.19206077E+03 E0= -.19198820E+03  d E =-.138148E-01
       N       E                     dE             d eps       ncg     rms          rms(c)
DAV:   1    -0.192049062120E+03    0.11719E-01   -0.79129E-01  8160   0.189E+00    0.202E-01
DAV:   2    -0.192052158623E+03   -0.30965E-02   -0.23465E-02 11920   0.612E-01    0.402E-01
DAV:   3    -0.192050440995E+03    0.17176E-02   -0.43748E-03 11560   0.575E-01    0.174E-01
DAV:   4    -0.192050240433E+03    0.20056E-03   -0.98381E-04  9920   0.226E-01    0.125E-01
DAV:   5    -0.192050097107E+03    0.14333E-03   -0.54172E-04  9520   0.197E-01    0.834E-02
DAV:   6    -0.192050075979E+03    0.21129E-04   -0.29058E-04  9200   0.126E-01
  75 F= -.19205008E+03 E0= -.19197627E+03  d E =0.106911E-01
       N       E                     dE             d eps       ncg     rms          rms(c)
DAV:   1    -0.192022277405E+03    0.27820E-01   -0.40421E+00  8160   0.425E+00    0.476E-01
DAV:   2    -0.192035547889E+03   -0.13270E-01   -0.12753E-01 12000   0.142E+00    0.818E-01
DAV:   3    -0.192029884139E+03    0.56638E-02   -0.23654E-02 12560   0.126E+00    0.452E-01
DAV:   4    -0.192027507729E+03    0.23764E-02   -0.41974E-03 11520   0.515E-01    0.212E-01
DAV:   5    -0.192027826188E+03   -0.31846E-03   -0.27320E-03 11840   0.477E-01    0.266E-01
DAV:   6    -0.192027079040E+03    0.74715E-03   -0.18032E-03 12160   0.340E-01    0.902E-02
DAV:   7    -0.192027046551E+03    0.32489E-04   -0.39268E-04  9080   0.165E-01
  76 F= -.19202705E+03 E0= -.19195077E+03  d E =0.230294E-01
       N       E                     dE             d eps       ncg     rms          rms(c)
DAV:   1    -0.192051126162E+03   -0.24047E-01   -0.82580E+00  8160   0.609E+00    0.645E-01
DAV:   2    -0.192074327666E+03   -0.23202E-01   -0.24169E-01 12040   0.183E+00    0.101E+00
DAV:   3    -0.192067195745E+03    0.71319E-02   -0.40900E-02 12160   0.167E+00    0.659E-01
DAV:   4    -0.192061636739E+03    0.55590E-02   -0.85147E-03 12320   0.720E-01    0.248E-01
DAV:   5    -0.192062870847E+03   -0.12341E-02   -0.49215E-03 11880   0.634E-01    0.402E-01
DAV:   6    -0.192061042459E+03    0.18284E-02   -0.37180E-03 12040   0.516E-01    0.110E-01
DAV:   7    -0.192060877906E+03    0.16455E-03   -0.61447E-04 10600   0.148E-01    0.683E-02
DAV:   8    -0.192060840191E+03    0.37716E-04   -0.14923E-04  7760   0.111E-01
  77 F= -.19206084E+03 E0= -.19198831E+03  d E =-.337936E-01
       N       E                     dE             d eps       ncg     rms          rms(c)
DAV:   1    -0.192067565007E+03   -0.66871E-02   -0.38188E-01  8160   0.131E+00    0.140E-01
DAV:   2    -0.192068647030E+03   -0.10820E-02   -0.12016E-02 12640   0.391E-01    0.199E-01
DAV:   3    -0.192068472066E+03    0.17496E-03   -0.18489E-03 12320   0.360E-01    0.158E-01
DAV:   4    -0.192068167191E+03    0.30488E-03   -0.38677E-04  9200   0.165E-01    0.394E-02
DAV:   5    -0.192068278523E+03   -0.11133E-03   -0.22949E-04  8040   0.120E-01    0.935E-02
DAV:   6    -0.192068177178E+03    0.10134E-03   -0.14319E-04  7160   0.120E-01    0.201E-02
DAV:   7    -0.192068177676E+03   -0.49722E-06   -0.28613E-05  6560   0.308E-02
  78 F= -.19206818E+03 E0= -.19199648E+03  d E =-.733748E-02
       N       E                     dE             d eps       ncg     rms          rms(c)
DAV:   1    -0.192070569036E+03   -0.23919E-02   -0.40752E-02  8160   0.428E-01    0.457E-02
DAV:   2    -0.192070667724E+03   -0.98688E-04   -0.12273E-03 12480   0.118E-01    0.564E-02
DAV:   3    -0.192070660099E+03    0.76250E-05   -0.15718E-04  9160   0.111E-01
  79 F= -.19207066E+03 E0= -.19199919E+03  d E =-.248242E-02
       N       E                     dE             d eps       ncg     rms          rms(c)
DAV:   1    -0.192078610205E+03   -0.79425E-02   -0.51430E-01  8160   0.152E+00    0.157E-01
DAV:   2    -0.192079534703E+03   -0.92450E-03   -0.13551E-02 12200   0.362E-01    0.144E-01
DAV:   3    -0.192079749051E+03   -0.21435E-03   -0.16117E-03 12520   0.339E-01    0.207E-01
DAV:   4    -0.192079284554E+03    0.46450E-03   -0.80835E-04 10240   0.249E-01    0.758E-02
DAV:   5    -0.192079283010E+03    0.15444E-05   -0.29653E-04  8280   0.131E-01
  80 F= -.19207928E+03 E0= -.19200877E+03  d E =-.862291E-02
       N       E                     dE             d eps       ncg     rms          rms(c)
DAV:   1    -0.192082811761E+03   -0.35272E-02   -0.95772E-02  8160   0.676E-01    0.898E-02
DAV:   2    -0.192083332310E+03   -0.52055E-03   -0.32838E-03 13440   0.262E-01    0.182E-01
DAV:   3    -0.192082895921E+03    0.43639E-03   -0.93126E-04 11120   0.253E-01    0.666E-02
DAV:   4    -0.192082881354E+03    0.14568E-04   -0.14430E-04  7320   0.862E-02
  81 F= -.19208288E+03 E0= -.19201293E+03  d E =-.359834E-02
       N       E                     dE             d eps       ncg     rms          rms(c)
DAV:   1    -0.192092918587E+03   -0.10023E-01   -0.84105E-01  8160   0.194E+00    0.215E-01
DAV:   2    -0.192095307818E+03   -0.23892E-02   -0.23731E-02 12280   0.580E-01    0.342E-01
DAV:   3    -0.192094418666E+03    0.88915E-03   -0.42478E-03 12600   0.566E-01    0.218E-01
DAV:   4    -0.192093879518E+03    0.53915E-03   -0.10199E-03 10280   0.235E-01    0.785E-02
DAV:   5    -0.192093982724E+03   -0.10321E-03   -0.53525E-04 11040   0.182E-01    0.115E-01
DAV:   6    -0.192093879885E+03    0.10284E-03   -0.35131E-04  9000   0.172E-01    0.599E-02
DAV:   7    -0.192093830474E+03    0.49411E-04   -0.95577E-05  6800   0.744E-02
  82 F= -.19209383E+03 E0= -.19202515E+03  d E =-.109491E-01
       N       E                     dE             d eps       ncg     rms          rms(c)
DAV:   1    -0.192101909751E+03   -0.80299E-02   -0.57710E-01  8160   0.160E+00    0.167E-01
DAV:   2    -0.192103384216E+03   -0.14745E-02   -0.16603E-02 12440   0.464E-01    0.231E-01
DAV:   3    -0.192103119052E+03    0.26516E-03   -0.24474E-03 11760   0.418E-01    0.186E-01
DAV:   4    -0.192102760907E+03    0.35814E-03   -0.77522E-04 10280   0.219E-01    0.805E-02
DAV:   5    -0.192102741114E+03    0.19792E-04   -0.30108E-04  8720   0.144E-01
  83 F= -.19210274E+03 E0= -.19203488E+03  d E =-.891064E-02
       N       E                     dE             d eps       ncg     rms          rms(c)
DAV:   1    -0.192112700083E+03   -0.99392E-02   -0.96827E-01  8160   0.208E+00    0.219E-01
DAV:   2    -0.192115113225E+03   -0.24131E-02   -0.26289E-02 12320   0.587E-01    0.316E-01
DAV:   3    -0.192114492830E+03    0.62039E-03   -0.43313E-03 11440   0.549E-01    0.229E-01
DAV:   4    -0.192113906432E+03    0.58640E-03   -0.99771E-04 10640   0.260E-01    0.994E-02
DAV:   5    -0.192113982348E+03   -0.75916E-04   -0.53256E-04  9960   0.218E-01
  84 F= -.19211398E+03 E0= -.19204723E+03  d E =-.112412E-01
       N       E                     dE             d eps       ncg     rms          rms(c)
DAV:   1    -0.192129338127E+03   -0.15432E-01   -0.33900E+00  8160   0.389E+00    0.411E-01
DAV:   2    -0.192138191116E+03   -0.88530E-02   -0.95897E-02 12600   0.119E+00    0.597E-01
DAV:   3    -0.192136005414E+03    0.21857E-02   -0.14972E-02 12680   0.106E+00    0.445E-01
DAV:   4    -0.192133868299E+03    0.21371E-02   -0.47928E-03 12640   0.532E-01    0.180E-01
DAV:   5    -0.192133622352E+03    0.24595E-03   -0.19254E-03 11840   0.271E-01    0.158E-01
DAV:   6    -0.192133794777E+03   -0.17242E-03   -0.13436E-03 11120   0.332E-01    0.180E-01
DAV:   7    -0.192133370311E+03    0.42447E-03   -0.55956E-04  9800   0.204E-01    0.441E-02
DAV:   8    -0.192133366361E+03    0.39506E-05   -0.80014E-05  6800   0.788E-02
  85 F= -.19213337E+03 E0= -.19206878E+03  d E =-.193840E-01
       N       E                     dE             d eps       ncg     rms          rms(c)
DAV:   1    -0.192145003016E+03   -0.11633E-01   -0.23504E+00  8160   0.323E+00    0.332E-01
DAV:   2    -0.192149389249E+03   -0.43862E-02   -0.65664E-02 12200   0.783E-01    0.296E-01
DAV:   3    -0.192150593894E+03   -0.12046E-02   -0.79274E-03 12400   0.750E-01    0.454E-01
DAV:   4    -0.192148153242E+03    0.24407E-02   -0.36440E-03 11320   0.534E-01    0.124E-01
DAV:   5    -0.192148111727E+03    0.41515E-04   -0.11246E-03 10480   0.173E-01    0.105E-01
DAV:   6    -0.192148137526E+03   -0.25800E-04   -0.75228E-04 11600   0.213E-01
  86 F= -.19214814E+03 E0= -.19208517E+03  d E =-.147712E-01
       N       E                     dE             d eps       ncg     rms          rms(c)
DAV:   1    -0.192152704617E+03   -0.45929E-02   -0.39300E-01  8160   0.133E+00    0.140E-01
DAV:   2    -0.192153702150E+03   -0.99753E-03   -0.11389E-02 12320   0.373E-01    0.190E-01
DAV:   3    -0.192153544097E+03    0.15805E-03   -0.17176E-03 12520   0.356E-01    0.166E-01
DAV:   4    -0.192153277781E+03    0.26632E-03   -0.57073E-04  9080   0.194E-01    0.649E-02
DAV:   5    -0.192153231513E+03    0.46268E-04   -0.19991E-04  7640   0.837E-02
  87 F= -.19215323E+03 E0= -.19209070E+03  d E =-.509399E-02
       N       E                     dE             d eps       ncg     rms          rms(c)
DAV:   1    -0.192163757575E+03   -0.10480E-01   -0.40644E+00  8160   0.424E+00    0.434E-01
DAV:   2    -0.192174302514E+03   -0.10545E-01   -0.11116E-01 12320   0.121E+00    0.632E-01
DAV:   3    -0.192171855565E+03    0.24469E-02   -0.17316E-02 11520   0.114E+00    0.468E-01
DAV:   4    -0.192169313514E+03    0.25421E-02   -0.44035E-03 12480   0.522E-01    0.184E-01
DAV:   5    -0.192169359090E+03   -0.45576E-04   -0.21865E-03 11720   0.374E-01    0.212E-01
DAV:   6    -0.192169142340E+03    0.21675E-03   -0.14859E-03 12720   0.329E-01    0.132E-01
DAV:   7    -0.192168882470E+03    0.25987E-03   -0.51615E-04 10400   0.161E-01    0.588E-02
DAV:   8    -0.192168858721E+03    0.23750E-04   -0.89315E-05  8120   0.919E-02
  88 F= -.19216886E+03 E0= -.19210756E+03  d E =-.156272E-01
       N       E                     dE             d eps       ncg     rms          rms(c)
DAV:   1    -0.192175214592E+03   -0.63321E-02   -0.38495E+00  8160   0.413E+00    0.425E-01
DAV:   2    -0.192184233675E+03   -0.90191E-02   -0.11141E-01 12360   0.113E+00    0.503E-01
DAV:   3    -0.192184127720E+03    0.10595E-03   -0.15440E-02 12680   0.106E+00    0.528E-01
DAV:   4    -0.192180881168E+03    0.32466E-02   -0.55362E-03 12600   0.625E-01    0.165E-01
DAV:   5    -0.192180607569E+03    0.27360E-03   -0.18068E-03 11000   0.198E-01    0.118E-01
DAV:   6    -0.192180822965E+03   -0.21540E-03   -0.12065E-03 12040   0.268E-01    0.180E-01
DAV:   7    -0.192180463779E+03    0.35919E-03   -0.54051E-04  9280   0.227E-01    0.461E-02
DAV:   8    -0.192180439429E+03    0.24350E-04   -0.61632E-05  6280   0.503E-02
  89 F= -.19218044E+03 E0= -.19211981E+03  d E =-.115807E-01
       N       E                     dE             d eps       ncg     rms          rms(c)
DAV:   1    -0.192181627048E+03   -0.11633E-02   -0.42270E+00  8160   0.432E+00    0.432E-01
DAV:   2    -0.192192341425E+03   -0.10714E-01   -0.12129E-01 12280   0.121E+00    0.558E-01
DAV:   3    -0.192191270450E+03    0.10710E-02   -0.16758E-02 12320   0.111E+00    0.511E-01
DAV:   4    -0.192188322296E+03    0.29482E-02   -0.53860E-03 12640   0.601E-01    0.182E-01
DAV:   5    -0.192187971668E+03    0.35063E-03   -0.20111E-03 10800   0.264E-01    0.146E-01
DAV:   6    -0.192188252280E+03   -0.28061E-03   -0.14984E-03 12240   0.333E-01    0.195E-01
DAV:   7    -0.192187776046E+03    0.47623E-03   -0.68826E-04 11280   0.228E-01    0.506E-02
DAV:   8    -0.192187765296E+03    0.10751E-04   -0.83090E-05  6480   0.845E-02
  90 F= -.19218777E+03 E0= -.19212716E+03  d E =-.732587E-02
       N       E                     dE             d eps       ncg     rms          rms(c)
DAV:   1    -0.192188521035E+03   -0.74499E-03   -0.63340E-02  8160   0.538E-01    0.587E-02
DAV:   2    -0.192188837947E+03   -0.31691E-03   -0.28808E-03 12320   0.198E-01    0.103E-01
DAV:   3    -0.192188745847E+03    0.92101E-04   -0.39615E-04 10280   0.170E-01
  91 F= -.19218875E+03 E0= -.19212822E+03  d E =-.980551E-03
       N       E                     dE             d eps       ncg     rms          rms(c)
DAV:   1    -0.192189999422E+03   -0.11615E-02   -0.37803E-01  8160   0.130E+00    0.149E-01
DAV:   2    -0.192191641556E+03   -0.16421E-02   -0.13147E-02 12360   0.514E-01    0.293E-01
DAV:   3    -0.192190759771E+03    0.88179E-03   -0.25471E-03 12560   0.439E-01    0.127E-01
DAV:   4    -0.192190547318E+03    0.21245E-03   -0.36230E-04  9000   0.135E-01    0.495E-02
DAV:   5    -0.192190564523E+03   -0.17205E-04   -0.19314E-04  6800   0.943E-02
  92 F= -.19219056E+03 E0= -.19213016E+03  d E =-.181868E-02
       N       E                     dE             d eps       ncg     rms          rms(c)
DAV:   1    -0.192190698511E+03   -0.15119E-03   -0.82017E-01  8160   0.191E+00    0.207E-01
DAV:   2    -0.192193991523E+03   -0.32930E-02   -0.29415E-02 12320   0.650E-01    0.359E-01
DAV:   3    -0.192192837174E+03    0.11543E-02   -0.44566E-03 12640   0.589E-01    0.202E-01
DAV:   4    -0.192192350351E+03    0.48682E-03   -0.72963E-04 10080   0.211E-01    0.682E-02
DAV:   5    -0.192192376700E+03   -0.26349E-04   -0.33896E-04  9560   0.121E-01
  93 F= -.19219238E+03 E0= -.19213203E+03  d E =-.181218E-02
       N       E                     dE             d eps       ncg     rms          rms(c)
DAV:   1    -0.192192218810E+03    0.13154E-03   -0.84529E-02  8160   0.624E-01    0.107E-01
DAV:   2    -0.192193300916E+03   -0.10821E-02   -0.42281E-03 12720   0.404E-01    0.289E-01
DAV:   3    -0.192192198673E+03    0.11022E-02   -0.15026E-03 10760   0.361E-01    0.677E-02
DAV:   4    -0.192192169290E+03    0.29383E-04   -0.20224E-04  7680   0.108E-01
  94 F= -.19219217E+03 E0= -.19213182E+03  d E =0.207409E-03
