<?xml version="1.0" encoding="ISO-8859-1"?>
<modeling>
 <generator>
  <i name="program" type="string">vasp </i>
  <i name="version" type="string">5.4.1  </i>
  <i name="subversion" type="string">05Feb16 (build Jul 05 2020 17:13:04) complex                          parallel </i>
  <i name="platform" type="string">IFC91_ompi </i>
  <i name="date" type="string">2024 04 25 </i>
  <i name="time" type="string">20:51:06 </i>
 </generator>
 <incar>
  <i type="int" name="ISTART">     0</i>
  <i type="string" name="PREC">normal</i>
  <i type="string" name="ALGO"> Normal</i>
  <i type="int" name="ISPIN">     1</i>
  <i type="int" name="ICHARG">     2</i>
  <i type="int" name="IBRION">     1</i>
  <i type="int" name="NSW">   100</i>
  <i type="int" name="ISIF">     3</i>
  <i type="int" name="ISYM">     0</i>
  <i name="SYMPREC">      0.00000001</i>
  <i name="POTIM">      0.50000000</i>
  <i type="logical" name="LREAL"> F  </i>
  <i type="logical" name="LPLANE"> F  </i>
  <i type="int" name="ISMEAR">     0</i>
  <i type="logical" name="LWAVE"> F  </i>
  <i type="logical" name="LCHARG"> F  </i>
  <v type="int" name="KPOINT_BSE">    -1     0     0     0</v>
 </incar>
 <kpoints>
  <generation param="Gamma">
   <v type="int" name="divisions">       8        8        1 </v>
   <v name="usershift">      0.00000000       0.00000000       0.00000000 </v>
   <v name="genvec1">      0.12500000       0.00000000       0.00000000 </v>
   <v name="genvec2">     -0.00000000       0.12500000       0.00000000 </v>
   <v name="genvec3">      0.00000000       0.00000000       1.00000000 </v>
   <v name="shift">      0.00000000       0.00000000       0.00000000 </v>
  </generation>
  <varray name="kpointlist" >
   <v>       0.00000000       0.00000000       0.00000000 </v>
   <v>       0.12500000       0.00000000       0.00000000 </v>
   <v>       0.25000000       0.00000000       0.00000000 </v>
   <v>       0.37500000       0.00000000       0.00000000 </v>
   <v>       0.50000000       0.00000000       0.00000000 </v>
   <v>       0.00000000       0.12500000       0.00000000 </v>
   <v>       0.12500000       0.12500000       0.00000000 </v>
   <v>       0.25000000       0.12500000       0.00000000 </v>
   <v>       0.37500000       0.12500000       0.00000000 </v>
   <v>       0.50000000       0.12500000       0.00000000 </v>
   <v>      -0.37500000       0.12500000       0.00000000 </v>
   <v>      -0.25000000       0.12500000       0.00000000 </v>
   <v>      -0.12500000       0.12500000       0.00000000 </v>
   <v>       0.00000000       0.25000000       0.00000000 </v>
   <v>       0.12500000       0.25000000       0.00000000 </v>
   <v>       0.25000000       0.25000000       0.00000000 </v>
   <v>       0.37500000       0.25000000       0.00000000 </v>
   <v>       0.50000000       0.25000000       0.00000000 </v>
   <v>      -0.37500000       0.25000000       0.00000000 </v>
   <v>      -0.25000000       0.25000000       0.00000000 </v>
   <v>      -0.12500000       0.25000000       0.00000000 </v>
   <v>      -0.00000000       0.37500000       0.00000000 </v>
   <v>       0.12500000       0.37500000       0.00000000 </v>
   <v>       0.25000000       0.37500000       0.00000000 </v>
   <v>       0.37500000       0.37500000       0.00000000 </v>
   <v>       0.50000000       0.37500000       0.00000000 </v>
   <v>      -0.37500000       0.37500000       0.00000000 </v>
   <v>      -0.25000000       0.37500000       0.00000000 </v>
   <v>      -0.12500000       0.37500000       0.00000000 </v>
   <v>       0.00000000       0.50000000       0.00000000 </v>
   <v>       0.12500000       0.50000000       0.00000000 </v>
   <v>       0.25000000       0.50000000       0.00000000 </v>
   <v>       0.37500000       0.50000000       0.00000000 </v>
   <v>       0.50000000       0.50000000       0.00000000 </v>
  </varray>
  <varray name="weights" >
   <v>       0.01562500 </v>
   <v>       0.03125000 </v>
   <v>       0.03125000 </v>
   <v>       0.03125000 </v>
   <v>       0.01562500 </v>
   <v>       0.03125000 </v>
   <v>       0.03125000 </v>
   <v>       0.03125000 </v>
   <v>       0.03125000 </v>
   <v>       0.03125000 </v>
   <v>       0.03125000 </v>
   <v>       0.03125000 </v>
   <v>       0.03125000 </v>
   <v>       0.03125000 </v>
   <v>       0.03125000 </v>
   <v>       0.03125000 </v>
   <v>       0.03125000 </v>
   <v>       0.03125000 </v>
   <v>       0.03125000 </v>
   <v>       0.03125000 </v>
   <v>       0.03125000 </v>
   <v>       0.03125000 </v>
   <v>       0.03125000 </v>
   <v>       0.03125000 </v>
   <v>       0.03125000 </v>
   <v>       0.03125000 </v>
   <v>       0.03125000 </v>
   <v>       0.03125000 </v>
   <v>       0.03125000 </v>
   <v>       0.01562500 </v>
   <v>       0.03125000 </v>
   <v>       0.03125000 </v>
   <v>       0.03125000 </v>
   <v>       0.01562500 </v>
  </varray>
 </kpoints>
 <parameters>
  <separator name="general" >
   <i type="string" name="SYSTEM">unknown system</i>
   <i type="logical" name="LCOMPAT"> F  </i>
  </separator>
  <separator name="electronic" >
   <i type="string" name="PREC">normal</i>
   <i name="ENMAX">    280.00000000</i>
   <i name="ENAUG">    373.43800000</i>
   <i name="EDIFF">      0.00010000</i>
   <i type="int" name="IALGO">    38</i>
   <i type="int" name="IWAVPR">    11</i>
   <i type="int" name="NBANDS">   120</i>
   <i name="NELECT">    159.00000000</i>
   <i type="int" name="TURBO">     0</i>
   <i type="int" name="IRESTART">     0</i>
   <i type="int" name="NREBOOT">     0</i>
   <i type="int" name="NMIN">     0</i>
   <i name="EREF">      0.00000000</i>
   <separator name="electronic smearing" >
    <i type="int" name="ISMEAR">     0</i>
    <i name="SIGMA">      0.20000000</i>
    <i name="KSPACING">      0.50000000</i>
    <i type="logical" name="KGAMMA"> T  </i>
   </separator>
   <separator name="electronic projectors" >
    <i type="logical" name="LREAL"> F  </i>
    <v name="ROPT">      0.00000000      0.00000000      0.00000000      0.00000000</v>
    <i type="int" name="LMAXPAW">  -100</i>
    <i type="int" name="LMAXMIX">     2</i>
    <i type="logical" name="NLSPLINE"> F  </i>
   </separator>
   <separator name="electronic startup" >
    <i type="int" name="ISTART">     0</i>
    <i type="int" name="ICHARG">     2</i>
    <i type="int" name="INIWAV">     1</i>
   </separator>
   <separator name="electronic spin" >
    <i type="int" name="ISPIN">     1</i>
    <i type="logical" name="LNONCOLLINEAR"> F  </i>
    <v name="MAGMOM">      1.00000000      1.00000000      1.00000000      1.00000000      1.00000000      1.00000000      1.00000000      1.00000000      1.00000000      1.00000000      1.00000000      1.00000000      1.00000000      1.00000000      1.00000000      1.00000000      1.00000000      1.00000000      1.00000000      1.00000000
      1.00000000      1.00000000      1.00000000      1.00000000      1.00000000      1.00000000      1.00000000</v>
    <i name="NUPDOWN">     -1.00000000</i>
    <i type="logical" name="LSORBIT"> F  </i>
    <v name="SAXIS">      0.00000000      0.00000000      1.00000000</v>
    <i type="logical" name="LSPIRAL"> F  </i>
    <v name="QSPIRAL">      0.00000000      0.00000000      0.00000000</v>
    <i type="logical" name="LZEROZ"> F  </i>
   </separator>
   <separator name="electronic exchange-correlation" >
    <i type="logical" name="LASPH"> F  </i>
    <i type="logical" name="LMETAGGA"> F  </i>
   </separator>
   <separator name="electronic convergence" >
    <i type="int" name="NELM">    60</i>
    <i type="int" name="NELMDL">    -5</i>
    <i type="int" name="NELMIN">     2</i>
    <i name="ENINI">    280.00000000</i>
    <separator name="electronic convergence detail" >
     <i type="logical" name="LDIAG"> T  </i>
     <i type="logical" name="LSUBROT"> F  </i>
     <i name="WEIMIN">      0.00100000</i>
     <i name="EBREAK">      0.00000021</i>
     <i name="DEPER">      0.30000000</i>
     <i type="int" name="NRMM">     4</i>
     <i name="TIME">      0.40000000</i>
    </separator>
   </separator>
   <separator name="electronic mixer" >
    <i name="AMIX">      0.40000000</i>
    <i name="BMIX">      1.00000000</i>
    <i name="AMIN">      0.10000000</i>
    <i name="AMIX_MAG">      1.60000000</i>
    <i name="BMIX_MAG">      1.00000000</i>
    <separator name="electronic mixer details" >
     <i type="int" name="IMIX">     4</i>
     <i type="logical" name="MIXFIRST"> F  </i>
     <i type="int" name="MAXMIX">   -45</i>
     <i name="WC">    100.00000000</i>
     <i type="int" name="INIMIX">     1</i>
     <i type="int" name="MIXPRE">     1</i>
     <i type="int" name="MREMOVE">     5</i>
    </separator>
   </separator>
   <separator name="electronic dipolcorrection" >
    <i type="logical" name="LDIPOL"> F  </i>
    <i type="logical" name="LMONO"> F  </i>
    <i type="int" name="IDIPOL">     0</i>
    <i name="EPSILON">      1.00000000</i>
    <v name="DIPOL">   -100.00000000   -100.00000000   -100.00000000</v>
    <i name="EFIELD">      0.00000000</i>
   </separator>
  </separator>
  <separator name="grids" >
   <i type="int" name="NGX">    42</i>
   <i type="int" name="NGY">    42</i>
   <i type="int" name="NGZ">   126</i>
   <i type="int" name="NGXF">    84</i>
   <i type="int" name="NGYF">    84</i>
   <i type="int" name="NGZF">   252</i>
   <i type="logical" name="ADDGRID"> F  </i>
  </separator>
  <separator name="ionic" >
   <i type="int" name="NSW">   100</i>
   <i type="int" name="IBRION">     1</i>
   <i type="int" name="ISIF">     3</i>
   <i name="PSTRESS">      0.00000000</i>
   <i name="EDIFFG">      0.00100000</i>
   <i type="int" name="NFREE">     0</i>
   <i name="POTIM">      0.50000000</i>
   <i name="SMASS">     -3.00000000</i>
   <i name="SCALEE">      1.00000000</i>
  </separator>
  <separator name="ionic md" >
   <i name="TEBEG">      0.00010000</i>
   <i name="TEEND">      0.00010000</i>
   <i type="int" name="NBLOCK">     1</i>
   <i type="int" name="KBLOCK">   100</i>
   <i type="int" name="NPACO">   256</i>
   <i name="APACO">     16.00000000</i>
  </separator>
  <separator name="symmetry" >
   <i type="int" name="ISYM">     0</i>
   <i name="SYMPREC">      0.00000001</i>
  </separator>
  <separator name="dos" >
   <i type="logical" name="LORBIT"> F  </i>
   <v name="RWIGS">     -1.00000000     -1.00000000     -1.00000000     -1.00000000</v>
   <i type="int" name="NEDOS">   301</i>
   <i name="EMIN">     10.00000000</i>
   <i name="EMAX">    -10.00000000</i>
   <i name="EFERMI">      0.00000000</i>
  </separator>
  <separator name="writing" >
   <i type="int" name="NWRITE">     2</i>
   <i type="logical" name="LWAVE"> F  </i>
   <i type="logical" name="LCHARG"> F  </i>
   <i type="logical" name="LPARD"> F  </i>
   <i type="logical" name="LVTOT"> F  </i>
   <i type="logical" name="LVHAR"> F  </i>
   <i type="logical" name="LELF"> F  </i>
   <i type="logical" name="LOPTICS"> F  </i>
   <v name="STM">      0.00000000      0.00000000      0.00000000      0.00000000      0.00000000      0.00000000      0.00000000</v>
  </separator>
  <separator name="performance" >
   <i type="int" name="NPAR">    40</i>
   <i type="int" name="NSIM">     4</i>
   <i type="int" name="NBLK">    -1</i>
   <i type="logical" name="LPLANE"> F  </i>
   <i type="logical" name="LSCALAPACK"> T  </i>
   <i type="logical" name="LSCAAWARE"> F  </i>
   <i type="logical" name="LSCALU"> F  </i>
   <i type="logical" name="LASYNC"> F  </i>
   <i type="logical" name="LORBITALREAL"> F  </i>
  </separator>
  <separator name="miscellaneous" >
   <i type="int" name="IDIOT">     3</i>
   <i type="logical" name="LMUSIC"> F  </i>
   <v name="POMASS">     50.94100000     95.94000000    183.85000000     32.06600000</v>
   <v name="DARWINR">      0.00000000      0.00000000      0.00000000      0.00000000</v>
   <v name="DARWINV">      1.00000000      1.00000000      1.00000000      1.00000000</v>
   <i type="logical" name="LCORR"> T  </i>
  </separator>
  <i type="logical" name="GGA_COMPAT"> T  </i>
  <i type="logical" name="LBERRY"> F  </i>
  <i type="int" name="ICORELEVEL">     0</i>
  <i type="logical" name="LDAU"> F  </i>
  <i type="int" name="I_CONSTRAINED_M">     0</i>
  <separator name="electronic exchange-correlation" >
   <i type="string" name="GGA">--</i>
   <i type="int" name="VOSKOWN">     0</i>
   <i type="logical" name="LHFCALC"> F  </i>
   <i type="string" name="PRECFOCK"></i>
   <i type="logical" name="LSYMGRAD"> F  </i>
   <i type="logical" name="LHFONE"> F  </i>
   <i type="logical" name="LRHFCALC"> F  </i>
   <i type="logical" name="LTHOMAS"> F  </i>
   <i type="logical" name="LMODELHF"> F  </i>
   <i name="ENCUT4O">     -1.00000000</i>
   <i type="int" name="EXXOEP">     0</i>
   <i type="int" name="FOURORBIT">     0</i>
   <i name="AEXX">      0.00000000</i>
   <i name="HFALPHA">      0.00000000</i>
   <i name="MCALPHA">      0.00000000</i>
   <i name="ALDAX">      1.00000000</i>
   <i name="AGGAX">      1.00000000</i>
   <i name="ALDAC">      1.00000000</i>
   <i name="AGGAC">      1.00000000</i>
   <i type="int" name="NKREDX">     1</i>
   <i type="int" name="NKREDY">     1</i>
   <i type="int" name="NKREDZ">     1</i>
   <i type="logical" name="SHIFTRED"> F  </i>
   <i type="logical" name="ODDONLY"> F  </i>
   <i type="logical" name="EVENONLY"> F  </i>
   <i type="int" name="LMAXFOCK">     0</i>
   <i type="int" name="NMAXFOCKAE">     0</i>
   <i type="logical" name="LFOCKAEDFT"> F  </i>
   <i name="HFSCREEN">      0.00000000</i>
   <i name="HFSCREENC">      0.00000000</i>
   <i type="int" name="NBANDSGWLOW">     0</i>
  </separator>
  <separator name="vdW DFT" >
   <i type="logical" name="LUSE_VDW"> F  </i>
   <i name="Zab_VDW">     -0.84910000</i>
   <i name="PARAM1">      0.12340000</i>
   <i name="PARAM2">      1.00000000</i>
   <i name="PARAM3">      0.00000000</i>
  </separator>
  <separator name="model GW" >
   <i type="int" name="MODEL_GW">     0</i>
   <i name="MODEL_EPS0">     58.26239943</i>
   <i name="MODEL_ALPHA">      1.00000000</i>
  </separator>
  <separator name="linear response parameters" >
   <i type="logical" name="LEPSILON"> F  </i>
   <i type="logical" name="LRPA"> F  </i>
   <i type="logical" name="LNABLA"> F  </i>
   <i type="logical" name="LVEL"> F  </i>
   <i type="int" name="KINTER">     0</i>
   <i name="CSHIFT">      0.10000000</i>
   <i name="OMEGAMAX">     -1.00000000</i>
   <i name="DEG_THRESHOLD">      0.00200000</i>
  </separator>
  <separator name="orbital magnetization" >
   <i type="logical" name="NUCIND"> F  </i>
   <v name="MAGPOS">      0.00000000      0.00000000      0.00000000</v>
   <i type="logical" name="LNICSALL"> T  </i>
   <i type="logical" name="ORBITALMAG"> F  </i>
   <i type="logical" name="LMAGBLOCH"> F  </i>
   <i type="logical" name="LCHIMAG"> F  </i>
   <i type="logical" name="LGAUGE"> T  </i>
   <i type="int" name="MAGATOM">     0</i>
   <v name="MAGDIPOL">      0.00000000      0.00000000      0.00000000</v>
   <v name="AVECCONST">      0.00000000      0.00000000      0.00000000</v>
  </separator>
  <separator name="response functions" >
   <i type="logical" name="LADDER"> F  </i>
   <i type="logical" name="LFXC"> F  </i>
   <i type="logical" name="LHARTREE"> T  </i>
   <i type="int" name="IBSE">     0</i>
   <v type="int" name="KPOINT">    -1     0     0     0</v>
   <i type="logical" name="LTCTE"> F  </i>
   <i type="logical" name="LTETE"> F  </i>
   <i type="logical" name="LTRIPLET"> F  </i>
   <i type="logical" name="LFXCEPS"> F  </i>
   <i type="logical" name="LFXHEG"> F  </i>
   <i type="int" name="NATURALO">     0</i>
   <i type="logical" name="L2ORDER"> F  </i>
   <i type="logical" name="LUSEW"> F  </i>
   <i name="ENCUTGW">     -2.00000000</i>
   <i name="ENCUTGWSOFT">     -2.00000000</i>
   <i name="ENCUTLF">     -1.00000000</i>
   <i type="int" name="LMAXMP2">    -1</i>
   <i name="SCISSOR">      0.00000000</i>
   <i type="int" name="NOMEGA">     0</i>
   <i type="int" name="NOMEGAR">     0</i>
   <i type="int" name="NBANDSGW">    -1</i>
   <i type="int" name="NBANDSO">    -1</i>
   <i type="int" name="NBANDSV">    -1</i>
   <i type="int" name="NELM">     1</i>
   <i type="int" name="NELMHF">     1</i>
   <i type="int" name="DIM">     3</i>
   <i type="int" name="ANTIRES">     0</i>
   <i name="OMEGAMAX">    -30.00000000</i>
   <i name="OMEGAMIN">    -30.00000000</i>
   <i name="OMEGATL">   -200.00000000</i>
   <i type="int" name="OMEGAGRID">     0</i>
   <i name="CSHIFT">     -0.10000000</i>
   <i type="logical" name="SELFENERGY"> F  </i>
   <i type="logical" name="LSPECTRAL"> F  </i>
   <i type="logical" name="LSPECTRALGW"> F  </i>
   <i type="logical" name="LSINGLES"> F  </i>
   <i type="logical" name="LFERMIGW"> F  </i>
   <i type="logical" name="ODDONLYGW"> F  </i>
   <i type="logical" name="EVENONLYGW"> F  </i>
   <i type="int" name="NKREDLFX">     1</i>
   <i type="int" name="NKREDLFY">     1</i>
   <i type="int" name="NKREDLFZ">     1</i>
   <i type="int" name="MAXMEM">  1800</i>
   <i type="int" name="TELESCOPE">     0</i>
   <i type="int" name="TAUPAR">     1</i>
   <i type="int" name="OMEGAPAR">    -1</i>
   <i name="LAMBDA">      1.00000000</i>
  </separator>
  <separator name="External order field" >
   <i name="OFIELD_KAPPA">      0.00000000</i>
   <v name="OFIELD_K">      0.00000000      0.00000000      0.00000000</v>
   <i name="OFIELD_Q6_NEAR">      0.00000000</i>
   <i name="OFIELD_Q6_FAR">      0.00000000</i>
   <i name="OFIELD_A">      0.00000000</i>
  </separator>
 </parameters>
 <atominfo>
  <atoms>      27 </atoms>
  <types>       4 </types>
  <array name="atoms" >
   <dimension dim="1">ion</dimension>
   <field type="string">element</field>
   <field type="int">atomtype</field>
   <set>
    <rc><c>V </c><c>   1</c></rc>
    <rc><c>V </c><c>   1</c></rc>
    <rc><c>V </c><c>   1</c></rc>
    <rc><c>Mo</c><c>   2</c></rc>
    <rc><c>Mo</c><c>   2</c></rc>
    <rc><c>Mo</c><c>   2</c></rc>
    <rc><c>W </c><c>   3</c></rc>
    <rc><c>W </c><c>   3</c></rc>
    <rc><c>W </c><c>   3</c></rc>
    <rc><c>S </c><c>   4</c></rc>
    <rc><c>S </c><c>   4</c></rc>
    <rc><c>S </c><c>   4</c></rc>
    <rc><c>S </c><c>   4</c></rc>
    <rc><c>S </c><c>   4</c></rc>
    <rc><c>S </c><c>   4</c></rc>
    <rc><c>S </c><c>   4</c></rc>
    <rc><c>S </c><c>   4</c></rc>
    <rc><c>S </c><c>   4</c></rc>
    <rc><c>S </c><c>   4</c></rc>
    <rc><c>S </c><c>   4</c></rc>
    <rc><c>S </c><c>   4</c></rc>
    <rc><c>S </c><c>   4</c></rc>
    <rc><c>S </c><c>   4</c></rc>
    <rc><c>S </c><c>   4</c></rc>
    <rc><c>S </c><c>   4</c></rc>
    <rc><c>S </c><c>   4</c></rc>
    <rc><c>S </c><c>   4</c></rc>
   </set>
  </array>
  <array name="atomtypes" >
   <dimension dim="1">type</dimension>
   <field type="int">atomspertype</field>
   <field type="string">element</field>
   <field>mass</field>
   <field>valence</field>
   <field type="string">pseudopotential</field>
   <set>
    <rc><c>   3</c><c>V </c><c>     50.94100000</c><c>      5.00000000</c><c> PAW_PBE V 08Apr2002                    </c></rc>
    <rc><c>   3</c><c>Mo</c><c>     95.94000000</c><c>      6.00000000</c><c> PAW_PBE Mo 08Apr2002                   </c></rc>
    <rc><c>   3</c><c>W </c><c>    183.85000000</c><c>      6.00000000</c><c> PAW_PBE W 08Apr2002                    </c></rc>
    <rc><c>  18</c><c>S </c><c>     32.06600000</c><c>      6.00000000</c><c>  PAW_PBE S 17Jan2003                   </c></rc>
   </set>
  </array>
 </atominfo>
 <structure name="initialpos" >
  <crystal>
   <varray name="basis" >
    <v>       8.66999996       5.03999989       0.00000000 </v>
    <v>      -8.66999982       5.04000013       0.00000000 </v>
    <v>       0.00000000       0.00000000      30.00000000 </v>
   </varray>
   <i name="volume">   2621.80797419 </i>
   <varray name="rec_basis" >
    <v>       0.05767013       0.09920635       0.00000000 </v>
    <v>      -0.05767013       0.09920635       0.00000000 </v>
    <v>       0.00000000       0.00000000       0.03333333 </v>
   </varray>
  </crystal>
  <varray name="positions" >
   <v>       0.66666669       0.33333334       0.00000000 </v>
   <v>       0.66666669       0.66666669       0.00000000 </v>
   <v>       0.00000000       0.00000000       0.00000000 </v>
   <v>       0.66666669       0.00000000       0.00000000 </v>
   <v>       0.33333334       0.33333334       0.00000000 </v>
   <v>       0.33333334       0.00000000       0.00000000 </v>
   <v>       1.00000000       0.33333334       0.00000000 </v>
   <v>       0.00000000       0.66666669       0.00000000 </v>
   <v>       0.33333334       0.66666669       0.00000000 </v>
   <v>       0.11068511       0.22244981       0.95539999 </v>
   <v>       0.22244981       0.11068511       0.04460000 </v>
   <v>       0.11068511       0.55578315       0.95539999 </v>
   <v>       0.22244981       0.44401845       0.04460000 </v>
   <v>       0.11068511       0.88911647       0.95539999 </v>
   <v>       0.22244981       0.77735180       0.04460000 </v>
   <v>       0.44401845       0.22244981       0.95539999 </v>
   <v>       0.55578315       0.11068511       0.04460000 </v>
   <v>       0.44401845       0.55578315       0.95539999 </v>
   <v>       0.55578315       0.44401845       0.04460000 </v>
   <v>       0.44401845       0.88911647       0.95539999 </v>
   <v>       0.55578315       0.77735180       0.04460000 </v>
   <v>       0.77735180       0.22244981       0.95539999 </v>
   <v>       0.88911647       0.11068511       0.04460000 </v>
   <v>       0.77735180       0.55578315       0.95539999 </v>
   <v>       0.88911647       0.44401845       0.04460000 </v>
   <v>       0.77735180       0.88911647       0.95539999 </v>
   <v>       0.88911647       0.77735180       0.04460000 </v>
  </varray>
 </structure>
 <calculation>
  <scstep>
   <time name="dav">   22.87   22.93</time>
   <time name="total">   22.92   22.98</time>
   <energy>
    <i name="alphaZ">     81.65567618 </i>
    <i name="ewald">  41890.23009656 </i>
    <i name="hartreedc"> -47722.87378573 </i>
    <i name="XCdc">   -242.92724147 </i>
    <i name="pawpsdc">   3467.42045192 </i>
    <i name="pawaedc">  -2871.19716117 </i>
    <i name="eentropy">     -0.54212213 </i>
    <i name="bandstr">   -237.19354656 </i>
    <i name="atom">   6761.44252427 </i>
    <i name="e_fr_energy">   1126.01489187 </i>
    <i name="e_wo_entrp">   1126.55701400 </i>
    <i name="e_0_energy">   1126.28595293 </i>
   </energy>
  </scstep>
  <scstep>
   <time name="dav">   30.18   30.26</time>
   <time name="total">   30.18   30.26</time>
   <energy>
    <i name="e_fr_energy">     -3.79026244 </i>
    <i name="e_wo_entrp">     -3.56735978 </i>
    <i name="e_0_energy">     -3.67881111 </i>
   </energy>
  </scstep>
  <scstep>
   <time name="dav">   28.87   28.94</time>
   <time name="total">   28.88   28.95</time>
   <energy>
    <i name="e_fr_energy">   -200.01846000 </i>
    <i name="e_wo_entrp">   -199.75812377 </i>
    <i name="e_0_energy">   -199.88829189 </i>
   </energy>
  </scstep>
  <scstep>
   <time name="dav">   32.39   32.47</time>
   <time name="total">   32.39   32.48</time>
   <energy>
    <i name="e_fr_energy">   -209.05993335 </i>
    <i name="e_wo_entrp">   -208.76145364 </i>
    <i name="e_0_energy">   -208.91069350 </i>
   </energy>
  </scstep>
  <scstep>
   <time name="dav">   29.41   29.48</time>
   <time name="total">   29.87   29.95</time>
   <energy>
    <i name="e_fr_energy">   -209.32560668 </i>
    <i name="e_wo_entrp">   -209.02959239 </i>
    <i name="e_0_energy">   -209.17759954 </i>
   </energy>
  </scstep>
  <scstep>
   <time name="dav">   32.57   32.65</time>
   <time name="total">   33.07   33.16</time>
   <energy>
    <i name="e_fr_energy">   -236.77475787 </i>
    <i name="e_wo_entrp">   -236.49705329 </i>
    <i name="e_0_energy">   -236.63590558 </i>
   </energy>
  </scstep>
  <scstep>
   <time name="dav">   33.90   33.99</time>
   <time name="total">   34.50   34.59</time>
   <energy>
    <i name="e_fr_energy">   -196.50770857 </i>
    <i name="e_wo_entrp">   -196.19302246 </i>
    <i name="e_0_energy">   -196.35036552 </i>
   </energy>
  </scstep>
  <scstep>
   <time name="dav">   31.14   31.22</time>
   <time name="total">   31.73   31.82</time>
   <energy>
    <i name="e_fr_energy">   -189.37971369 </i>
    <i name="e_wo_entrp">   -189.08319820 </i>
    <i name="e_0_energy">   -189.23145595 </i>
   </energy>
  </scstep>
  <scstep>
   <time name="dav">   33.91   34.00</time>
   <time name="total">   34.52   34.61</time>
   <energy>
    <i name="e_fr_energy">   -188.12111896 </i>
    <i name="e_wo_entrp">   -187.78715420 </i>
    <i name="e_0_energy">   -187.95413658 </i>
   </energy>
  </scstep>
  <scstep>
   <time name="dav">   34.36   34.44</time>
   <time name="total">   34.97   35.06</time>
   <energy>
    <i name="e_fr_energy">   -187.01011134 </i>
    <i name="e_wo_entrp">   -186.66465818 </i>
    <i name="e_0_energy">   -186.83738476 </i>
   </energy>
  </scstep>
  <scstep>
   <time name="dav">   34.12   34.20</time>
   <time name="total">   34.74   34.83</time>
   <energy>
    <i name="e_fr_energy">   -186.97184464 </i>
    <i name="e_wo_entrp">   -186.62056006 </i>
    <i name="e_0_energy">   -186.79620235 </i>
   </energy>
  </scstep>
  <scstep>
   <time name="dav">   32.35   32.43</time>
   <time name="total">   32.96   33.05</time>
   <energy>
    <i name="e_fr_energy">   -187.10320666 </i>
    <i name="e_wo_entrp">   -186.76333676 </i>
    <i name="e_0_energy">   -186.93327171 </i>
   </energy>
  </scstep>
  <scstep>
   <time name="dav">   33.19   33.27</time>
   <time name="total">   33.81   33.90</time>
   <energy>
    <i name="e_fr_energy">   -186.88800957 </i>
    <i name="e_wo_entrp">   -186.55237836 </i>
    <i name="e_0_energy">   -186.72019396 </i>
   </energy>
  </scstep>
  <scstep>
   <time name="dav">   34.28   34.36</time>
   <time name="total">   34.89   35.20</time>
   <energy>
    <i name="e_fr_energy">   -186.86387627 </i>
    <i name="e_wo_entrp">   -186.52031956 </i>
    <i name="e_0_energy">   -186.69209791 </i>
   </energy>
  </scstep>
  <scstep>
   <time name="dav">   32.63   32.71</time>
   <time name="total">   33.25   33.33</time>
   <energy>
    <i name="e_fr_energy">   -186.83994526 </i>
    <i name="e_wo_entrp">   -186.49353370 </i>
    <i name="e_0_energy">   -186.66673948 </i>
   </energy>
  </scstep>
  <scstep>
   <time name="dav">   31.58   31.66</time>
   <time name="total">   32.20   32.28</time>
   <energy>
    <i name="e_fr_energy">   -186.83313550 </i>
    <i name="e_wo_entrp">   -186.48667689 </i>
    <i name="e_0_energy">   -186.65990620 </i>
   </energy>
  </scstep>
  <scstep>
   <time name="dav">   33.11   33.19</time>
   <time name="total">   33.73   33.82</time>
   <energy>
    <i name="e_fr_energy">   -186.83143316 </i>
    <i name="e_wo_entrp">   -186.48700935 </i>
    <i name="e_0_energy">   -186.65922126 </i>
   </energy>
  </scstep>
  <scstep>
   <time name="dav">   31.55   31.63</time>
   <time name="total">   32.17   32.25</time>
   <energy>
    <i name="e_fr_energy">   -186.83065286 </i>
    <i name="e_wo_entrp">   -186.48631760 </i>
    <i name="e_0_energy">   -186.65848523 </i>
   </energy>
  </scstep>
  <scstep>
   <time name="dav">   29.70   29.77</time>
   <time name="total">   30.32   30.40</time>
   <energy>
    <i name="e_fr_energy">   -186.83026796 </i>
    <i name="e_wo_entrp">   -186.48540299 </i>
    <i name="e_0_energy">   -186.65783548 </i>
   </energy>
  </scstep>
  <scstep>
   <time name="dav">   24.99   25.05</time>
   <time name="total">   25.61   25.68</time>
   <energy>
    <i name="e_fr_energy">   -186.83105131 </i>
    <i name="e_wo_entrp">   -186.48648716 </i>
    <i name="e_0_energy">   -186.65876923 </i>
   </energy>
  </scstep>
  <scstep>
   <time name="dav">   23.07   23.13</time>
   <time name="total">   23.69   23.76</time>
   <energy>
    <i name="e_fr_energy">   -186.83166138 </i>
    <i name="e_wo_entrp">   -186.48715390 </i>
    <i name="e_0_energy">   -186.65940764 </i>
   </energy>
  </scstep>
  <scstep>
   <time name="dav">   21.43   21.48</time>
   <time name="total">   22.04   22.11</time>
   <energy>
    <i name="e_fr_energy">   -186.83276243 </i>
    <i name="e_wo_entrp">   -186.48811396 </i>
    <i name="e_0_energy">   -186.66043819 </i>
   </energy>
  </scstep>
  <scstep>
   <time name="dav">   21.34   21.39</time>
   <time name="total">   21.96   22.02</time>
   <energy>
    <i name="e_fr_energy">   -186.83399113 </i>
    <i name="e_wo_entrp">   -186.48945275 </i>
    <i name="e_0_energy">   -186.66172194 </i>
   </energy>
  </scstep>
  <scstep>
   <time name="dav">   19.99   20.04</time>
   <time name="total">   20.61   20.66</time>
   <energy>
    <i name="e_fr_energy">   -186.83458566 </i>
    <i name="e_wo_entrp">   -186.49002195 </i>
    <i name="e_0_energy">   -186.66230381 </i>
   </energy>
  </scstep>
  <scstep>
   <time name="dav">   17.23   17.27</time>
   <time name="total">   17.85   17.90</time>
   <energy>
    <i name="e_fr_energy">   -186.83494065 </i>
    <i name="e_wo_entrp">   -186.49034278 </i>
    <i name="e_0_energy">   -186.66264172 </i>
   </energy>
  </scstep>
  <scstep>
   <time name="dav">   20.08   20.12</time>
   <time name="total">   20.70   20.75</time>
   <energy>
    <i name="e_fr_energy">   -186.83518515 </i>
    <i name="e_wo_entrp">   -186.49060424 </i>
    <i name="e_0_energy">   -186.66289469 </i>
   </energy>
  </scstep>
  <scstep>
   <time name="dav">   21.06   21.11</time>
   <time name="total">   21.10   21.16</time>
   <energy>
    <i name="alphaZ">     81.65567618 </i>
    <i name="ewald">  41890.23009656 </i>
    <i name="hartreedc"> -47832.84015293 </i>
    <i name="XCdc">   -231.61125965 </i>
    <i name="pawpsdc">   4192.05622298 </i>
    <i name="pawaedc">  -3610.05800597 </i>
    <i name="eentropy">     -0.34458486 </i>
    <i name="bandstr">  -1437.36579978 </i>
    <i name="atom">   6761.44252427 </i>
    <i name="e_fr_energy">   -186.83528320 </i>
    <i name="e_wo_entrp">   -186.49069834 </i>
    <i name="e_0_energy">   -186.66299077 </i>
   </energy>
  </scstep>
  <structure>
   <crystal>
    <varray name="basis" >
     <v>       8.66999996       5.03999989       0.00000000 </v>
     <v>      -8.66999982       5.04000013       0.00000000 </v>
     <v>       0.00000000       0.00000000      30.00000000 </v>
    </varray>
    <i name="volume">   2621.80797419 </i>
    <varray name="rec_basis" >
     <v>       0.05767013       0.09920635       0.00000000 </v>
     <v>      -0.05767013       0.09920635       0.00000000 </v>
     <v>       0.00000000       0.00000000       0.03333333 </v>
    </varray>
   </crystal>
   <varray name="positions" >
    <v>       0.66666669       0.33333334       0.00000000 </v>
    <v>       0.66666669       0.66666669       0.00000000 </v>
    <v>       0.00000000       0.00000000       0.00000000 </v>
    <v>       0.66666669       0.00000000       0.00000000 </v>
    <v>       0.33333334       0.33333334       0.00000000 </v>
    <v>       0.33333334       0.00000000       0.00000000 </v>
    <v>       1.00000000       0.33333334       0.00000000 </v>
    <v>       0.00000000       0.66666669       0.00000000 </v>
    <v>       0.33333334       0.66666669       0.00000000 </v>
    <v>       0.11068511       0.22244981       0.95539999 </v>
    <v>       0.22244981       0.11068511       0.04460000 </v>
    <v>       0.11068511       0.55578315       0.95539999 </v>
    <v>       0.22244981       0.44401845       0.04460000 </v>
    <v>       0.11068511       0.88911647       0.95539999 </v>
    <v>       0.22244981       0.77735180       0.04460000 </v>
    <v>       0.44401845       0.22244981       0.95539999 </v>
    <v>       0.55578315       0.11068511       0.04460000 </v>
    <v>       0.44401845       0.55578315       0.95539999 </v>
    <v>       0.55578315       0.44401845       0.04460000 </v>
    <v>       0.44401845       0.88911647       0.95539999 </v>
    <v>       0.55578315       0.77735180       0.04460000 </v>
    <v>       0.77735180       0.22244981       0.95539999 </v>
    <v>       0.88911647       0.11068511       0.04460000 </v>
    <v>       0.77735180       0.55578315       0.95539999 </v>
    <v>       0.88911647       0.44401845       0.04460000 </v>
    <v>       0.77735180       0.88911647       0.95539999 </v>
    <v>       0.88911647       0.77735180       0.04460000 </v>
   </varray>
  </structure>
  <varray name="forces" >
   <v>      -0.08714059      -0.44463111       0.11635067 </v>
   <v>      -0.13470487      -0.06387635      -0.02915373 </v>
   <v>      -0.00275917       0.16206989      -0.12052459 </v>
   <v>      -0.19315012      -0.13116346      -0.07028734 </v>
   <v>       0.30353637      -0.11850961       0.07193294 </v>
   <v>      -0.01820369       0.28758349       0.14580575 </v>
   <v>       0.27539258      -0.20769119      -0.11836967 </v>
   <v>      -0.13585443       0.22835568      -0.01332962 </v>
   <v>       0.04009356       0.33325546      -0.00519553 </v>
   <v>       0.35991293      -0.73039370      -2.20533278 </v>
   <v>      -0.51033230      -0.68904037       2.14484364 </v>
   <v>       0.15461417      -0.00550839      -2.92849952 </v>
   <v>      -0.28365234       0.02679814       2.85465250 </v>
   <v>      -0.69480441      -0.16295729      -2.11611469 </v>
   <v>      -0.05375255      -0.11644346       2.91865586 </v>
   <v>       0.51030108       0.70040915      -2.18083337 </v>
   <v>      -0.54452388       0.70731506       2.20016136 </v>
   <v>       0.35467680       0.68706393      -2.15546304 </v>
   <v>       0.34657020       0.65983528       1.43214438 </v>
   <v>       0.21835224      -0.16483893      -2.88470578 </v>
   <v>       0.65536864      -0.16152099       2.13851719 </v>
   <v>      -0.65269047       0.16577291      -2.09466306 </v>
   <v>       0.65627078       0.13991705       2.11224913 </v>
   <v>      -0.23382289      -0.51843765      -1.38887281 </v>
   <v>      -0.49129896      -0.59076466       2.15315403 </v>
   <v>       0.89922426       0.01125412      -1.44091017 </v>
   <v>      -0.73762294      -0.00385296       1.46378827 </v>
  </varray>
  <varray name="stress" >
   <v>       7.30037270       0.03624897      -1.53304667 </v>
   <v>       0.03624893       4.44107768      -0.00831024 </v>
   <v>      -1.53304650      -0.00831033      30.32671902 </v>
  </varray>
  <energy>
   <i name="e_fr_energy">   -186.83528320 </i>
   <i name="e_wo_entrp">   -186.66299077 </i>
   <i name="e_0_energy">     -0.34458486 </i>
  </energy>
  <time name="totalsc">  828.23  830.64</time>
 </calculation>
 <calculation>
  <scstep>
   <time name="dav">   22.86   22.92</time>
   <time name="total">   23.49   23.54</time>
   <energy>
    <i name="alphaZ">     78.92429499 </i>
    <i name="ewald">  39380.89887576 </i>
    <i name="hartreedc"> -45338.33021467 </i>
    <i name="XCdc">   -239.06900959 </i>
    <i name="pawpsdc">   4192.03064494 </i>
    <i name="pawaedc">  -3610.03272448 </i>
    <i name="eentropy">     -0.28628718 </i>
    <i name="bandstr">  -1413.02856707 </i>
    <i name="atom">   6761.44252427 </i>
    <i name="e_fr_energy">   -187.45046303 </i>
    <i name="e_wo_entrp">   -187.16417585 </i>
    <i name="e_0_energy">   -187.30731944 </i>
   </energy>
  </scstep>
  <scstep>
   <time name="dav">   31.79   31.87</time>
   <time name="total">   32.41   32.49</time>
   <energy>
    <i name="e_fr_energy">   -189.25477721 </i>
    <i name="e_wo_entrp">   -188.94032436 </i>
    <i name="e_0_energy">   -189.09755079 </i>
   </energy>
  </scstep>
  <scstep>
   <time name="dav">   32.16   32.24</time>
   <time name="total">   32.79   32.87</time>
   <energy>
    <i name="e_fr_energy">   -189.35689991 </i>
    <i name="e_wo_entrp">   -189.07915574 </i>
    <i name="e_0_energy">   -189.21802782 </i>
   </energy>
  </scstep>
  <scstep>
   <time name="dav">   32.85   32.93</time>
   <time name="total">   33.47   33.56</time>
   <energy>
    <i name="e_fr_energy">   -188.72079017 </i>
    <i name="e_wo_entrp">   -188.43472400 </i>
    <i name="e_0_energy">   -188.57775709 </i>
   </energy>
  </scstep>
  <scstep>
   <time name="dav">   28.75   28.82</time>
   <time name="total">   29.37   29.45</time>
   <energy>
    <i name="e_fr_energy">   -188.72797620 </i>
    <i name="e_wo_entrp">   -188.44090790 </i>
    <i name="e_0_energy">   -188.58444205 </i>
   </energy>
  </scstep>
  <scstep>
   <time name="dav">   29.55   29.62</time>
   <time name="total">   30.17   30.25</time>
   <energy>
    <i name="e_fr_energy">   -188.64966828 </i>
    <i name="e_wo_entrp">   -188.36445385 </i>
    <i name="e_0_energy">   -188.50706106 </i>
   </energy>
  </scstep>
  <scstep>
   <time name="dav">   31.87   31.95</time>
   <time name="total">   32.49   32.58</time>
   <energy>
    <i name="e_fr_energy">   -188.65731499 </i>
    <i name="e_wo_entrp">   -188.36921747 </i>
    <i name="e_0_energy">   -188.51326623 </i>
   </energy>
  </scstep>
  <scstep>
   <time name="dav">   34.17   34.25</time>
   <time name="total">   34.80   34.89</time>
   <energy>
    <i name="e_fr_energy">   -188.63008006 </i>
    <i name="e_wo_entrp">   -188.34559248 </i>
    <i name="e_0_energy">   -188.48783627 </i>
   </energy>
  </scstep>
  <scstep>
   <time name="dav">   30.30   30.37</time>
   <time name="total">   30.92   31.00</time>
   <energy>
    <i name="e_fr_energy">   -188.62668823 </i>
    <i name="e_wo_entrp">   -188.34191890 </i>
    <i name="e_0_energy">   -188.48430356 </i>
   </energy>
  </scstep>
  <scstep>
   <time name="dav">   34.44   34.53</time>
   <time name="total">   35.07   35.16</time>
   <energy>
    <i name="e_fr_energy">   -188.62778280 </i>
    <i name="e_wo_entrp">   -188.34337257 </i>
    <i name="e_0_energy">   -188.48557768 </i>
   </energy>
  </scstep>
  <scstep>
   <time name="dav">   32.95   33.03</time>
   <time name="total">   33.58   33.66</time>
   <energy>
    <i name="e_fr_energy">   -188.62615897 </i>
    <i name="e_wo_entrp">   -188.34187863 </i>
    <i name="e_0_energy">   -188.48401880 </i>
   </energy>
  </scstep>
  <scstep>
   <time name="dav">   31.17   31.24</time>
   <time name="total">   31.21   31.29</time>
   <energy>
    <i name="alphaZ">     78.92429499 </i>
    <i name="ewald">  39380.89887576 </i>
    <i name="hartreedc"> -45349.39725125 </i>
    <i name="XCdc">   -237.97615769 </i>
    <i name="pawpsdc">   3952.87770363 </i>
    <i name="pawaedc">  -3367.40914064 </i>
    <i name="eentropy">     -0.28382692 </i>
    <i name="bandstr">  -1407.70312230 </i>
    <i name="atom">   6761.44252427 </i>
    <i name="e_fr_energy">   -188.62610015 </i>
    <i name="e_wo_entrp">   -188.34227323 </i>
    <i name="e_0_energy">   -188.48418669 </i>
   </energy>
  </scstep>
  <structure>
   <crystal>
    <varray name="basis" >
     <v>       8.85559810       5.10636383       0.00000000 </v>
     <v>      -8.85452961       5.10452625       0.00000000 </v>
     <v>       0.00000000       0.00000000      30.00000000 </v>
    </varray>
    <i name="volume">   2712.54248082 </i>
    <varray name="rec_basis" >
     <v>       0.05645471       0.09792875       0.00000000 </v>
     <v>      -0.05647503       0.09794056       0.00000000 </v>
     <v>       0.00000000       0.00000000       0.03333333 </v>
    </varray>
   </crystal>
   <varray name="positions" >
    <v>       0.66429625       0.33144779       0.00018710 </v>
    <v>       0.66598621       0.66673575      -0.00004688 </v>
    <v>       0.00076799       0.00078334      -0.00019381 </v>
    <v>       0.66550157      -0.00009037      -0.00011303 </v>
    <v>       0.33361065       0.33192167       0.00011567 </v>
    <v>       0.33465907       0.00142701       0.00023447 </v>
    <v>       0.99977218       0.33157315      -0.00019035 </v>
    <v>       0.00071494       0.66813756      -0.00002144 </v>
    <v>       0.33503984       0.66815009      -0.00000835 </v>
    <v>       0.10819080       0.21795283       0.95185362 </v>
    <v>       0.21773225       0.10880720       0.04804910 </v>
    <v>       0.11108891       0.55532663       0.95069070 </v>
    <v>       0.22178890       0.44493587       0.04919053 </v>
    <v>       0.10797214       0.89026961       0.95199709 </v>
    <v>       0.22174297       0.77694405       0.04929346 </v>
    <v>       0.44879034       0.22438221       0.95189302 </v>
    <v>       0.55765339       0.11558526       0.04813805 </v>
    <v>       0.44829349       0.55808466       0.95193381 </v>
    <v>       0.55990532       0.44621220       0.04690301 </v>
    <v>       0.44383703       0.88772006       0.95076113 </v>
    <v>       0.55683346       0.77475542       0.04803892 </v>
    <v>       0.77632929       0.22505908       0.95203159 </v>
    <v>       0.89161196       0.10952890       0.04799668 </v>
    <v>       0.77422003       0.55395245       0.95316656 </v>
    <v>       0.88492221       0.44255794       0.04806246 </v>
    <v>       0.77990744       0.88666854       0.95308288 </v>
    <v>       0.88704584       0.77938554       0.04695390 </v>
   </varray>
  </structure>
  <varray name="forces" >
   <v>      -0.03406932      -0.44285829       0.04613056 </v>
   <v>      -0.17147576      -0.08428223      -0.09062594 </v>
   <v>      -0.04870202       0.21127317      -0.03830484 </v>
   <v>      -0.29002004      -0.23287600      -0.07411578 </v>
   <v>       0.12450474      -0.20106593       0.08476402 </v>
   <v>       0.15272351       0.19460050       0.04403532 </v>
   <v>       0.23741750      -0.04590135       0.04893238 </v>
   <v>       0.15538894       0.29943914      -0.01006041 </v>
   <v>      -0.13347235       0.25324243      -0.01115540 </v>
   <v>      -0.08419718      -0.07741210      -0.10420361 </v>
   <v>      -0.02895264      -0.07861632       0.08485271 </v>
   <v>       0.00637464       0.00439166       0.10132901 </v>
   <v>      -0.12852946      -0.00636798      -0.10085665 </v>
   <v>       0.01022749      -0.09425983      -0.00213226 </v>
   <v>       0.07277373      -0.08670076       0.04723043 </v>
   <v>       0.02990146       0.07873790      -0.11501911 </v>
   <v>      -0.03943110       0.08369176       0.20254296 </v>
   <v>      -0.08913518       0.05097421       0.05365899 </v>
   <v>       0.01786909       0.04225251      -0.02938077 </v>
   <v>       0.03253612      -0.10872576      -0.14021118 </v>
   <v>      -0.01070813      -0.08963723       0.07170936 </v>
   <v>       0.00056427       0.11537844       0.01261969 </v>
   <v>      -0.01517884       0.08855380      -0.05206850 </v>
   <v>       0.05981335       0.07403426       0.22332010 </v>
   <v>       0.04981965       0.05539042      -0.22008475 </v>
   <v>       0.02997731      -0.00620059       0.12454867 </v>
   <v>       0.09398022       0.00294418      -0.15745497 </v>
  </varray>
  <varray name="stress" >
   <v>     -19.99835640      -0.01837897       0.01705895 </v>
   <v>      -0.01837909     -19.60198787      -0.02499543 </v>
   <v>       0.01705909      -0.02499535      -1.83563963 </v>
  </varray>
  <energy>
   <i name="e_fr_energy">   -188.62610015 </i>
   <i name="e_wo_entrp">   -188.48418669 </i>
   <i name="e_0_energy">     -0.28382692 </i>
  </energy>
  <time name="totalsc">  423.51  424.62</time>
 </calculation>
 <calculation>
  <scstep>
   <time name="dav">   25.31   25.37</time>
   <time name="total">   25.92   25.98</time>
   <energy>
    <i name="alphaZ">     82.35489014 </i>
    <i name="ewald">  41307.28609576 </i>
    <i name="hartreedc"> -47306.36613867 </i>
    <i name="XCdc">   -233.85093170 </i>
    <i name="pawpsdc">   3950.49541078 </i>
    <i name="pawaedc">  -3364.99947518 </i>
    <i name="eentropy">     -0.23580783 </i>
    <i name="bandstr">  -1386.66818514 </i>
    <i name="atom">   6761.44252427 </i>
    <i name="e_fr_energy">   -190.54161755 </i>
    <i name="e_wo_entrp">   -190.30580973 </i>
    <i name="e_0_energy">   -190.42371364 </i>
   </energy>
  </scstep>
  <scstep>
   <time name="dav">   29.97   30.04</time>
   <time name="total">   30.57   30.65</time>
   <energy>
    <i name="e_fr_energy">   -190.56094142 </i>
    <i name="e_wo_entrp">   -190.32308965 </i>
    <i name="e_0_energy">   -190.44201554 </i>
   </energy>
  </scstep>
  <scstep>
   <time name="dav">   31.87   31.94</time>
   <time name="total">   32.47   32.56</time>
   <energy>
    <i name="e_fr_energy">   -190.00742156 </i>
    <i name="e_wo_entrp">   -189.76006262 </i>
    <i name="e_0_energy">   -189.88374209 </i>
   </energy>
  </scstep>
  <scstep>
   <time name="dav">   32.73   32.81</time>
   <time name="total">   33.35   33.43</time>
   <energy>
    <i name="e_fr_energy">   -189.80761313 </i>
    <i name="e_wo_entrp">   -189.57157152 </i>
    <i name="e_0_energy">   -189.68959233 </i>
   </energy>
  </scstep>
  <scstep>
   <time name="dav">   29.73   29.81</time>
   <time name="total">   30.35   30.43</time>
   <energy>
    <i name="e_fr_energy">   -189.73144036 </i>
    <i name="e_wo_entrp">   -189.48900076 </i>
    <i name="e_0_energy">   -189.61022056 </i>
   </energy>
  </scstep>
  <scstep>
   <time name="dav">   31.06   31.14</time>
   <time name="total">   31.68   31.76</time>
   <energy>
    <i name="e_fr_energy">   -189.71134465 </i>
    <i name="e_wo_entrp">   -189.47306127 </i>
    <i name="e_0_energy">   -189.59220296 </i>
   </energy>
  </scstep>
  <scstep>
   <time name="dav">   32.52   32.60</time>
   <time name="total">   33.13   33.22</time>
   <energy>
    <i name="e_fr_energy">   -189.70350103 </i>
    <i name="e_wo_entrp">   -189.46466136 </i>
    <i name="e_0_energy">   -189.58408120 </i>
   </energy>
  </scstep>
  <scstep>
   <time name="dav">   29.12   29.19</time>
   <time name="total">   29.73   29.82</time>
   <energy>
    <i name="e_fr_energy">   -189.70354169 </i>
    <i name="e_wo_entrp">   -189.46493578 </i>
    <i name="e_0_energy">   -189.58423873 </i>
   </energy>
  </scstep>
  <scstep>
   <time name="dav">   28.60   28.67</time>
   <time name="total">   29.21   29.29</time>
   <energy>
    <i name="e_fr_energy">   -189.70379835 </i>
    <i name="e_wo_entrp">   -189.46497233 </i>
    <i name="e_0_energy">   -189.58438534 </i>
   </energy>
  </scstep>
  <scstep>
   <time name="dav">   28.08   28.15</time>
   <time name="total">   28.70   28.77</time>
   <energy>
    <i name="e_fr_energy">   -189.70411185 </i>
    <i name="e_wo_entrp">   -189.46537415 </i>
    <i name="e_0_energy">   -189.58474300 </i>
   </energy>
  </scstep>
  <scstep>
   <time name="dav">   26.27   26.33</time>
   <time name="total">   26.88   26.95</time>
   <energy>
    <i name="e_fr_energy">   -189.70357639 </i>
    <i name="e_wo_entrp">   -189.46475891 </i>
    <i name="e_0_energy">   -189.58416765 </i>
   </energy>
  </scstep>
  <scstep>
   <time name="dav">   18.74   18.78</time>
   <time name="total">   18.78   18.83</time>
   <energy>
    <i name="alphaZ">     82.35489014 </i>
    <i name="ewald">  41307.28609576 </i>
    <i name="hartreedc"> -47279.63406301 </i>
    <i name="XCdc">   -235.24816902 </i>
    <i name="pawpsdc">   4038.69998887 </i>
    <i name="pawaedc">  -3454.39771730 </i>
    <i name="eentropy">     -0.23872022 </i>
    <i name="bandstr">  -1409.96843045 </i>
    <i name="atom">   6761.44252427 </i>
    <i name="e_fr_energy">   -189.70360096 </i>
    <i name="e_wo_entrp">   -189.46488073 </i>
    <i name="e_0_energy">   -189.58424085 </i>
   </energy>
  </scstep>
  <structure>
   <crystal>
    <varray name="basis" >
     <v>       8.66722537       4.99977953       0.00000000 </v>
     <v>      -8.66637910       4.99832628       0.00000000 </v>
     <v>       0.00000000       0.00000000      30.00000000 </v>
    </varray>
    <i name="volume">   2599.54815750 </i>
    <varray name="rec_basis" >
     <v>       0.05768302       0.10001406       0.00000000 </v>
     <v>      -0.05769979       0.10002383       0.00000000 </v>
     <v>       0.00000000       0.00000000       0.03333333 </v>
    </varray>
   </crystal>
   <varray name="positions" >
    <v>       0.66352837       0.33074505       0.00021317 </v>
    <v>       0.66568215       0.66675998      -0.00009810 </v>
    <v>       0.00107215       0.00118079      -0.00021546 </v>
    <v>       0.66483734      -0.00019937      -0.00015491 </v>
    <v>       0.33339599       0.33146859       0.00016358 </v>
    <v>       0.33512834       0.00160392       0.00025935 </v>
    <v>       0.99992321       0.33126961      -0.00016270 </v>
    <v>       0.00136082       0.66848599      -0.00002712 </v>
    <v>       0.33533255       0.66869840      -0.00001466 </v>
    <v>       0.10798168       0.21790490       0.95179473 </v>
    <v>       0.21757401       0.10870438       0.04809705 </v>
    <v>       0.11110230       0.55532782       0.95074797 </v>
    <v>       0.22165531       0.44504837       0.04913353 </v>
    <v>       0.10782543       0.89010330       0.95199589 </v>
    <v>       0.22166867       0.77673040       0.04932015 </v>
    <v>       0.44894968       0.22448433       0.95182802 </v>
    <v>       0.55775461       0.11576198       0.04825252 </v>
    <v>       0.44829281       0.55825464       0.95196414 </v>
    <v>       0.55999258       0.44626525       0.04688641 </v>
    <v>       0.44368765       0.88750837       0.95068189 </v>
    <v>       0.55667438       0.77461683       0.04807945 </v>
    <v>       0.77652139       0.22525013       0.95203872 </v>
    <v>       0.89174445       0.10969048       0.04796726 </v>
    <v>       0.77440020       0.55401812       0.95329277 </v>
    <v>       0.88506186       0.44260221       0.04793808 </v>
    <v>       0.77992584       0.88662954       0.95315327 </v>
    <v>       0.88714068       0.77930045       0.04686492 </v>
   </varray>
  </structure>
  <varray name="forces" >
   <v>      -0.00667939      -0.43847755       0.01434956 </v>
   <v>      -0.19294425      -0.09750413      -0.08548436 </v>
   <v>      -0.05571352       0.25153987      -0.01123310 </v>
   <v>      -0.31489422      -0.26217146      -0.05185896 </v>
   <v>       0.06253157      -0.23278172       0.05888555 </v>
   <v>       0.20792188       0.14018051       0.00777637 </v>
   <v>       0.22628497       0.02704177       0.07512192 </v>
   <v>       0.24620575       0.32260203      -0.00848686 </v>
   <v>      -0.20146600       0.20370419      -0.00804670 </v>
   <v>       0.04890277      -0.13179794      -0.62567570 </v>
   <v>      -0.06020438      -0.15453361       0.57571530 </v>
   <v>       0.01690448       0.00765995      -0.46185265 </v>
   <v>      -0.05473663       0.00395337       0.43801784 </v>
   <v>      -0.09758013      -0.00272231      -0.50076878 </v>
   <v>       0.03441347      -0.01073758       0.61863509 </v>
   <v>       0.06606505       0.13698445      -0.59880659 </v>
   <v>      -0.07417069       0.14718900       0.71933773 </v>
   <v>       0.03487035       0.10090086      -0.43068076 </v>
   <v>       0.05006928       0.11485164       0.41989914 </v>
   <v>      -0.02378464      -0.04023768      -0.70590755 </v>
   <v>       0.10792034      -0.00864262       0.57901799 </v>
   <v>      -0.12129610       0.04862095      -0.48352795 </v>
   <v>       0.09923299      -0.00150870       0.43457242 </v>
   <v>      -0.00956177      -0.05716928      -0.21433068 </v>
   <v>      -0.02647016      -0.06617932       0.26913382 </v>
   <v>       0.10481725      -0.00433605      -0.31463387 </v>
   <v>      -0.06663826       0.00357136       0.29083177 </v>
  </varray>
  <varray name="stress" >
   <v>     -10.13594575      -0.01124904      -0.00494910 </v>
   <v>      -0.01124892      -9.82586059      -0.03218387 </v>
   <v>      -0.00494934      -0.03218374       6.51435119 </v>
  </varray>
  <energy>
   <i name="e_fr_energy">   -189.70360096 </i>
   <i name="e_wo_entrp">   -189.58424085 </i>
   <i name="e_0_energy">     -0.23872022 </i>
  </energy>
  <time name="totalsc">  394.68  395.72</time>
 </calculation>
 <calculation>
  <scstep>
   <time name="dav">   22.86   22.92</time>
   <time name="total">   23.46   23.52</time>
   <energy>
    <i name="alphaZ">     85.79614762 </i>
    <i name="ewald">  42819.22046315 </i>
    <i name="hartreedc"> -48835.76384058 </i>
    <i name="XCdc">   -232.99619190 </i>
    <i name="pawpsdc">   4038.77713350 </i>
    <i name="pawaedc">  -3454.47247404 </i>
    <i name="eentropy">     -0.19389999 </i>
    <i name="bandstr">  -1373.01863109 </i>
    <i name="atom">   6761.44252427 </i>
    <i name="e_fr_energy">   -191.20876905 </i>
    <i name="e_wo_entrp">   -191.01486905 </i>
    <i name="e_0_energy">   -191.11181905 </i>
   </energy>
  </scstep>
  <scstep>
   <time name="dav">   34.52   34.61</time>
   <time name="total">   35.12   35.22</time>
   <energy>
    <i name="e_fr_energy">   -191.15823544 </i>
    <i name="e_wo_entrp">   -190.95726216 </i>
    <i name="e_0_energy">   -191.05774880 </i>
   </energy>
  </scstep>
  <scstep>
   <time name="dav">   31.22   31.29</time>
   <time name="total">   31.82   31.90</time>
   <energy>
    <i name="e_fr_energy">   -191.07455752 </i>
    <i name="e_wo_entrp">   -190.86326757 </i>
    <i name="e_0_energy">   -190.96891254 </i>
   </energy>
  </scstep>
  <scstep>
   <time name="dav">   33.56   33.64</time>
   <time name="total">   34.17   34.25</time>
   <energy>
    <i name="e_fr_energy">   -190.75781541 </i>
    <i name="e_wo_entrp">   -190.55834569 </i>
    <i name="e_0_energy">   -190.65808055 </i>
   </energy>
  </scstep>
  <scstep>
   <time name="dav">   31.53   31.60</time>
   <time name="total">   32.13   32.21</time>
   <energy>
    <i name="e_fr_energy">   -190.74314452 </i>
    <i name="e_wo_entrp">   -190.54585030 </i>
    <i name="e_0_energy">   -190.64449741 </i>
   </energy>
  </scstep>
  <scstep>
   <time name="dav">   31.63   31.70</time>
   <time name="total">   32.23   32.32</time>
   <energy>
    <i name="e_fr_energy">   -190.63919269 </i>
    <i name="e_wo_entrp">   -190.43773563 </i>
    <i name="e_0_energy">   -190.53846416 </i>
   </energy>
  </scstep>
  <scstep>
   <time name="dav">   32.27   32.35</time>
   <time name="total">   32.87   32.96</time>
   <energy>
    <i name="e_fr_energy">   -190.63285522 </i>
    <i name="e_wo_entrp">   -190.43340568 </i>
    <i name="e_0_energy">   -190.53313045 </i>
   </energy>
  </scstep>
  <scstep>
   <time name="dav">   30.03   30.10</time>
   <time name="total">   30.63   30.72</time>
   <energy>
    <i name="e_fr_energy">   -190.63162039 </i>
    <i name="e_wo_entrp">   -190.43199259 </i>
    <i name="e_0_energy">   -190.53180649 </i>
   </energy>
  </scstep>
  <scstep>
   <time name="dav">   30.40   30.47</time>
   <time name="total">   31.00   31.08</time>
   <energy>
    <i name="e_fr_energy">   -190.62857265 </i>
    <i name="e_wo_entrp">   -190.42889819 </i>
    <i name="e_0_energy">   -190.52873542 </i>
   </energy>
  </scstep>
  <scstep>
   <time name="dav">   27.05   27.12</time>
   <time name="total">   27.66   27.73</time>
   <energy>
    <i name="e_fr_energy">   -190.62893391 </i>
    <i name="e_wo_entrp">   -190.42910532 </i>
    <i name="e_0_energy">   -190.52901962 </i>
   </energy>
  </scstep>
  <scstep>
   <time name="dav">   28.63   28.70</time>
   <time name="total">   29.15   29.23</time>
   <energy>
    <i name="e_fr_energy">   -190.62873764 </i>
    <i name="e_wo_entrp">   -190.42902256 </i>
    <i name="e_0_energy">   -190.52888010 </i>
   </energy>
  </scstep>
  <scstep>
   <time name="dav">   20.72   20.77</time>
   <time name="total">   20.75   20.81</time>
   <energy>
    <i name="alphaZ">     85.79614762 </i>
    <i name="ewald">  42819.22046315 </i>
    <i name="hartreedc"> -48807.45082568 </i>
    <i name="XCdc">   -234.32302005 </i>
    <i name="pawpsdc">   4062.11604750 </i>
    <i name="pawaedc">  -3477.96727438 </i>
    <i name="eentropy">     -0.19966658 </i>
    <i name="bandstr">  -1399.26313723 </i>
    <i name="atom">   6761.44252427 </i>
    <i name="e_fr_energy">   -190.62874138 </i>
    <i name="e_wo_entrp">   -190.42907480 </i>
    <i name="e_0_energy">   -190.52890809 </i>
   </energy>
  </scstep>
  <structure>
   <crystal>
    <varray name="basis" >
     <v>       8.48728314       4.90066044       0.00000000 </v>
     <v>      -8.48674001       4.89973104       0.00000000 </v>
     <v>       0.00000000       0.00000000      30.00000000 </v>
    </varray>
    <i name="volume">   2495.28106878 </i>
    <varray name="rec_basis" >
     <v>       0.05890797       0.10203348       0.00000000 </v>
     <v>      -0.05891914       0.10204001       0.00000000 </v>
     <v>       0.00000000       0.00000000       0.03333333 </v>
    </varray>
   </crystal>
   <varray name="positions" >
    <v>       0.66081532       0.32800178       0.00021604 </v>
    <v>       0.66431458       0.66684420      -0.00027023 </v>
    <v>       0.00253219       0.00306253      -0.00021586 </v>
    <v>       0.66195718      -0.00073918      -0.00024323 </v>
    <v>       0.33200047       0.32979901       0.00026335 </v>
    <v>       0.33669724       0.00151688       0.00024488 </v>
    <v>       1.00107201       0.33081928       0.00001442 </v>
    <v>       0.00444980       0.66954164      -0.00004332 </v>
    <v>       0.33565956       0.67067147      -0.00002865 </v>
    <v>       0.10738990       0.21658095       0.95006417 </v>
    <v>       0.21615950       0.10781281       0.04969871 </v>
    <v>       0.11123415       0.55530781       0.94932046 </v>
    <v>       0.22161351       0.44519062       0.05049137 </v>
    <v>       0.10752951       0.89081818       0.95054239 </v>
    <v>       0.22185878       0.77678191       0.05107821 </v>
    <v>       0.45023900       0.22519444       0.95018464 </v>
    <v>       0.55851426       0.11715539       0.05017249 </v>
    <v>       0.44934901       0.55870591       0.95066736 </v>
    <v>       0.56111586       0.44693590       0.04813142 </v>
    <v>       0.44343970       0.88759247       0.94874848 </v>
    <v>       0.55737872       0.77420502       0.04970178 </v>
    <v>       0.77604918       0.22599971       0.95062290 </v>
    <v>       0.89203297       0.10893744       0.04927401 </v>
    <v>       0.77358523       0.55346986       0.95248189 </v>
    <v>       0.88414365       0.44209230       0.04890550 </v>
    <v>       0.78038775       0.88612255       0.95213405 </v>
    <v>       0.88669542       0.77979358       0.04784266 </v>
   </varray>
  </structure>
  <varray name="forces" >
   <v>       0.00266411      -0.41829281      -0.04601671 </v>
   <v>      -0.19763462      -0.09874160      -0.04709330 </v>
   <v>      -0.06781467       0.28786104       0.04490719 </v>
   <v>      -0.33903692      -0.30937656       0.00377058 </v>
   <v>       0.01724538      -0.27611111       0.01104567 </v>
   <v>       0.29290593       0.06331292      -0.02496107 </v>
   <v>       0.24655241       0.09624488       0.05506592 </v>
   <v>       0.27297581       0.34141570      -0.01115390 </v>
   <v>      -0.30625377       0.19046686      -0.00314930 </v>
   <v>       0.05267960      -0.04615240      -0.48145211 </v>
   <v>       0.01827584      -0.05725102       0.40290006 </v>
   <v>       0.06383005       0.01985052      -0.34259327 </v>
   <v>       0.01583815       0.04890882       0.28169893 </v>
   <v>      -0.01403009       0.05874751      -0.33008111 </v>
   <v>       0.00367386       0.08166830       0.49948401 </v>
   <v>       0.01661552       0.02716037      -0.39475782 </v>
   <v>      -0.03615706       0.03187812       0.56217524 </v>
   <v>       0.01648585       0.00138122      -0.26114797 </v>
   <v>       0.00223459       0.00882992       0.32275072 </v>
   <v>      -0.03502246       0.01381202      -0.54318440 </v>
   <v>       0.01353763       0.02182821       0.38297665 </v>
   <v>      -0.03754072      -0.00256209      -0.27030808 </v>
   <v>       0.01818758      -0.07265281       0.22894684 </v>
   <v>       0.03139160      -0.00767809      -0.08524798 </v>
   <v>      -0.02366900      -0.03283114       0.13257112 </v>
   <v>      -0.01693029       0.00679271      -0.23955599 </v>
   <v>      -0.01100430       0.02149050       0.15241006 </v>
  </varray>
  <varray name="stress" >
   <v>      -5.90214723       0.00617768      -0.06953330 </v>
   <v>       0.00617760      -5.90553199      -0.01623351 </v>
   <v>      -0.06953306      -0.01623335       4.45563769 </v>
  </varray>
  <energy>
   <i name="e_fr_energy">   -190.62874138 </i>
   <i name="e_wo_entrp">   -190.52890809 </i>
   <i name="e_0_energy">     -0.19966658 </i>
  </energy>
  <time name="totalsc">  404.55  405.61</time>
 </calculation>
 <calculation>
  <scstep>
   <time name="dav">   22.78   22.84</time>
   <time name="total">   23.29   23.35</time>
   <energy>
    <i name="alphaZ">     90.38547371 </i>
    <i name="ewald">  44759.63337587 </i>
    <i name="hartreedc"> -50805.94572807 </i>
    <i name="XCdc">   -231.68993588 </i>
    <i name="pawpsdc">   4062.06855981 </i>
    <i name="pawaedc">  -3477.91564898 </i>
    <i name="eentropy">     -0.17567336 </i>
    <i name="bandstr">  -1349.88286192 </i>
    <i name="atom">   6761.44252427 </i>
    <i name="e_fr_energy">   -192.07991455 </i>
    <i name="e_wo_entrp">   -191.90424118 </i>
    <i name="e_0_energy">   -191.99207786 </i>
   </energy>
  </scstep>
  <scstep>
   <time name="dav">   32.37   32.45</time>
   <time name="total">   32.88   32.96</time>
   <energy>
    <i name="e_fr_energy">   -191.88426267 </i>
    <i name="e_wo_entrp">   -191.69807158 </i>
    <i name="e_0_energy">   -191.79116712 </i>
   </energy>
  </scstep>
  <scstep>
   <time name="dav">   28.72   28.79</time>
   <time name="total">   29.23   29.31</time>
   <energy>
    <i name="e_fr_energy">   -192.16902288 </i>
    <i name="e_wo_entrp">   -191.96807860 </i>
    <i name="e_0_energy">   -192.06855074 </i>
   </energy>
  </scstep>
  <scstep>
   <time name="dav">   31.31   31.38</time>
   <time name="total">   31.82   31.90</time>
   <energy>
    <i name="e_fr_energy">   -191.53138429 </i>
    <i name="e_wo_entrp">   -191.34879244 </i>
    <i name="e_0_energy">   -191.44008836 </i>
   </energy>
  </scstep>
  <scstep>
   <time name="dav">   31.53   31.61</time>
   <time name="total">   32.04   32.12</time>
   <energy>
    <i name="e_fr_energy">   -191.45540220 </i>
    <i name="e_wo_entrp">   -191.27635080 </i>
    <i name="e_0_energy">   -191.36587650 </i>
   </energy>
  </scstep>
  <scstep>
   <time name="dav">   31.62   31.70</time>
   <time name="total">   32.13   32.22</time>
   <energy>
    <i name="e_fr_energy">   -191.26511187 </i>
    <i name="e_wo_entrp">   -191.08004544 </i>
    <i name="e_0_energy">   -191.17257865 </i>
   </energy>
  </scstep>
  <scstep>
   <time name="dav">   31.35   31.42</time>
   <time name="total">   31.85   31.94</time>
   <energy>
    <i name="e_fr_energy">   -191.25843650 </i>
    <i name="e_wo_entrp">   -191.07435758 </i>
    <i name="e_0_energy">   -191.16639704 </i>
   </energy>
  </scstep>
  <scstep>
   <time name="dav">   27.96   28.03</time>
   <time name="total">   28.47   28.55</time>
   <energy>
    <i name="e_fr_energy">   -191.25344263 </i>
    <i name="e_wo_entrp">   -191.06930146 </i>
    <i name="e_0_energy">   -191.16137204 </i>
   </energy>
  </scstep>
  <scstep>
   <time name="dav">   32.46   32.54</time>
   <time name="total">   32.97   33.05</time>
   <energy>
    <i name="e_fr_energy">   -191.25440762 </i>
    <i name="e_wo_entrp">   -191.07026568 </i>
    <i name="e_0_energy">   -191.16233665 </i>
   </energy>
  </scstep>
  <scstep>
   <time name="dav">   29.40   29.47</time>
   <time name="total">   29.90   29.99</time>
   <energy>
    <i name="e_fr_energy">   -191.25349058 </i>
    <i name="e_wo_entrp">   -191.06933948 </i>
    <i name="e_0_energy">   -191.16141503 </i>
   </energy>
  </scstep>
  <scstep>
   <time name="dav">   27.63   27.70</time>
   <time name="total">   27.67   27.75</time>
   <energy>
    <i name="alphaZ">     90.38547371 </i>
    <i name="ewald">  44759.63337587 </i>
    <i name="hartreedc"> -50769.58112808 </i>
    <i name="XCdc">   -233.33135059 </i>
    <i name="pawpsdc">   4083.41470398 </i>
    <i name="pawaedc">  -3499.33224970 </i>
    <i name="eentropy">     -0.18428844 </i>
    <i name="bandstr">  -1383.70045424 </i>
    <i name="atom">   6761.44252427 </i>
    <i name="e_fr_energy">   -191.25339322 </i>
    <i name="e_wo_entrp">   -191.06910478 </i>
    <i name="e_0_energy">   -191.16124900 </i>
   </energy>
  </scstep>
  <structure>
   <crystal>
    <varray name="basis" >
     <v>       8.26897859       4.77513358       0.00000000 </v>
     <v>      -8.26802162       4.77348695       0.00000000 </v>
     <v>       0.00000000       0.00000000      30.00000000 </v>
    </varray>
    <i name="volume">   2368.58307157 </i>
    <varray name="rec_basis" >
     <v>       0.06046003       0.10472111       0.00000000 </v>
     <v>      -0.06048089       0.10473323       0.00000000 </v>
     <v>       0.00000000       0.00000000       0.03333333 </v>
    </varray>
   </crystal>
   <varray name="positions" >
    <v>       0.65553821       0.32260825       0.00002650 </v>
    <v>       0.66154027       0.66703434      -0.00048135 </v>
    <v>       0.00575010       0.00727555      -0.00003342 </v>
    <v>       0.65551539      -0.00216985      -0.00023576 </v>
    <v>       0.32853624       0.32620723       0.00030912 </v>
    <v>       0.33962935       0.00013067       0.00012243 </v>
    <v>       1.00416332       0.33037402       0.00028064 </v>
    <v>       0.01095767       0.67178203      -0.00008637 </v>
    <v>       0.33569243       0.67522351      -0.00004122 </v>
    <v>       0.10710466       0.21506499       0.94745204 </v>
    <v>       0.21503285       0.10668526       0.05197005 </v>
    <v>       0.11191424       0.55510927       0.94725407 </v>
    <v>       0.22236188       0.44559062       0.05230132 </v>
    <v>       0.10807077       0.89211054       0.94856566 </v>
    <v>       0.22295628       0.77789792       0.05380251 </v>
    <v>       0.45118694       0.22567271       0.94793684 </v>
    <v>       0.55894864       0.11831819       0.05312119 </v>
    <v>       0.45004769       0.55869206       0.94899139 </v>
    <v>       0.56175385       0.44733227       0.04998570 </v>
    <v>       0.44338466       0.88822555       0.94582479 </v>
    <v>       0.55825022       0.77427311       0.05192061 </v>
    <v>       0.77533072       0.22642667       0.94887239 </v>
    <v>       0.89137593       0.10745025       0.05083924 </v>
    <v>       0.77307116       0.55282036       0.95160493 </v>
    <v>       0.88298996       0.44155820       0.05003579 </v>
    <v>       0.78058950       0.88606584       0.95064694 </v>
    <v>       0.88652153       0.78045489       0.04901386 </v>
   </varray>
  </structure>
  <varray name="forces" >
   <v>      -0.07561947      -0.33205373       0.00855861 </v>
   <v>      -0.14936452      -0.09481681      -0.02804538 </v>
   <v>      -0.05607333       0.26146804       0.02387842 </v>
   <v>      -0.18403103      -0.25195499       0.03158279 </v>
   <v>      -0.02206038      -0.22282687       0.01389035 </v>
   <v>       0.23269753      -0.09032061       0.00735901 </v>
   <v>       0.24272345       0.21506448      -0.01965451 </v>
   <v>       0.20361240       0.30781327      -0.01303270 </v>
   <v>      -0.31915199       0.11517079      -0.02600727 </v>
   <v>       0.00609067       0.02419169      -0.17056729 </v>
   <v>       0.12854555       0.04088924       0.07025370 </v>
   <v>       0.10946197       0.04311981      -0.12570872 </v>
   <v>       0.06242198       0.13644832       0.02739873 </v>
   <v>       0.07901469       0.08203046      -0.02778753 </v>
   <v>       0.00258845       0.13844522       0.26355996 </v>
   <v>      -0.02775439      -0.11899349      -0.09814519 </v>
   <v>      -0.00032661      -0.08656279       0.16267352 </v>
   <v>      -0.10097220      -0.11505918       0.05142144 </v>
   <v>      -0.02488569      -0.10978612       0.01698366 </v>
   <v>      -0.02045754       0.02025252      -0.25250353 </v>
   <v>      -0.10796663      -0.00775999       0.07644608 </v>
   <v>       0.07646634      -0.03289637       0.10461162 </v>
   <v>      -0.09243023      -0.11343414      -0.07413458 </v>
   <v>       0.09767311       0.06149967       0.18469535 </v>
   <v>       0.02858747       0.03311362      -0.15992879 </v>
   <v>      -0.16365225       0.03978761       0.05852529 </v>
   <v>       0.07486265       0.05717035      -0.10632302 </v>
  </varray>
  <varray name="stress" >
   <v>      -0.03833606       0.10903124       0.01659658 </v>
   <v>       0.10903130      -0.13946044       0.09767462 </v>
   <v>       0.01659655       0.09767475      -0.44175159 </v>
  </varray>
  <energy>
   <i name="e_fr_energy">   -191.25339322 </i>
   <i name="e_wo_entrp">   -191.16124900 </i>
   <i name="e_0_energy">     -0.18428844 </i>
  </energy>
  <time name="totalsc">  375.80  376.79</time>
 </calculation>
 <calculation>
  <scstep>
   <time name="dav">   22.81   22.86</time>
   <time name="total">   23.32   23.38</time>
   <energy>
    <i name="alphaZ">     90.44387925 </i>
    <i name="ewald">  44771.60448473 </i>
    <i name="hartreedc"> -50782.88004693 </i>
    <i name="XCdc">   -233.35379573 </i>
    <i name="pawpsdc">   4083.87472390 </i>
    <i name="pawaedc">  -3499.79000658 </i>
    <i name="eentropy">     -0.18955868 </i>
    <i name="bandstr">  -1382.46601437 </i>
    <i name="atom">   6761.44252427 </i>
    <i name="e_fr_energy">   -191.31381014 </i>
    <i name="e_wo_entrp">   -191.12425146 </i>
    <i name="e_0_energy">   -191.21903080 </i>
   </energy>
  </scstep>
  <scstep>
   <time name="dav">   34.27   34.35</time>
   <time name="total">   34.78   34.87</time>
   <energy>
    <i name="e_fr_energy">   -191.37039839 </i>
    <i name="e_wo_entrp">   -191.17339369 </i>
    <i name="e_0_energy">   -191.27189604 </i>
   </energy>
  </scstep>
  <scstep>
   <time name="dav">   30.60   30.68</time>
   <time name="total">   31.11   31.20</time>
   <energy>
    <i name="e_fr_energy">   -191.32349943 </i>
    <i name="e_wo_entrp">   -191.13315182 </i>
    <i name="e_0_energy">   -191.22832563 </i>
   </energy>
  </scstep>
  <scstep>
   <time name="dav">   29.85   29.92</time>
   <time name="total">   30.36   30.44</time>
   <energy>
    <i name="e_fr_energy">   -191.32317251 </i>
    <i name="e_wo_entrp">   -191.13295871 </i>
    <i name="e_0_energy">   -191.22806561 </i>
   </energy>
  </scstep>
  <scstep>
   <time name="dav">   29.75   29.82</time>
   <time name="total">   30.26   30.34</time>
   <energy>
    <i name="e_fr_energy">   -191.32028782 </i>
    <i name="e_wo_entrp">   -191.12942458 </i>
    <i name="e_0_energy">   -191.22485620 </i>
   </energy>
  </scstep>
  <scstep>
   <time name="dav">   29.19   29.26</time>
   <time name="total">   29.70   29.78</time>
   <energy>
    <i name="e_fr_energy">   -191.31979949 </i>
    <i name="e_wo_entrp">   -191.12895580 </i>
    <i name="e_0_energy">   -191.22437765 </i>
   </energy>
  </scstep>
  <scstep>
   <time name="dav">   30.32   30.39</time>
   <time name="total">   30.82   30.91</time>
   <energy>
    <i name="e_fr_energy">   -191.32015108 </i>
    <i name="e_wo_entrp">   -191.12926867 </i>
    <i name="e_0_energy">   -191.22470987 </i>
   </energy>
  </scstep>
  <scstep>
   <time name="dav">   25.90   25.97</time>
   <time name="total">   26.41   26.49</time>
   <energy>
    <i name="e_fr_energy">   -191.31966512 </i>
    <i name="e_wo_entrp">   -191.12877433 </i>
    <i name="e_0_energy">   -191.22421973 </i>
   </energy>
  </scstep>
  <scstep>
   <time name="dav">   18.67   18.72</time>
   <time name="total">   18.71   18.76</time>
   <energy>
    <i name="alphaZ">     90.44387925 </i>
    <i name="ewald">  44771.60448473 </i>
    <i name="hartreedc"> -50783.42413579 </i>
    <i name="XCdc">   -233.35634303 </i>
    <i name="pawpsdc">   4082.68773243 </i>
    <i name="pawaedc">  -3498.57669256 </i>
    <i name="eentropy">     -0.19085496 </i>
    <i name="bandstr">  -1381.95022181 </i>
    <i name="atom">   6761.44252427 </i>
    <i name="e_fr_energy">   -191.31962746 </i>
    <i name="e_wo_entrp">   -191.12877250 </i>
    <i name="e_0_energy">   -191.22419998 </i>
   </energy>
  </scstep>
  <structure>
   <crystal>
    <varray name="basis" >
     <v>       8.26880930       4.77535474       0.00000000 </v>
     <v>      -8.26507532       4.76889913       0.00000000 </v>
     <v>       0.00000000       0.00000000      30.00000000 </v>
    </varray>
    <i name="volume">   2367.05352217 </i>
    <varray name="rec_basis" >
     <v>       0.06044095       0.10475144       0.00000000 </v>
     <v>      -0.06052277       0.10479876       0.00000000 </v>
     <v>       0.00000000       0.00000000       0.03333333 </v>
    </varray>
   </crystal>
   <varray name="positions" >
    <v>       0.65359392       0.32110803       0.00003935 </v>
    <v>       0.66060178       0.66699172      -0.00052808 </v>
    <v>       0.00693589       0.00879710       0.00000632 </v>
    <v>       0.65365377      -0.00292041      -0.00018450 </v>
    <v>       0.32731602       0.32511649       0.00033191 </v>
    <v>       0.33986989      -0.00102267       0.00013363 </v>
    <v>       1.00599125       0.33075389       0.00025035 </v>
    <v>       0.01316252       0.67276390      -0.00010774 </v>
    <v>       0.33533993       0.67677501      -0.00008349 </v>
    <v>       0.10724403       0.21516012       0.94715872 </v>
    <v>       0.21561151       0.10650812       0.05209868 </v>
    <v>       0.11245982       0.55500580       0.94703644 </v>
    <v>       0.22324531       0.44610433       0.05235801 </v>
    <v>       0.10872410       0.89230481       0.94850754 </v>
    <v>       0.22367580       0.77860264       0.05424747 </v>
    <v>       0.45050560       0.22515131       0.94776305 </v>
    <v>       0.55850985       0.11788598       0.05340357 </v>
    <v>       0.44916982       0.55840298       0.94906351 </v>
    <v>       0.56112627       0.44684907       0.05002530 </v>
    <v>       0.44342748       0.88839323       0.94539660 </v>
    <v>       0.55789945       0.77455140       0.05205910 </v>
    <v>       0.77538267       0.22603684       0.94903027 </v>
    <v>       0.89052250       0.10713435       0.05072974 </v>
    <v>       0.77366702       0.55284163       0.95189794 </v>
    <v>       0.88323456       0.44163889       0.04978456 </v>
    <v>       0.78031264       0.88674924       0.95073197 </v>
    <v>       0.88703105       0.78053068       0.04884969 </v>
   </varray>
  </structure>
  <varray name="forces" >
   <v>      -0.13660634      -0.35322441      -0.01029125 </v>
   <v>      -0.15039072      -0.10398479      -0.05409389 </v>
   <v>      -0.06168511       0.25277999       0.03429518 </v>
   <v>      -0.17425510      -0.29404652       0.00357808 </v>
   <v>       0.00800268      -0.22701885       0.00088388 </v>
   <v>       0.21497605      -0.07997190      -0.02321250 </v>
   <v>       0.27582631       0.25570352       0.02557100 </v>
   <v>       0.21463356       0.33374021       0.00678847 </v>
   <v>      -0.31866264       0.11803837      -0.02127107 </v>
   <v>       0.01758587       0.01387113      -0.17034071 </v>
   <v>       0.09304126       0.01129698       0.06051172 </v>
   <v>       0.07285218       0.03866193      -0.11430778 </v>
   <v>       0.04260886       0.11790652       0.01103195 </v>
   <v>       0.04831870       0.05662044      -0.03846212 </v>
   <v>       0.00794031       0.08972042       0.23600745 </v>
   <v>      -0.01422248      -0.09356621      -0.05893502 </v>
   <v>      -0.00944126      -0.06228481       0.14263549 </v>
   <v>      -0.08393071      -0.08624815       0.07092247 </v>
   <v>      -0.00992090      -0.07933732       0.00753242 </v>
   <v>      -0.02006006       0.00914951      -0.20713222 </v>
   <v>      -0.07386198      -0.02172362       0.07063345 </v>
   <v>       0.04969162       0.00006270       0.14886009 </v>
   <v>      -0.06512668      -0.05944045      -0.10515964 </v>
   <v>       0.08317372       0.04945262       0.21585577 </v>
   <v>       0.03575419       0.02820716      -0.19762497 </v>
   <v>      -0.10651454       0.03759879       0.09783464 </v>
   <v>       0.06027322       0.04803670      -0.13211090 </v>
  </varray>
  <varray name="stress" >
   <v>       0.03268564       0.03069176       0.03808677 </v>
   <v>       0.03069191       0.01404092       0.05485804 </v>
   <v>       0.03808676       0.05485782      -1.01516554 </v>
  </varray>
  <energy>
   <i name="e_fr_energy">   -191.31962746 </i>
   <i name="e_wo_entrp">   -191.22419998 </i>
   <i name="e_0_energy">     -0.19085496 </i>
  </energy>
  <time name="totalsc">  299.05  299.85</time>
 </calculation>
 <calculation>
  <scstep>
   <time name="dav">   22.79   22.85</time>
   <time name="total">   23.30   23.36</time>
   <energy>
    <i name="alphaZ">     90.42921357 </i>
    <i name="ewald">  44762.38497279 </i>
    <i name="hartreedc"> -50774.17028645 </i>
    <i name="XCdc">   -233.37717564 </i>
    <i name="pawpsdc">   4082.68978482 </i>
    <i name="pawaedc">  -3498.57904986 </i>
    <i name="eentropy">     -0.19373367 </i>
    <i name="bandstr">  -1381.98658770 </i>
    <i name="atom">   6761.44252427 </i>
    <i name="e_fr_energy">   -191.36033786 </i>
    <i name="e_wo_entrp">   -191.16660419 </i>
    <i name="e_0_energy">   -191.26347103 </i>
   </energy>
  </scstep>
  <scstep>
   <time name="dav">   34.65   34.74</time>
   <time name="total">   35.16   35.25</time>
   <energy>
    <i name="e_fr_energy">   -191.38245843 </i>
    <i name="e_wo_entrp">   -191.18265787 </i>
    <i name="e_0_energy">   -191.28255815 </i>
   </energy>
  </scstep>
  <scstep>
   <time name="dav">   30.80   30.87</time>
   <time name="total">   31.31   31.39</time>
   <energy>
    <i name="e_fr_energy">   -191.36354002 </i>
    <i name="e_wo_entrp">   -191.16928779 </i>
    <i name="e_0_energy">   -191.26641391 </i>
   </energy>
  </scstep>
  <scstep>
   <time name="dav">   29.58   29.65</time>
   <time name="total">   30.09   30.18</time>
   <energy>
    <i name="e_fr_energy">   -191.36367578 </i>
    <i name="e_wo_entrp">   -191.16944164 </i>
    <i name="e_0_energy">   -191.26655871 </i>
   </energy>
  </scstep>
  <scstep>
   <time name="dav">   29.37   29.44</time>
   <time name="total">   29.88   29.96</time>
   <energy>
    <i name="e_fr_energy">   -191.36241816 </i>
    <i name="e_wo_entrp">   -191.16765601 </i>
    <i name="e_0_energy">   -191.26503709 </i>
   </energy>
  </scstep>
  <scstep>
   <time name="dav">   27.97   28.04</time>
   <time name="total">   28.48   28.55</time>
   <energy>
    <i name="e_fr_energy">   -191.36224097 </i>
    <i name="e_wo_entrp">   -191.16751451 </i>
    <i name="e_0_energy">   -191.26487774 </i>
   </energy>
  </scstep>
  <scstep>
   <time name="dav">   26.02   26.08</time>
   <time name="total">   26.53   26.60</time>
   <energy>
    <i name="e_fr_energy">   -191.36234422 </i>
    <i name="e_wo_entrp">   -191.16762802 </i>
    <i name="e_0_energy">   -191.26498612 </i>
   </energy>
  </scstep>
  <scstep>
   <time name="dav">   23.65   23.70</time>
   <time name="total">   24.15   24.22</time>
   <energy>
    <i name="e_fr_energy">   -191.36219502 </i>
    <i name="e_wo_entrp">   -191.16746997 </i>
    <i name="e_0_energy">   -191.26483250 </i>
   </energy>
  </scstep>
  <scstep>
   <time name="dav">   19.20   19.25</time>
   <time name="total">   19.24   19.30</time>
   <energy>
    <i name="alphaZ">     90.42921357 </i>
    <i name="ewald">  44762.38497279 </i>
    <i name="hartreedc"> -50774.82521137 </i>
    <i name="XCdc">   -233.35846691 </i>
[...]
      <set comment="kpoint 31">
       <r>  -17.5832    1.0000 </r>
       <r>  -17.2992    1.0000 </r>
       <r>  -16.8936    1.0000 </r>
       <r>  -16.7021    1.0000 </r>
       <r>  -16.5590    1.0000 </r>
       <r>  -16.4667    1.0000 </r>
       <r>  -16.3186    1.0000 </r>
       <r>  -16.2261    1.0000 </r>
       <r>  -16.1884    1.0000 </r>
       <r>  -16.0946    1.0000 </r>
       <r>  -15.8921    1.0000 </r>
       <r>  -15.8515    1.0000 </r>
       <r>  -15.7509    1.0000 </r>
       <r>  -15.6060    1.0000 </r>
       <r>  -15.5269    1.0000 </r>
       <r>  -15.4401    1.0000 </r>
       <r>  -15.3350    1.0000 </r>
       <r>  -15.2559    1.0000 </r>
       <r>   -9.8389    1.0000 </r>
       <r>   -9.5250    1.0000 </r>
       <r>   -9.3660    1.0000 </r>
       <r>   -9.0476    1.0000 </r>
       <r>   -8.7996    1.0000 </r>
       <r>   -8.7262    1.0000 </r>
       <r>   -8.6224    1.0000 </r>
       <r>   -8.6038    1.0000 </r>
       <r>   -8.4251    1.0000 </r>
       <r>   -8.3344    1.0000 </r>
       <r>   -8.2198    1.0000 </r>
       <r>   -8.1660    1.0000 </r>
       <r>   -8.1298    1.0000 </r>
       <r>   -8.0554    1.0000 </r>
       <r>   -7.9886    1.0000 </r>
       <r>   -7.9201    1.0000 </r>
       <r>   -7.8464    1.0000 </r>
       <r>   -7.7083    1.0000 </r>
       <r>   -7.5767    1.0000 </r>
       <r>   -7.5010    1.0000 </r>
       <r>   -7.4086    1.0000 </r>
       <r>   -7.2926    1.0000 </r>
       <r>   -7.1502    1.0000 </r>
       <r>   -6.9985    1.0000 </r>
       <r>   -6.9398    1.0000 </r>
       <r>   -6.8950    1.0000 </r>
       <r>   -6.8353    1.0000 </r>
       <r>   -6.7670    1.0000 </r>
       <r>   -6.6570    1.0000 </r>
       <r>   -6.6027    1.0000 </r>
       <r>   -6.5276    1.0000 </r>
       <r>   -6.4849    1.0000 </r>
       <r>   -6.4589    1.0000 </r>
       <r>   -6.3360    1.0000 </r>
       <r>   -6.2838    1.0000 </r>
       <r>   -6.2019    1.0000 </r>
       <r>   -6.1023    1.0000 </r>
       <r>   -6.0479    1.0000 </r>
       <r>   -6.0042    1.0000 </r>
       <r>   -5.9541    1.0000 </r>
       <r>   -5.8025    1.0000 </r>
       <r>   -5.7286    1.0000 </r>
       <r>   -5.6445    1.0000 </r>
       <r>   -5.5391    1.0000 </r>
       <r>   -5.4501    1.0000 </r>
       <r>   -5.4356    1.0000 </r>
       <r>   -5.1712    1.0000 </r>
       <r>   -5.0702    1.0000 </r>
       <r>   -5.0349    1.0000 </r>
       <r>   -4.8708    1.0000 </r>
       <r>   -4.7877    1.0000 </r>
       <r>   -4.6715    1.0000 </r>
       <r>   -4.6188    1.0000 </r>
       <r>   -4.4978    1.0000 </r>
       <r>   -4.2848    1.0000 </r>
       <r>   -4.1943    1.0000 </r>
       <r>   -4.1094    1.0000 </r>
       <r>   -3.9642    1.0000 </r>
       <r>   -3.8424    1.0000 </r>
       <r>   -3.7335    0.9999 </r>
       <r>   -3.5812    0.9947 </r>
       <r>   -3.1725    0.3686 </r>
       <r>   -2.9921    0.0535 </r>
       <r>   -2.8208    0.0024 </r>
       <r>   -2.7033    0.0001 </r>
       <r>   -2.5961    0.0000 </r>
       <r>   -2.5221    0.0000 </r>
       <r>   -2.3887    0.0000 </r>
       <r>   -2.2723    0.0000 </r>
       <r>   -2.0921    0.0000 </r>
       <r>   -1.9439    0.0000 </r>
       <r>   -1.8714    0.0000 </r>
       <r>   -1.7746    0.0000 </r>
       <r>   -1.5403    0.0000 </r>
       <r>   -1.3119    0.0000 </r>
       <r>   -1.2550    0.0000 </r>
       <r>   -1.1915    0.0000 </r>
       <r>   -1.1557    0.0000 </r>
       <r>   -1.0475    0.0000 </r>
       <r>   -0.9451    0.0000 </r>
       <r>   -0.9058    0.0000 </r>
       <r>   -0.8163    0.0000 </r>
       <r>   -0.7869    0.0000 </r>
       <r>   -0.7391    0.0000 </r>
       <r>   -0.6457    0.0000 </r>
       <r>   -0.5985    0.0000 </r>
       <r>   -0.5221    0.0000 </r>
       <r>   -0.3509    0.0000 </r>
       <r>   -0.2675    0.0000 </r>
       <r>   -0.0808    0.0000 </r>
       <r>    0.1245    0.0000 </r>
       <r>    0.2060    0.0000 </r>
       <r>    0.4206    0.0000 </r>
       <r>    0.6063    0.0000 </r>
       <r>    0.7397    0.0000 </r>
       <r>    0.7783    0.0000 </r>
       <r>    1.1470    0.0000 </r>
       <r>    1.2532    0.0000 </r>
       <r>    1.5304    0.0000 </r>
       <r>    2.1468    0.0000 </r>
       <r>    2.3002    0.0000 </r>
       <r>    2.3967    0.0000 </r>
      </set>
      <set comment="kpoint 32">
       <r>  -17.5962    1.0000 </r>
       <r>  -17.2441    1.0000 </r>
       <r>  -16.9831    1.0000 </r>
       <r>  -16.7030    1.0000 </r>
       <r>  -16.5510    1.0000 </r>
       <r>  -16.3806    1.0000 </r>
       <r>  -16.2845    1.0000 </r>
       <r>  -16.2444    1.0000 </r>
       <r>  -16.1828    1.0000 </r>
       <r>  -16.1275    1.0000 </r>
       <r>  -15.9532    1.0000 </r>
       <r>  -15.8640    1.0000 </r>
       <r>  -15.7546    1.0000 </r>
       <r>  -15.5634    1.0000 </r>
       <r>  -15.5222    1.0000 </r>
       <r>  -15.4367    1.0000 </r>
       <r>  -15.3411    1.0000 </r>
       <r>  -15.2577    1.0000 </r>
       <r>   -9.7798    1.0000 </r>
       <r>   -9.6220    1.0000 </r>
       <r>   -9.3987    1.0000 </r>
       <r>   -9.0606    1.0000 </r>
       <r>   -8.7006    1.0000 </r>
       <r>   -8.6461    1.0000 </r>
       <r>   -8.5905    1.0000 </r>
       <r>   -8.5006    1.0000 </r>
       <r>   -8.4200    1.0000 </r>
       <r>   -8.3580    1.0000 </r>
       <r>   -8.3023    1.0000 </r>
       <r>   -8.2091    1.0000 </r>
       <r>   -8.1771    1.0000 </r>
       <r>   -8.0960    1.0000 </r>
       <r>   -8.0151    1.0000 </r>
       <r>   -7.9750    1.0000 </r>
       <r>   -7.8529    1.0000 </r>
       <r>   -7.7032    1.0000 </r>
       <r>   -7.5172    1.0000 </r>
       <r>   -7.4538    1.0000 </r>
       <r>   -7.4325    1.0000 </r>
       <r>   -7.2664    1.0000 </r>
       <r>   -7.1688    1.0000 </r>
       <r>   -7.0642    1.0000 </r>
       <r>   -6.9506    1.0000 </r>
       <r>   -6.8983    1.0000 </r>
       <r>   -6.8606    1.0000 </r>
       <r>   -6.7255    1.0000 </r>
       <r>   -6.6703    1.0000 </r>
       <r>   -6.5585    1.0000 </r>
       <r>   -6.5179    1.0000 </r>
       <r>   -6.4897    1.0000 </r>
       <r>   -6.4464    1.0000 </r>
       <r>   -6.3855    1.0000 </r>
       <r>   -6.3403    1.0000 </r>
       <r>   -6.1690    1.0000 </r>
       <r>   -6.0931    1.0000 </r>
       <r>   -6.0305    1.0000 </r>
       <r>   -5.9925    1.0000 </r>
       <r>   -5.8505    1.0000 </r>
       <r>   -5.7639    1.0000 </r>
       <r>   -5.7206    1.0000 </r>
       <r>   -5.6513    1.0000 </r>
       <r>   -5.5658    1.0000 </r>
       <r>   -5.5054    1.0000 </r>
       <r>   -5.3866    1.0000 </r>
       <r>   -5.1629    1.0000 </r>
       <r>   -5.0593    1.0000 </r>
       <r>   -4.9861    1.0000 </r>
       <r>   -4.8612    1.0000 </r>
       <r>   -4.8130    1.0000 </r>
       <r>   -4.7868    1.0000 </r>
       <r>   -4.7126    1.0000 </r>
       <r>   -4.4794    1.0000 </r>
       <r>   -4.2805    1.0000 </r>
       <r>   -4.1782    1.0000 </r>
       <r>   -4.1030    1.0000 </r>
       <r>   -3.9056    1.0000 </r>
       <r>   -3.8557    1.0000 </r>
       <r>   -3.6840    0.9995 </r>
       <r>   -3.6296    0.9981 </r>
       <r>   -3.1406    0.2872 </r>
       <r>   -3.0030    0.0625 </r>
       <r>   -2.8415    0.0037 </r>
       <r>   -2.6870    0.0001 </r>
       <r>   -2.5601    0.0000 </r>
       <r>   -2.5134    0.0000 </r>
       <r>   -2.4193    0.0000 </r>
       <r>   -2.2780    0.0000 </r>
       <r>   -2.1102    0.0000 </r>
       <r>   -1.9767    0.0000 </r>
       <r>   -1.8883    0.0000 </r>
       <r>   -1.7723    0.0000 </r>
       <r>   -1.5042    0.0000 </r>
       <r>   -1.3298    0.0000 </r>
       <r>   -1.2712    0.0000 </r>
       <r>   -1.1918    0.0000 </r>
       <r>   -1.1355    0.0000 </r>
       <r>   -1.0285    0.0000 </r>
       <r>   -0.9825    0.0000 </r>
       <r>   -0.9085    0.0000 </r>
       <r>   -0.8213    0.0000 </r>
       <r>   -0.7671    0.0000 </r>
       <r>   -0.7356    0.0000 </r>
       <r>   -0.6663    0.0000 </r>
       <r>   -0.6227    0.0000 </r>
       <r>   -0.4922    0.0000 </r>
       <r>   -0.3160    0.0000 </r>
       <r>   -0.2172    0.0000 </r>
       <r>   -0.0714    0.0000 </r>
       <r>    0.0803    0.0000 </r>
       <r>    0.1393    0.0000 </r>
       <r>    0.4621    0.0000 </r>
       <r>    0.5706    0.0000 </r>
       <r>    0.6936    0.0000 </r>
       <r>    0.8070    0.0000 </r>
       <r>    1.1484    0.0000 </r>
       <r>    1.2580    0.0000 </r>
       <r>    1.5544    0.0000 </r>
       <r>    2.1159    0.0000 </r>
       <r>    2.2665    0.0000 </r>
       <r>    2.5682    0.0000 </r>
      </set>
      <set comment="kpoint 33">
       <r>  -17.5912    1.0000 </r>
       <r>  -17.2863    1.0000 </r>
       <r>  -16.8926    1.0000 </r>
       <r>  -16.7032    1.0000 </r>
       <r>  -16.5618    1.0000 </r>
       <r>  -16.4783    1.0000 </r>
       <r>  -16.3203    1.0000 </r>
       <r>  -16.2271    1.0000 </r>
       <r>  -16.1728    1.0000 </r>
       <r>  -16.0629    1.0000 </r>
       <r>  -15.9285    1.0000 </r>
       <r>  -15.8670    1.0000 </r>
       <r>  -15.7611    1.0000 </r>
       <r>  -15.5773    1.0000 </r>
       <r>  -15.5202    1.0000 </r>
       <r>  -15.4364    1.0000 </r>
       <r>  -15.3451    1.0000 </r>
       <r>  -15.2591    1.0000 </r>
       <r>   -9.8206    1.0000 </r>
       <r>   -9.5508    1.0000 </r>
       <r>   -9.3358    1.0000 </r>
       <r>   -9.0678    1.0000 </r>
       <r>   -8.8339    1.0000 </r>
       <r>   -8.7068    1.0000 </r>
       <r>   -8.6022    1.0000 </r>
       <r>   -8.5644    1.0000 </r>
       <r>   -8.4328    1.0000 </r>
       <r>   -8.3309    1.0000 </r>
       <r>   -8.2651    1.0000 </r>
       <r>   -8.2066    1.0000 </r>
       <r>   -8.1165    1.0000 </r>
       <r>   -8.0568    1.0000 </r>
       <r>   -7.9710    1.0000 </r>
       <r>   -7.9050    1.0000 </r>
       <r>   -7.8200    1.0000 </r>
       <r>   -7.7263    1.0000 </r>
       <r>   -7.5464    1.0000 </r>
       <r>   -7.5005    1.0000 </r>
       <r>   -7.4101    1.0000 </r>
       <r>   -7.2545    1.0000 </r>
       <r>   -7.1953    1.0000 </r>
       <r>   -7.0988    1.0000 </r>
       <r>   -6.9579    1.0000 </r>
       <r>   -6.8959    1.0000 </r>
       <r>   -6.8392    1.0000 </r>
       <r>   -6.7420    1.0000 </r>
       <r>   -6.6365    1.0000 </r>
       <r>   -6.5712    1.0000 </r>
       <r>   -6.5345    1.0000 </r>
       <r>   -6.5070    1.0000 </r>
       <r>   -6.4288    1.0000 </r>
       <r>   -6.3264    1.0000 </r>
       <r>   -6.3057    1.0000 </r>
       <r>   -6.2160    1.0000 </r>
       <r>   -6.1077    1.0000 </r>
       <r>   -6.0790    1.0000 </r>
       <r>   -5.9626    1.0000 </r>
       <r>   -5.8902    1.0000 </r>
       <r>   -5.8291    1.0000 </r>
       <r>   -5.7238    1.0000 </r>
       <r>   -5.6462    1.0000 </r>
       <r>   -5.4878    1.0000 </r>
       <r>   -5.4673    1.0000 </r>
       <r>   -5.4283    1.0000 </r>
       <r>   -5.1783    1.0000 </r>
       <r>   -5.0790    1.0000 </r>
       <r>   -5.0307    1.0000 </r>
       <r>   -4.9023    1.0000 </r>
       <r>   -4.7792    1.0000 </r>
       <r>   -4.7016    1.0000 </r>
       <r>   -4.6143    1.0000 </r>
       <r>   -4.4780    1.0000 </r>
       <r>   -4.2841    1.0000 </r>
       <r>   -4.1899    1.0000 </r>
       <r>   -4.1156    1.0000 </r>
       <r>   -3.9216    1.0000 </r>
       <r>   -3.8633    1.0000 </r>
       <r>   -3.7131    0.9998 </r>
       <r>   -3.6255    0.9979 </r>
       <r>   -3.1082    0.2146 </r>
       <r>   -3.0109    0.0696 </r>
       <r>   -2.9025    0.0124 </r>
       <r>   -2.6655    0.0000 </r>
       <r>   -2.5572    0.0000 </r>
       <r>   -2.5203    0.0000 </r>
       <r>   -2.4051    0.0000 </r>
       <r>   -2.2522    0.0000 </r>
       <r>   -2.1000    0.0000 </r>
       <r>   -2.0023    0.0000 </r>
       <r>   -1.8757    0.0000 </r>
       <r>   -1.7739    0.0000 </r>
       <r>   -1.4768    0.0000 </r>
       <r>   -1.3326    0.0000 </r>
       <r>   -1.2947    0.0000 </r>
       <r>   -1.1601    0.0000 </r>
       <r>   -1.1280    0.0000 </r>
       <r>   -1.0708    0.0000 </r>
       <r>   -0.9783    0.0000 </r>
       <r>   -0.9048    0.0000 </r>
       <r>   -0.8662    0.0000 </r>
       <r>   -0.7719    0.0000 </r>
       <r>   -0.7375    0.0000 </r>
       <r>   -0.7138    0.0000 </r>
       <r>   -0.5820    0.0000 </r>
       <r>   -0.5580    0.0000 </r>
       <r>   -0.2571    0.0000 </r>
       <r>   -0.1807    0.0000 </r>
       <r>   -0.0639    0.0000 </r>
       <r>    0.0279    0.0000 </r>
       <r>    0.1223    0.0000 </r>
       <r>    0.4529    0.0000 </r>
       <r>    0.5563    0.0000 </r>
       <r>    0.6914    0.0000 </r>
       <r>    0.8559    0.0000 </r>
       <r>    1.1706    0.0000 </r>
       <r>    1.2678    0.0000 </r>
       <r>    1.5728    0.0000 </r>
       <r>    2.1457    0.0000 </r>
       <r>    2.3018    0.0000 </r>
       <r>    2.3937    0.0000 </r>
      </set>
      <set comment="kpoint 34">
       <r>  -17.5832    1.0000 </r>
       <r>  -17.3223    1.0000 </r>
       <r>  -16.7534    1.0000 </r>
       <r>  -16.6972    1.0000 </r>
       <r>  -16.6661    1.0000 </r>
       <r>  -16.5338    1.0000 </r>
       <r>  -16.3261    1.0000 </r>
       <r>  -16.2203    1.0000 </r>
       <r>  -16.1732    1.0000 </r>
       <r>  -16.0419    1.0000 </r>
       <r>  -15.8884    1.0000 </r>
       <r>  -15.8478    1.0000 </r>
       <r>  -15.7703    1.0000 </r>
       <r>  -15.6066    1.0000 </r>
       <r>  -15.5188    1.0000 </r>
       <r>  -15.4365    1.0000 </r>
       <r>  -15.3462    1.0000 </r>
       <r>  -15.2596    1.0000 </r>
       <r>   -9.8515    1.0000 </r>
       <r>   -9.4834    1.0000 </r>
       <r>   -9.2309    1.0000 </r>
       <r>   -9.1095    1.0000 </r>
       <r>   -8.9512    1.0000 </r>
       <r>   -8.7937    1.0000 </r>
       <r>   -8.6173    1.0000 </r>
       <r>   -8.5804    1.0000 </r>
       <r>   -8.4209    1.0000 </r>
       <r>   -8.3276    1.0000 </r>
       <r>   -8.2539    1.0000 </r>
       <r>   -8.1899    1.0000 </r>
       <r>   -8.1035    1.0000 </r>
       <r>   -8.0321    1.0000 </r>
       <r>   -7.9661    1.0000 </r>
       <r>   -7.7805    1.0000 </r>
       <r>   -7.7346    1.0000 </r>
       <r>   -7.7195    1.0000 </r>
       <r>   -7.5800    1.0000 </r>
       <r>   -7.5495    1.0000 </r>
       <r>   -7.4760    1.0000 </r>
       <r>   -7.3019    1.0000 </r>
       <r>   -7.2016    1.0000 </r>
       <r>   -7.0333    1.0000 </r>
       <r>   -6.9658    1.0000 </r>
       <r>   -6.9315    1.0000 </r>
       <r>   -6.7995    1.0000 </r>
       <r>   -6.6848    1.0000 </r>
       <r>   -6.6402    1.0000 </r>
       <r>   -6.5839    1.0000 </r>
       <r>   -6.5578    1.0000 </r>
       <r>   -6.5199    1.0000 </r>
       <r>   -6.3916    1.0000 </r>
       <r>   -6.3436    1.0000 </r>
       <r>   -6.3396    1.0000 </r>
       <r>   -6.2251    1.0000 </r>
       <r>   -6.1478    1.0000 </r>
       <r>   -6.0577    1.0000 </r>
       <r>   -5.9856    1.0000 </r>
       <r>   -5.8857    1.0000 </r>
       <r>   -5.7795    1.0000 </r>
       <r>   -5.7490    1.0000 </r>
       <r>   -5.6353    1.0000 </r>
       <r>   -5.5719    1.0000 </r>
       <r>   -5.5092    1.0000 </r>
       <r>   -5.3716    1.0000 </r>
       <r>   -5.1779    1.0000 </r>
       <r>   -5.0571    1.0000 </r>
       <r>   -5.0108    1.0000 </r>
       <r>   -4.9673    1.0000 </r>
       <r>   -4.7870    1.0000 </r>
       <r>   -4.6111    1.0000 </r>
       <r>   -4.5269    1.0000 </r>
       <r>   -4.4653    1.0000 </r>
       <r>   -4.2792    1.0000 </r>
       <r>   -4.2032    1.0000 </r>
       <r>   -4.1587    1.0000 </r>
       <r>   -3.9576    1.0000 </r>
       <r>   -3.8577    1.0000 </r>
       <r>   -3.7347    0.9999 </r>
       <r>   -3.6170    0.9975 </r>
       <r>   -3.0953    0.1889 </r>
       <r>   -3.0080    0.0670 </r>
       <r>   -2.9412    0.0243 </r>
       <r>   -2.6551    0.0000 </r>
       <r>   -2.5726    0.0000 </r>
       <r>   -2.5251    0.0000 </r>
       <r>   -2.3837    0.0000 </r>
       <r>   -2.2321    0.0000 </r>
       <r>   -2.0864    0.0000 </r>
       <r>   -2.0106    0.0000 </r>
       <r>   -1.8635    0.0000 </r>
       <r>   -1.7790    0.0000 </r>
       <r>   -1.4695    0.0000 </r>
       <r>   -1.3220    0.0000 </r>
       <r>   -1.3076    0.0000 </r>
       <r>   -1.1490    0.0000 </r>
       <r>   -1.1045    0.0000 </r>
       <r>   -1.0968    0.0000 </r>
       <r>   -0.9956    0.0000 </r>
       <r>   -0.9244    0.0000 </r>
       <r>   -0.8208    0.0000 </r>
       <r>   -0.8097    0.0000 </r>
       <r>   -0.7613    0.0000 </r>
       <r>   -0.7372    0.0000 </r>
       <r>   -0.5975    0.0000 </r>
       <r>   -0.5514    0.0000 </r>
       <r>   -0.2390    0.0000 </r>
       <r>   -0.1740    0.0000 </r>
       <r>   -0.0723    0.0000 </r>
       <r>    0.0228    0.0000 </r>
       <r>    0.1316    0.0000 </r>
       <r>    0.4298    0.0000 </r>
       <r>    0.5546    0.0000 </r>
       <r>    0.7062    0.0000 </r>
       <r>    0.8802    0.0000 </r>
       <r>    1.1949    0.0000 </r>
       <r>    1.2648    0.0000 </r>
       <r>    1.5798    0.0000 </r>
       <r>    2.2337    0.0000 </r>
       <r>    2.2417    0.0000 </r>
       <r>    2.4019    0.0000 </r>
      </set>
     </set>
    </set>
   </array>
  </eigenvalues>
  <separator name="orbital magnetization" >
   <v name="MAGDIPOLOUT">      0.00000000      0.00000000      0.00000000</v>
  </separator>
 </calculation>
 <structure name="finalpos" >
  <crystal>
   <varray name="basis" >
    <v>       8.31553428       4.83127602       0.00000000 </v>
    <v>      -8.29379968       4.79372440       0.00000000 </v>
    <v>       0.00000000       0.00000000      30.00000000 </v>
   </varray>
   <i name="volume">   2397.96045346 </i>
   <varray name="rec_basis" >
    <v>       0.05997252       0.10376067       0.00000000 </v>
    <v>      -0.06044231       0.10403259       0.00000000 </v>
    <v>       0.00000000       0.00000000       0.03333333 </v>
   </varray>
  </crystal>
  <varray name="positions" >
   <v>       0.63201407       0.31064523       0.00189130 </v>
   <v>       0.63009004       0.65257316       0.00204523 </v>
   <v>       0.03365382       0.01641690      -0.00217711 </v>
   <v>       0.62816889      -0.01765594       0.00184846 </v>
   <v>       0.32744488       0.31237340       0.00031405 </v>
   <v>       0.33558579      -0.00088745       0.00013418 </v>
   <v>       1.04105324       0.35075746      -0.00292744 </v>
   <v>       0.03392945       0.68683898      -0.00116410 </v>
   <v>       0.33102976       0.68442739       0.00009495 </v>
   <v>       0.11460599       0.21615967       0.94368045 </v>
   <v>       0.21711259       0.10541255       0.05430890 </v>
   <v>       0.11579531       0.56030489       0.94339012 </v>
   <v>       0.23410344       0.44955073       0.05233259 </v>
   <v>       0.11098608       0.89302120       0.94484858 </v>
   <v>       0.22654947       0.78319619       0.05667061 </v>
   <v>       0.44889579       0.22230996       0.94616296 </v>
   <v>       0.55339116       0.11520467       0.05582515 </v>
   <v>       0.44005497       0.55406465       0.94995649 </v>
   <v>       0.55729626       0.44213360       0.05295667 </v>
   <v>       0.43854682       0.88826477       0.94387850 </v>
   <v>       0.55007810       0.77379284       0.05543816 </v>
   <v>       0.77931634       0.22502986       0.95559892 </v>
   <v>       0.89062786       0.11033121       0.04272858 </v>
   <v>       0.77477104       0.55537947       0.95816866 </v>
   <v>       0.88795595       0.44115088       0.04302894 </v>
   <v>       0.77822820       0.88657404       0.95719214 </v>
   <v>       0.88692913       0.78084415       0.04377397 </v>
  </varray>
 </structure>
</modeling>
