unknown system                          
           1
     8.855598    5.106364    0.000000
    -8.854530    5.104526    0.000000
     0.000000    0.000000   30.000000
   V    Mo   W    S 
   3   3   3  18
Direct configuration=     1
   0.66666669  0.33333334  0.00000000
   0.66666669  0.66666669  0.00000000
   0.00000000  0.00000000  0.00000000
   0.66666669  0.00000000  0.00000000
   0.33333334  0.33333334  0.00000000
   0.33333334  0.00000000  0.00000000
   1.00000000  0.33333334  0.00000000
   0.00000000  0.66666669  0.00000000
   0.33333334  0.66666669  0.00000000
   0.11068511  0.22244981  0.95539999
   0.22244981  0.11068511  0.04460000
   0.11068511  0.55578315  0.95539999
   0.22244981  0.44401845  0.04460000
   0.11068511  0.88911647  0.95539999
   0.22244981  0.77735180  0.04460000
   0.44401845  0.22244981  0.95539999
   0.55578315  0.11068511  0.04460000
   0.44401845  0.55578315  0.95539999
   0.55578315  0.44401845  0.04460000
   0.44401845  0.88911647  0.95539999
   0.55578315  0.77735180  0.04460000
   0.77735180  0.22244981  0.95539999
   0.88911647  0.11068511  0.04460000
   0.77735180  0.55578315  0.95539999
   0.88911647  0.44401845  0.04460000
   0.77735180  0.88911647  0.95539999
   0.88911647  0.77735180  0.04460000
unknown system                          
           1
     8.667225    4.999780    0.000000
    -8.666379    4.998326    0.000000
     0.000000    0.000000   30.000000
   V    Mo   W    S 
   3   3   3  18
Direct configuration=     2
   0.66429625  0.33144779  0.00018710
   0.66598621  0.66673575 -0.00004688
   0.00076799  0.00078334 -0.00019381
   0.66550157 -0.00009037 -0.00011303
   0.33361065  0.33192167  0.00011567
   0.33465907  0.00142701  0.00023447
   0.99977218  0.33157315 -0.00019035
   0.00071494  0.66813756 -0.00002144
   0.33503984  0.66815009 -0.00000835
   0.10819080  0.21795283  0.95185362
   0.21773225  0.10880720  0.04804910
   0.11108891  0.55532663  0.95069070
   0.22178890  0.44493587  0.04919053
   0.10797214  0.89026961  0.95199709
   0.22174297  0.77694405  0.04929346
   0.44879034  0.22438221  0.95189302
   0.55765339  0.11558526  0.04813805
   0.44829349  0.55808466  0.95193381
   0.55990532  0.44621220  0.04690301
   0.44383703  0.88772006  0.95076113
   0.55683346  0.77475542  0.04803892
   0.77632929  0.22505908  0.95203159
   0.89161196  0.10952890  0.04799668
   0.77422003  0.55395245  0.95316656
   0.88492221  0.44255794  0.04806246
   0.77990744  0.88666854  0.95308288
   0.88704584  0.77938554  0.04695390
unknown system                          
           1
     8.487283    4.900660    0.000000
    -8.486740    4.899731    0.000000
     0.000000    0.000000   30.000000
   V    Mo   W    S 
   3   3   3  18
Direct configuration=     3
   0.66352837  0.33074505  0.00021317
   0.66568215  0.66675998 -0.00009810
   0.00107215  0.00118079 -0.00021546
   0.66483734 -0.00019937 -0.00015491
   0.33339599  0.33146859  0.00016358
   0.33512834  0.00160392  0.00025935
   0.99992321  0.33126961 -0.00016270
   0.00136082  0.66848599 -0.00002712
   0.33533255  0.66869840 -0.00001466
   0.10798168  0.21790490  0.95179473
   0.21757401  0.10870438  0.04809705
   0.11110230  0.55532782  0.95074797
   0.22165531  0.44504837  0.04913353
   0.10782543  0.89010330  0.95199589
   0.22166867  0.77673040  0.04932015
   0.44894968  0.22448433  0.95182802
   0.55775461  0.11576198  0.04825252
   0.44829281  0.55825464  0.95196414
   0.55999258  0.44626525  0.04688641
   0.44368765  0.88750837  0.95068189
   0.55667438  0.77461683  0.04807945
   0.77652139  0.22525013  0.95203872
   0.89174445  0.10969048  0.04796726
   0.77440020  0.55401812  0.95329277
   0.88506186  0.44260221  0.04793808
   0.77992584  0.88662954  0.95315327
   0.88714068  0.77930045  0.04686492
unknown system                          
           1
     8.268979    4.775134    0.000000
    -8.268022    4.773487    0.000000
     0.000000    0.000000   30.000000
   V    Mo   W    S 
   3   3   3  18
Direct configuration=     4
   0.66081532  0.32800178  0.00021604
   0.66431458  0.66684420 -0.00027023
   0.00253219  0.00306253 -0.00021586
   0.66195718 -0.00073918 -0.00024323
   0.33200047  0.32979901  0.00026335
   0.33669724  0.00151688  0.00024488
   1.00107201  0.33081928  0.00001442
   0.00444980  0.66954164 -0.00004332
   0.33565956  0.67067147 -0.00002865
   0.10738990  0.21658095  0.95006417
   0.21615950  0.10781281  0.04969871
   0.11123415  0.55530781  0.94932046
   0.22161351  0.44519062  0.05049137
   0.10752951  0.89081818  0.95054239
   0.22185878  0.77678191  0.05107821
   0.45023900  0.22519444  0.95018464
   0.55851426  0.11715539  0.05017249
   0.44934901  0.55870591  0.95066736
   0.56111586  0.44693590  0.04813142
   0.44343970  0.88759247  0.94874848
   0.55737872  0.77420502  0.04970178
   0.77604918  0.22599971  0.95062290
   0.89203297  0.10893744  0.04927401
   0.77358523  0.55346986  0.95248189
   0.88414365  0.44209230  0.04890550
   0.78038775  0.88612255  0.95213405
   0.88669542  0.77979358  0.04784266
unknown system                          
           1
     8.268809    4.775355    0.000000
    -8.265075    4.768899    0.000000
     0.000000    0.000000   30.000000
   V    Mo   W    S 
   3   3   3  18
Direct configuration=     5
   0.65553821  0.32260825  0.00002650
   0.66154027  0.66703434 -0.00048135
   0.00575010  0.00727555 -0.00003342
   0.65551539 -0.00216985 -0.00023576
   0.32853624  0.32620723  0.00030912
   0.33962935  0.00013067  0.00012243
   1.00416332  0.33037402  0.00028064
   0.01095767  0.67178203 -0.00008637
   0.33569243  0.67522351 -0.00004122
   0.10710466  0.21506499  0.94745204
   0.21503285  0.10668526  0.05197005
   0.11191424  0.55510927  0.94725407
   0.22236188  0.44559062  0.05230132
   0.10807077  0.89211054  0.94856566
   0.22295628  0.77789792  0.05380251
   0.45118694  0.22567271  0.94793684
   0.55894864  0.11831819  0.05312119
   0.45004769  0.55869206  0.94899139
   0.56175385  0.44733227  0.04998570
   0.44338466  0.88822555  0.94582479
   0.55825022  0.77427311  0.05192061
   0.77533072  0.22642667  0.94887239
   0.89137593  0.10745025  0.05083924
   0.77307116  0.55282036  0.95160493
   0.88298996  0.44155820  0.05003579
   0.78058950  0.88606584  0.95064694
   0.88652153  0.78045489  0.04901386
unknown system                          
           1
     8.269862    4.776100    0.000000
    -8.265627    4.768776    0.000000
     0.000000    0.000000   30.000000
   V    Mo   W    S 
   3   3   3  18
Direct configuration=     6
   0.65359392  0.32110803  0.00003935
   0.66060178  0.66699172 -0.00052808
   0.00693589  0.00879710  0.00000632
   0.65365377 -0.00292041 -0.00018450
   0.32731602  0.32511649  0.00033191
   0.33986989 -0.00102267  0.00013363
   1.00599125  0.33075389  0.00025035
   0.01316252  0.67276390 -0.00010774
   0.33533993  0.67677501 -0.00008349
   0.10724403  0.21516012  0.94715872
   0.21561151  0.10650812  0.05209868
   0.11245982  0.55500580  0.94703644
   0.22324531  0.44610433  0.05235801
   0.10872410  0.89230481  0.94850754
   0.22367580  0.77860264  0.05424747
   0.45050560  0.22515131  0.94776305
   0.55850985  0.11788598  0.05340357
   0.44916982  0.55840298  0.94906351
   0.56112627  0.44684907  0.05002530
   0.44342748  0.88839323  0.94539660
   0.55789945  0.77455140  0.05205910
   0.77538267  0.22603684  0.94903027
   0.89052250  0.10713435  0.05072974
   0.77366702  0.55284163  0.95189794
   0.88323456  0.44163889  0.04978456
   0.78031264  0.88674924  0.95073197
   0.88703105  0.78053068  0.04884969
unknown system                          
           1
     8.264786    4.772051    0.000000
    -8.262242    4.767656    0.000000
     0.000000    0.000000   30.000000
   V    Mo   W    S 
   3   3   3  18
Direct configuration=     7
   0.65216567  0.32020702  0.00002878
   0.65997273  0.66693393 -0.00058508
   0.00765151  0.00974819  0.00004232
   0.65235380 -0.00356290 -0.00018090
   0.32658372  0.32435243  0.00033264
   0.34000945 -0.00169950  0.00010914
   1.00736763  0.33107678  0.00027704
   0.01467201  0.67345851 -0.00010031
   0.33512068  0.67777127 -0.00010599
   0.10732488  0.21517684  0.94698556
   0.21583079  0.10636965  0.05215614
   0.11272666  0.55499524  0.94692148
   0.22371782  0.44641452  0.05236403
   0.10900371  0.89239646  0.94847260
   0.22398642  0.77888254  0.05448977
   0.45016385  0.22486539  0.94770742
   0.55828288  0.11769334  0.05354635
   0.44871900  0.55827727  0.94914403
   0.56084110  0.44660255  0.05002774
   0.44341927  0.88846024  0.94518559
   0.55768209  0.77462052  0.05212741
   0.77548129  0.22594097  0.94919389
   0.89020196  0.10706677  0.05061306
   0.77399377  0.55284843  0.95213018
   0.88340115  0.44166572  0.04957089
   0.78023284  0.88707964  0.95084054
   0.88730778  0.78057263  0.04870557
unknown system                          
           1
     8.261885    4.768543    0.000000
    -8.259960    4.765222    0.000000
     0.000000    0.000000   30.000000
   V    Mo   W    S 
   3   3   3  18
Direct configuration=     8
   0.65396449  0.32109514  0.00001010
   0.66082429  0.66704658 -0.00051326
   0.00686967  0.00872548  0.00001285
   0.65380772 -0.00264242 -0.00020445
   0.32731569  0.32527936  0.00031054
   0.33996043 -0.00113750  0.00010510
   1.00550009  0.33056394  0.00027550
   0.01301691  0.67263048 -0.00009111
   0.33528243  0.67681997 -0.00008281
   0.10725598  0.21519840  0.94714758
   0.21572164  0.10652730  0.05211623
   0.11252577  0.55495780  0.94701351
   0.22312775  0.44603811  0.05235487
   0.10889887  0.89238719  0.94851216
   0.22371442  0.77865307  0.05425033
   0.45049290  0.22515135  0.94778443
   0.55846345  0.11785851  0.05346646
   0.44912854  0.55837152  0.94903971
   0.56102133  0.44677596  0.05003838
   0.44349233  0.88847891  0.94539510
   0.55788234  0.77462195  0.05208026
   0.77529147  0.22591014  0.94892207
   0.89041275  0.10704206  0.05078141
   0.77367476  0.55283117  0.95183734
   0.88324142  0.44165437  0.04985846
   0.78023981  0.88683527  0.95068311
   0.88708719  0.78054036  0.04889604
unknown system                          
           1
     8.257202    4.766101    0.000000
    -8.254550    4.761521    0.000000
     0.000000    0.000000   30.000000
   V    Mo   W    S 
   3   3   3  18
Direct configuration=     9
   0.65759755  0.32232774  0.00000049
   0.66243906  0.66739611 -0.00037334
   0.00568057  0.00728120 -0.00002740
   0.65614588 -0.00073498 -0.00013122
   0.32814137  0.32692364  0.00031241
   0.34002382 -0.00086791  0.00018381
   1.00154721  0.32907573  0.00024869
   0.01051911  0.67125775 -0.00015625
   0.33569634  0.67576180 -0.00003527
   0.10693099  0.21515507  0.94736914
   0.21577093  0.10678875  0.05201512
   0.11229636  0.55474390  0.94713858
   0.22212220  0.44560939  0.05231340
   0.10899159  0.89250782  0.94857782
   0.22351248  0.77850708  0.05400488
   0.45088188  0.22550700  0.94789414
   0.55867671  0.11805674  0.05341912
   0.44969974  0.55865917  0.94889165
   0.56115096  0.44697213  0.05000077
   0.44372275  0.88849890  0.94554902
   0.55811895  0.77476676  0.05197304
   0.77483590  0.22559592  0.94822011
   0.89042552  0.10670279  0.05114722
   0.77326593  0.55281384  0.95131822
   0.88295102  0.44168077  0.05048613
   0.78017023  0.88666368  0.95039116
   0.88689939  0.78056365  0.04926845
unknown system                          
           1
     8.262344    4.769112    0.000000
    -8.259334    4.763912    0.000000
     0.000000    0.000000   30.000000
   V    Mo   W    S 
   3   3   3  18
Direct configuration=    10
   0.65618790  0.32105907 -0.00003414
   0.66167101  0.66729445 -0.00047572
   0.00656340  0.00854263  0.00001529
   0.65469609 -0.00106479 -0.00017967
   0.32712058  0.32601147  0.00030916
   0.34027548 -0.00187230  0.00010637
   1.00262411  0.32902767  0.00026785
   0.01248036  0.67212186 -0.00016590
   0.33562028  0.67729236 -0.00008184
   0.10686385  0.21515819  0.94719309
   0.21603107  0.10660394  0.05203479
   0.11252961  0.55461040  0.94707606
   0.22247711  0.44603232  0.05223373
   0.10931862  0.89255205  0.94858536
   0.22375930  0.77871250  0.05432146
   0.45049699  0.22515833  0.94794514
   0.55844176  0.11792116  0.05360409
   0.44919240  0.55860763  0.94904232
   0.56089175  0.44664966  0.04991473
   0.44376710  0.88856480  0.94530252
   0.55784644  0.77485699  0.05204224
   0.77492622  0.22549735  0.94841170
   0.89005181  0.10663235  0.05101067
   0.77377623  0.55283959  0.95168255
   0.88316245  0.44173823  0.05019339
   0.78011651  0.88710549  0.95060121
   0.88732602  0.78056102  0.04904345
unknown system                          
           1
     8.267628    4.771780    0.000000
    -8.263916    4.765365    0.000000
     0.000000    0.000000   30.000000
   V    Mo   W    S 
   3   3   3  18
Direct configuration=    11
   0.65527390  0.32053437 -0.00002496
   0.66122911  0.66721854 -0.00050726
   0.00699530  0.00912552  0.00003621
   0.65396519 -0.00145883 -0.00016048
   0.32669603  0.32552670  0.00032087
   0.34030980 -0.00224163  0.00011507
   1.00346772  0.32916934  0.00028116
   0.01341766  0.67259456 -0.00015830
   0.33555117  0.67789043 -0.00008338
   0.10689077  0.21513682  0.94708608
   0.21609513  0.10651098  0.05206591
   0.11265245  0.55461251  0.94701522
   0.22274355  0.44623278  0.05223270
   0.10940303  0.89258364  0.94854943
   0.22389709  0.77883026  0.05446435
   0.45033190  0.22501076  0.94790164
   0.55833663  0.11784494  0.05366890
   0.44896743  0.55854746  0.94908069
   0.56079790  0.44654801  0.04991122
   0.44375687  0.88858615  0.94515934
   0.55775584  0.77487819  0.05207734
   0.77500113  0.22551459  0.94851343
   0.88991891  0.10660837  0.05094674
   0.77394623  0.55282764  0.95182837
   0.88323933  0.44174623  0.05005567
   0.78012607  0.88725586  0.95067331
   0.88744832  0.78058027  0.04895063
unknown system                          
           1
     8.261592    4.767366    0.000000
    -8.259117    4.763094    0.000000
     0.000000    0.000000   30.000000
   V    Mo   W    S 
   3   3   3  18
Direct configuration=    12
   0.65288741  0.31903891 -0.00002281
   0.66009884  0.66697555 -0.00060562
   0.00810450  0.01067145  0.00008474
   0.65208394 -0.00229896 -0.00014128
   0.32558194  0.32427763  0.00034135
   0.34049436 -0.00325644  0.00010840
   1.00546874  0.32939354  0.00031445
   0.01592602  0.67382392 -0.00015474
   0.33536061  0.67956541 -0.00011284
   0.10695035  0.21511585  0.94682593
   0.21631386  0.10629059  0.05213749
   0.11300877  0.55462204  0.94689842
   0.22340977  0.44677877  0.05218736
   0.10966721  0.89263777  0.94848455
   0.22426320  0.77913084  0.05483924
   0.44990459  0.22461111  0.94783881
   0.55804954  0.11764679  0.05383670
   0.44832876  0.55840119  0.94921769
   0.56051547  0.44623810  0.04987426
   0.44376148  0.88865431  0.94482193
   0.55748817  0.77495561  0.05215081
   0.77516812  0.22553117  0.94878913
   0.88953958  0.10653173  0.05077834
   0.77443865  0.55279062  0.95224910
   0.88347240  0.44179368  0.04967357
   0.78011525  0.88767930  0.95089298
   0.88781292  0.78061398  0.04869194
unknown system                          
           1
     8.260203    4.765880    0.000000
    -8.258271    4.762551    0.000000
     0.000000    0.000000   30.000000
   V    Mo   W    S 
   3   3   3  18
Direct configuration=    13
   0.65568958  0.32052797 -0.00003025
   0.66149240  0.66723214 -0.00048344
   0.00685178  0.00896530  0.00003682
   0.65412580 -0.00109138 -0.00014147
   0.32678777  0.32574975  0.00031647
   0.34045836 -0.00225077  0.00013554
   1.00303167  0.32915460  0.00028556
   0.01324113  0.67235413 -0.00015170
   0.33540769  0.67779628 -0.00006331
   0.10684885  0.21516059  0.94709627
   0.21615513  0.10654329  0.05205895
   0.11264282  0.55456127  0.94701064
   0.22258648  0.44618068  0.05222425
   0.10944712  0.89257750  0.94854854
   0.22384260  0.77878752  0.05444211
   0.45042408  0.22507450  0.94794389
   0.55834896  0.11788943  0.05365963
   0.44899670  0.55856519  0.94906654
   0.56079143  0.44650888  0.04988316
   0.44378374  0.88857984  0.94514289
   0.55774726  0.77490362  0.05206871
   0.77493977  0.22546635  0.94843630
   0.88987882  0.10658393  0.05097894
   0.77392028  0.55279159  0.95177942
   0.88320466  0.44174121  0.05012151
   0.78009788  0.88728693  0.95063997
   0.88747170  0.78057412  0.04899396
unknown system                          
           1
     8.258769    4.765031    0.000000
    -8.256160    4.760528    0.000000
     0.000000    0.000000   30.000000
   V    Mo   W    S 
   3   3   3  18
Direct configuration=    14
   0.65947979  0.32212169 -0.00007012
   0.66337639  0.66762710 -0.00034878
   0.00543174  0.00718051 -0.00002895
   0.65638557  0.00055906 -0.00014493
   0.32781887  0.32752541  0.00027514
   0.34044296 -0.00166224  0.00012262
   0.99975608  0.32863220  0.00023503
   0.01039558  0.67064048 -0.00020067
   0.33539884  0.67609384 -0.00002537
   0.10655575  0.21516433  0.94740587
   0.21607804  0.10680018  0.05193511
   0.11226587  0.55437915  0.94709263
   0.22153388  0.44561019  0.05225124
   0.10935353  0.89253448  0.94866793
   0.22340041  0.77844726  0.05412249
   0.45096292  0.22552900  0.94812277
   0.55865282  0.11820529  0.05358882
   0.44974458  0.55888605  0.94894565
   0.56108538  0.44676365  0.04983363
   0.44387332  0.88847266  0.94543456
   0.55797675  0.77491308  0.05194373
   0.77457575  0.22525992  0.94788349
   0.89009388  0.10651980  0.05123646
   0.77343290  0.55276332  0.95125512
   0.88287278  0.44170725  0.05073260
   0.78004192  0.88700044  0.95039356
   0.88722816  0.78054036  0.04934026
unknown system                          
           1
     8.262524    4.767048    0.000000
    -8.259812    4.762368    0.000000
     0.000000    0.000000   30.000000
   V    Mo   W    S 
   3   3   3  18
Direct configuration=    15
   0.65792033  0.32085480 -0.00004496
   0.66243438  0.66747097 -0.00043123
   0.00635569  0.00852667  0.00003332
   0.65487330  0.00003449 -0.00011639
   0.32672528  0.32656675  0.00032139
   0.34064820 -0.00266098  0.00013973
   1.00104014  0.32857604  0.00026935
   0.01244091  0.67156870 -0.00019651
   0.33545572  0.67764286 -0.00004059
   0.10648604  0.21513811  0.94722032
   0.21624585  0.10661272  0.05191336
   0.11249135  0.55431228  0.94702429
   0.22191188  0.44605339  0.05215808
   0.10957545  0.89254751  0.94865987
   0.22363833  0.77865512  0.05441472
   0.45055761  0.22518014  0.94812616
   0.55840362  0.11804737  0.05370825
   0.44927377  0.55884512  0.94908611
   0.56090543  0.44650814  0.04974118
   0.44390876  0.88850813  0.94516320
   0.55775476  0.77502111  0.05195912
   0.77470335  0.22525934  0.94806671
   0.88976967  0.10648438  0.05107681
   0.77394643  0.55277409  0.95162514
   0.88308394  0.44177397  0.05042418
   0.78006710  0.88738692  0.95060837
   0.88759717  0.78052630  0.04908992
unknown system                          
           1
     8.271181    4.771573    0.000000
    -8.268203    4.766431    0.000000
     0.000000    0.000000   30.000000
   V    Mo   W    S 
   3   3   3  18
Direct configuration=    16
   0.65723740  0.32042386 -0.00005038
   0.66207426  0.66739867 -0.00046459
   0.00669466  0.00901555  0.00004465
   0.65433249 -0.00023904 -0.00012157
   0.32635930  0.32619533  0.00032169
   0.34066958 -0.00299826  0.00012940
   1.00159327  0.32857061  0.00027136
   0.01319524  0.67196108 -0.00019811
   0.33546189  0.67818168 -0.00005776
   0.10649801  0.21512027  0.94713870
   0.21629250  0.10653660  0.05193772
   0.11260379  0.55431794  0.94699155
   0.22210335  0.44623152  0.05215038
   0.10965329  0.89257897  0.94864209
   0.22374591  0.77874087  0.05453822
   0.45041543  0.22505237  0.94811097
   0.55831461  0.11798685  0.05377183
   0.44909387  0.55880308  0.94912147
   0.56083215  0.44643357  0.04973516
   0.44392132  0.88854050  0.94506044
   0.55769374  0.77504822  0.05199057
   0.77474684  0.22526516  0.94814088
   0.88965612  0.10644760  0.05103967
   0.77409072  0.55276172  0.95174920
   0.88315555  0.44179150  0.05032006
   0.78008228  0.88750903  0.95067373
   0.88769688  0.78053921  0.04901257
unknown system                          
           1
     8.271720    4.772119    0.000000
    -8.268471    4.766506    0.000000
     0.000000    0.000000   30.000000
   V    Mo   W    S 
   3   3   3  18
Direct configuration=    17
   0.65469710  0.31889489 -0.00005531
   0.66073670  0.66714916 -0.00058343
   0.00792611  0.01084917  0.00009790
   0.65241654 -0.00129900 -0.00012056
   0.32497799  0.32481872  0.00034542
   0.34069683 -0.00423999  0.00011619
   1.00362758  0.32845551  0.00030083
   0.01593255  0.67343935 -0.00019324
   0.33554421  0.68016069 -0.00010753
   0.10655829  0.21505847  0.94685890
   0.21645999  0.10628693  0.05199724
   0.11304542  0.55438044  0.94690472
   0.22283045  0.44688909  0.05208141
   0.10992516  0.89267497  0.94859143
   0.22416362  0.77904764  0.05494298
   0.44986463  0.22456650  0.94806227
   0.55797158  0.11770678  0.05395416
   0.44841912  0.55865896  0.94927712
   0.56052073  0.44616895  0.04968942
   0.44397258  0.88864766  0.94471398
   0.55744018  0.77514225  0.05206436
   0.77492625  0.22527252  0.94843506
   0.88926180  0.10632610  0.05086873
   0.77463959  0.55274859  0.95222565
   0.88347375  0.44188245  0.04990023
   0.78011888  0.88793728  0.95093494
   0.88806681  0.78059036  0.04869702
unknown system                          
           1
     8.266855    4.769124    0.000000
    -8.263556    4.763425    0.000000
     0.000000    0.000000   30.000000
   V    Mo   W    S 
   3   3   3  18
Direct configuration=    18
   0.65387651  0.31844809 -0.00005381
   0.66030973  0.66704040 -0.00061857
   0.00827818  0.01133878  0.00011088
   0.65187745 -0.00159559 -0.00012440
   0.32465038  0.32441013  0.00035461
   0.34071830 -0.00450063  0.00010929
   1.00424924  0.32844167  0.00030776
   0.01668632  0.67386765 -0.00019456
   0.33557735  0.68068445 -0.00012482
   0.10658743  0.21505004  0.94677583
   0.21650156  0.10622008  0.05202114
   0.11314842  0.55440219  0.94689091
   0.22304457  0.44706258  0.05206254
   0.10997880  0.89269527  0.94857460
   0.22428008  0.77913406  0.05505019
   0.44972566  0.22444170  0.94804378
   0.55789377  0.11764423  0.05399071
   0.44823027  0.55860087  0.94931176
   0.56044775  0.44609787  0.04968594
   0.44397602  0.88868733  0.94462607
   0.55738770  0.77515745  0.05209609
   0.77498834  0.22530036  0.94853733
   0.88917305  0.10630749  0.05082674
   0.77478116  0.55274433  0.95236013
   0.88355341  0.44189802  0.04976785
   0.78014008  0.88803403  0.95099887
   0.88815291  0.78060163  0.04861303
unknown system                          
           1
     8.276775    4.775205    0.000000
    -8.273106    4.768864    0.000000
     0.000000    0.000000   30.000000
   V    Mo   W    S 
   3   3   3  18
Direct configuration=    19
   0.65395873  0.31836661 -0.00006294
   0.66042524  0.66704255 -0.00061499
   0.00826895  0.01135575  0.00011254
   0.65177550 -0.00151907 -0.00012346
   0.32462148  0.32444069  0.00035128
   0.34080070 -0.00460868  0.00011172
   1.00416340  0.32845627  0.00030432
   0.01675632  0.67383953 -0.00019952
   0.33551692  0.68079345 -0.00013018
   0.10655982  0.21507448  0.94678882
   0.21653365  0.10624095  0.05199822
   0.11313253  0.55437453  0.94690616
   0.22296996  0.44705063  0.05204532
   0.10999459  0.89267214  0.94859702
   0.22423943  0.77910240  0.05504830
   0.44974496  0.22445151  0.94808619
   0.55790299  0.11767084  0.05397976
   0.44823374  0.55860085  0.94932797
   0.56045005  0.44609049  0.04965641
   0.44398800  0.88867638  0.94462686
   0.55738598  0.77516674  0.05208465
   0.77497032  0.22527329  0.94852920
   0.88915029  0.10632441  0.05082391
   0.77478785  0.55272103  0.95235830
   0.88356743  0.44190700  0.04977933
   0.78013659  0.88806040  0.95100060
   0.88817907  0.78058932  0.04861408
unknown system                          
           1
     8.277467    4.775664    0.000000
    -8.273696    4.769146    0.000000
     0.000000    0.000000   30.000000
   V    Mo   W    S 
   3   3   3  18
Direct configuration=    20
   0.65168187  0.31728423 -0.00004564
   0.65915590  0.66678428 -0.00071500
   0.00921005  0.01269809  0.00015222
   0.65045881 -0.00247436 -0.00012052
   0.32370907  0.32331418  0.00038567
   0.34071537 -0.00526791  0.00010371
   1.00596010  0.32838054  0.00034007
   0.01872941  0.67504986 -0.00018767
   0.33569370  0.68209859 -0.00015779
   0.10666972  0.21500304  0.94654030
   0.21660865  0.10602151  0.05208971
   0.11347097  0.55447484  0.94682593
   0.22367860  0.44757381  0.05201484
   0.11014294  0.89277333  0.94851613
   0.22462768  0.77939262  0.05535628
   0.44931157  0.22407072  0.94797071
   0.55765425  0.11743697  0.05410963
   0.44771518  0.55847115  0.94941494
   0.56023189  0.44591841  0.04967639
   0.44399686  0.88879070  0.94436096
   0.55722081  0.77519933  0.05216566
   0.77515089  0.22535323  0.94879920
   0.88890021  0.10622396  0.05069982
   0.77517771  0.55274337  0.95273240
   0.88377921  0.44195256  0.04941084
   0.78017747  0.88830452  0.95118853
   0.88838556  0.78064290  0.04837256
unknown system                          
           1
     8.270619    4.769515    0.000000
    -8.267265    4.763725    0.000000
     0.000000    0.000000   30.000000
   V    Mo   W    S 
   3   3   3  18
Direct configuration=    21
   0.65128080  0.31705680 -0.00004461
   0.65894510  0.66672484 -0.00073280
   0.00936355  0.01291792  0.00015893
   0.65019687 -0.00261918 -0.00012024
   0.32357221  0.32313574  0.00039102
   0.34073612 -0.00538164  0.00010209
   1.00626956  0.32839647  0.00034492
   0.01908632  0.67524896 -0.00018744
   0.33571703  0.68233956 -0.00016326
   0.10667918  0.21499817  0.94649297
   0.21663088  0.10598090  0.05210754
   0.11351715  0.55447590  0.94680734
   0.22378889  0.44766801  0.05201162
   0.11016927  0.89278868  0.94850243
   0.22468322  0.77943905  0.05542019
   0.44924539  0.22400833  0.94795440
   0.55762426  0.11741846  0.05413676
   0.44763387  0.55845039  0.94942909
   0.56021206  0.44589489  0.04967597
   0.44400248  0.88881288  0.94430374
   0.55720477  0.77520345  0.05218165
   0.77517327  0.22536642  0.94884272
   0.88883770  0.10620880  0.05068320
   0.77524339  0.55273583  0.95279632
   0.88380281  0.44195409  0.04935177
   0.78018269  0.88834741  0.95121930
   0.88841562  0.78064333  0.04833430
unknown system                          
           1
     8.271682    4.769649    0.000000
    -8.268810    4.764695    0.000000
     0.000000    0.000000   30.000000
   V    Mo   W    S 
   3   3   3  18
Direct configuration=    22
   0.65446817  0.31838701 -0.00007555
   0.66129131  0.66730349 -0.00058122
   0.00801311  0.01131760  0.00010016
   0.65238708 -0.00081568 -0.00010262
   0.32453808  0.32425773  0.00034242
   0.34092719 -0.00450526  0.00012095
   1.00330436  0.32779902  0.00031409
   0.01625605  0.67375576 -0.00020520
   0.33539526  0.68074624 -0.00012448
   0.10647560  0.21494082  0.94681776
   0.21634890  0.10620760  0.05195532
   0.11311883  0.55437000  0.94693631
   0.22273630  0.44695815  0.05202251
   0.10988285  0.89271556  0.94863249
   0.22410488  0.77901242  0.05502270
   0.44998269  0.22459605  0.94814215
   0.55793936  0.11780920  0.05393034
   0.44829211  0.55860084  0.94932993
   0.56046205  0.44603026  0.04963692
   0.44400872  0.88867824  0.94463973
   0.55733292  0.77515092  0.05208995
   0.77486675  0.22524929  0.94845218
   0.88936070  0.10622435  0.05083840
   0.77454611  0.55254301  0.95225361
   0.88351865  0.44193135  0.04986152
   0.78035343  0.88814470  0.95096343
   0.88830302  0.78080578  0.04868609
unknown system                          
           1
     8.271971    4.768788    0.000000
    -8.270173    4.765700    0.000000
     0.000000    0.000000   30.000000
   V    Mo   W    S 
   3   3   3  18
Direct configuration=    23
   0.65527449  0.31867942 -0.00007089
   0.66210626  0.66750260 -0.00055044
   0.00765136  0.01103220  0.00006862
   0.65298915 -0.00027030 -0.00010028
   0.32462069  0.32439513  0.00033648
   0.34098051 -0.00440989  0.00011908
   1.00243590  0.32739247  0.00030551
   0.01559509  0.67348617 -0.00022034
   0.33534157  0.68057294 -0.00011255
   0.10639093  0.21490352  0.94686929
   0.21626744  0.10620892  0.05192604
   0.11301321  0.55432599  0.94699342
   0.22246704  0.44681067  0.05198408
   0.10983907  0.89272541  0.94867095
   0.22396070  0.77891873  0.05494715
   0.45014457  0.22471067  0.94818504
   0.55799692  0.11790880  0.05390905
   0.44842610  0.55865587  0.94935731
   0.56049133  0.44601468  0.04960478
   0.44406047  0.88867723  0.94470815
   0.55732625  0.77515883  0.05204221
   0.77478579  0.22522542  0.94832264
   0.88944396  0.10614733  0.05091286
   0.77438608  0.55245157  0.95212324
   0.88346543  0.44193350  0.04997088
   0.78041587  0.88815253  0.95091065
   0.88833825  0.78090404  0.04878696
unknown system                          
           1
     8.276867    4.773358    0.000000
    -8.274400    4.769106    0.000000
     0.000000    0.000000   30.000000
   V    Mo   W    S 
   3   3   3  18
Direct configuration=    24
   0.65465246  0.31806862 -0.00001781
   0.66261270  0.66752147 -0.00060290
   0.00783754  0.01185069  0.00004959
   0.65266665 -0.00010984 -0.00009137
   0.32368777  0.32351807  0.00036728
   0.34109129 -0.00514171  0.00011955
   1.00250771  0.32647211  0.00031544
   0.01647995  0.67418342 -0.00024114
   0.33547319  0.68197242 -0.00011481
   0.10629494  0.21491986  0.94669496
   0.21634408  0.10598036  0.05195930
   0.11302080  0.55419619  0.94708163
   0.22258031  0.44707800  0.05179529
   0.11005796  0.89281243  0.94867388
   0.22402374  0.77906846  0.05511309
   0.44986206  0.22444975  0.94816225
   0.55785919  0.11781215  0.05404437
   0.44809708  0.55862826  0.94958475
   0.56029776  0.44576992  0.04951499
   0.44427666  0.88883884  0.94455841