   27   27  100    1
  0.9710400E+02  0.1002848E-08  0.1002848E-08  0.3000000E-08  0.5000000E-15
  1.000000000000000E-004
  CAR 
 unknown system                          
    159     34    120
 
  0.0000000E+00  0.0000000E+00  0.0000000E+00  0.1562500E-01
    1      -17.833299   1.000000
    2      -16.739159   1.000000
    3      -16.642785   1.000000
    4      -16.611158   1.000000
    5      -16.537970   1.000000
    6      -16.423966   1.000000
    7      -16.374256   1.000000
    8      -16.346641   1.000000
    9      -16.190122   1.000000
   10      -16.141800   1.000000
   11      -16.081271   1.000000
   12      -15.958255   1.000000
   13      -15.941767   1.000000
   14      -15.749608   1.000000
   15      -15.561044   1.000000
   16      -15.500805   1.000000
   17      -15.256003   1.000000
   18      -15.132875   1.000000
   19       -9.306600   1.000000
   20       -9.069350   1.000000
   21       -8.843730   1.000000
   22       -8.822068   1.000000
   23       -8.766813   1.000000
   24       -8.745552   1.000000
   25       -8.743251   1.000000
   26       -8.603104   1.000000
   27       -8.579548   1.000000
   28       -8.428180   1.000000
   29       -8.407636   1.000000
   30       -8.365752   1.000000
   31       -8.305821   1.000000
   32       -8.270779   1.000000
   33       -8.172745   1.000000
   34       -8.160151   1.000000
   35       -7.759866   1.000000
   36       -7.690143   1.000000
   37       -7.686896   1.000000
   38       -7.583927   1.000000
   39       -7.511553   1.000000
   40       -7.386908   1.000000
   41       -7.219728   1.000000
   42       -7.189443   1.000000
   43       -7.129867   1.000000
   44       -6.892432   1.000000
   45       -6.805215   1.000000
   46       -6.767844   1.000000
   47       -6.754991   1.000000
   48       -6.697528   1.000000
   49       -6.627748   1.000000
   50       -6.542575   1.000000
   51       -6.532923   1.000000
   52       -6.256734   1.000000
   53       -6.209975   1.000000
   54       -6.118693   1.000000
   55       -6.059754   1.000000
   56       -6.034343   1.000000
   57       -5.942604   1.000000
   58       -5.924815   1.000000
   59       -5.836806   1.000000
   60       -5.829278   1.000000
   61       -5.636774   1.000000
   62       -5.370588   1.000000
   63       -5.328437   1.000000
   64       -5.047987   1.000000
   65       -4.983940   1.000000
   66       -4.916067   1.000000
   67       -4.802060   1.000000
   68       -4.780344   1.000000
   69       -4.762879   1.000000
   70       -4.657557   1.000000
   71       -4.620024   1.000000
   72       -4.614715   1.000000
   73       -4.519682   1.000000
   74       -4.377411   1.000000
   75       -4.331727   1.000000
   76       -3.981129   1.000000
   77       -3.757787   0.999844
   78       -3.632531   0.996733
   79       -3.506366   0.966193
   80       -3.162611   0.273207
   81       -3.134227   0.210742
   82       -2.733120   0.000136
   83       -2.719911   0.000094
   84       -2.620974   0.000005
   85       -2.494291   0.000000
   86       -2.440231   0.000000
   87       -2.247320   0.000000
   88       -2.166443   0.000000
   89       -2.158049   0.000000
   90       -1.980743   0.000000
   91       -1.972755   0.000000
   92       -1.646880   0.000000
   93       -1.387307   0.000000
   94       -1.298405   0.000000
   95       -1.237200   0.000000
   96       -0.966000   0.000000
   97       -0.903320   0.000000
   98       -0.836958   0.000000
   99       -0.835589   0.000000
  100       -0.641384   0.000000
  101       -0.640031   0.000000
  102       -0.547888   0.000000
  103       -0.254262   0.000000
  104       -0.179425   0.000000
  105       -0.123750   0.000000
  106       -0.018754   0.000000
  107       -0.008920   0.000000
  108        0.054589   0.000000
  109        0.125318   0.000000
  110        0.135911   0.000000
  111        0.193122   0.000000
  112        0.304991   0.000000
  113        0.529230   0.000000
  114        0.915669   0.000000
  115        0.950930   0.000000
  116        1.238445   0.000000
  117        1.280494   0.000000
  118        1.661444   0.000000
  119        1.850453   0.000000
  120        2.182653   0.000000
 
  0.1250000E+00  0.2775558E-16  0.0000000E+00  0.3125000E-01
    1      -17.807689   1.000000
    2      -16.778637   1.000000
    3      -16.737109   1.000000
    4      -16.601317   1.000000
    5      -16.558264   1.000000
    6      -16.442026   1.000000
    7      -16.378822   1.000000
    8      -16.281944   1.000000
    9      -16.208632   1.000000
   10      -16.084593   1.000000
   11      -16.041211   1.000000
   12      -15.989616   1.000000
   13      -15.874913   1.000000
   14      -15.744425   1.000000
   15      -15.565280   1.000000
   16      -15.504653   1.000000
   17      -15.271265   1.000000
   18      -15.140397   1.000000
   19       -9.285825   1.000000
   20       -9.182816   1.000000
   21       -9.045962   1.000000
   22       -8.967993   1.000000
   23       -8.821145   1.000000
   24       -8.722236   1.000000
   25       -8.678014   1.000000
   26       -8.578786   1.000000
   27       -8.519414   1.000000
   28       -8.472283   1.000000
   29       -8.417419   1.000000
   30       -8.354739   1.000000
   31       -8.279111   1.000000
   32       -8.089036   1.000000
   33       -8.018458   1.000000
   34       -7.985105   1.000000
   35       -7.828028   1.000000
   36       -7.719882   1.000000
   37       -7.683820   1.000000
   38       -7.527566   1.000000
   39       -7.445044   1.000000
   40       -7.369523   1.000000
   41       -7.262172   1.000000
   42       -7.201146   1.000000
   43       -7.161876   1.000000
   44       -6.925744   1.000000
   45       -6.883153   1.000000
   46       -6.824662   1.000000
   47       -6.751465   1.000000
   48       -6.653211   1.000000
   49       -6.609041   1.000000
   50       -6.545814   1.000000
   51       -6.493715   1.000000
   52       -6.266884   1.000000
   53       -6.232390   1.000000
   54       -6.125923   1.000000
   55       -6.096498   1.000000
   56       -6.045982   1.000000
   57       -5.940810   1.000000
   58       -5.870826   1.000000
   59       -5.835723   1.000000
   60       -5.700991   1.000000
   61       -5.581895   1.000000
   62       -5.401263   1.000000
   63       -5.344394   1.000000
   64       -5.127944   1.000000
   65       -5.069715   1.000000
   66       -4.980262   1.000000
   67       -4.969867   1.000000
   68       -4.878315   1.000000
   69       -4.779727   1.000000
   70       -4.690673   1.000000
   71       -4.530652   1.000000
   72       -4.419570   1.000000
   73       -4.390098   1.000000
   74       -4.361844   1.000000
   75       -4.301300   1.000000
   76       -3.898352   0.999998
   77       -3.809527   0.999964
   78       -3.712556   0.999491
   79       -3.493042   0.958484
   80       -3.395459   0.851604
   81       -2.915322   0.009343
   82       -2.792839   0.000646
   83       -2.714598   0.000081
   84       -2.640802   0.000009
   85       -2.506278   0.000000
   86       -2.456658   0.000000
   87       -2.221463   0.000000
   88       -2.123322   0.000000
   89       -2.081298   0.000000
   90       -1.985824   0.000000
   91       -1.939397   0.000000
   92       -1.650055   0.000000
   93       -1.389518   0.000000
   94       -1.308219   0.000000
   95       -1.224582   0.000000
   96       -0.975128   0.000000
   97       -0.913114   0.000000
   98       -0.835937   0.000000
   99       -0.807937   0.000000
  100       -0.706932   0.000000
  101       -0.669217   0.000000
  102       -0.603711   0.000000
  103       -0.345010   0.000000
  104       -0.290000   0.000000
  105       -0.219165   0.000000
  106       -0.123542   0.000000
  107       -0.025740   0.000000
  108       -0.004003   0.000000
  109        0.100257   0.000000
  110        0.192253   0.000000
  111        0.258586   0.000000
  112        0.456795   0.000000
  113        0.623456   0.000000
  114        0.766480   0.000000
  115        1.056924   0.000000
  116        1.237394   0.000000
  117        1.317632   0.000000
  118        1.706473   0.000000
  119        1.890039   0.000000
  120        2.218203   0.000000
 
  0.2500000E+00  0.5551115E-16  0.0000000E+00  0.3125000E-01
    1      -17.732273   1.000000
    2      -16.990201   1.000000
    3      -16.736260   1.000000
    4      -16.651377   1.000000
    5      -16.597644   1.000000
    6      -16.474069   1.000000
    7      -16.341609   1.000000
    8      -16.207402   1.000000
    9      -16.165556   1.000000
   10      -16.100174   1.000000
   11      -16.008478   1.000000
   12      -15.898409   1.000000
   13      -15.803472   1.000000
   14      -15.726784   1.000000
   15      -15.576224   1.000000
   16      -15.501859   1.000000
   17      -15.307113   1.000000
   18      -15.162533   1.000000
   19       -9.503421   1.000000
   20       -9.240964   1.000000
   21       -9.156842   1.000000
   22       -9.106785   1.000000
   23       -8.895943   1.000000
   24       -8.804204   1.000000
   25       -8.719017   1.000000
   26       -8.516732   1.000000
   27       -8.454350   1.000000
   28       -8.412592   1.000000
   29       -8.382746   1.000000
   30       -8.243106   1.000000
   31       -8.153103   1.000000
   32       -8.036732   1.000000
   33       -7.981201   1.000000
   34       -7.845940   1.000000
   35       -7.733108   1.000000
   36       -7.658008   1.000000
   37       -7.533933   1.000000
   38       -7.504557   1.000000
   39       -7.442228   1.000000
   40       -7.393992   1.000000
   41       -7.283996   1.000000
   42       -7.255039   1.000000
   43       -7.068434   1.000000
   44       -6.972940   1.000000
   45       -6.920793   1.000000
   46       -6.850581   1.000000
   47       -6.784874   1.000000
   48       -6.667538   1.000000
   49       -6.600161   1.000000
   50       -6.448881   1.000000
   51       -6.413751   1.000000
   52       -6.294848   1.000000
   53       -6.268538   1.000000
   54       -6.175139   1.000000
   55       -6.106461   1.000000
   56       -6.053933   1.000000
   57       -5.876430   1.000000
   58       -5.839181   1.000000
   59       -5.781901   1.000000
   60       -5.655231   1.000000
   61       -5.532458   1.000000
   62       -5.528229   1.000000
   63       -5.464296   1.000000
   64       -5.290738   1.000000
   65       -5.181714   1.000000
   66       -5.117621   1.000000
   67       -5.008892   1.000000
   68       -4.898595   1.000000
   69       -4.792445   1.000000
   70       -4.648409   1.000000
   71       -4.467742   1.000000
   72       -4.342568   1.000000
   73       -4.303462   1.000000
   74       -4.219845   1.000000
   75       -4.174452   1.000000
   76       -4.027424   1.000000
   77       -3.904513   0.999998
   78       -3.754357   0.999829
   79       -3.475955   0.946576
   80       -3.409604   0.873556
   81       -2.981588   0.029838
   82       -2.787812   0.000570
   83       -2.729907   0.000125
   84       -2.575623   0.000001
   85       -2.514096   0.000000
   86       -2.431767   0.000000
   87       -2.226995   0.000000
   88       -2.090545   0.000000
   89       -2.007796   0.000000
   90       -1.928552   0.000000
   91       -1.796037   0.000000
   92       -1.646885   0.000000
   93       -1.393331   0.000000
   94       -1.340798   0.000000
   95       -1.203136   0.000000
   96       -1.005820   0.000000
   97       -0.926886   0.000000
   98       -0.881460   0.000000
   99       -0.829894   0.000000
  100       -0.789057   0.000000
  101       -0.735507   0.000000
  102       -0.706093   0.000000
  103       -0.543958   0.000000
  104       -0.444440   0.000000
  105       -0.349926   0.000000
  106       -0.241915   0.000000
  107       -0.137034   0.000000
  108       -0.056272   0.000000
  109        0.067229   0.000000
  110        0.229734   0.000000
  111        0.282583   0.000000
  112        0.586157   0.000000
  113        0.688118   0.000000
  114        0.832156   0.000000
  115        1.104953   0.000000
  116        1.262710   0.000000
  117        1.420159   0.000000
  118        1.832012   0.000000
  119        2.003268   0.000000
  120        2.323736   0.000000
 
  0.3750000E+00  0.0000000E+00  0.0000000E+00  0.3125000E-01
    1      -17.613444   1.000000
    2      -17.206933   1.000000
    3      -16.740998   1.000000
    4      -16.698295   1.000000
    5      -16.600475   1.000000
    6      -16.518875   1.000000
    7      -16.301061   1.000000
    8      -16.180457   1.000000
    9      -16.131090   1.000000
   10      -16.102467   1.000000
   11      -15.930412   1.000000
   12      -15.842622   1.000000
   13      -15.779002   1.000000
   14      -15.704966   1.000000
   15      -15.612368   1.000000
   16      -15.456957   1.000000
   17      -15.336956   1.000000
   18      -15.193802   1.000000
   19       -9.731818   1.000000
   20       -9.314780   1.000000
   21       -9.262767   1.000000
   22       -9.028327   1.000000
   23       -8.950813   1.000000
   24       -8.869968   1.000000
   25       -8.688267   1.000000
   26       -8.547274   1.000000
   27       -8.452322   1.000000
   28       -8.335676   1.000000
   29       -8.302029   1.000000
   30       -8.135428   1.000000
   31       -8.104737   1.000000
   32       -8.029138   1.000000
   33       -7.980859   1.000000
   34       -7.838253   1.000000
   35       -7.700526   1.000000
   36       -7.645570   1.000000
   37       -7.582765   1.000000
   38       -7.552424   1.000000
   39       -7.443122   1.000000
   40       -7.339123   1.000000
   41       -7.165684   1.000000
   42       -7.117145   1.000000
   43       -7.041207   1.000000
   44       -6.958199   1.000000
   45       -6.896861   1.000000
   46       -6.815879   1.000000
   47       -6.767097   1.000000
   48       -6.607579   1.000000
   49       -6.488629   1.000000
   50       -6.439592   1.000000
   51       -6.321697   1.000000
   52       -6.288014   1.000000
   53       -6.216870   1.000000
   54       -6.161051   1.000000
   55       -6.110600   1.000000
   56       -6.074979   1.000000
   57       -6.004380   1.000000
   58       -5.972917   1.000000
   59       -5.833598   1.000000
   60       -5.724174   1.000000
   61       -5.680466   1.000000
   62       -5.552809   1.000000
   63       -5.478216   1.000000
   64       -5.339826   1.000000
   65       -5.206307   1.000000
   66       -5.111051   1.000000
   67       -4.995070   1.000000
   68       -4.848945   1.000000
   69       -4.793748   1.000000
   70       -4.711518   1.000000
   71       -4.542443   1.000000
   72       -4.406823   1.000000
   73       -4.290081   1.000000
   74       -4.196771   1.000000
   75       -4.077493   1.000000
   76       -4.040642   1.000000
   77       -3.888669   0.999997
   78       -3.719404   0.999572
   79       -3.495252   0.959853
   80       -3.264951   0.547961
   81       -3.125449   0.193267
   82       -2.826531   0.001443
   83       -2.675002   0.000025
   84       -2.603643   0.000003
   85       -2.473479   0.000000
   86       -2.375102   0.000000
   87       -2.206411   0.000000
   88       -2.102528   0.000000
   89       -1.944831   0.000000
   90       -1.871936   0.000000
   91       -1.676670   0.000000
   92       -1.605944   0.000000
   93       -1.392217   0.000000
   94       -1.366767   0.000000
   95       -1.197552   0.000000
   96       -1.059456   0.000000
   97       -1.029531   0.000000
   98       -0.943783   0.000000
   99       -0.886666   0.000000
  100       -0.877758   0.000000
  101       -0.797209   0.000000
  102       -0.718738   0.000000
  103       -0.636480   0.000000
  104       -0.546536   0.000000
  105       -0.447335   0.000000
  106       -0.334436   0.000000
  107       -0.277026   0.000000
  108       -0.099068   0.000000
  109        0.042309   0.000000
  110        0.216668   0.000000
  111        0.268659   0.000000
  112        0.582524   0.000000
  113        0.749356   0.000000
  114        0.997777   0.000000
  115        1.127804   0.000000
  116        1.304702   0.000000
  117        1.526972   0.000000
  118        2.020065   0.000000
  119        2.179691   0.000000
  120        2.496524   0.000000
 
  0.5000000E+00  0.1110223E-15  0.0000000E+00  0.1562500E-01
    1      -17.506908   1.000000
    2      -17.348249   1.000000
    3      -16.743706   1.000000
    4      -16.716712   1.000000
    5      -16.585922   1.000000
    6      -16.547929   1.000000
    7      -16.278815   1.000000
    8      -16.200376   1.000000
    9      -16.115373   1.000000
   10      -16.082366   1.000000
   11      -15.879787   1.000000
   12      -15.836103   1.000000
   13      -15.769939   1.000000
   14      -15.699879   1.000000
   15      -15.642330   1.000000
   16      -15.431689   1.000000
   17      -15.339328   1.000000
   18      -15.212974   1.000000
   19       -9.814125   1.000000
   20       -9.351875   1.000000
   21       -9.301072   1.000000
   22       -9.009236   1.000000
   23       -8.938506   1.000000
   24       -8.835169   1.000000
   25       -8.676569   1.000000
   26       -8.659022   1.000000
   27       -8.442459   1.000000
   28       -8.293261   1.000000
   29       -8.229606   1.000000
   30       -8.132047   1.000000
   31       -8.080925   1.000000
   32       -8.019106   1.000000
   33       -7.925022   1.000000
   34       -7.844385   1.000000
   35       -7.746472   1.000000
   36       -7.682699   1.000000
   37       -7.641856   1.000000
   38       -7.592474   1.000000
   39       -7.465476   1.000000
   40       -7.333323   1.000000
   41       -7.098017   1.000000
   42       -7.069707   1.000000
   43       -7.001447   1.000000
   44       -6.857905   1.000000
   45       -6.833156   1.000000
   46       -6.711022   1.000000
   47       -6.648475   1.000000
   48       -6.590646   1.000000
   49       -6.523712   1.000000
   50       -6.456515   1.000000
   51       -6.416372   1.000000
   52       -6.344762   1.000000
   53       -6.270092   1.000000
   54       -6.186318   1.000000
   55       -6.116105   1.000000
   56       -6.102779   1.000000
   57       -6.011561   1.000000
   58       -5.844019   1.000000
   59       -5.811460   1.000000
   60       -5.790126   1.000000
   61       -5.637599   1.000000
   62       -5.598031   1.000000
   63       -5.534551   1.000000
   64       -5.407751   1.000000
   65       -5.223290   1.000000
   66       -5.065590   1.000000
   67       -4.998515   1.000000
   68       -4.959661   1.000000
   69       -4.831351   1.000000
   70       -4.634400   1.000000
   71       -4.577975   1.000000
   72       -4.442698   1.000000
   73       -4.335191   1.000000
   74       -4.169926   1.000000
   75       -4.033857   1.000000
   76       -4.015159   1.000000
   77       -3.864249   0.999993
   78       -3.689114   0.999095
   79       -3.448069   0.921517
   80       -3.356591   0.778905
   81       -2.990181   0.034196
   82       -2.950064   0.017599
   83       -2.660167   0.000016
   84       -2.608923   0.000003
   85       -2.460317   0.000000
   86       -2.342847   0.000000
   87       -2.188488   0.000000
   88       -2.104248   0.000000
   89       -1.933347   0.000000
   90       -1.846996   0.000000
   91       -1.655748   0.000000
   92       -1.562866   0.000000
   93       -1.385436   0.000000
   94       -1.373644   0.000000
   95       -1.197585   0.000000
   96       -1.083824   0.000000
   97       -1.078203   0.000000
   98       -0.999504   0.000000
   99       -0.932770   0.000000
  100       -0.897713   0.000000
  101       -0.819949   0.000000
  102       -0.712893   0.000000
  103       -0.625165   0.000000
  104       -0.599826   0.000000
  105       -0.478096   0.000000
  106       -0.409424   0.000000
  107       -0.306827   0.000000
  108       -0.110702   0.000000
  109        0.020115   0.000000
  110        0.198150   0.000000
  111        0.273319   0.000000
  112        0.584544   0.000000
  113        0.771581   0.000000
  114        1.051940   0.000000
  115        1.139228   0.000000
  116        1.324415   0.000000
  117        1.571491   0.000000
  118        2.252186   0.000000
  119        2.265579   0.000000
  120        2.407078   0.000000
 
  0.0000000E+00  0.1250000E+00  0.0000000E+00  0.3125000E-01
    1      -17.807658   1.000000
    2      -16.778651   1.000000
    3      -16.737236   1.000000
    4      -16.600786   1.000000
    5      -16.558814   1.000000
    6      -16.442147   1.000000
    7      -16.377602   1.000000
    8      -16.283846   1.000000
    9      -16.208013   1.000000
   10      -16.084556   1.000000
   11      -16.040573   1.000000
   12      -15.991060   1.000000
   13      -15.873618   1.000000
   14      -15.744372   1.000000
   15      -15.565690   1.000000
   16      -15.504436   1.000000
   17      -15.271300   1.000000
   18      -15.140401   1.000000
   19       -9.284530   1.000000
   20       -9.184140   1.000000
   21       -9.046946   1.000000
   22       -8.968472   1.000000
   23       -8.822025   1.000000
   24       -8.721675   1.000000
   25       -8.677213   1.000000
   26       -8.579168   1.000000
   27       -8.518409   1.000000
   28       -8.472705   1.000000
   29       -8.416327   1.000000
   30       -8.349682   1.000000
   31       -8.282495   1.000000
   32       -8.090504   1.000000
   33       -8.020817   1.000000
   34       -7.985501   1.000000
   35       -7.828413   1.000000
   36       -7.717349   1.000000
   37       -7.683554   1.000000
   38       -7.528461   1.000000
   39       -7.444357   1.000000
   40       -7.368035   1.000000
   41       -7.262228   1.000000
   42       -7.202517   1.000000
   43       -7.162500   1.000000
   44       -6.924230   1.000000
   45       -6.881933   1.000000
   46       -6.828508   1.000000
   47       -6.750949   1.000000
   48       -6.653803   1.000000
   49       -6.606874   1.000000
   50       -6.545394   1.000000
   51       -6.495778   1.000000
   52       -6.267302   1.000000
   53       -6.230516   1.000000
   54       -6.128412   1.000000
   55       -6.094403   1.000000
   56       -6.044044   1.000000
   57       -5.937386   1.000000
   58       -5.868157   1.000000
   59       -5.843713   1.000000
   60       -5.700177   1.000000
   61       -5.581869   1.000000
   62       -5.401938   1.000000
   63       -5.345433   1.000000
   64       -5.127721   1.000000
   65       -5.067866   1.000000
   66       -4.981089   1.000000
   67       -4.969483   1.000000
   68       -4.875533   1.000000
   69       -4.779440   1.000000
   70       -4.691239   1.000000
   71       -4.536996   1.000000
   72       -4.423008   1.000000
   73       -4.388197   1.000000
   74       -4.357812   1.000000
   75       -4.300289   1.000000
   76       -3.899143   0.999998
   77       -3.809570   0.999964
   78       -3.712106   0.999485
   79       -3.493211   0.958590
   80       -3.395224   0.851218
   81       -2.915780   0.009425
   82       -2.793929   0.000663
   83       -2.714555   0.000081
   84       -2.640385   0.000009
   85       -2.505993   0.000000
   86       -2.455957   0.000000
   87       -2.221396   0.000000
   88       -2.121712   0.000000
   89       -2.079579   0.000000
   90       -1.993448   0.000000
   91       -1.935461   0.000000
   92       -1.649948   0.000000
   93       -1.389032   0.000000
   94       -1.307714   0.000000
   95       -1.225426   0.000000
   96       -0.974776   0.000000
   97       -0.913786   0.000000
   98       -0.835030   0.000000
   99       -0.807789   0.000000
  100       -0.706998   0.000000
  101       -0.668066   0.000000
  102       -0.604395   0.000000
  103       -0.345946   0.000000
  104       -0.293131   0.000000
  105       -0.217059   0.000000
  106       -0.122408   0.000000
  107       -0.029622   0.000000
  108       -0.004314   0.000000
  109        0.101919   0.000000
  110        0.194447   0.000000
  111        0.260168   0.000000
  112        0.457007   0.000000
  113        0.622511   0.000000
  114        0.767437   0.000000
  115        1.055479   0.000000
  116        1.237171   0.000000
  117        1.317941   0.000000
  118        1.706529   0.000000
  119        1.889943   0.000000
  120        2.218225   0.000000
 
  0.1250000E+00  0.1250000E+00  0.0000000E+00  0.3125000E-01
    1      -17.756827   1.000000
    2      -16.914546   1.000000
    3      -16.745354   1.000000
    4      -16.701111   1.000000
    5      -16.531420   1.000000
    6      -16.419506   1.000000
    7      -16.386731   1.000000
    8      -16.241661   1.000000
    9      -16.159371   1.000000
   10      -16.112373   1.000000
   11      -16.069650   1.000000
   12      -15.866994   1.000000
   13      -15.820784   1.000000
   14      -15.736127   1.000000
   15      -15.558636   1.000000
   16      -15.501529   1.000000
   17      -15.305714   1.000000
   18      -15.161514   1.000000
   19       -9.341525   1.000000
   20       -9.316482   1.000000
   21       -9.168874   1.000000
   22       -9.049475   1.000000
   23       -8.920908   1.000000
   24       -8.753115   1.000000
   25       -8.581400   1.000000
   26       -8.566903   1.000000
   27       -8.528272   1.000000
   28       -8.455569   1.000000
   29       -8.411468   1.000000
   30       -8.280728   1.000000
   31       -8.220430   1.000000
   32       -8.059996   1.000000
   33       -7.993065   1.000000
   34       -7.893044   1.000000
   35       -7.660914   1.000000
   36       -7.640126   1.000000
   37       -7.598751   1.000000
   38       -7.515343   1.000000
   39       -7.386562   1.000000
   40       -7.334965   1.000000
   41       -7.285915   1.000000
   42       -7.201641   1.000000
   43       -7.124211   1.000000
   44       -7.063592   1.000000
   45       -6.983237   1.000000
   46       -6.861100   1.000000
   47       -6.750817   1.000000
   48       -6.675448   1.000000
   49       -6.601260   1.000000
   50       -6.475701   1.000000
   51       -6.435123   1.000000
   52       -6.294897   1.000000
   53       -6.263755   1.000000
   54       -6.184005   1.000000
   55       -6.150235   1.000000
   56       -5.965032   1.000000
   57       -5.875742   1.000000
   58       -5.807633   1.000000
   59       -5.731549   1.000000
   60       -5.687000   1.000000
   61       -5.536799   1.000000
   62       -5.497673   1.000000
   63       -5.301446   1.000000
   64       -5.269233   1.000000
   65       -5.232345   1.000000
   66       -5.185158   1.000000
   67       -5.014175   1.000000
   68       -4.888347   1.000000
   69       -4.786623   1.000000
   70       -4.697454   1.000000
   71       -4.467005   1.000000
   72       -4.355152   1.000000
   73       -4.304964   1.000000
   74       -4.228835   1.000000
   75       -4.155610   1.000000
   76       -3.975675   1.000000
   77       -3.896696   0.999998
   78       -3.673093   0.998679
   79       -3.576435   0.989911
   80       -3.414217   0.880198
   81       -2.985394   0.031708
   82       -2.815890   0.001126
   83       -2.730088   0.000125
   84       -2.575899   0.000001
   85       -2.520737   0.000000
   86       -2.447678   0.000000
   87       -2.267686   0.000000
   88       -2.113456   0.000000
   89       -2.017283   0.000000
   90       -1.944583   0.000000
   91       -1.785144   0.000000
   92       -1.662801   0.000000
   93       -1.396415   0.000000
   94       -1.328419   0.000000
   95       -1.189821   0.000000
   96       -1.003680   0.000000
   97       -0.906592   0.000000
   98       -0.867392   0.000000
   99       -0.775799   0.000000
  100       -0.754005   0.000000
  101       -0.729582   0.000000
  102       -0.667755   0.000000
  103       -0.471448   0.000000
  104       -0.417646   0.000000
  105       -0.309424   0.000000
  106       -0.245390   0.000000
  107       -0.132401   0.000000
  108       -0.026737   0.000000
  109       -0.001768   0.000000
  110        0.153792   0.000000
  111        0.375322   0.000000
  112        0.600135   0.000000
  113        0.628717   0.000000
  114        0.739803   0.000000
  115        1.133050   0.000000
  116        1.281224   0.000000
  117        1.445523   0.000000
  118        1.793141   0.000000
  119        1.964130   0.000000
  120        2.289213   0.000000
 
  0.2500000E+00  0.1250000E+00  0.0000000E+00  0.3125000E-01
    1      -17.658632   1.000000
    2      -17.100131   1.000000
    3      -16.867509   1.000000
    4      -16.660547   1.000000
    5      -16.548014   1.000000
    6      -16.438025   1.000000
    7      -16.320019   1.000000
    8      -16.191010   1.000000
    9      -16.162284   1.000000
   10      -16.099117   1.000000
   11      -16.044119   1.000000
   12      -15.820915   1.000000
   13      -15.768920   1.000000
   14      -15.709961   1.000000
   15      -15.565939   1.000000
   16      -15.473200   1.000000
   17      -15.338758   1.000000
   18      -15.192616   1.000000
   19       -9.610499   1.000000
   20       -9.426627   1.000000
   21       -9.245449   1.000000
   22       -9.049346   1.000000
   23       -8.878647   1.000000
   24       -8.795609   1.000000
   25       -8.635508   1.000000
   26       -8.508140   1.000000
   27       -8.449719   1.000000
   28       -8.368397   1.000000
   29       -8.341260   1.000000
   30       -8.224390   1.000000
   31       -8.139523   1.000000
   32       -8.078424   1.000000
   33       -8.016815   1.000000
   34       -7.934293   1.000000
   35       -7.808508   1.000000
   36       -7.518110   1.000000
   37       -7.490476   1.000000
   38       -7.438304   1.000000
   39       -7.375455   1.000000
   40       -7.308076   1.000000
   41       -7.253906   1.000000
   42       -7.157406   1.000000
   43       -7.125780   1.000000
   44       -6.995293   1.000000
   45       -6.884071   1.000000
   46       -6.837971   1.000000
   47       -6.785865   1.000000