       N       E                     dE             d eps       ncg     rms          rms(c)
DAV:   1     0.112581680720E+04    0.11258E+04   -0.35983E+04  8160   0.577E+02
DAV:   2    -0.333744804688E+01   -0.11292E+04   -0.10877E+04 11280   0.173E+02
DAV:   3    -0.199867963659E+03   -0.19653E+03   -0.18895E+03 10880   0.821E+01
DAV:   4    -0.209006188282E+03   -0.91382E+01   -0.88791E+01 12240   0.262E+01
DAV:   5    -0.209305584729E+03   -0.29940E+00   -0.29855E+00 11400   0.344E+00    0.275E+01
DAV:   6    -0.237861228246E+03   -0.28556E+02   -0.10795E+02 12440   0.601E+01    0.595E+01
DAV:   7    -0.196571906246E+03    0.41289E+02   -0.17577E+02 13520   0.152E+02    0.200E+01
DAV:   8    -0.189488266527E+03    0.70836E+01   -0.17523E+01 12080   0.127E+01    0.126E+01
DAV:   9    -0.188133917037E+03    0.13543E+01   -0.30386E+00 13560   0.632E+00    0.915E+00
DAV:  10    -0.186933911656E+03    0.12000E+01   -0.17317E+00 13400   0.762E+00    0.217E+00
DAV:  11    -0.187024425836E+03   -0.90514E-01   -0.59153E-01 13480   0.253E+00    0.369E+00
DAV:  12    -0.186941281859E+03    0.83144E-01   -0.69127E-01 12680   0.380E+00    0.322E+00
DAV:  13    -0.186862890797E+03    0.78391E-01   -0.24273E-01 13280   0.297E+00    0.185E+00
DAV:  14    -0.186823624683E+03    0.39266E-01   -0.90791E-02 12800   0.166E+00    0.611E-01
DAV:  15    -0.186819920428E+03    0.37043E-02   -0.10053E-02 12480   0.348E-01    0.262E-01
DAV:  16    -0.186819535993E+03    0.38444E-03   -0.64088E-03 12760   0.394E-01    0.394E-01
DAV:  17    -0.186818608558E+03    0.92744E-03   -0.49682E-03 13280   0.382E-01    0.258E-01
DAV:  18    -0.186817976399E+03    0.63216E-03   -0.15168E-03 11400   0.199E-01    0.621E-02
DAV:  19    -0.186818597384E+03   -0.62098E-03   -0.82223E-04  9720   0.811E-02    0.701E-02
DAV:  20    -0.186819017800E+03   -0.42042E-03   -0.26824E-04  7360   0.466E-02    0.585E-02
DAV:  21    -0.186820095120E+03   -0.10773E-02   -0.28619E-04  7560   0.524E-02    0.292E-02
DAV:  22    -0.186821387511E+03   -0.12924E-02   -0.14072E-04  8000   0.377E-02    0.138E-02
DAV:  23    -0.186822085563E+03   -0.69805E-03   -0.40991E-05  6520   0.187E-02    0.805E-03
DAV:  24    -0.186822342399E+03   -0.25684E-03   -0.16748E-05  6120   0.116E-02    0.604E-03
DAV:  25    -0.186822703424E+03   -0.36102E-03   -0.13934E-05  5560   0.884E-03    0.351E-03
DAV:  26    -0.186822949199E+03   -0.24577E-03   -0.89456E-06  6800   0.820E-03    0.262E-03
DAV:  27    -0.186823022891E+03   -0.73693E-04   -0.33544E-06  7760   0.439E-03
   1 F= -.18682302E+03 E0= -.18665254E+03  d E =-.186823E+03
       N       E                     dE             d eps       ncg     rms          rms(c)
DAV:   1    -0.187494649337E+03   -0.67170E+00   -0.27498E+02  8160   0.352E+01    0.464E+00
DAV:   2    -0.189357412128E+03   -0.18628E+01   -0.20092E+01 12280   0.150E+01    0.849E+00
DAV:   3    -0.189369247328E+03   -0.11835E-01   -0.38173E+00 12480   0.120E+01    0.664E+00
DAV:   4    -0.188745333224E+03    0.62391E+00   -0.62357E-01 12720   0.477E+00    0.173E+00
DAV:   5    -0.188859057741E+03   -0.11372E+00   -0.46799E-01 12640   0.339E+00    0.540E+00
DAV:   6    -0.188709667440E+03    0.14939E+00   -0.79352E-01 12880   0.435E+00    0.191E+00
DAV:   7    -0.188677870161E+03    0.31797E-01   -0.11130E-01 11800   0.128E+00    0.963E-01
DAV:   8    -0.188661479966E+03    0.16390E-01   -0.36903E-02 12240   0.611E-01    0.479E-01
DAV:   9    -0.188660513701E+03    0.96626E-03   -0.76027E-03 12400   0.392E-01    0.428E-01
DAV:  10    -0.188660042226E+03    0.47148E-03   -0.51612E-03 13440   0.394E-01    0.322E-01
DAV:  11    -0.188659051119E+03    0.99111E-03   -0.28472E-03 12960   0.251E-01    0.114E-01
DAV:  12    -0.188659131442E+03   -0.80323E-04   -0.71590E-04 11640   0.953E-02
   2 F= -.18865913E+03 E0= -.18852103E+03  d E =-.183611E+01
       N       E                     dE             d eps       ncg     rms          rms(c)
DAV:   1    -0.190598915533E+03   -0.19399E+01   -0.31643E+01  9240   0.143E+01    0.446E+00
DAV:   2    -0.190534817122E+03    0.64098E-01   -0.27676E+00 11560   0.942E+00    0.714E+00
DAV:   3    -0.190081064842E+03    0.45375E+00   -0.13071E+00 12480   0.863E+00    0.428E+00
DAV:   4    -0.189862932011E+03    0.21813E+00   -0.68171E-01 12960   0.433E+00    0.247E+00
DAV:   5    -0.189773256609E+03    0.89675E-01   -0.29085E-01 11760   0.203E+00    0.105E+00
DAV:   6    -0.189763178343E+03    0.10078E-01   -0.54430E-02 11840   0.128E+00    0.775E-01
DAV:   7    -0.189758389962E+03    0.47884E-02   -0.12862E-02 12400   0.651E-01    0.228E-01
DAV:   8    -0.189758024380E+03    0.36558E-03   -0.20362E-03 10800   0.157E-01    0.118E-01
DAV:   9    -0.189758244926E+03   -0.22055E-03   -0.63303E-04  9560   0.894E-02    0.490E-02
DAV:  10    -0.189758301857E+03   -0.56931E-04   -0.23097E-04  7200   0.939E-02
   3 F= -.18975830E+03 E0= -.18964263E+03  d E =-.109917E+01
       N       E                     dE             d eps       ncg     rms          rms(c)
DAV:   1    -0.191356936089E+03   -0.15987E+01   -0.79039E+01  8160   0.202E+01    0.460E+00
DAV:   2    -0.191135779874E+03    0.22116E+00   -0.53857E+00 13400   0.726E+00    0.410E+00
DAV:   3    -0.191339297518E+03   -0.20352E+00   -0.14852E+00 12240   0.897E+00    0.682E+00
DAV:   4    -0.190917733481E+03    0.42156E+00   -0.13100E+00 13000   0.796E+00    0.276E+00
DAV:   5    -0.190808225358E+03    0.10951E+00   -0.29451E-01 11040   0.235E+00    0.127E+00
DAV:   6    -0.190803415354E+03    0.48100E-02   -0.11246E-01 12320   0.214E+00    0.148E+00
DAV:   7    -0.190787191914E+03    0.16223E-01   -0.51916E-02 11800   0.154E+00    0.582E-01
DAV:   8    -0.190782249305E+03    0.49426E-02   -0.75345E-03 10560   0.444E-01    0.161E-01
DAV:   9    -0.190783063009E+03   -0.81370E-03   -0.25451E-03 12320   0.276E-01    0.286E-01
DAV:  10    -0.190782691919E+03    0.37109E-03   -0.25014E-03 11760   0.331E-01    0.171E-01
DAV:  11    -0.190782386487E+03    0.30543E-03   -0.70361E-04  9920   0.141E-01    0.479E-02
DAV:  12    -0.190782375415E+03    0.11072E-04   -0.94383E-05  7120   0.393E-02
   4 F= -.19078238E+03 E0= -.19068621E+03  d E =-.102407E+01
       N       E                     dE             d eps       ncg     rms          rms(c)
DAV:   1    -0.192197809324E+03   -0.14154E+01   -0.17210E+02  8160   0.291E+01    0.552E+00
DAV:   2    -0.191914110729E+03    0.28370E+00   -0.89078E+00 10200   0.727E+00    0.301E+00
DAV:   3    -0.191739382739E+03    0.17473E+00   -0.11684E+00 10840   0.387E+00    0.247E+00
DAV:   4    -0.191787826040E+03   -0.48443E-01   -0.57773E-01 11480   0.502E+00    0.471E+00
DAV:   5    -0.191621565716E+03    0.16626E+00   -0.68103E-01 11040   0.558E+00    0.193E+00
DAV:   6    -0.191594607987E+03    0.26958E-01   -0.14085E-01 11880   0.255E+00    0.142E+00
DAV:   7    -0.191577207391E+03    0.17401E-01   -0.62675E-02 12440   0.189E+00    0.652E-01
DAV:   8    -0.191570842757E+03    0.63646E-02   -0.11436E-02 12440   0.667E-01    0.155E-01
DAV:   9    -0.191571724900E+03   -0.88214E-03   -0.29283E-03 11560   0.306E-01    0.283E-01
DAV:  10    -0.191571032534E+03    0.69237E-03   -0.18456E-03 11000   0.314E-01    0.878E-02
DAV:  11    -0.191571012384E+03    0.20150E-04   -0.17611E-04  6400   0.815E-02
   5 F= -.19157101E+03 E0= -.19148458E+03  d E =-.788637E+00
       N       E                     dE             d eps       ncg     rms          rms(c)
DAV:   1    -0.191675265484E+03   -0.10423E+00   -0.76632E+00  8160   0.586E+00    0.734E-01
DAV:   2    -0.191741980001E+03   -0.66715E-01   -0.35014E-01 13440   0.320E+00    0.215E+00
DAV:   3    -0.191690399364E+03    0.51581E-01   -0.97461E-02 12520   0.240E+00    0.367E-01
DAV:   4    -0.191690615184E+03   -0.21582E-03   -0.86989E-03 11360   0.609E-01    0.545E-01
DAV:   5    -0.191688385382E+03    0.22298E-02   -0.74200E-03 11720   0.650E-01    0.289E-01
DAV:   6    -0.191687688846E+03    0.69654E-03   -0.31896E-03 11520   0.282E-01    0.935E-02
DAV:   7    -0.191687508784E+03    0.18006E-03   -0.66789E-04 10960   0.113E-01    0.546E-02
DAV:   8    -0.191687538539E+03   -0.29755E-04   -0.24115E-04  7360   0.108E-01
   6 F= -.19168754E+03 E0= -.19160178E+03  d E =-.116526E+00
       N       E                     dE             d eps       ncg     rms          rms(c)
DAV:   1    -0.191834787681E+03   -0.14728E+00   -0.24707E+01  8160   0.105E+01    0.107E+00
DAV:   2    -0.191920233290E+03   -0.85446E-01   -0.71469E-01 12080   0.327E+00    0.209E+00
DAV:   3    -0.191878210639E+03    0.42023E-01   -0.15783E-01 12600   0.298E+00    0.965E-01
DAV:   4    -0.191872575106E+03    0.56355E-02   -0.28945E-02 11600   0.121E+00    0.865E-01
DAV:   5    -0.191866797420E+03    0.57777E-02   -0.20458E-02 12360   0.113E+00    0.506E-01
DAV:   6    -0.191864825041E+03    0.19724E-02   -0.83675E-03 12400   0.499E-01    0.196E-01
DAV:   7    -0.191864272184E+03    0.55286E-03   -0.28095E-03 10840   0.258E-01    0.154E-01
DAV:   8    -0.191864169197E+03    0.10299E-03   -0.10682E-03 10920   0.238E-01    0.125E-01
DAV:   9    -0.191864009451E+03    0.15975E-03   -0.34896E-04  8160   0.128E-01    0.344E-02
DAV:  10    -0.191863999598E+03    0.98532E-05   -0.10531E-04  6520   0.367E-02
   7 F= -.19186400E+03 E0= -.19178247E+03  d E =-.176461E+00
       N       E                     dE             d eps       ncg     rms          rms(c)
DAV:   1    -0.191902604165E+03   -0.38595E-01   -0.12003E+00  8160   0.241E+00    0.374E-01
DAV:   2    -0.191904043079E+03   -0.14389E-02   -0.52917E-02 11040   0.750E-01    0.358E-01
DAV:   3    -0.191904454205E+03   -0.41113E-03   -0.98532E-03 11880   0.764E-01    0.429E-01
DAV:   4    -0.191902075354E+03    0.23789E-02   -0.51481E-03 11880   0.556E-01    0.192E-01
DAV:   5    -0.191902220161E+03   -0.14481E-03   -0.28488E-03 11760   0.348E-01    0.262E-01
DAV:   6    -0.191901595394E+03    0.62477E-03   -0.17470E-03 10560   0.317E-01    0.978E-02
DAV:   7    -0.191901499488E+03    0.95905E-04   -0.30839E-04  7720   0.102E-01
   8 F= -.19190150E+03 E0= -.19182039E+03  d E =-.374999E-01
       N       E                     dE             d eps       ncg     rms          rms(c)
DAV:   1    -0.191973322808E+03   -0.71727E-01   -0.58463E+00  8160   0.513E+00    0.490E-01
DAV:   2    -0.191985526999E+03   -0.12204E-01   -0.17518E-01 11880   0.116E+00    0.354E-01
DAV:   3    -0.191987470967E+03   -0.19440E-02   -0.14274E-02 12720   0.815E-01    0.572E-01
DAV:   4    -0.191983435365E+03    0.40356E-02   -0.65739E-03 11640   0.691E-01    0.217E-01
DAV:   5    -0.191983770313E+03   -0.33495E-03   -0.35338E-03 12000   0.392E-01    0.292E-01
DAV:   6    -0.191983553452E+03    0.21686E-03   -0.34371E-03 11560   0.451E-01    0.242E-01
DAV:   7    -0.191982821011E+03    0.73244E-03   -0.11691E-03 10120   0.232E-01    0.456E-02
DAV:   8    -0.191982859955E+03   -0.38943E-04   -0.17105E-04  6920   0.971E-02
   9 F= -.19198286E+03 E0= -.19190308E+03  d E =-.813605E-01
       N       E                     dE             d eps       ncg     rms          rms(c)
DAV:   1    -0.192039996855E+03   -0.57176E-01   -0.41144E+00  8160   0.436E+00    0.494E-01
DAV:   2    -0.192050054547E+03   -0.10058E-01   -0.15578E-01 11760   0.118E+00    0.428E-01
DAV:   3    -0.192051709917E+03   -0.16554E-02   -0.16355E-02 12400   0.974E-01    0.588E-01
DAV:   4    -0.192047338949E+03    0.43710E-02   -0.79352E-03 12000   0.742E-01    0.258E-01
DAV:   5    -0.192047810044E+03   -0.47109E-03   -0.42413E-03 11520   0.458E-01    0.357E-01
DAV:   6    -0.192046919471E+03    0.89057E-03   -0.36988E-03 10640   0.450E-01    0.172E-01
DAV:   7    -0.192046466728E+03    0.45274E-03   -0.93481E-04 10040   0.169E-01    0.390E-02
DAV:   8    -0.192046477664E+03   -0.10936E-04   -0.12991E-04  7480   0.804E-02
  10 F= -.19204648E+03 E0= -.19196650E+03  d E =-.636177E-01
       N       E                     dE             d eps       ncg     rms          rms(c)
DAV:   1    -0.192100337079E+03   -0.53870E-01   -0.54758E+00  8160   0.496E+00    0.528E-01
DAV:   2    -0.192115869085E+03   -0.15532E-01   -0.19781E-01 11280   0.142E+00    0.590E-01
DAV:   3    -0.192115782193E+03    0.86892E-04   -0.24552E-02 12320   0.119E+00    0.621E-01
DAV:   4    -0.192111911610E+03    0.38706E-02   -0.10016E-02 11160   0.770E-01    0.337E-01
DAV:   5    -0.192111532862E+03    0.37875E-03   -0.43201E-03 12240   0.517E-01    0.315E-01
DAV:   6    -0.192110881702E+03    0.65116E-03   -0.31086E-03 11600   0.402E-01    0.156E-01
DAV:   7    -0.192110466709E+03    0.41499E-03   -0.10320E-03 10520   0.148E-01    0.294E-02
DAV:   8    -0.192110466146E+03    0.56337E-06   -0.97567E-05  7040   0.410E-02
  11 F= -.19211047E+03 E0= -.19203043E+03  d E =-.639885E-01
       N       E                     dE             d eps       ncg     rms          rms(c)
DAV:   1    -0.192131152872E+03   -0.20686E-01   -0.66681E-01  8160   0.180E+00    0.284E-01
DAV:   2    -0.192132788860E+03   -0.16360E-02   -0.34168E-02 11400   0.621E-01    0.340E-01
DAV:   3    -0.192133212005E+03   -0.42314E-03   -0.75887E-03 12320   0.683E-01    0.411E-01
DAV:   4    -0.192131349635E+03    0.18624E-02   -0.32792E-03 11400   0.452E-01    0.152E-01
DAV:   5    -0.192131443650E+03   -0.94014E-04   -0.14318E-03 10040   0.294E-01    0.193E-01
DAV:   6    -0.192131043768E+03    0.39988E-03   -0.10704E-03 10280   0.242E-01    0.769E-02
DAV:   7    -0.192131047492E+03   -0.37240E-05   -0.32818E-04  8400   0.140E-01
  12 F= -.19213105E+03 E0= -.19205047E+03  d E =-.205813E-01
       N       E                     dE             d eps       ncg     rms          rms(c)
DAV:   1    -0.192161146401E+03   -0.30103E-01   -0.21526E+00  8160   0.311E+00    0.364E-01
DAV:   2    -0.192170283564E+03   -0.91372E-02   -0.88982E-02 11480   0.112E+00    0.615E-01
DAV:   3    -0.192167233490E+03    0.30501E-02   -0.15145E-02 11360   0.941E-01    0.395E-01
DAV:   4    -0.192166256897E+03    0.97659E-03   -0.47579E-03 12480   0.510E-01    0.286E-01
DAV:   5    -0.192165567083E+03    0.68981E-03   -0.23205E-03 11240   0.397E-01    0.170E-01
DAV:   6    -0.192165346662E+03    0.22042E-03   -0.10624E-03 11160   0.207E-01    0.842E-02
DAV:   7    -0.192165235315E+03    0.11135E-03   -0.40600E-04  9200   0.860E-02    0.353E-02
DAV:   8    -0.192165238072E+03   -0.27573E-05   -0.75874E-05  7520   0.695E-02
  13 F= -.19216524E+03 E0= -.19208454E+03  d E =-.341906E-01
       N       E                     dE             d eps       ncg     rms          rms(c)
DAV:   1    -0.192189153392E+03   -0.23918E-01   -0.14978E+00  8160   0.263E+00    0.336E-01
DAV:   2    -0.192194120698E+03   -0.49673E-02   -0.65898E-02 11840   0.772E-01    0.421E-01
DAV:   3    -0.192194594399E+03   -0.47370E-03   -0.12300E-02 11800   0.828E-01    0.514E-01
DAV:   4    -0.192191899227E+03    0.26952E-02   -0.45556E-03 11800   0.513E-01    0.157E-01
DAV:   5    -0.192191843893E+03    0.55334E-04   -0.15298E-03 10560   0.299E-01    0.168E-01
DAV:   6    -0.192191635462E+03    0.20843E-03   -0.98142E-04 10480   0.249E-01    0.966E-02
DAV:   7    -0.192191492290E+03    0.14317E-03   -0.37078E-04  8720   0.111E-01    0.292E-02
DAV:   8    -0.192191491830E+03    0.46059E-06   -0.66082E-05  8080   0.569E-02
  14 F= -.19219149E+03 E0= -.19211041E+03  d E =-.262538E-01
       N       E                     dE             d eps       ncg     rms          rms(c)
DAV:   1    -0.192212149417E+03   -0.20657E-01   -0.13933E+00  8160   0.250E+00    0.330E-01
DAV:   2    -0.192220574831E+03   -0.84254E-02   -0.65776E-02 11440   0.115E+00    0.686E-01
DAV:   3    -0.192215453489E+03    0.51213E-02   -0.13139E-02 11880   0.902E-01    0.259E-01
DAV:   4    -0.192215433866E+03    0.19623E-04   -0.31509E-03 12160   0.419E-01    0.280E-01
DAV:   5    -0.192214718315E+03    0.71555E-03   -0.19653E-03 10640   0.377E-01    0.144E-01
DAV:   6    -0.192214560510E+03    0.15780E-03   -0.82151E-04 11400   0.162E-01    0.667E-02
DAV:   7    -0.192214476038E+03    0.84472E-04   -0.27901E-04  7560   0.642E-02
  15 F= -.19221448E+03 E0= -.19213394E+03  d E =-.229842E-01
       N       E                     dE             d eps       ncg     rms          rms(c)
DAV:   1    -0.192228194706E+03   -0.13634E-01   -0.62005E-01  8160   0.170E+00    0.237E-01
DAV:   2    -0.192230809408E+03   -0.26147E-02   -0.29608E-02 11920   0.591E-01    0.371E-01
DAV:   3    -0.192230133028E+03    0.67638E-03   -0.64634E-03 12000   0.620E-01    0.303E-01
DAV:   4    -0.192229178780E+03    0.95425E-03   -0.17470E-03 11520   0.313E-01    0.113E-01
DAV:   5    -0.192229163209E+03    0.15571E-04   -0.76499E-04 10160   0.224E-01
  16 F= -.19222916E+03 E0= -.19214896E+03  d E =-.146872E-01
       N       E                     dE             d eps       ncg     rms          rms(c)
DAV:   1    -0.192244122732E+03   -0.14944E-01   -0.90061E-01  8160   0.202E+00    0.279E-01
DAV:   2    -0.192249814909E+03   -0.56922E-02   -0.40377E-02 11400   0.900E-01    0.596E-01
DAV:   3    -0.192245907823E+03    0.39071E-02   -0.90039E-03 11880   0.765E-01    0.205E-01
DAV:   4    -0.192246062576E+03   -0.15475E-03   -0.20252E-03 11160   0.356E-01    0.250E-01
DAV:   5    -0.192245409591E+03    0.65299E-03   -0.13208E-03 10480   0.316E-01    0.900E-02
DAV:   6    -0.192245377557E+03    0.32034E-04   -0.40578E-04  9120   0.989E-02
  17 F= -.19224538E+03 E0= -.19216593E+03  d E =-.162143E-01
       N       E                     dE             d eps       ncg     rms          rms(c)
DAV:   1    -0.192263094709E+03   -0.17685E-01   -0.17251E+00  8160   0.280E+00    0.370E-01
DAV:   2    -0.192271276392E+03   -0.81817E-02   -0.77190E-02 11400   0.101E+00    0.628E-01
DAV:   3    -0.192267769457E+03    0.35069E-02   -0.15185E-02 11880   0.967E-01    0.372E-01
DAV:   4    -0.192266809526E+03    0.95993E-03   -0.39338E-03 12520   0.474E-01    0.258E-01
DAV:   5    -0.192266212264E+03    0.59726E-03   -0.19884E-03 10880   0.384E-01    0.151E-01
DAV:   6    -0.192266049011E+03    0.16325E-03   -0.87482E-04 10480   0.176E-01    0.720E-02
DAV:   7    -0.192265968013E+03    0.80998E-04   -0.36588E-04  8880   0.954E-02
  18 F= -.19226597E+03 E0= -.19218777E+03  d E =-.205905E-01
       N       E                     dE             d eps       ncg     rms          rms(c)
DAV:   1    -0.192272834063E+03   -0.67851E-02   -0.23511E-01  8160   0.104E+00    0.179E-01
DAV:   2    -0.192274914892E+03   -0.20808E-02   -0.14032E-02 10400   0.642E-01    0.406E-01
DAV:   3    -0.192273053893E+03    0.18610E-02   -0.37548E-03 12400   0.511E-01    0.121E-01
DAV:   4    -0.192273074146E+03   -0.20252E-04   -0.82328E-04  9760   0.218E-01
  19 F= -.19227307E+03 E0= -.19219569E+03  d E =-.710613E-02
       N       E                     dE             d eps       ncg     rms          rms(c)
DAV:   1    -0.192283539191E+03   -0.10485E-01   -0.71354E-01  8160   0.180E+00    0.243E-01
DAV:   2    -0.192285913813E+03   -0.23746E-02   -0.28285E-02 11400   0.585E-01    0.347E-01
DAV:   3    -0.192285265117E+03    0.64870E-03   -0.55878E-03 11680   0.589E-01    0.282E-01
DAV:   4    -0.192284560355E+03    0.70476E-03   -0.19958E-03 11720   0.338E-01    0.141E-01
DAV:   5    -0.192284439116E+03    0.12124E-03   -0.92369E-04 10480   0.250E-01    0.127E-01
DAV:   6    -0.192284321378E+03    0.11774E-03   -0.50246E-04  9760   0.177E-01    0.621E-02
DAV:   7    -0.192284260179E+03    0.61198E-04   -0.12230E-04  6320   0.614E-02
  20 F= -.19228426E+03 E0= -.19220830E+03  d E =-.111860E-01
       N       E                     dE             d eps       ncg     rms          rms(c)
DAV:   1    -0.192297437808E+03   -0.13116E-01   -0.21326E+00  8160   0.309E+00    0.406E-01
DAV:   2    -0.192308869358E+03   -0.11432E-01   -0.10145E-01 11240   0.121E+00    0.732E-01
DAV:   3    -0.192303994088E+03    0.48753E-02   -0.17663E-02 12000   0.109E+00    0.389E-01
DAV:   4    -0.192302638679E+03    0.13554E-02   -0.38878E-03 11960   0.488E-01    0.234E-01
DAV:   5    -0.192302200268E+03    0.43841E-03   -0.18663E-03 11560   0.378E-01    0.157E-01
DAV:   6    -0.192302040473E+03    0.15980E-03   -0.98995E-04 10760   0.189E-01    0.775E-02
DAV:   7    -0.192301919080E+03    0.12139E-03   -0.35501E-04  9120   0.899E-02    0.386E-02
DAV:   8    -0.192301916927E+03    0.21526E-05   -0.75394E-05  8160   0.754E-02
  21 F= -.19230192E+03 E0= -.19222806E+03  d E =-.176567E-01
       N       E                     dE             d eps       ncg     rms          rms(c)
DAV:   1    -0.192305845035E+03   -0.39260E-02   -0.15841E-01  8160   0.860E-01    0.152E-01
DAV:   2    -0.192307285517E+03   -0.14405E-02   -0.87747E-03 10320   0.562E-01    0.349E-01
DAV:   3    -0.192305782015E+03    0.15035E-02   -0.24060E-03 12360   0.427E-01    0.712E-02
DAV:   4    -0.192305712694E+03    0.69321E-04   -0.25153E-04  6960   0.824E-02
  22 F= -.19230571E+03 E0= -.19223278E+03  d E =-.379577E-02
       N       E                     dE             d eps       ncg     rms          rms(c)
DAV:   1    -0.192311483179E+03   -0.57012E-02   -0.43023E-01  8160   0.139E+00    0.194E-01
DAV:   2    -0.192313373516E+03   -0.18903E-02   -0.20172E-02 10720   0.539E-01    0.297E-01
DAV:   3    -0.192312552376E+03    0.82114E-03   -0.30455E-03 13360   0.469E-01    0.158E-01
DAV:   4    -0.192312250672E+03    0.30170E-03   -0.64725E-04 10040   0.198E-01    0.888E-02
DAV:   5    -0.192312313711E+03   -0.63040E-04   -0.47884E-04 10400   0.192E-01
  23 F= -.19231231E+03 E0= -.19224073E+03  d E =-.660102E-02
       N       E                     dE             d eps       ncg     rms          rms(c)
DAV:   1    -0.192316524677E+03   -0.42740E-02   -0.29667E-01  8160   0.117E+00    0.154E-01
DAV:   2    -0.192317234862E+03   -0.71019E-03   -0.12056E-02 10280   0.314E-01    0.142E-01
DAV:   3    -0.192317444466E+03   -0.20960E-03   -0.17407E-03 12720   0.340E-01    0.207E-01
DAV:   4    -0.192316931813E+03    0.51265E-03   -0.72507E-04 10400   0.240E-01    0.637E-02
DAV:   5    -0.192316971751E+03   -0.39938E-04   -0.26980E-04  8520   0.136E-01
  24 F= -.19231697E+03 E0= -.19224615E+03  d E =-.465804E-02
       N       E                     dE             d eps       ncg     rms          rms(c)
DAV:   1    -0.192320430398E+03   -0.34986E-02   -0.23860E-01  8160   0.104E+00    0.152E-01
DAV:   2    -0.192322180655E+03   -0.17503E-02   -0.12889E-02 10760   0.501E-01    0.310E-01
DAV:   3    -0.192321068590E+03    0.11121E-02   -0.24505E-03 11840   0.424E-01    0.110E-01
DAV:   4    -0.192321026871E+03    0.41719E-04   -0.47139E-04  8640   0.166E-01
  25 F= -.19232103E+03 E0= -.19225081E+03  d E =-.405512E-02
       N       E                     dE             d eps       ncg     rms          rms(c)
DAV:   1    -0.192323426103E+03   -0.23575E-02   -0.13260E-01  8160   0.783E-01    0.114E-01
DAV:   2    -0.192323928414E+03   -0.50231E-03   -0.52056E-03 11640   0.270E-01    0.180E-01
DAV:   3    -0.192323680950E+03    0.24746E-03   -0.11933E-03 11240   0.289E-01    0.119E-01
DAV:   4    -0.192323526445E+03    0.15450E-03   -0.29911E-04  8760   0.126E-01    0.425E-02
DAV:   5    -0.192323514345E+03    0.12100E-04   -0.12255E-04  6760   0.585E-02
  26 F= -.19232351E+03 E0= -.19225374E+03  d E =-.248747E-02
       N       E                     dE             d eps       ncg     rms          rms(c)
DAV:   1    -0.192326213845E+03   -0.26874E-02   -0.25704E-01  8160   0.107E+00    0.136E-01
DAV:   2    -0.192327536129E+03   -0.13223E-02   -0.13206E-02 10600   0.406E-01    0.219E-01
DAV:   3    -0.192327222022E+03    0.31411E-03   -0.18262E-03 13080   0.366E-01    0.145E-01
DAV:   4    -0.192326959233E+03    0.26279E-03   -0.33358E-04  8520   0.156E-01    0.407E-02
DAV:   5    -0.192327029295E+03   -0.70062E-04   -0.17802E-04  7240   0.114E-01
  27 F= -.19232703E+03 E0= -.19225800E+03  d E =-.351495E-02
       N       E                     dE             d eps       ncg     rms          rms(c)
DAV:   1    -0.192328285312E+03   -0.13261E-02   -0.55702E-02  8160   0.507E-01    0.808E-02
DAV:   2    -0.192328557982E+03   -0.27267E-03   -0.26846E-03 10880   0.233E-01    0.141E-01
DAV:   3    -0.192328335162E+03    0.22282E-03   -0.55181E-04 10160   0.206E-01    0.581E-02
DAV:   4    -0.192328305674E+03    0.29488E-04   -0.10958E-04  5920   0.840E-02
  28 F= -.19232831E+03 E0= -.19225962E+03  d E =-.127638E-02
       N       E                     dE             d eps       ncg     rms          rms(c)
DAV:   1    -0.192330090912E+03   -0.17558E-02   -0.13079E-01  8160   0.771E-01    0.990E-02
DAV:   2    -0.192330656175E+03   -0.56526E-03   -0.58656E-03 11080   0.263E-01    0.152E-01
DAV:   3    -0.192330496104E+03    0.16007E-03   -0.87354E-04 11280   0.258E-01    0.108E-01
DAV:   4    -0.192330360753E+03    0.13535E-03   -0.16135E-04  6840   0.111E-01    0.329E-02
DAV:   5    -0.192330380408E+03   -0.19655E-04   -0.91030E-05  6680   0.804E-02
  29 F= -.19233038E+03 E0= -.19226223E+03  d E =-.207473E-02
       N       E                     dE             d eps       ncg     rms          rms(c)
DAV:   1    -0.192331765799E+03   -0.14050E-02   -0.11291E-01  8160   0.714E-01    0.967E-02
DAV:   2    -0.192332456831E+03   -0.69103E-03   -0.60736E-03 10800   0.299E-01    0.171E-01
DAV:   3    -0.192332138977E+03    0.31785E-03   -0.87866E-04 11080   0.257E-01    0.759E-02
DAV:   4    -0.192332080449E+03    0.58528E-04   -0.11525E-04  5800   0.100E-01
  30 F= -.19233208E+03 E0= -.19226427E+03  d E =-.170004E-02
       N       E                     dE             d eps       ncg     rms          rms(c)
DAV:   1    -0.192333239927E+03   -0.11010E-02   -0.74062E-02  8160   0.586E-01    0.841E-02
DAV:   2    -0.192333590299E+03   -0.35037E-03   -0.31953E-03 11720   0.221E-01    0.147E-01
DAV:   3    -0.192333393069E+03    0.19723E-03   -0.61959E-04 10720   0.222E-01    0.784E-02
DAV:   4    -0.192333315441E+03    0.77628E-04   -0.93085E-05  6000   0.819E-02
  31 F= -.19233332E+03 E0= -.19226579E+03  d E =-.123499E-02
       N       E                     dE             d eps       ncg     rms          rms(c)
DAV:   1    -0.192333290808E+03    0.10226E-03   -0.19016E+00  8160   0.293E+00    0.360E-01
DAV:   2    -0.192341371527E+03   -0.80807E-02   -0.89947E-02 11560   0.963E-01    0.462E-01
DAV:   3    -0.192340176624E+03    0.11949E-02   -0.10202E-02 12320   0.872E-01    0.380E-01
DAV:   4    -0.192338300856E+03    0.18758E-02   -0.26683E-03 12320   0.436E-01    0.140E-01
DAV:   5    -0.192338594495E+03   -0.29364E-03   -0.14810E-03 10760   0.332E-01    0.214E-01
DAV:   6    -0.192338141048E+03    0.45345E-03   -0.11685E-03 10120   0.261E-01    0.701E-02
DAV:   7    -0.192338042865E+03    0.98183E-04   -0.21292E-04  7160   0.743E-02
  32 F= -.19233804E+03 E0= -.19227163E+03  d E =-.472742E-02
       N       E                     dE             d eps       ncg     rms          rms(c)
DAV:   1    -0.192336272861E+03    0.18682E-02   -0.27342E-01  8160   0.112E+00    0.146E-01
DAV:   2    -0.192337110973E+03   -0.83811E-03   -0.12520E-02 10640   0.337E-01    0.153E-01
DAV:   3    -0.192337237362E+03   -0.12639E-03   -0.16691E-03 12920   0.344E-01    0.201E-01
DAV:   4    -0.192336727522E+03    0.50984E-03   -0.68805E-04  9840   0.224E-01    0.508E-02
DAV:   5    -0.192336775820E+03   -0.48298E-04   -0.26698E-04  7480   0.124E-01
  33 F= -.19233678E+03 E0= -.19226993E+03  d E =0.126704E-02
       N       E                     dE             d eps       ncg     rms          rms(c)
DAV:   1    -0.192337508752E+03   -0.78123E-03   -0.15816E-01  8160   0.844E-01    0.934E-02
DAV:   2    -0.192338046776E+03   -0.53802E-03   -0.67131E-03 11400   0.246E-01    0.914E-02
DAV:   3    -0.192338044986E+03    0.17897E-05   -0.71705E-04 11120   0.201E-01
  34 F= -.19233804E+03 E0= -.19227156E+03  d E =-.126917E-02
       N       E                     dE             d eps       ncg     rms          rms(c)
DAV:   1    -0.192337928388E+03    0.11839E-03   -0.28779E-04  9560   0.146E-01    0.452E-02
DAV:   2    -0.192338118763E+03   -0.19038E-03   -0.36668E-04  8680   0.166E-01    0.130E-01
DAV:   3    -0.192337903896E+03    0.21487E-03   -0.25024E-04  8200   0.160E-01    0.330E-02
DAV:   4    -0.192337896525E+03    0.73707E-05   -0.39120E-05  5720   0.413E-02
  35 F= -.19233790E+03 E0= -.19227145E+03  d E =0.148461E-03
