<?xml version="1.0" encoding="ISO-8859-1"?>
<modeling>
 <generator>
  <i name="program" type="string">vasp </i>
  <i name="version" type="string">5.4.1  </i>
  <i name="subversion" type="string">05Feb16 (build Jul 05 2020 17:13:04) complex                          parallel </i>
  <i name="platform" type="string">IFC91_ompi </i>
  <i name="date" type="string">2024 04 21 </i>
  <i name="time" type="string">19:34:08 </i>
 </generator>
 <incar>
  <i type="int" name="ISTART">     0</i>
  <i type="string" name="PREC">normal</i>
  <i type="string" name="ALGO"> Normal</i>
  <i type="int" name="ISPIN">     1</i>
  <i type="int" name="ICHARG">     2</i>
  <i type="int" name="IBRION">     1</i>
  <i type="int" name="NSW">   100</i>
  <i type="int" name="ISIF">     3</i>
  <i type="int" name="ISYM">     0</i>
  <i name="SYMPREC">      0.00000001</i>
  <i name="POTIM">      0.50000000</i>
  <i type="logical" name="LREAL"> F  </i>
  <i type="logical" name="LPLANE"> F  </i>
  <i type="int" name="ISMEAR">     0</i>
  <i type="logical" name="LWAVE"> F  </i>
  <i type="logical" name="LCHARG"> F  </i>
  <v type="int" name="KPOINT_BSE">    -1     0     0     0</v>
 </incar>
 <kpoints>
  <generation param="Gamma">
   <v type="int" name="divisions">       8        8        1 </v>
   <v name="usershift">      0.00000000       0.00000000       0.00000000 </v>
   <v name="genvec1">      0.12500000       0.00000000       0.00000000 </v>
   <v name="genvec2">     -0.00000000       0.12500000       0.00000000 </v>
   <v name="genvec3">      0.00000000       0.00000000       1.00000000 </v>
   <v name="shift">      0.00000000       0.00000000       0.00000000 </v>
  </generation>
  <varray name="kpointlist" >
   <v>       0.00000000       0.00000000       0.00000000 </v>
   <v>       0.12500000       0.00000000       0.00000000 </v>
   <v>       0.25000000       0.00000000       0.00000000 </v>
   <v>       0.37500000       0.00000000       0.00000000 </v>
   <v>       0.50000000       0.00000000       0.00000000 </v>
   <v>       0.00000000       0.12500000       0.00000000 </v>
   <v>       0.12500000       0.12500000       0.00000000 </v>
   <v>       0.25000000       0.12500000       0.00000000 </v>
   <v>       0.37500000       0.12500000       0.00000000 </v>
   <v>       0.50000000       0.12500000       0.00000000 </v>
   <v>      -0.37500000       0.12500000       0.00000000 </v>
   <v>      -0.25000000       0.12500000       0.00000000 </v>
   <v>      -0.12500000       0.12500000       0.00000000 </v>
   <v>       0.00000000       0.25000000       0.00000000 </v>
   <v>       0.12500000       0.25000000       0.00000000 </v>
   <v>       0.25000000       0.25000000       0.00000000 </v>
   <v>       0.37500000       0.25000000       0.00000000 </v>
   <v>       0.50000000       0.25000000       0.00000000 </v>
   <v>      -0.37500000       0.25000000       0.00000000 </v>
   <v>      -0.25000000       0.25000000       0.00000000 </v>
   <v>      -0.12500000       0.25000000       0.00000000 </v>
   <v>      -0.00000000       0.37500000       0.00000000 </v>
   <v>       0.12500000       0.37500000       0.00000000 </v>
   <v>       0.25000000       0.37500000       0.00000000 </v>
   <v>       0.37500000       0.37500000       0.00000000 </v>
   <v>       0.50000000       0.37500000       0.00000000 </v>
   <v>      -0.37500000       0.37500000       0.00000000 </v>
   <v>      -0.25000000       0.37500000       0.00000000 </v>
   <v>      -0.12500000       0.37500000       0.00000000 </v>
   <v>       0.00000000       0.50000000       0.00000000 </v>
   <v>       0.12500000       0.50000000       0.00000000 </v>
   <v>       0.25000000       0.50000000       0.00000000 </v>
   <v>       0.37500000       0.50000000       0.00000000 </v>
   <v>       0.50000000       0.50000000       0.00000000 </v>
  </varray>
  <varray name="weights" >
   <v>       0.01562500 </v>
   <v>       0.03125000 </v>
   <v>       0.03125000 </v>
   <v>       0.03125000 </v>
   <v>       0.01562500 </v>
   <v>       0.03125000 </v>
   <v>       0.03125000 </v>
   <v>       0.03125000 </v>
   <v>       0.03125000 </v>
   <v>       0.03125000 </v>
   <v>       0.03125000 </v>
   <v>       0.03125000 </v>
   <v>       0.03125000 </v>
   <v>       0.03125000 </v>
   <v>       0.03125000 </v>
   <v>       0.03125000 </v>
   <v>       0.03125000 </v>
   <v>       0.03125000 </v>
   <v>       0.03125000 </v>
   <v>       0.03125000 </v>
   <v>       0.03125000 </v>
   <v>       0.03125000 </v>
   <v>       0.03125000 </v>
   <v>       0.03125000 </v>
   <v>       0.03125000 </v>
   <v>       0.03125000 </v>
   <v>       0.03125000 </v>
   <v>       0.03125000 </v>
   <v>       0.03125000 </v>
   <v>       0.01562500 </v>
   <v>       0.03125000 </v>
   <v>       0.03125000 </v>
   <v>       0.03125000 </v>
   <v>       0.01562500 </v>
  </varray>
 </kpoints>
 <parameters>
  <separator name="general" >
   <i type="string" name="SYSTEM">unknown system</i>
   <i type="logical" name="LCOMPAT"> F  </i>
  </separator>
  <separator name="electronic" >
   <i type="string" name="PREC">normal</i>
   <i name="ENMAX">    280.00000000</i>
   <i name="ENAUG">    373.43800000</i>
   <i name="EDIFF">      0.00010000</i>
   <i type="int" name="IALGO">    38</i>
   <i type="int" name="IWAVPR">    11</i>
   <i type="int" name="NBANDS">   120</i>
   <i name="NELECT">    159.00000000</i>
   <i type="int" name="TURBO">     0</i>
   <i type="int" name="IRESTART">     0</i>
   <i type="int" name="NREBOOT">     0</i>
   <i type="int" name="NMIN">     0</i>
   <i name="EREF">      0.00000000</i>
   <separator name="electronic smearing" >
    <i type="int" name="ISMEAR">     0</i>
    <i name="SIGMA">      0.20000000</i>
    <i name="KSPACING">      0.50000000</i>
    <i type="logical" name="KGAMMA"> T  </i>
   </separator>
   <separator name="electronic projectors" >
    <i type="logical" name="LREAL"> F  </i>
    <v name="ROPT">      0.00000000      0.00000000      0.00000000      0.00000000</v>
    <i type="int" name="LMAXPAW">  -100</i>
    <i type="int" name="LMAXMIX">     2</i>
    <i type="logical" name="NLSPLINE"> F  </i>
   </separator>
   <separator name="electronic startup" >
    <i type="int" name="ISTART">     0</i>
    <i type="int" name="ICHARG">     2</i>
    <i type="int" name="INIWAV">     1</i>
   </separator>
   <separator name="electronic spin" >
    <i type="int" name="ISPIN">     1</i>
    <i type="logical" name="LNONCOLLINEAR"> F  </i>
    <v name="MAGMOM">      1.00000000      1.00000000      1.00000000      1.00000000      1.00000000      1.00000000      1.00000000      1.00000000      1.00000000      1.00000000      1.00000000      1.00000000      1.00000000      1.00000000      1.00000000      1.00000000      1.00000000      1.00000000      1.00000000      1.00000000
      1.00000000      1.00000000      1.00000000      1.00000000      1.00000000      1.00000000      1.00000000</v>
    <i name="NUPDOWN">     -1.00000000</i>
    <i type="logical" name="LSORBIT"> F  </i>
    <v name="SAXIS">      0.00000000      0.00000000      1.00000000</v>
    <i type="logical" name="LSPIRAL"> F  </i>
    <v name="QSPIRAL">      0.00000000      0.00000000      0.00000000</v>
    <i type="logical" name="LZEROZ"> F  </i>
   </separator>
   <separator name="electronic exchange-correlation" >
    <i type="logical" name="LASPH"> F  </i>
    <i type="logical" name="LMETAGGA"> F  </i>
   </separator>
   <separator name="electronic convergence" >
    <i type="int" name="NELM">    60</i>
    <i type="int" name="NELMDL">    -5</i>
    <i type="int" name="NELMIN">     2</i>
    <i name="ENINI">    280.00000000</i>
    <separator name="electronic convergence detail" >
     <i type="logical" name="LDIAG"> T  </i>
     <i type="logical" name="LSUBROT"> F  </i>
     <i name="WEIMIN">      0.00100000</i>
     <i name="EBREAK">      0.00000021</i>
     <i name="DEPER">      0.30000000</i>
     <i type="int" name="NRMM">     4</i>
     <i name="TIME">      0.40000000</i>
    </separator>
   </separator>
   <separator name="electronic mixer" >
    <i name="AMIX">      0.40000000</i>
    <i name="BMIX">      1.00000000</i>
    <i name="AMIN">      0.10000000</i>
    <i name="AMIX_MAG">      1.60000000</i>
    <i name="BMIX_MAG">      1.00000000</i>
    <separator name="electronic mixer details" >
     <i type="int" name="IMIX">     4</i>
     <i type="logical" name="MIXFIRST"> F  </i>
     <i type="int" name="MAXMIX">   -45</i>
     <i name="WC">    100.00000000</i>
     <i type="int" name="INIMIX">     1</i>
     <i type="int" name="MIXPRE">     1</i>
     <i type="int" name="MREMOVE">     5</i>
    </separator>
   </separator>
   <separator name="electronic dipolcorrection" >
    <i type="logical" name="LDIPOL"> F  </i>
    <i type="logical" name="LMONO"> F  </i>
    <i type="int" name="IDIPOL">     0</i>
    <i name="EPSILON">      1.00000000</i>
    <v name="DIPOL">   -100.00000000   -100.00000000   -100.00000000</v>
    <i name="EFIELD">      0.00000000</i>
   </separator>
  </separator>
  <separator name="grids" >
   <i type="int" name="NGX">    42</i>
   <i type="int" name="NGY">    42</i>
   <i type="int" name="NGZ">   126</i>
   <i type="int" name="NGXF">    84</i>
   <i type="int" name="NGYF">    84</i>
   <i type="int" name="NGZF">   252</i>
   <i type="logical" name="ADDGRID"> F  </i>
  </separator>
  <separator name="ionic" >
   <i type="int" name="NSW">   100</i>
   <i type="int" name="IBRION">     1</i>
   <i type="int" name="ISIF">     3</i>
   <i name="PSTRESS">      0.00000000</i>
   <i name="EDIFFG">      0.00100000</i>
   <i type="int" name="NFREE">     0</i>
   <i name="POTIM">      0.50000000</i>
   <i name="SMASS">     -3.00000000</i>
   <i name="SCALEE">      1.00000000</i>
  </separator>
  <separator name="ionic md" >
   <i name="TEBEG">      0.00010000</i>
   <i name="TEEND">      0.00010000</i>
   <i type="int" name="NBLOCK">     1</i>
   <i type="int" name="KBLOCK">   100</i>
   <i type="int" name="NPACO">   256</i>
   <i name="APACO">     16.00000000</i>
  </separator>
  <separator name="symmetry" >
   <i type="int" name="ISYM">     0</i>
   <i name="SYMPREC">      0.00000001</i>
  </separator>
  <separator name="dos" >
   <i type="logical" name="LORBIT"> F  </i>
   <v name="RWIGS">     -1.00000000     -1.00000000     -1.00000000     -1.00000000</v>
   <i type="int" name="NEDOS">   301</i>
   <i name="EMIN">     10.00000000</i>
   <i name="EMAX">    -10.00000000</i>
   <i name="EFERMI">      0.00000000</i>
  </separator>
  <separator name="writing" >
   <i type="int" name="NWRITE">     2</i>
   <i type="logical" name="LWAVE"> F  </i>
   <i type="logical" name="LCHARG"> F  </i>
   <i type="logical" name="LPARD"> F  </i>
   <i type="logical" name="LVTOT"> F  </i>
   <i type="logical" name="LVHAR"> F  </i>
   <i type="logical" name="LELF"> F  </i>
   <i type="logical" name="LOPTICS"> F  </i>
   <v name="STM">      0.00000000      0.00000000      0.00000000      0.00000000      0.00000000      0.00000000      0.00000000</v>
  </separator>
  <separator name="performance" >
   <i type="int" name="NPAR">    40</i>
   <i type="int" name="NSIM">     4</i>
   <i type="int" name="NBLK">    -1</i>
   <i type="logical" name="LPLANE"> F  </i>
   <i type="logical" name="LSCALAPACK"> T  </i>
   <i type="logical" name="LSCAAWARE"> F  </i>
   <i type="logical" name="LSCALU"> F  </i>
   <i type="logical" name="LASYNC"> F  </i>
   <i type="logical" name="LORBITALREAL"> F  </i>
  </separator>
  <separator name="miscellaneous" >
   <i type="int" name="IDIOT">     3</i>
   <i type="logical" name="LMUSIC"> F  </i>
   <v name="POMASS">     50.94100000     95.94000000    183.85000000     32.06600000</v>
   <v name="DARWINR">      0.00000000      0.00000000      0.00000000      0.00000000</v>
   <v name="DARWINV">      1.00000000      1.00000000      1.00000000      1.00000000</v>
   <i type="logical" name="LCORR"> T  </i>
  </separator>
  <i type="logical" name="GGA_COMPAT"> T  </i>
  <i type="logical" name="LBERRY"> F  </i>
  <i type="int" name="ICORELEVEL">     0</i>
  <i type="logical" name="LDAU"> F  </i>
  <i type="int" name="I_CONSTRAINED_M">     0</i>
  <separator name="electronic exchange-correlation" >
   <i type="string" name="GGA">--</i>
   <i type="int" name="VOSKOWN">     0</i>
   <i type="logical" name="LHFCALC"> F  </i>
   <i type="string" name="PRECFOCK"></i>
   <i type="logical" name="LSYMGRAD"> F  </i>
   <i type="logical" name="LHFONE"> F  </i>
   <i type="logical" name="LRHFCALC"> F  </i>
   <i type="logical" name="LTHOMAS"> F  </i>
   <i type="logical" name="LMODELHF"> F  </i>
   <i name="ENCUT4O">     -1.00000000</i>
   <i type="int" name="EXXOEP">     0</i>
   <i type="int" name="FOURORBIT">     0</i>
   <i name="AEXX">      0.00000000</i>
   <i name="HFALPHA">      0.00000000</i>
   <i name="MCALPHA">      0.00000000</i>
   <i name="ALDAX">      1.00000000</i>
   <i name="AGGAX">      1.00000000</i>
   <i name="ALDAC">      1.00000000</i>
   <i name="AGGAC">      1.00000000</i>
   <i type="int" name="NKREDX">     1</i>
   <i type="int" name="NKREDY">     1</i>
   <i type="int" name="NKREDZ">     1</i>
   <i type="logical" name="SHIFTRED"> F  </i>
   <i type="logical" name="ODDONLY"> F  </i>
   <i type="logical" name="EVENONLY"> F  </i>
   <i type="int" name="LMAXFOCK">     0</i>
   <i type="int" name="NMAXFOCKAE">     0</i>
   <i type="logical" name="LFOCKAEDFT"> F  </i>
   <i name="HFSCREEN">      0.00000000</i>
   <i name="HFSCREENC">      0.00000000</i>
   <i type="int" name="NBANDSGWLOW">     0</i>
  </separator>
  <separator name="vdW DFT" >
   <i type="logical" name="LUSE_VDW"> F  </i>
   <i name="Zab_VDW">     -0.84910000</i>
   <i name="PARAM1">      0.12340000</i>
   <i name="PARAM2">      1.00000000</i>
   <i name="PARAM3">      0.00000000</i>
  </separator>
  <separator name="model GW" >
   <i type="int" name="MODEL_GW">     0</i>
   <i name="MODEL_EPS0">     58.26239943</i>
   <i name="MODEL_ALPHA">      1.00000000</i>
  </separator>
  <separator name="linear response parameters" >
   <i type="logical" name="LEPSILON"> F  </i>
   <i type="logical" name="LRPA"> F  </i>
   <i type="logical" name="LNABLA"> F  </i>
   <i type="logical" name="LVEL"> F  </i>
   <i type="int" name="KINTER">     0</i>
   <i name="CSHIFT">      0.10000000</i>
   <i name="OMEGAMAX">     -1.00000000</i>
   <i name="DEG_THRESHOLD">      0.00200000</i>
  </separator>
  <separator name="orbital magnetization" >
   <i type="logical" name="NUCIND"> F  </i>
   <v name="MAGPOS">      0.00000000      0.00000000      0.00000000</v>
   <i type="logical" name="LNICSALL"> T  </i>
   <i type="logical" name="ORBITALMAG"> F  </i>
   <i type="logical" name="LMAGBLOCH"> F  </i>
   <i type="logical" name="LCHIMAG"> F  </i>
   <i type="logical" name="LGAUGE"> T  </i>
   <i type="int" name="MAGATOM">     0</i>
   <v name="MAGDIPOL">      0.00000000      0.00000000      0.00000000</v>
   <v name="AVECCONST">      0.00000000      0.00000000      0.00000000</v>
  </separator>
  <separator name="response functions" >
   <i type="logical" name="LADDER"> F  </i>
   <i type="logical" name="LFXC"> F  </i>
   <i type="logical" name="LHARTREE"> T  </i>
   <i type="int" name="IBSE">     0</i>
   <v type="int" name="KPOINT">    -1     0     0     0</v>
   <i type="logical" name="LTCTE"> F  </i>
   <i type="logical" name="LTETE"> F  </i>
   <i type="logical" name="LTRIPLET"> F  </i>
   <i type="logical" name="LFXCEPS"> F  </i>
   <i type="logical" name="LFXHEG"> F  </i>
   <i type="int" name="NATURALO">     0</i>
   <i type="logical" name="L2ORDER"> F  </i>
   <i type="logical" name="LUSEW"> F  </i>
   <i name="ENCUTGW">     -2.00000000</i>
   <i name="ENCUTGWSOFT">     -2.00000000</i>
   <i name="ENCUTLF">     -1.00000000</i>
   <i type="int" name="LMAXMP2">    -1</i>
   <i name="SCISSOR">      0.00000000</i>
   <i type="int" name="NOMEGA">     0</i>
   <i type="int" name="NOMEGAR">     0</i>
   <i type="int" name="NBANDSGW">    -1</i>
   <i type="int" name="NBANDSO">    -1</i>
   <i type="int" name="NBANDSV">    -1</i>
   <i type="int" name="NELM">     1</i>
   <i type="int" name="NELMHF">     1</i>
   <i type="int" name="DIM">     3</i>
   <i type="int" name="ANTIRES">     0</i>
   <i name="OMEGAMAX">    -30.00000000</i>
   <i name="OMEGAMIN">    -30.00000000</i>
   <i name="OMEGATL">   -200.00000000</i>
   <i type="int" name="OMEGAGRID">     0</i>
   <i name="CSHIFT">     -0.10000000</i>
   <i type="logical" name="SELFENERGY"> F  </i>
   <i type="logical" name="LSPECTRAL"> F  </i>
   <i type="logical" name="LSPECTRALGW"> F  </i>
   <i type="logical" name="LSINGLES"> F  </i>
   <i type="logical" name="LFERMIGW"> F  </i>
   <i type="logical" name="ODDONLYGW"> F  </i>
   <i type="logical" name="EVENONLYGW"> F  </i>
   <i type="int" name="NKREDLFX">     1</i>
   <i type="int" name="NKREDLFY">     1</i>
   <i type="int" name="NKREDLFZ">     1</i>
   <i type="int" name="MAXMEM">  1800</i>
   <i type="int" name="TELESCOPE">     0</i>
   <i type="int" name="TAUPAR">     1</i>
   <i type="int" name="OMEGAPAR">    -1</i>
   <i name="LAMBDA">      1.00000000</i>
  </separator>
  <separator name="External order field" >
   <i name="OFIELD_KAPPA">      0.00000000</i>
   <v name="OFIELD_K">      0.00000000      0.00000000      0.00000000</v>
   <i name="OFIELD_Q6_NEAR">      0.00000000</i>
   <i name="OFIELD_Q6_FAR">      0.00000000</i>
   <i name="OFIELD_A">      0.00000000</i>
  </separator>
 </parameters>
 <atominfo>
  <atoms>      27 </atoms>
  <types>       4 </types>
  <array name="atoms" >
   <dimension dim="1">ion</dimension>
   <field type="string">element</field>
   <field type="int">atomtype</field>
   <set>
    <rc><c>V </c><c>   1</c></rc>
    <rc><c>V </c><c>   1</c></rc>
    <rc><c>V </c><c>   1</c></rc>
    <rc><c>Mo</c><c>   2</c></rc>
    <rc><c>Mo</c><c>   2</c></rc>
    <rc><c>Mo</c><c>   2</c></rc>
    <rc><c>W </c><c>   3</c></rc>
    <rc><c>W </c><c>   3</c></rc>
    <rc><c>W </c><c>   3</c></rc>
    <rc><c>S </c><c>   4</c></rc>
    <rc><c>S </c><c>   4</c></rc>
    <rc><c>S </c><c>   4</c></rc>
    <rc><c>S </c><c>   4</c></rc>
    <rc><c>S </c><c>   4</c></rc>
    <rc><c>S </c><c>   4</c></rc>
    <rc><c>S </c><c>   4</c></rc>
    <rc><c>S </c><c>   4</c></rc>
    <rc><c>S </c><c>   4</c></rc>
    <rc><c>S </c><c>   4</c></rc>
    <rc><c>S </c><c>   4</c></rc>
    <rc><c>S </c><c>   4</c></rc>
    <rc><c>S </c><c>   4</c></rc>
    <rc><c>S </c><c>   4</c></rc>
    <rc><c>S </c><c>   4</c></rc>
    <rc><c>S </c><c>   4</c></rc>
    <rc><c>S </c><c>   4</c></rc>
    <rc><c>S </c><c>   4</c></rc>
   </set>
  </array>
  <array name="atomtypes" >
   <dimension dim="1">type</dimension>
   <field type="int">atomspertype</field>
   <field type="string">element</field>
   <field>mass</field>
   <field>valence</field>
   <field type="string">pseudopotential</field>
   <set>
    <rc><c>   3</c><c>V </c><c>     50.94100000</c><c>      5.00000000</c><c> PAW_PBE V 08Apr2002                    </c></rc>
    <rc><c>   3</c><c>Mo</c><c>     95.94000000</c><c>      6.00000000</c><c> PAW_PBE Mo 08Apr2002                   </c></rc>
    <rc><c>   3</c><c>W </c><c>    183.85000000</c><c>      6.00000000</c><c> PAW_PBE W 08Apr2002                    </c></rc>
    <rc><c>  18</c><c>S </c><c>     32.06600000</c><c>      6.00000000</c><c>  PAW_PBE S 17Jan2003                   </c></rc>
   </set>
  </array>
 </atominfo>
 <structure name="initialpos" >
  <crystal>
   <varray name="basis" >
    <v>       8.66999996       5.03999989       0.00000000 </v>
    <v>      -8.66999982       5.04000013       0.00000000 </v>
    <v>       0.00000000       0.00000000      30.00000000 </v>
   </varray>
   <i name="volume">   2621.80797419 </i>
   <varray name="rec_basis" >
    <v>       0.05767013       0.09920635       0.00000000 </v>
    <v>      -0.05767013       0.09920635       0.00000000 </v>
    <v>       0.00000000       0.00000000       0.03333333 </v>
   </varray>
  </crystal>
  <varray name="positions" >
   <v>       0.66666669       0.00000000       0.00000000 </v>
   <v>       0.00000000       0.00000000       0.00000000 </v>
   <v>       0.66666669       0.66666669       0.00000000 </v>
   <v>       0.66666669       0.33333334       0.00000000 </v>
   <v>       0.33333334       0.00000000       0.00000000 </v>
   <v>       0.00000000       0.66666669       0.00000000 </v>
   <v>       1.00000000       0.33333334       0.00000000 </v>
   <v>       0.33333334       0.33333334       0.00000000 </v>
   <v>       0.33333334       0.66666669       0.00000000 </v>
   <v>       0.11068511       0.22244981       0.95539999 </v>
   <v>       0.22244981       0.11068511       0.04460000 </v>
   <v>       0.11068511       0.55578315       0.95539999 </v>
   <v>       0.22244981       0.44401845       0.04460000 </v>
   <v>       0.11068511       0.88911647       0.95539999 </v>
   <v>       0.22244981       0.77735180       0.04460000 </v>
   <v>       0.44401845       0.22244981       0.95539999 </v>
   <v>       0.55578315       0.11068511       0.04460000 </v>
   <v>       0.44401845       0.55578315       0.95539999 </v>
   <v>       0.55578315       0.44401845       0.04460000 </v>
   <v>       0.44401845       0.88911647       0.95539999 </v>
   <v>       0.55578315       0.77735180       0.04460000 </v>
   <v>       0.77735180       0.22244981       0.95539999 </v>
   <v>       0.88911647       0.11068511       0.04460000 </v>
   <v>       0.77735180       0.55578315       0.95539999 </v>
   <v>       0.88911647       0.44401845       0.04460000 </v>
   <v>       0.77735180       0.88911647       0.95539999 </v>
   <v>       0.88911647       0.77735180       0.04460000 </v>
  </varray>
 </structure>
 <calculation>
  <scstep>
   <time name="dav">   22.93   22.99</time>
   <time name="total">   22.98   23.04</time>
   <energy>
    <i name="alphaZ">     81.65567618 </i>
    <i name="ewald">  41891.17176702 </i>
    <i name="hartreedc"> -47723.81760845 </i>
    <i name="XCdc">   -242.92455308 </i>
    <i name="pawpsdc">   3467.42045192 </i>
    <i name="pawaedc">  -2871.19716117 </i>
    <i name="eentropy">     -0.55122211 </i>
    <i name="bandstr">   -237.38306738 </i>
    <i name="atom">   6761.44252427 </i>
    <i name="e_fr_energy">   1125.81680720 </i>
    <i name="e_wo_entrp">   1126.36802931 </i>
    <i name="e_0_energy">   1126.09241826 </i>
   </energy>
  </scstep>
  <scstep>
   <time name="dav">   29.71   29.78</time>
   <time name="total">   29.71   29.78</time>
   <energy>
    <i name="e_fr_energy">     -3.33744805 </i>
    <i name="e_wo_entrp">     -3.12841407 </i>
    <i name="e_0_energy">     -3.23293106 </i>
   </energy>
  </scstep>
  <scstep>
   <time name="dav">   28.88   28.95</time>
   <time name="total">   28.88   28.96</time>
   <energy>
    <i name="e_fr_energy">   -199.86796366 </i>
    <i name="e_wo_entrp">   -199.61769219 </i>
    <i name="e_0_energy">   -199.74282792 </i>
   </energy>
  </scstep>
  <scstep>
   <time name="dav">   31.79   31.87</time>
   <time name="total">   31.79   31.88</time>
   <energy>
    <i name="e_fr_energy">   -209.00618828 </i>
    <i name="e_wo_entrp">   -208.71591282 </i>
    <i name="e_0_energy">   -208.86105055 </i>
   </energy>
  </scstep>
  <scstep>
   <time name="dav">   29.90   29.97</time>
   <time name="total">   30.39   30.47</time>
   <energy>
    <i name="e_fr_energy">   -209.30558473 </i>
    <i name="e_wo_entrp">   -209.01800615 </i>
    <i name="e_0_energy">   -209.16179544 </i>
   </energy>
  </scstep>
  <scstep>
   <time name="dav">   32.07   32.15</time>
   <time name="total">   32.58   32.66</time>
   <energy>
    <i name="e_fr_energy">   -237.86122825 </i>
    <i name="e_wo_entrp">   -237.60751922 </i>
    <i name="e_0_energy">   -237.73437373 </i>
   </energy>
  </scstep>
  <scstep>
   <time name="dav">   34.54   34.62</time>
   <time name="total">   35.14   35.23</time>
   <energy>
    <i name="e_fr_energy">   -196.57190625 </i>
    <i name="e_wo_entrp">   -196.21704632 </i>
    <i name="e_0_energy">   -196.39447628 </i>
   </energy>
  </scstep>
  <scstep>
   <time name="dav">   31.37   31.44</time>
   <time name="total">   31.96   32.05</time>
   <energy>
    <i name="e_fr_energy">   -189.48826653 </i>
    <i name="e_wo_entrp">   -189.17593602 </i>
    <i name="e_0_energy">   -189.33210127 </i>
   </energy>
  </scstep>
  <scstep>
   <time name="dav">   34.63   34.71</time>
   <time name="total">   35.23   35.33</time>
   <energy>
    <i name="e_fr_energy">   -188.13391704 </i>
    <i name="e_wo_entrp">   -187.81378187 </i>
    <i name="e_0_energy">   -187.97384945 </i>
   </energy>
  </scstep>
  <scstep>
   <time name="dav">   34.24   34.33</time>
   <time name="total">   34.86   34.95</time>
   <energy>
    <i name="e_fr_energy">   -186.93391166 </i>
    <i name="e_wo_entrp">   -186.58324641 </i>
    <i name="e_0_energy">   -186.75857903 </i>
   </energy>
  </scstep>
  <scstep>
   <time name="dav">   34.47   34.55</time>
   <time name="total">   35.09   35.18</time>
   <energy>
    <i name="e_fr_energy">   -187.02442584 </i>
    <i name="e_wo_entrp">   -186.68600993 </i>
    <i name="e_0_energy">   -186.85521788 </i>
   </energy>
  </scstep>
  <scstep>
   <time name="dav">   32.66   32.74</time>
   <time name="total">   33.27   33.36</time>
   <energy>
    <i name="e_fr_energy">   -186.94128186 </i>
    <i name="e_wo_entrp">   -186.60902231 </i>
    <i name="e_0_energy">   -186.77515209 </i>
   </energy>
  </scstep>
  <scstep>
   <time name="dav">   33.99   34.08</time>
   <time name="total">   34.61   34.70</time>
   <energy>
    <i name="e_fr_energy">   -186.86289080 </i>
    <i name="e_wo_entrp">   -186.52765802 </i>
    <i name="e_0_energy">   -186.69527441 </i>
   </energy>
  </scstep>
  <scstep>
   <time name="dav">   32.89   32.97</time>
   <time name="total">   33.50   33.59</time>
   <energy>
    <i name="e_fr_energy">   -186.82362468 </i>
    <i name="e_wo_entrp">   -186.48024940 </i>
    <i name="e_0_energy">   -186.65193704 </i>
   </energy>
  </scstep>
  <scstep>
   <time name="dav">   32.24   32.32</time>
   <time name="total">   32.86   32.95</time>
   <energy>
    <i name="e_fr_energy">   -186.81992043 </i>
    <i name="e_wo_entrp">   -186.47800811 </i>
    <i name="e_0_energy">   -186.64896427 </i>
   </energy>
  </scstep>
  <scstep>
   <time name="dav">   32.80   32.88</time>
   <time name="total">   33.41   33.50</time>
   <energy>
    <i name="e_fr_energy">   -186.81953599 </i>
    <i name="e_wo_entrp">   -186.47873303 </i>
    <i name="e_0_energy">   -186.64913451 </i>
   </energy>
  </scstep>
  <scstep>
   <time name="dav">   34.00   34.08</time>
   <time name="total">   34.62   34.71</time>
   <energy>
    <i name="e_fr_energy">   -186.81860856 </i>
    <i name="e_wo_entrp">   -186.47776180 </i>
    <i name="e_0_energy">   -186.64818518 </i>
   </energy>
  </scstep>
  <scstep>
   <time name="dav">   29.83   29.90</time>
   <time name="total">   30.44   30.53</time>
   <energy>
    <i name="e_fr_energy">   -186.81797640 </i>
    <i name="e_wo_entrp">   -186.47658959 </i>
    <i name="e_0_energy">   -186.64728300 </i>
   </energy>
  </scstep>
  <scstep>
   <time name="dav">   26.17   26.23</time>
   <time name="total">   26.79   26.86</time>
   <energy>
    <i name="e_fr_energy">   -186.81859738 </i>
    <i name="e_wo_entrp">   -186.47769391 </i>
    <i name="e_0_energy">   -186.64814565 </i>
   </energy>
  </scstep>
  <scstep>
   <time name="dav">   21.26   21.31</time>
   <time name="total">   21.87   21.93</time>
   <energy>
    <i name="e_fr_energy">   -186.81901780 </i>
    <i name="e_wo_entrp">   -186.47810339 </i>
    <i name="e_0_energy">   -186.64856060 </i>
   </energy>
  </scstep>
  <scstep>
   <time name="dav">   21.60   21.65</time>
   <time name="total">   22.22   22.28</time>
   <energy>
    <i name="e_fr_energy">   -186.82009512 </i>
    <i name="e_wo_entrp">   -186.47906090 </i>
    <i name="e_0_energy">   -186.64957801 </i>
   </energy>
  </scstep>
  <scstep>
   <time name="dav">   22.57   22.62</time>
   <time name="total">   23.18   23.25</time>
   <energy>
    <i name="e_fr_energy">   -186.82138751 </i>
    <i name="e_wo_entrp">   -186.48048919 </i>
    <i name="e_0_energy">   -186.65093835 </i>
   </energy>
  </scstep>
  <scstep>
   <time name="dav">   19.43   19.48</time>
   <time name="total">   20.05   20.11</time>
   <energy>
    <i name="e_fr_energy">   -186.82208556 </i>
    <i name="e_wo_entrp">   -186.48112262 </i>
    <i name="e_0_energy">   -186.65160409 </i>
   </energy>
  </scstep>
  <scstep>
   <time name="dav">   18.60   18.64</time>
   <time name="total">   19.22   19.27</time>
   <energy>
    <i name="e_fr_energy">   -186.82234240 </i>
    <i name="e_wo_entrp">   -186.48136569 </i>
    <i name="e_0_energy">   -186.65185404 </i>
   </energy>
  </scstep>
  <scstep>
   <time name="dav">   17.37   17.41</time>
   <time name="total">   17.99   18.04</time>
   <energy>
    <i name="e_fr_energy">   -186.82270342 </i>
    <i name="e_wo_entrp">   -186.48172771 </i>
    <i name="e_0_energy">   -186.65221556 </i>
   </energy>
  </scstep>
  <scstep>
   <time name="dav">   20.06   20.11</time>
   <time name="total">   20.67   20.73</time>
   <energy>
    <i name="e_fr_energy">   -186.82294920 </i>
    <i name="e_wo_entrp">   -186.48197340 </i>
    <i name="e_0_energy">   -186.65246130 </i>
   </energy>
  </scstep>
  <scstep>
   <time name="dav">   22.22   22.27</time>
   <time name="total">   22.26   22.32</time>
   <energy>
    <i name="alphaZ">     81.65567618 </i>
    <i name="ewald">  41891.17176702 </i>
    <i name="hartreedc"> -47833.63261903 </i>
    <i name="XCdc">   -231.60968061 </i>
    <i name="pawpsdc">   4192.07105893 </i>
    <i name="pawaedc">  -3610.06538325 </i>
    <i name="eentropy">     -0.34097106 </i>
    <i name="bandstr">  -1437.51539535 </i>
    <i name="atom">   6761.44252427 </i>
    <i name="e_fr_energy">   -186.82302289 </i>
    <i name="e_wo_entrp">   -186.48205184 </i>
    <i name="e_0_energy">   -186.65253736 </i>
   </energy>
  </scstep>
  <structure>
   <crystal>
    <varray name="basis" >
     <v>       8.66999996       5.03999989       0.00000000 </v>
     <v>      -8.66999982       5.04000013       0.00000000 </v>
     <v>       0.00000000       0.00000000      30.00000000 </v>
    </varray>
    <i name="volume">   2621.80797419 </i>
    <varray name="rec_basis" >
     <v>       0.05767013       0.09920635       0.00000000 </v>
     <v>      -0.05767013       0.09920635       0.00000000 </v>
     <v>       0.00000000       0.00000000       0.03333333 </v>
    </varray>
   </crystal>
   <varray name="positions" >
    <v>       0.66666669       0.00000000       0.00000000 </v>
    <v>       0.00000000       0.00000000       0.00000000 </v>
    <v>       0.66666669       0.66666669       0.00000000 </v>
    <v>       0.66666669       0.33333334       0.00000000 </v>
    <v>       0.33333334       0.00000000       0.00000000 </v>
    <v>       0.00000000       0.66666669       0.00000000 </v>
    <v>       1.00000000       0.33333334       0.00000000 </v>
    <v>       0.33333334       0.33333334       0.00000000 </v>
    <v>       0.33333334       0.66666669       0.00000000 </v>
    <v>       0.11068511       0.22244981       0.95539999 </v>
    <v>       0.22244981       0.11068511       0.04460000 </v>
    <v>       0.11068511       0.55578315       0.95539999 </v>
    <v>       0.22244981       0.44401845       0.04460000 </v>
    <v>       0.11068511       0.88911647       0.95539999 </v>
    <v>       0.22244981       0.77735180       0.04460000 </v>
    <v>       0.44401845       0.22244981       0.95539999 </v>
    <v>       0.55578315       0.11068511       0.04460000 </v>
    <v>       0.44401845       0.55578315       0.95539999 </v>
    <v>       0.55578315       0.44401845       0.04460000 </v>
    <v>       0.44401845       0.88911647       0.95539999 </v>
    <v>       0.55578315       0.77735180       0.04460000 </v>
    <v>       0.77735180       0.22244981       0.95539999 </v>
    <v>       0.88911647       0.11068511       0.04460000 </v>
    <v>       0.77735180       0.55578315       0.95539999 </v>
    <v>       0.88911647       0.44401845       0.04460000 </v>
    <v>       0.77735180       0.88911647       0.95539999 </v>
    <v>       0.88911647       0.77735180       0.04460000 </v>
   </varray>
  </structure>
  <varray name="forces" >
   <v>      -0.23996413       0.00177007      -0.01359879 </v>
   <v>       0.33300519      -0.15144995      -0.03673306 </v>
   <v>       0.33264702       0.15544798      -0.03811353 </v>
   <v>      -0.01160316      -0.01074030       0.11503335 </v>
   <v>      -0.01074173       0.00326547       0.11864808 </v>
   <v>      -0.02492331      -0.00358724      -0.11605016 </v>
   <v>      -0.51402912      -0.10525861      -0.07931363 </v>
   <v>       0.58781798      -0.00360364       0.12599515 </v>
   <v>      -0.51371769       0.09673976      -0.07754551 </v>
   <v>       0.44566451      -0.56302249      -2.12486015 </v>
   <v>      -0.61198557      -0.53090953       2.18410589 </v>
   <v>       0.28465382       0.00166419      -2.97563839 </v>
   <v>      -0.09160807       0.00250294       2.86230708 </v>
   <v>      -0.74070886      -0.02177682      -2.10109658 </v>
   <v>       0.02469489       0.02866593       2.90147306 </v>
   <v>      -0.03128852       0.00305510      -2.89814224 </v>
   <v>       0.73127209       0.00223251       2.11183238 </v>
   <v>       0.44345840       0.56346214      -2.12822479 </v>
   <v>      -0.60938081       0.53011557       2.18784019 </v>
   <v>       0.63898681       0.53492091      -2.16015754 </v>
   <v>       0.24461231       0.52437685       1.39754132 </v>
   <v>       0.64148750      -0.53457517      -2.15642857 </v>
   <v>       0.24259189      -0.52334424       1.39459989 </v>
   <v>      -0.74053085       0.02654825      -2.10079379 </v>
   <v>       0.02504989      -0.02312989       2.90161532 </v>
   <v>       0.07674677      -0.00159742      -0.76200867 </v>
   <v>      -0.91220723      -0.00177238       1.46771367 </v>
  </varray>
  <varray name="stress" >
   <v>       7.49245936      -0.00021673      -1.61239857 </v>
   <v>      -0.00021673       4.25012765       0.00005056 </v>
   <v>      -1.61239878       0.00005059      30.32697506 </v>
  </varray>
  <energy>
   <i name="e_fr_energy">   -186.82302289 </i>
   <i name="e_wo_entrp">   -186.65253736 </i>
   <i name="e_0_energy">     -0.34097106 </i>
  </energy>
  <time name="totalsc">  819.15  821.33</time>
 </calculation>
 <calculation>
  <scstep>
   <time name="dav">   22.83   22.89</time>
   <time name="total">   23.45   23.51</time>
   <energy>
    <i name="alphaZ">     78.92441734 </i>
    <i name="ewald">  39380.58715709 </i>
    <i name="hartreedc"> -45337.89455448 </i>
    <i name="XCdc">   -239.07274637 </i>
    <i name="pawpsdc">   4192.05587983 </i>
    <i name="pawaedc">  -3610.05046780 </i>
    <i name="eentropy">     -0.27656803 </i>
    <i name="bandstr">  -1413.21029119 </i>
    <i name="atom">   6761.44252427 </i>
    <i name="e_fr_energy">   -187.49464934 </i>
    <i name="e_wo_entrp">   -187.21808131 </i>
    <i name="e_0_energy">   -187.35636532 </i>
   </energy>
  </scstep>
  <scstep>
   <time name="dav">   31.86   31.94</time>
   <time name="total">   32.48   32.57</time>
   <energy>
    <i name="e_fr_energy">   -189.35741213 </i>
    <i name="e_wo_entrp">   -189.03975074 </i>
    <i name="e_0_energy">   -189.19858144 </i>
   </energy>
  </scstep>
  <scstep>
   <time name="dav">   32.11   32.19</time>
   <time name="total">   32.74   32.84</time>
   <energy>
    <i name="e_fr_energy">   -189.36924733 </i>
    <i name="e_wo_entrp">   -189.10946659 </i>
    <i name="e_0_energy">   -189.23935696 </i>
   </energy>
  </scstep>
  <scstep>
   <time name="dav">   32.67   32.74</time>
   <time name="total">   33.29   33.38</time>
   <energy>
    <i name="e_fr_energy">   -188.74533322 </i>
    <i name="e_wo_entrp">   -188.46665085 </i>
    <i name="e_0_energy">   -188.60599204 </i>
   </energy>
  </scstep>
  <scstep>
   <time name="dav">   32.52   32.60</time>
   <time name="total">   33.14   33.23</time>
   <energy>
    <i name="e_fr_energy">   -188.85905774 </i>
    <i name="e_wo_entrp">   -188.56742987 </i>
    <i name="e_0_energy">   -188.71324381 </i>
   </energy>
  </scstep>
  <scstep>
   <time name="dav">   33.06   33.14</time>
   <time name="total">   33.69   33.78</time>
   <energy>
    <i name="e_fr_energy">   -188.70966744 </i>
    <i name="e_wo_entrp">   -188.43417544 </i>
    <i name="e_0_energy">   -188.57192144 </i>
   </energy>
  </scstep>
  <scstep>
   <time name="dav">   30.70   30.77</time>
   <time name="total">   31.32   31.40</time>
   <energy>
    <i name="e_fr_energy">   -188.67787016 </i>
    <i name="e_wo_entrp">   -188.39900649 </i>
    <i name="e_0_energy">   -188.53843833 </i>
   </energy>
  </scstep>
  <scstep>
   <time name="dav">   31.72   31.80</time>
   <time name="total">   32.35   32.44</time>
   <energy>
    <i name="e_fr_energy">   -188.66147997 </i>
    <i name="e_wo_entrp">   -188.38438089 </i>
    <i name="e_0_energy">   -188.52293043 </i>
   </energy>
  </scstep>
  <scstep>
   <time name="dav">   32.00   32.08</time>
   <time name="total">   32.62   32.71</time>
   <energy>
    <i name="e_fr_energy">   -188.66051370 </i>
    <i name="e_wo_entrp">   -188.38375402 </i>
    <i name="e_0_energy">   -188.52213386 </i>
   </energy>
  </scstep>
  <scstep>
   <time name="dav">   34.34   34.42</time>
   <time name="total">   34.97   35.06</time>
   <energy>
    <i name="e_fr_energy">   -188.66004223 </i>
    <i name="e_wo_entrp">   -188.38348871 </i>
    <i name="e_0_energy">   -188.52176547 </i>
   </energy>
  </scstep>
  <scstep>
   <time name="dav">   33.19   33.27</time>
   <time name="total">   33.81   33.90</time>
   <energy>
    <i name="e_fr_energy">   -188.65905112 </i>
    <i name="e_wo_entrp">   -188.38294616 </i>
    <i name="e_0_energy">   -188.52099864 </i>
   </energy>
  </scstep>
  <scstep>
   <time name="dav">   30.40   30.47</time>
   <time name="total">   30.43   30.52</time>
   <energy>
    <i name="alphaZ">     78.92441734 </i>
    <i name="ewald">  39380.58715709 </i>
    <i name="hartreedc"> -45348.86109524 </i>
    <i name="XCdc">   -237.97726605 </i>
    <i name="pawpsdc">   3950.94347570 </i>
    <i name="pawaedc">  -3365.44801295 </i>
    <i name="eentropy">     -0.27620296 </i>
    <i name="bandstr">  -1407.99412865 </i>
    <i name="atom">   6761.44252427 </i>
    <i name="e_fr_energy">   -188.65913144 </i>
    <i name="e_wo_entrp">   -188.38292848 </i>
    <i name="e_0_energy">   -188.52102996 </i>
   </energy>
  </scstep>
  <structure>
   <crystal>
    <varray name="basis" >
     <v>       8.85993012       5.10262553       0.00000000 </v>
     <v>      -8.85993636       5.10263676       0.00000000 </v>
     <v>       0.00000000       0.00000000      30.00000000 </v>
    </varray>
    <i name="volume">   2712.53827587 </i>
    <varray name="rec_basis" >
     <v>       0.05643390       0.09798870       0.00000000 </v>
     <v>      -0.05643377       0.09798863       0.00000000 </v>
     <v>       0.00000000       0.00000000       0.03333333 </v>
    </varray>
   </crystal>
   <varray name="positions" >
    <v>       0.66600754       0.00067609      -0.00002187 </v>
    <v>       0.00020164      -0.00165131      -0.00005907 </v>
    <v>       0.66833613       0.66648518      -0.00006129 </v>
    <v>       0.66658300       0.33331422       0.00018498 </v>
    <v>       0.33331909       0.00004551       0.00019080 </v>
    <v>      -0.00008651       0.66671886      -0.00018662 </v>
    <v>       0.99806612       0.33425969      -0.00012754 </v>
    <v>       0.33495150       0.33168069       0.00020261 </v>
    <v>       0.33236709       0.66855893      -0.00012470 </v>
    <v>       0.10923041       0.21851529       0.95198303 </v>
    <v>       0.21820625       0.10984683       0.04811223 </v>
    <v>       0.11148503       0.55499916       0.95061490 </v>
    <v>       0.22220692       0.44428530       0.04920284 </v>
    <v>       0.10852012       0.89107301       0.95202124 </v>
    <v>       0.22265571       0.77742029       0.04926582 </v>
    <v>       0.44394603       0.22255148       0.95073952 </v>
    <v>       0.55782835       0.10866128       0.04799601 </v>
    <v>       0.44794894       0.55724610       0.95197762 </v>
    <v>       0.55662488       0.44825097       0.04811824 </v>
    <v>       0.44835634       0.88989882       0.95192627 </v>
    <v>       0.55897336       0.77918090       0.04684737 </v>
    <v>       0.77657805       0.21810662       0.95193226 </v>
    <v>       0.88728668       0.10750547       0.04684264 </v>
    <v>       0.77541858       0.55797049       0.95202173 </v>
    <v>       0.88907546       0.44383806       0.04926605 </v>
    <v>       0.77755767       0.88889530       0.95417461 </v>
    <v>       0.88657008       0.77988122       0.04696021 </v>
   </varray>
  </structure>
  <varray name="forces" >
   <v>      -0.22472592       0.00031607       0.09364803 </v>
   <v>       0.29207386      -0.05186982      -0.08925530 </v>
   <v>       0.29170738       0.05304642      -0.08830158 </v>
   <v>      -0.05527004      -0.04624234       0.03238434 </v>
   <v>      -0.05452142       0.04444803       0.03071954 </v>
   <v>       0.38171466      -0.00101127      -0.05784808 </v>
   <v>      -0.60340264       0.13648568       0.06230049 </v>
   <v>       0.64922429       0.00135096      -0.06092280 </v>
   <v>      -0.60296910      -0.13677970       0.06090918 </v>
   <v>      -0.06172691       0.07019835       0.26231694 </v>
   <v>      -0.06805368       0.04229513       0.10719643 </v>
   <v>       0.08894191       0.00013474      -0.19460540 </v>
   <v>       0.01866796      -0.00053887      -0.26667763 </v>
   <v>      -0.06288660      -0.00430005      -0.07204925 </v>
   <v>       0.12939413       0.00177310       0.13591054 </v>
   <v>      -0.12934471       0.00048305      -0.09663478 </v>
   <v>       0.07143567       0.00025710       0.10884365 </v>
   <v>      -0.06129826      -0.07114961       0.26476660 </v>
   <v>      -0.06781570      -0.04237617       0.10473149 </v>
   <v>       0.07291914      -0.04706883      -0.05389866 </v>
   <v>      -0.05933838      -0.05496324      -0.23817566 </v>
   <v>       0.07319037       0.04772175      -0.05626443 </v>
   <v>      -0.05949938       0.05460149      -0.23613718 </v>
   <v>      -0.06274489       0.00505639      -0.07199133 </v>
   <v>       0.12990986      -0.00077013       0.13508104 </v>
   <v>       0.02177724      -0.00087095       0.20817898 </v>
   <v>      -0.04735885      -0.00022729      -0.02422517 </v>
  </varray>
  <varray name="stress" >
   <v>     -19.91611497      -0.00016055       0.15955372 </v>
   <v>      -0.00016068     -19.42312042      -0.00018586 </v>
   <v>       0.15955355      -0.00018581      -1.73631548 </v>
  </varray>
  <energy>
   <i name="e_fr_energy">   -188.65913144 </i>
   <i name="e_wo_entrp">   -188.52102996 </i>
   <i name="e_0_energy">     -0.27620296 </i>
  </energy>
  <time name="totalsc">  428.05  429.18</time>
 </calculation>
 <calculation>
  <scstep>
   <time name="dav">   25.17   25.23</time>
   <time name="total">   25.78   25.84</time>
   <energy>
    <i name="alphaZ">     82.36798607 </i>
    <i name="ewald">  41314.67331382 </i>
    <i name="hartreedc"> -47313.76390861 </i>
    <i name="XCdc">   -233.83311183 </i>
    <i name="pawpsdc">   3950.34759238 </i>
    <i name="pawaedc">  -3364.84659665 </i>
    <i name="eentropy">     -0.23140291 </i>
    <i name="bandstr">  -1386.75531208 </i>
    <i name="atom">   6761.44252427 </i>
    <i name="e_fr_energy">   -190.59891553 </i>
    <i name="e_wo_entrp">   -190.36751262 </i>
    <i name="e_0_energy">   -190.48321408 </i>
   </energy>
  </scstep>
  <scstep>
   <time name="dav">   30.16   30.23</time>
   <time name="total">   30.76   30.85</time>
   <energy>
    <i name="e_fr_energy">   -190.53481712 </i>
    <i name="e_wo_entrp">   -190.31886902 </i>
    <i name="e_0_energy">   -190.42684307 </i>
   </energy>
  </scstep>
  <scstep>
   <time name="dav">   32.12   32.20</time>
   <time name="total">   32.73   32.81</time>
   <energy>
    <i name="e_fr_energy">   -190.08106484 </i>
    <i name="e_wo_entrp">   -189.83327629 </i>
    <i name="e_0_energy">   -189.95717057 </i>
   </energy>
  </scstep>
  <scstep>
   <time name="dav">   33.23   33.31</time>
   <time name="total">   33.85   33.94</time>
   <energy>
    <i name="e_fr_energy">   -189.86293201 </i>
    <i name="e_wo_entrp">   -189.64060948 </i>
    <i name="e_0_energy">   -189.75177074 </i>
   </energy>
  </scstep>
  <scstep>
   <time name="dav">   30.54   30.61</time>
   <time name="total">   31.15   31.23</time>
   <energy>
    <i name="e_fr_energy">   -189.77325661 </i>
    <i name="e_wo_entrp">   -189.54093687 </i>
    <i name="e_0_energy">   -189.65709674 </i>
   </energy>
  </scstep>
  <scstep>
   <time name="dav">   30.79   30.87</time>
   <time name="total">   31.41   31.49</time>
   <energy>
    <i name="e_fr_energy">   -189.76317834 </i>
    <i name="e_wo_entrp">   -189.53144327 </i>
    <i name="e_0_energy">   -189.64731081 </i>
   </energy>
  </scstep>
  <scstep>
   <time name="dav">   31.92   32.00</time>
   <time name="total">   32.53   32.62</time>
   <energy>
    <i name="e_fr_energy">   -189.75838996 </i>
    <i name="e_wo_entrp">   -189.52731221 </i>
    <i name="e_0_energy">   -189.64285109 </i>
   </energy>
  </scstep>
  <scstep>
   <time name="dav">   28.51   28.58</time>
   <time name="total">   29.12   29.20</time>
   <energy>
    <i name="e_fr_energy">   -189.75802438 </i>
    <i name="e_wo_entrp">   -189.52690480 </i>
    <i name="e_0_energy">   -189.64246459 </i>
   </energy>
  </scstep>
  <scstep>
   <time name="dav">   25.79   25.85</time>
   <time name="total">   26.40   26.47</time>
   <energy>
    <i name="e_fr_energy">   -189.75824493 </i>
    <i name="e_wo_entrp">   -189.52688296 </i>
    <i name="e_0_energy">   -189.64256394 </i>
   </energy>
  </scstep>
  <scstep>
   <time name="dav">   21.00   21.05</time>
   <time name="total">   21.04   21.10</time>
   <energy>
    <i name="alphaZ">     82.36798607 </i>
    <i name="ewald">  41314.67331382 </i>
    <i name="hartreedc"> -47286.74173847 </i>
    <i name="XCdc">   -235.23231581 </i>
    <i name="pawpsdc">   4038.89567103 </i>
    <i name="pawaedc">  -3454.59741042 </i>
    <i name="eentropy">     -0.23134580 </i>
    <i name="bandstr">  -1410.33498656 </i>
    <i name="atom">   6761.44252427 </i>
    <i name="e_fr_energy">   -189.75830186 </i>
    <i name="e_wo_entrp">   -189.52695606 </i>
    <i name="e_0_energy">   -189.64262896 </i>
   </energy>
  </scstep>
  <structure>
   <crystal>
    <varray name="basis" >
     <v>       8.67040246       4.99617333       0.00000000 </v>
     <v>      -8.67041033       4.99618739       0.00000000 </v>
     <v>       0.00000000       0.00000000      30.00000000 </v>
    </varray>
    <i name="volume">   2599.13484779 </i>
    <varray name="rec_basis" >
     <v>       0.05766750       0.10007650       0.00000000 </v>
     <v>      -0.05766734       0.10007641       0.00000000 </v>
     <v>       0.00000000       0.00000000       0.03333333 </v>
    </varray>
   </crystal>
   <varray name="positions" >
    <v>       0.66579084       0.00089385       0.00003160 </v>
    <v>       0.00039691      -0.00202071      -0.00011003 </v>
    <v>       0.66870715       0.66629223      -0.00011171 </v>
    <v>       0.66645196       0.33329003       0.00020347 </v>
    <v>       0.33334099       0.00017282       0.00020834 </v>
    <v>       0.00028078       0.66634817      -0.00021965 </v>
    <v>       0.99771192       0.33507206      -0.00009197 </v>
    <v>       0.33558135       0.33105538       0.00016783 </v>
    <v>       0.33155465       0.66891221      -0.00008992 </v>
    <v>       0.10928856       0.21869278       0.95213280 </v>
    <v>       0.21821145       0.10998361       0.04817344 </v>
    <v>       0.11157123       0.55491341       0.95050379 </v>
    <v>       0.22222406       0.44426635       0.04905058 </v>
    <v>       0.10845211       0.89112659       0.95198010 </v>
    <v>       0.22278377       0.77729818       0.04934342 </v>
    <v>       0.44382180       0.22267732       0.95068435 </v>
    <v>       0.55789784       0.10859266       0.04805816 </v>
    <v>       0.44777027       0.55718593       0.95212879 </v>
    <v>       0.55648820       0.44824540       0.04817804 </v>
    <v>       0.44834782       0.88974933       0.95189549 </v>
    <v>       0.55882375       0.77914601       0.04671138 </v>
    <v>       0.77672890       0.21811597       0.95190014 </v>
    <v>       0.88732081       0.10765463       0.04670781 </v>
    <v>       0.77536641       0.55803963       0.95198062 </v>
    <v>       0.88919975       0.44371119       0.04934318 </v>
    <v>       0.77757726       0.88887279       0.95429348 </v>
    <v>       0.88652392       0.77992662       0.04694638 </v>
   </varray>
  </structure>
  <varray name="forces" >
   <v>      -0.25406765       0.00242042       0.09714296 </v>
   <v>       0.30163074       0.02101250      -0.07736381 </v>
   <v>       0.29634516      -0.01041878      -0.07636988 </v>
   <v>      -0.07241317      -0.06516887       0.00580205 </v>
   <v>      -0.08265834       0.05497647       0.00387239 </v>
   <v>       0.52342126       0.00308968      -0.03076219 </v>
   <v>      -0.63614906       0.22912603       0.07207763 </v>
   <v>       0.66567459      -0.01071211      -0.08661158 </v>
   <v>      -0.64110998      -0.23612025       0.06982132 </v>
   <v>      -0.00328137      -0.05214127      -0.20577533 </v>
   <v>      -0.06466587      -0.10805314       0.63139358 </v>
   <v>       0.01230331       0.00051375      -0.80086997 </v>
   <v>       0.02944516       0.00020768       0.25404373 </v>
   <v>      -0.12975725      -0.00361448      -0.55517422 </v>
   <v>       0.02665098      -0.00043686       0.70148470 </v>
   <v>      -0.02378761       0.00130035      -0.66186944 </v>
   <v>       0.14423490       0.00102105       0.60498599 </v>
   <v>      -0.00615806       0.04655330      -0.20612795 </v>
   <v>      -0.06126184       0.10333817       0.63098135 </v>
   <v>       0.05997392       0.09019074      -0.56265458 </v>
   <v>       0.01908815       0.06854236       0.20236155 </v>
   <v>       0.05990463      -0.08799411      -0.56604668 </v>
   <v>       0.02593744      -0.06776569       0.19972641 </v>
   <v>      -0.12190661       0.00476441      -0.55928064 </v>
   <v>       0.02703735       0.00206867       0.69889998 </v>
   <v>       0.01187427       0.00635501      -0.20151771 </v>
   <v>      -0.10630504       0.00694496       0.41783035 </v>
  </varray>
  <varray name="stress" >
   <v>     -10.17560877       0.00718166       0.16700826 </v>
   <v>       0.00718161      -9.74395078       0.00132403 </v>
   <v>       0.16700836       0.00132414       6.54823232 </v>
  </varray>
  <energy>
   <i name="e_fr_energy">   -189.75830186 </i>
   <i name="e_wo_entrp">   -189.64262896 </i>
   <i name="e_0_energy">     -0.23134580 </i>
  </energy>
  <time name="totalsc">  338.77  339.65</time>
 </calculation>
 <calculation>
  <scstep>
   <time name="dav">   22.85   22.90</time>
   <time name="total">   23.45   23.51</time>
   <energy>
    <i name="alphaZ">     85.84711029 </i>
    <i name="ewald">  42845.96578793 </i>
    <i name="hartreedc"> -48862.46036308 </i>
    <i name="XCdc">   -232.95145882 </i>
    <i name="pawpsdc">   4039.29868994 </i>
    <i name="pawaedc">  -3455.00260902 </i>
    <i name="eentropy">     -0.18905022 </i>
    <i name="bandstr">  -1373.30756741 </i>
    <i name="atom">   6761.44252427 </i>
    <i name="e_fr_energy">   -191.35693609 </i>
    <i name="e_wo_entrp">   -191.16788587 </i>
    <i name="e_0_energy">   -191.26241098 </i>
   </energy>
  </scstep>
  <scstep>
   <time name="dav">   34.23   34.32</time>
   <time name="total">   34.83   34.93</time>
   <energy>
    <i name="e_fr_energy">   -191.13577987 </i>
    <i name="e_wo_entrp">   -190.95278384 </i>
    <i name="e_0_energy">   -191.04428186 </i>
   </energy>
  </scstep>
  <scstep>
   <time name="dav">   31.59   31.67</time>
   <time name="total">   32.19   32.27</time>
   <energy>
    <i name="e_fr_energy">   -191.33929752 </i>
    <i name="e_wo_entrp">   -191.12098476 </i>
    <i name="e_0_energy">   -191.23014114 </i>
   </energy>
  </scstep>
  <scstep>
   <time name="dav">   33.32   33.40</time>
   <time name="total">   33.93   34.02</time>
   <energy>
    <i name="e_fr_energy">   -190.91773348 </i>
    <i name="e_wo_entrp">   -190.73526804 </i>
    <i name="e_0_energy">   -190.82650076 </i>
   </energy>
  </scstep>
  <scstep>
   <time name="dav">   29.01   29.08</time>
   <time name="total">   29.61   29.69</time>
   <energy>
    <i name="e_fr_energy">   -190.80822536 </i>
    <i name="e_wo_entrp">   -190.61546575 </i>
    <i name="e_0_energy">   -190.71184555 </i>
   </energy>
  </scstep>
  <scstep>
   <time name="dav">   31.83   31.91</time>
   <time name="total">   32.44   32.52</time>
   <energy>
    <i name="e_fr_energy">   -190.80341535 </i>
    <i name="e_wo_entrp">   -190.60981551 </i>
    <i name="e_0_energy">   -190.70661543 </i>
   </energy>
  </scstep>
  <scstep>
   <time name="dav">   30.64   30.71</time>
   <time name="total">   31.24   31.32</time>
   <energy>
    <i name="e_fr_energy">   -190.78719191 </i>
    <i name="e_wo_entrp">   -190.59602079 </i>
    <i name="e_0_energy">   -190.69160635 </i>
   </energy>
  </scstep>
  <scstep>
   <time name="dav">   27.99   28.05</time>
   <time name="total">   28.59   28.67</time>
   <energy>
    <i name="e_fr_energy">   -190.78224931 </i>
    <i name="e_wo_entrp">   -190.59014303 </i>
    <i name="e_0_energy">   -190.68619617 </i>
   </energy>
  </scstep>
  <scstep>
   <time name="dav">   31.79   31.87</time>
   <time name="total">   32.39   32.48</time>
   <energy>
    <i name="e_fr_energy">   -190.78306301 </i>
    <i name="e_wo_entrp">   -190.59064676 </i>
    <i name="e_0_energy">   -190.68685489 </i>
   </energy>
  </scstep>
  <scstep>
   <time name="dav">   30.61   30.68</time>
   <time name="total">   31.22   31.30</time>
   <energy>
    <i name="e_fr_energy">   -190.78269192 </i>
    <i name="e_wo_entrp">   -190.59027188 </i>
    <i name="e_0_energy">   -190.68648190 </i>
   </energy>
  </scstep>
  <scstep>
   <time name="dav">   26.66   26.72</time>
   <time name="total">   27.26   27.33</time>
   <energy>
    <i name="e_fr_energy">   -190.78238649 </i>
    <i name="e_wo_entrp">   -190.59009483 </i>
    <i name="e_0_energy">   -190.68624066 </i>
   </energy>
  </scstep>
  <scstep>
   <time name="dav">   20.76   20.81</time>
   <time name="total">   20.80   20.86</time>
   <energy>
    <i name="alphaZ">     85.84711029 </i>
    <i name="ewald">  42845.96578793 </i>
    <i name="hartreedc"> -48834.03783710 </i>
    <i name="XCdc">   -234.27802274 </i>
    <i name="pawpsdc">   4064.69732161 </i>
    <i name="pawaedc">  -3480.57563669 </i>
    <i name="eentropy">     -0.19232917 </i>
    <i name="bandstr">  -1399.65129383 </i>
    <i name="atom">   6761.44252427 </i>
    <i name="e_fr_energy">   -190.78237541 </i>
    <i name="e_wo_entrp">   -190.59004624 </i>
    <i name="e_0_energy">   -190.68621083 </i>
   </energy>
  </scstep>
  <structure>
   <crystal>
    <varray name="basis" >
     <v>       8.48678925       4.89784492       0.00000000 </v>
     <v>      -8.48641729       4.89719982       0.00000000 </v>
     <v>       0.00000000       0.00000000      30.00000000 </v>
    </varray>
    <i name="volume">   2493.79975868 </i>
    <varray name="rec_basis" >
     <v>       0.05891251       0.10209020       0.00000000 </v>
     <v>      -0.05892027       0.10209468       0.00000000 </v>
     <v>       0.00000000       0.00000000       0.03333333 </v>
    </varray>
   </crystal>
   <varray name="positions" >
    <v>       0.66485071       0.00187477       0.00023583 </v>
    <v>       0.00181355      -0.00281261      -0.00026031 </v>
    <v>       0.66956272       0.66499152      -0.00025989 </v>
    <v>       0.66570995       0.33312060       0.00019310 </v>
    <v>       0.33337295       0.00088282       0.00019374 </v>
    <v>       0.00240508       0.66428297      -0.00026056 </v>
    <v>       0.99703193       0.33908587       0.00006561 </v>
    <v>       0.33791468       0.32852789      -0.00003328 </v>
    <v>       0.32745471       0.66955736       0.00006226 </v>
    <v>       0.10872992       0.21799110       0.95131199 </v>
    <v>       0.21693216       0.10916228       0.04992341 </v>
    <v>       0.11151054       0.55498243       0.94833350 </v>
    <v>       0.22234906       0.44414766       0.05001575 </v>
    <v>       0.10786655       0.89167018       0.95042267 </v>
    <v>       0.22272534       0.77734018       0.05127349 </v>
    <v>       0.44389657       0.22262292       0.94883665 </v>
    <v>       0.55853152       0.10797557       0.04972977 </v>
    <v>       0.44841029       0.55771315       0.95130489 </v>
    <v>       0.55728529       0.44946681       0.04992889 </v>
    <v>       0.44945204       0.89045677       0.95030096 </v>
    <v>       0.55974060       0.77970105       0.04750190 </v>
    <v>       0.77603833       0.21703010       0.95029771 </v>
    <v>       0.88680823       0.10671070       0.04748893 </v>
    <v>       0.77487039       0.55859399       0.95041117 </v>
    <v>       0.88917076       0.44378020       0.05126641 </v>
    <v>       0.77766384       0.88890175       0.95353069 </v>
    <v>       0.88611678       0.78045643       0.04818463 </v>
   </varray>
  </structure>
  <varray name="forces" >
   <v>      -0.22393329      -0.00132436       0.06884877 </v>
   <v>       0.30817568       0.02533357      -0.02165568 </v>
   <v>       0.30993024      -0.03096082      -0.02288486 </v>
   <v>      -0.11745216      -0.10905031      -0.02562497 </v>
   <v>      -0.11637072       0.10714626      -0.02823807 </v>
   <v>       0.64129125      -0.00295401       0.03513962 </v>
   <v>      -0.73436657       0.28418307       0.02109663 </v>
   <v>       0.81790697       0.00226897      -0.02937434 </v>
   <v>      -0.73227454      -0.28561010       0.01759987 </v>
   <v>      -0.04307475       0.00650782      -0.02707301 </v>
   <v>       0.00710910      -0.04826102       0.48060967 </v>
   <v>      -0.02806130       0.00013067      -0.71823929 </v>
   <v>       0.04684737      -0.00025097       0.04076506 </v>
   <v>       0.01232819      -0.02808382      -0.39016633 </v>
   <v>      -0.10347265       0.02071805       0.55098519 </v>
   <v>       0.10262345      -0.00001654      -0.54149209 </v>
   <v>       0.01665219      -0.00140387       0.45269684 </v>
   <v>      -0.03920910      -0.00142403      -0.01581479 </v>
   <v>       0.00304986       0.05172475       0.46654487 </v>
   <v>      -0.00855279       0.02068757      -0.36087277 </v>
   <v>      -0.02289620      -0.01696009       0.07551639 </v>
   <v>      -0.00673143      -0.01865114      -0.36431821 </v>
   <v>      -0.02729688       0.01864489       0.08262523 </v>
   <v>       0.00607205       0.03104508      -0.37905543 </v>
   <v>      -0.10309846      -0.01844179       0.54811694 </v>
   <v>       0.00660162      -0.00187132      -0.20098549 </v>
   <v>       0.02820289      -0.00312654       0.28525026 </v>
  </varray>
  <varray name="stress" >
   <v>      -5.48853545      -0.01171958      -0.17060890 </v>
   <v>      -0.01171944      -5.90695820      -0.00489668 </v>
   <v>      -0.17060859      -0.00489661       4.55041628 </v>
  </varray>
  <energy>
   <i name="e_fr_energy">   -190.78237541 </i>
   <i name="e_wo_entrp">   -190.68621083 </i>
   <i name="e_0_energy">     -0.19232917 </i>
  </energy>
  <time name="totalsc">  401.89  402.95</time>
 </calculation>
 <calculation>
  <scstep>
   <time name="dav">   22.81   22.86</time>
   <time name="total">   23.40   23.46</time>
   <energy>
    <i name="alphaZ">     90.03587063 </i>
    <i name="ewald">  44620.89264691 </i>
    <i name="hartreedc"> -50661.75181337 </i>
    <i name="XCdc">   -231.87651264 </i>
    <i name="pawpsdc">   4064.46538678 </i>
    <i name="pawaedc">  -3480.33503944 </i>
    <i name="eentropy">     -0.16542787 </i>
    <i name="bandstr">  -1354.90544460 </i>
    <i name="atom">   6761.44252427 </i>
    <i name="e_fr_energy">   -192.19780932 </i>
    <i name="e_wo_entrp">   -192.03238146 </i>
    <i name="e_0_energy">   -192.11509539 </i>
   </energy>
  </scstep>
  <scstep>
   <time name="dav">   27.27   27.33</time>
   <time name="total">   27.87   27.94</time>
   <energy>
    <i name="e_fr_energy">   -191.91411073 </i>
    <i name="e_wo_entrp">   -191.73788079 </i>
    <i name="e_0_energy">   -191.82599576 </i>
   </energy>
  </scstep>
  <scstep>
   <time name="dav">   28.55   28.61</time>
   <time name="total">   29.14   29.22</time>
   <energy>
    <i name="e_fr_energy">   -191.73938274 </i>
    <i name="e_wo_entrp">   -191.57680188 </i>
    <i name="e_0_energy">   -191.65809231 </i>
   </energy>
  </scstep>
  <scstep>
   <time name="dav">   30.04   30.11</time>
   <time name="total">   30.64   30.72</time>
   <energy>
    <i name="e_fr_energy">   -191.78782604 </i>
    <i name="e_wo_entrp">   -191.59933576 </i>
    <i name="e_0_energy">   -191.69358090 </i>
   </energy>
  </scstep>
  <scstep>
   <time name="dav">   28.98   29.05</time>
   <time name="total">   29.58   29.65</time>
   <energy>
    <i name="e_fr_energy">   -191.62156572 </i>
    <i name="e_wo_entrp">   -191.44384139 </i>
    <i name="e_0_energy">   -191.53270355 </i>
   </energy>
  </scstep>
  <scstep>
   <time name="dav">   30.82   30.89</time>
   <time name="total">   31.41   31.50</time>
   <energy>
    <i name="e_fr_energy">   -191.59460799 </i>
    <i name="e_wo_entrp">   -191.42867358 </i>
    <i name="e_0_energy">   -191.51164078 </i>
   </energy>
  </scstep>
  <scstep>
   <time name="dav">   32.01   32.09</time>
   <time name="total">   32.60   32.69</time>
   <energy>
    <i name="e_fr_energy">   -191.57720739 </i>
    <i name="e_wo_entrp">   -191.40277365 </i>
    <i name="e_0_energy">   -191.48999052 </i>
   </energy>
  </scstep>
  <scstep>
   <time name="dav">   32.01   32.09</time>
   <time name="total">   32.61   32.69</time>
   <energy>
    <i name="e_fr_energy">   -191.57084276 </i>
    <i name="e_wo_entrp">   -191.39830503 </i>
    <i name="e_0_energy">   -191.48457389 </i>
   </energy>
  </scstep>
  <scstep>
   <time name="dav">   30.15   30.22</time>
   <time name="total">   30.74   30.82</time>
   <energy>
    <i name="e_fr_energy">   -191.57172490 </i>
    <i name="e_wo_entrp">   -191.39871791 </i>
    <i name="e_0_energy">   -191.48522140 </i>
   </energy>
  </scstep>
  <scstep>
   <time name="dav">   28.98   29.05</time>
   <time name="total">   29.58   29.66</time>
   <energy>
    <i name="e_fr_energy">   -191.57103253 </i>
    <i name="e_wo_entrp">   -191.39796977 </i>
    <i name="e_0_energy">   -191.48450115 </i>
   </energy>
  </scstep>
  <scstep>
   <time name="dav">   19.20   19.24</time>
   <time name="total">   19.23   19.29</time>
   <energy>
    <i name="alphaZ">     90.03587063 </i>
    <i name="ewald">  44620.89264691 </i>
    <i name="hartreedc"> -50629.26987042 </i>
    <i name="XCdc">   -233.31468938 </i>
    <i name="pawpsdc">   4090.02798289 </i>
    <i name="pawaedc">  -3506.03644307 </i>
    <i name="eentropy">     -0.17287363 </i>
    <i name="bandstr">  -1385.17616059 </i>
    <i name="atom">   6761.44252427 </i>
    <i name="e_fr_energy">   -191.57101238 </i>
    <i name="e_wo_entrp">   -191.39813876 </i>
    <i name="e_0_energy">   -191.48457557 </i>
   </energy>
  </scstep>
  <structure>
   <crystal>
    <varray name="basis" >
     <v>       8.29608316       4.77677998       0.00000000 </v>
     <v>      -8.29619827       4.77698000       0.00000000 </v>
     <v>       0.00000000       0.00000000      30.00000000 </v>
    </varray>
    <i name="volume">   2377.78011635 </i>
    <varray name="rec_basis" >
     <v>       0.06027025       0.10467156       0.00000000 </v>
     <v>      -0.06026773       0.10467011       0.00000000 </v>
     <v>       0.00000000       0.00000000       0.03333333 </v>
    </varray>
   </crystal>
   <varray name="positions" >
    <v>       0.66326881       0.00344843       0.00051438 </v>
    <v>       0.00437567      -0.00441549      -0.00035931 </v>
    <v>       0.67114739       0.66241481      -0.00036244 </v>
    <v>       0.66367924       0.33264293       0.00008748 </v>
    <v>       0.33377449       0.00287608       0.00007829 </v>
    <v>       0.00681576       0.65984286      -0.00013526 </v>
    <v>       0.99560007       0.34746353       0.00017948 </v>
    <v>       0.34328405       0.32310792      -0.00019584 </v>
    <v>       0.31903477       0.67094723       0.00016268 </v>
    <v>       0.10822910       0.21782352       0.95070438 </v>
    <v>       0.21587380       0.10812456       0.05229035 </v>
    <v>       0.11124479       0.55525440       0.94502409 </v>
    <v>       0.22266494       0.44383120       0.05073924 </v>
    <v>       0.10743506       0.89152505       0.94842895 </v>
    <v>       0.22219227       0.77828030       0.05394452 </v>
    <v>       0.44463888       0.22188846       0.94621676 </v>
    <v>       0.55885522       0.10763054       0.05196641 </v>
    <v>       0.44862381       0.55822974       0.95073185 </v>
    <v>       0.55832278       0.45055690       0.05225092 </v>
    <v>       0.45014241       0.89118049       0.94837765 </v>
    <v>       0.55999828       0.77995623       0.04824356 </v>
    <v>       0.77535274       0.21635769       0.94836043 </v>
    <v>       0.88656518       0.10648341       0.04824866 </v>
    <v>       0.77503026       0.55907632       0.94844849 </v>
    <v>       0.88826027       0.44433821       0.05392512 </v>
    <v>       0.77770765       0.88887729       0.95240181 </v>
    <v>       0.88609676       0.78047186       0.04972726 </v>
   </varray>
  </structure>
  <varray name="forces" >
   <v>      -0.17862630      -0.00158488       0.02948485 </v>
   <v>       0.35509077      -0.07097770      -0.02885728 </v>
   <v>       0.35293698       0.07296737      -0.02819554 </v>
   <v>      -0.06138577      -0.15990738      -0.01514946 </v>
   <v>      -0.06352487       0.15486790      -0.00940018 </v>
   <v>       0.19744489       0.00233056       0.12751946 </v>
   <v>      -0.53229825       0.14406077      -0.10435683 </v>
   <v>       0.63095286      -0.00572036       0.09547429 </v>
   <v>      -0.53524210      -0.14540504      -0.09385337 </v>
   <v>      -0.12450535       0.14673323       0.31793408 </v>
   <v>       0.08304755       0.03460552       0.18698488 </v>
   <v>      -0.03891781      -0.00198888      -0.44561261 </v>
   <v>       0.11260342       0.00184041      -0.31665392 </v>
   <v>       0.14232079      -0.07601046      -0.07072815 </v>
   <v>      -0.20724830       0.06107175       0.27484917 </v>
   <v>       0.23666897      -0.00025630      -0.39038258 </v>
   <v>      -0.08535321       0.00020151       0.15045662 </v>
   <v>      -0.12469030      -0.14528797       0.31617910 </v>
   <v>       0.08167544      -0.03035040       0.19212607 </v>
   <v>      -0.06333772      -0.06225367      -0.08713406 </v>
   <v>      -0.11919507      -0.19768161      -0.15584410 </v>
   <v>      -0.06449650       0.06337951      -0.08414518 </v>
   <v>      -0.11972847       0.20044677      -0.15405566 </v>
   <v>       0.14173376       0.07503922      -0.07134274 </v>
   <v>      -0.21134511      -0.05981883       0.28083944 </v>
   <v>       0.02592667       0.00024249       0.00728070 </v>
   <v>       0.16949303      -0.00054353       0.07658300 </v>
  </varray>
  <varray name="stress" >
   <v>       0.62130076       0.01478897      -0.49510504 </v>
   <v>       0.01478893      -0.15642861       0.01073578 </v>
   <v>      -0.49510502       0.01073593       0.11316279 </v>
  </varray>
  <energy>
   <i name="e_fr_energy">   -191.57101238 </i>
   <i name="e_wo_entrp">   -191.48457557 </i>
   <i name="e_0_energy">     -0.17287363 </i>
  </energy>
  <time name="totalsc">  360.63  361.58</time>
 </calculation>
 <calculation>
  <scstep>
   <time name="dav">   22.83   22.88</time>
   <time name="total">   23.42   23.48</time>
   <energy>
    <i name="alphaZ">     89.85247389 </i>
    <i name="ewald">  44512.65032865 </i>
    <i name="hartreedc"> -50519.86671795 </i>
    <i name="XCdc">   -233.54799065 </i>
    <i name="pawpsdc">   4090.07620438 </i>
    <i name="pawaedc">  -3506.08223078 </i>
    <i name="eentropy">     -0.16815347 </i>
    <i name="bandstr">  -1386.03170382 </i>
    <i name="atom">   6761.44252427 </i>
    <i name="e_fr_energy">   -191.67526548 </i>
    <i name="e_wo_entrp">   -191.50711202 </i>
    <i name="e_0_energy">   -191.59118875 </i>
   </energy>
  </scstep>
  <scstep>
   <time name="dav">   34.28   34.37</time>
   <time name="total">   34.88   34.97</time>
   <energy>
    <i name="e_fr_energy">   -191.74198000 </i>
    <i name="e_wo_entrp">   -191.55522108 </i>
    <i name="e_0_energy">   -191.64860054 </i>
   </energy>
  </scstep>
  <scstep>
   <time name="dav">   32.17   32.24</time>
   <time name="total">   32.76   32.85</time>
   <energy>
    <i name="e_fr_energy">   -191.69039936 </i>
    <i name="e_wo_entrp">   -191.52042845 </i>
    <i name="e_0_energy">   -191.60541391 </i>
   </energy>
  </scstep>
  <scstep>
   <time name="dav">   29.69   29.76</time>
   <time name="total">   30.28   30.36</time>
   <energy>
    <i name="e_fr_energy">   -191.69061518 </i>
    <i name="e_wo_entrp">   -191.51965852 </i>
    <i name="e_0_energy">   -191.60513685 </i>
   </energy>
  </scstep>
  <scstep>
   <time name="dav">   30.47   30.55</time>
   <time name="total">   31.07   31.15</time>
   <energy>
    <i name="e_fr_energy">   -191.68838538 </i>
    <i name="e_wo_entrp">   -191.51587563 </i>
    <i name="e_0_energy">   -191.60213050 </i>
   </energy>
  </scstep>
  <scstep>
   <time name="dav">   30.03   30.11</time>
   <time name="total">   30.63   30.71</time>
   <energy>
    <i name="e_fr_energy">   -191.68768885 </i>
    <i name="e_wo_entrp">   -191.51595915 </i>
    <i name="e_0_energy">   -191.60182400 </i>
   </energy>
  </scstep>
  <scstep>
   <time name="dav">   28.90   28.97</time>
   <time name="total">   29.50   29.57</time>
   <energy>
    <i name="e_fr_energy">   -191.68750878 </i>
    <i name="e_wo_entrp">   -191.51606730 </i>
    <i name="e_0_energy">   -191.60178804 </i>
   </energy>
  </scstep>
  <scstep>
   <time name="dav">   21.24   21.29</time>
   <time name="total">   21.28   21.34</time>
   <energy>
    <i name="alphaZ">     89.85247389 </i>
    <i name="ewald">  44512.65032865 </i>
    <i name="hartreedc"> -50522.32060514 </i>
    <i name="XCdc">   -233.45669616 </i>
    <i name="pawpsdc">   4085.98075480 </i>
    <i name="pawaedc">  -3501.92041763 </i>
    <i name="eentropy">     -0.17151815 </i>
    <i name="bandstr">  -1383.74438307 </i>
    <i name="atom">   6761.44252427 </i>
    <i name="e_fr_energy">   -191.68753854 </i>
    <i name="e_wo_entrp">   -191.51602039 </i>
    <i name="e_0_energy">   -191.60177946 </i>
   </energy>
  </scstep>
  <structure>
   <crystal>
    <varray name="basis" >
     <v>       8.31256219       4.77746026       0.00000000 </v>
     <v>      -8.31231464       4.77703007       0.00000000 </v>
     <v>       0.00000000       0.00000000      30.00000000 </v>
    </varray>
    <i name="volume">   2382.63337300 </i>
    <varray name="rec_basis" >
     <v>       0.06014811       0.10466127       0.00000000 </v>
     <v>      -0.06015353       0.10466439       0.00000000 </v>
     <v>       0.00000000       0.00000000       0.03333333 </v>
    </varray>
   </crystal>
   <varray name="positions" >
    <v>       0.66282304       0.00387880       0.00054982 </v>
    <v>       0.00492531      -0.00568151      -0.00039956 </v>
    <v>       0.67241678       0.66187959      -0.00040160 </v>
    <v>       0.66281270       0.33206422       0.00006805 </v>
    <v>       0.33432719       0.00372584       0.00006791 </v>
    <v>       0.00722418       0.65945669       0.00005456 </v>
    <v>       0.99486689       0.34933985       0.00001656 </v>
    <v>       0.34482042       0.32152112      -0.00004444 </v>
    <v>       0.31714620       0.67168366       0.00001614 </v>
    <v>       0.10860979       0.21888300       0.95121858 </v>
    <v>       0.21631364       0.10810495       0.05248559 </v>
    <v>       0.11113883       0.55534111       0.94446728 </v>
    <v>       0.22297266       0.44354093       0.05022175 </v>
    <v>       0.10748164       0.89077025       0.94839758 </v>
    <v>       0.22193342       0.77911028       0.05426257 </v>
    <v>       0.44526242       0.22126205       0.94572126 </v>
    <v>       0.55860605       0.10788203       0.05211093 </v>
    <v>       0.44757014       0.55785635       0.95124247 </v>
    <v>       0.55835923       0.45014095       0.05245521 </v>
    <v>       0.44963753       0.89102428       0.94832007 </v>
    <v>       0.55870572       0.77932562       0.04797238 </v>
    <v>       0.77550986       0.21687038       0.94830785 </v>
    <v>       0.88720661       0.10779006       0.04797982 </v>
    <v>       0.77577784       0.55902570       0.94841545 </v>
    <v>       0.88742401       0.44461345       0.05425270 </v>
    <v>       0.77777809       0.88880706       0.95245770 </v>
    <v>       0.88656428       0.77999772       0.04978324 </v>
   </varray>
  </structure>
  <varray name="forces" >
   <v>      -0.17295331       0.00237631       0.07072727 </v>
   <v>       0.38056960      -0.09804331      -0.04005913 </v>
   <v>       0.36899228       0.10620673      -0.04168719 </v>
   <v>      -0.03433816      -0.17483112      -0.01228116 </v>
   <v>      -0.04630049       0.16810913      -0.01613762 </v>
   <v>       0.18504874       0.00208699       0.06189540 </v>
   <v>      -0.56955048       0.11615654      -0.02699364 </v>
   <v>       0.63887999      -0.00807336       0.00759722 </v>
   <v>      -0.56519109      -0.11951822      -0.03260838 </v>
   <v>      -0.09295848       0.11609112       0.34452162 </v>
   <v>       0.07823477       0.00335287       0.16702626 </v>
   <v>      -0.10645840       0.00098969      -0.32336770 </v>
   <v>       0.09150508       0.00018829      -0.34731507 </v>
   <v>       0.08782630      -0.03720985      -0.04633449 </v>
   <v>      -0.13070170       0.04920090       0.18686849 </v>
   <v>       0.14627963      -0.00025117      -0.26948241 </v>
   <v>      -0.04908395       0.00062414       0.12027841 </v>
   <v>      -0.09549129      -0.11878446       0.34352758 </v>
   <v>       0.07964985      -0.00729400       0.16602894 </v>
   <v>      -0.05184426      -0.02712756      -0.09721951 </v>
   <v>      -0.08634005      -0.15122080      -0.20927311 </v>
   <v>      -0.05364797       0.02685390      -0.09911198 </v>
   <v>      -0.08232076       0.15255717      -0.21322785 </v>
   <v>       0.09328625       0.03724928      -0.05030154 </v>
   <v>      -0.12936903      -0.05000598       0.18118660 </v>
   <v>       0.02684245       0.00521349       0.06923858 </v>
   <v>       0.08943447       0.00510329       0.10650443 </v>
  </varray>
  <varray name="stress" >
   <v>      -0.16010314      -0.00782395      -0.11730419 </v>
   <v>      -0.00782403      -0.29441539       0.00108796 </v>
   <v>      -0.11730432       0.00108798      -0.85302992 </v>
  </varray>
  <energy>
   <i name="e_fr_energy">   -191.68753854 </i>
   <i name="e_wo_entrp">   -191.60177946 </i>
   <i name="e_0_energy">     -0.17151815 </i>
  </energy>
  <time name="totalsc">  277.87  278.59</time>
 </calculation>
 <calculation>
  <scstep>
   <time name="dav">   22.84   22.90</time>
   <time name="total">   23.44   23.50</time>
   <energy>
    <i name="alphaZ">     90.07412486 </i>
    <i name="ewald">  44601.13814229 </i>
    <i name="hartreedc"> -50613.35375776 </i>
    <i name="XCdc">   -233.36805835 </i>
    <i name="pawpsdc">   4085.86989927 </i>
    <i name="pawaedc">  -3501.80822836 </i>
    <i name="eentropy">     -0.15975392 </i>
    <i name="bandstr">  -1381.66967998 </i>
    <i name="atom">   6761.44252427 </i>
    <i name="e_fr_energy">   -191.83478768 </i>
    <i name="e_wo_entrp">   -191.67503376 </i>
    <i name="e_0_energy">   -191.75491072 </i>
   </energy>
  </scstep>
  <scstep>
   <time name="dav">   31.23   31.31</time>
   <time name="total">   31.82   31.91</time>
   <energy>
    <i name="e_fr_energy">   -191.92023329 </i>
    <i name="e_wo_entrp">   -191.74059721 </i>
    <i name="e_0_energy">   -191.83041525 </i>
   </energy>
  </scstep>
  <scstep>
   <time name="dav">   32.34   32.42</time>
   <time name="total">   32.94   33.02</time>
   <energy>
    <i name="e_fr_energy">   -191.87821064 </i>
    <i name="e_wo_entrp">   -191.71967513 </i>
    <i name="e_0_energy">   -191.79894288 </i>
   </energy>
  </scstep>
  <scstep>
   <time name="dav">   30.26   30.33</time>
   <time name="total">   30.85   30.93</time>
   <energy>
    <i name="e_fr_energy">   -191.87257511 </i>
    <i name="e_wo_entrp">   -191.71151241 </i>
    <i name="e_0_energy">   -191.79204376 </i>
   </energy>
  </scstep>
  <scstep>
   <time name="dav">   31.85   31.93</time>
   <time name="total">   32.45   32.53</time>
   <energy>
    <i name="e_fr_energy">   -191.86679742 </i>
    <i name="e_wo_entrp">   -191.70281610 </i>
    <i name="e_0_energy">   -191.78480676 </i>
   </energy>
  </scstep>
  <scstep>
   <time name="dav">   31.94   32.02</time>
   <time name="total">   32.54   32.62</time>
   <energy>
    <i name="e_fr_energy">   -191.86482504 </i>
    <i name="e_wo_entrp">   -191.70129907 </i>
    <i name="e_0_energy">   -191.78306206 </i>
   </energy>
  </scstep>
  <scstep>
   <time name="dav">   28.61   28.68</time>
   <time name="total">   29.20   29.28</time>
   <energy>
    <i name="e_fr_energy">   -191.86427218 </i>
    <i name="e_wo_entrp">   -191.70114619 </i>
    <i name="e_0_energy">   -191.78270919 </i>
   </energy>
  </scstep>
  <scstep>
   <time name="dav">   28.80   28.87</time>
   <time name="total">   29.31   29.39</time>
   <energy>
    <i name="e_fr_energy">   -191.86416920 </i>
    <i name="e_wo_entrp">   -191.70109504 </i>
    <i name="e_0_energy">   -191.78263212 </i>
   </energy>
  </scstep>
  <scstep>
   <time name="dav">   22.95   23.00</time>
   <time name="total">   23.46   23.52</time>
   <energy>
    <i name="e_fr_energy">   -191.86400945 </i>
    <i name="e_wo_entrp">   -191.70092696 </i>
    <i name="e_0_energy">   -191.78246821 </i>
   </energy>
  </scstep>
  <scstep>
   <time name="dav">   19.50   19.54</time>
   <time name="total">   19.53   19.59</time>
   <energy>
    <i name="alphaZ">     90.07412486 </i>
    <i name="ewald">  44601.13814229 </i>
    <i name="hartreedc"> -50612.50319365 </i>
    <i name="XCdc">   -233.39901026 </i>
    <i name="pawpsdc">   4090.60535070 </i>
    <i name="pawaedc">  -3506.58639316 </i>
    <i name="eentropy">     -0.16306024 </i>
    <i name="bandstr">  -1382.47248440 </i>
    <i name="atom">   6761.44252427 </i>
    <i name="e_fr_energy">   -191.86399960 </i>
    <i name="e_wo_entrp">   -191.70093936 </i>
    <i name="e_0_energy">   -191.78246948 </i>
   </energy>
  </scstep>
  <structure>
   <crystal>
    <varray name="basis" >
     <v>       8.30498886       4.76972163       0.00000000 </v>
     <v>      -8.30502526       4.76978573       0.00000000 </v>
[...]
      <set comment="kpoint 31">
       <r>  -17.5284    1.0000 </r>
       <r>  -17.2892    1.0000 </r>
       <r>  -16.9313    1.0000 </r>
       <r>  -16.6155    1.0000 </r>
       <r>  -16.5476    1.0000 </r>
       <r>  -16.4815    1.0000 </r>
       <r>  -16.3002    1.0000 </r>
       <r>  -16.1810    1.0000 </r>
       <r>  -16.1139    1.0000 </r>
       <r>  -16.0980    1.0000 </r>
       <r>  -15.9250    1.0000 </r>
       <r>  -15.8548    1.0000 </r>
       <r>  -15.7608    1.0000 </r>
       <r>  -15.7001    1.0000 </r>
       <r>  -15.6452    1.0000 </r>
       <r>  -15.4374    1.0000 </r>
       <r>  -15.3323    1.0000 </r>
       <r>  -15.1959    1.0000 </r>
       <r>   -9.7846    1.0000 </r>
       <r>   -9.4843    1.0000 </r>
       <r>   -9.3600    1.0000 </r>
       <r>   -8.9379    1.0000 </r>
       <r>   -8.8439    1.0000 </r>
       <r>   -8.7482    1.0000 </r>
       <r>   -8.6485    1.0000 </r>
       <r>   -8.6116    1.0000 </r>
       <r>   -8.4363    1.0000 </r>
       <r>   -8.3111    1.0000 </r>
       <r>   -8.2572    1.0000 </r>
       <r>   -8.1508    1.0000 </r>
       <r>   -8.0895    1.0000 </r>
       <r>   -8.0758    1.0000 </r>
       <r>   -7.9538    1.0000 </r>
       <r>   -7.9101    1.0000 </r>
       <r>   -7.7747    1.0000 </r>
       <r>   -7.6806    1.0000 </r>
       <r>   -7.6314    1.0000 </r>
       <r>   -7.5793    1.0000 </r>
       <r>   -7.3882    1.0000 </r>
       <r>   -7.3170    1.0000 </r>
       <r>   -7.1645    1.0000 </r>
       <r>   -7.0260    1.0000 </r>
       <r>   -6.9642    1.0000 </r>
       <r>   -6.9113    1.0000 </r>
       <r>   -6.8778    1.0000 </r>
       <r>   -6.8058    1.0000 </r>
       <r>   -6.7028    1.0000 </r>
       <r>   -6.5634    1.0000 </r>
       <r>   -6.5215    1.0000 </r>
       <r>   -6.4277    1.0000 </r>
       <r>   -6.3668    1.0000 </r>
       <r>   -6.2808    1.0000 </r>
       <r>   -6.2260    1.0000 </r>
       <r>   -6.1778    1.0000 </r>
       <r>   -6.1033    1.0000 </r>
       <r>   -6.0187    1.0000 </r>
       <r>   -5.9830    1.0000 </r>
       <r>   -5.9277    1.0000 </r>
       <r>   -5.9026    1.0000 </r>
       <r>   -5.7051    1.0000 </r>
       <r>   -5.6478    1.0000 </r>
       <r>   -5.5572    1.0000 </r>
       <r>   -5.5235    1.0000 </r>
       <r>   -5.3932    1.0000 </r>
       <r>   -5.2836    1.0000 </r>
       <r>   -5.2368    1.0000 </r>
       <r>   -4.9480    1.0000 </r>
       <r>   -4.8692    1.0000 </r>
       <r>   -4.8244    1.0000 </r>
       <r>   -4.7457    1.0000 </r>
       <r>   -4.5352    1.0000 </r>
       <r>   -4.4264    1.0000 </r>
       <r>   -4.3413    1.0000 </r>
       <r>   -4.1674    1.0000 </r>
       <r>   -4.0896    1.0000 </r>
       <r>   -4.0344    1.0000 </r>
       <r>   -3.8427    1.0000 </r>
       <r>   -3.6990    0.9993 </r>
       <r>   -3.5196    0.9726 </r>
       <r>   -3.1956    0.3558 </r>
       <r>   -3.0594    0.0913 </r>
       <r>   -2.8478    0.0023 </r>
       <r>   -2.7074    0.0001 </r>
       <r>   -2.5688    0.0000 </r>
       <r>   -2.4648    0.0000 </r>
       <r>   -2.3437    0.0000 </r>
       <r>   -2.1608    0.0000 </r>
       <r>   -2.0651    0.0000 </r>
       <r>   -1.9395    0.0000 </r>
       <r>   -1.8453    0.0000 </r>
       <r>   -1.6815    0.0000 </r>
       <r>   -1.6085    0.0000 </r>
       <r>   -1.4168    0.0000 </r>
       <r>   -1.3727    0.0000 </r>
       <r>   -1.2231    0.0000 </r>
       <r>   -1.1098    0.0000 </r>
       <r>   -1.0481    0.0000 </r>
       <r>   -0.9942    0.0000 </r>
       <r>   -0.9378    0.0000 </r>
       <r>   -0.8773    0.0000 </r>
       <r>   -0.8340    0.0000 </r>
       <r>   -0.7266    0.0000 </r>
       <r>   -0.6730    0.0000 </r>
       <r>   -0.5511    0.0000 </r>
       <r>   -0.4535    0.0000 </r>
       <r>   -0.3613    0.0000 </r>
       <r>   -0.2797    0.0000 </r>
       <r>   -0.1119    0.0000 </r>
       <r>    0.0385    0.0000 </r>
       <r>    0.1565    0.0000 </r>
       <r>    0.3643    0.0000 </r>
       <r>    0.5887    0.0000 </r>
       <r>    0.7534    0.0000 </r>
       <r>    0.9981    0.0000 </r>
       <r>    1.1366    0.0000 </r>
       <r>    1.2809    0.0000 </r>
       <r>    1.5072    0.0000 </r>
       <r>    2.1582    0.0000 </r>
       <r>    2.3182    0.0000 </r>
       <r>    2.4253    0.0000 </r>
      </set>
      <set comment="kpoint 32">
       <r>  -17.5438    1.0000 </r>
       <r>  -17.2169    1.0000 </r>
       <r>  -17.0449    1.0000 </r>
       <r>  -16.6378    1.0000 </r>
       <r>  -16.5007    1.0000 </r>
       <r>  -16.3570    1.0000 </r>
       <r>  -16.2848    1.0000 </r>
       <r>  -16.2006    1.0000 </r>
       <r>  -16.1676    1.0000 </r>
       <r>  -16.0656    1.0000 </r>
       <r>  -15.9946    1.0000 </r>
       <r>  -15.8496    1.0000 </r>
       <r>  -15.7764    1.0000 </r>
       <r>  -15.7084    1.0000 </r>
       <r>  -15.6409    1.0000 </r>
       <r>  -15.4674    1.0000 </r>
       <r>  -15.3123    1.0000 </r>
       <r>  -15.1696    1.0000 </r>
       <r>   -9.7682    1.0000 </r>
       <r>   -9.5639    1.0000 </r>
       <r>   -9.4023    1.0000 </r>
       <r>   -8.9630    1.0000 </r>
       <r>   -8.7618    1.0000 </r>
       <r>   -8.6510    1.0000 </r>
       <r>   -8.5124    1.0000 </r>
       <r>   -8.4860    1.0000 </r>
       <r>   -8.4577    1.0000 </r>
       <r>   -8.3660    1.0000 </r>
       <r>   -8.2633    1.0000 </r>
       <r>   -8.2082    1.0000 </r>
       <r>   -8.1815    1.0000 </r>
       <r>   -8.0918    1.0000 </r>
       <r>   -8.0176    1.0000 </r>
       <r>   -7.9436    1.0000 </r>
       <r>   -7.8106    1.0000 </r>
       <r>   -7.7210    1.0000 </r>
       <r>   -7.5764    1.0000 </r>
       <r>   -7.4894    1.0000 </r>
       <r>   -7.3782    1.0000 </r>
       <r>   -7.2295    1.0000 </r>
       <r>   -7.1850    1.0000 </r>
       <r>   -7.1338    1.0000 </r>
       <r>   -7.0675    1.0000 </r>
       <r>   -6.9156    1.0000 </r>
       <r>   -6.8447    1.0000 </r>
       <r>   -6.8049    1.0000 </r>
       <r>   -6.6509    1.0000 </r>
       <r>   -6.5443    1.0000 </r>
       <r>   -6.4745    1.0000 </r>
       <r>   -6.4095    1.0000 </r>
       <r>   -6.3722    1.0000 </r>
       <r>   -6.3099    1.0000 </r>
       <r>   -6.2695    1.0000 </r>
       <r>   -6.1706    1.0000 </r>
       <r>   -6.1217    1.0000 </r>
       <r>   -6.0863    1.0000 </r>
       <r>   -5.9733    1.0000 </r>
       <r>   -5.8683    1.0000 </r>
       <r>   -5.8001    1.0000 </r>
       <r>   -5.7371    1.0000 </r>
       <r>   -5.6211    1.0000 </r>
       <r>   -5.5661    1.0000 </r>
       <r>   -5.5121    1.0000 </r>
       <r>   -5.4039    1.0000 </r>
       <r>   -5.3753    1.0000 </r>
       <r>   -5.1860    1.0000 </r>
       <r>   -5.1544    1.0000 </r>
       <r>   -4.8672    1.0000 </r>
       <r>   -4.7610    1.0000 </r>
       <r>   -4.6444    1.0000 </r>
       <r>   -4.5001    1.0000 </r>
       <r>   -4.4132    1.0000 </r>
       <r>   -4.3362    1.0000 </r>
       <r>   -4.2077    1.0000 </r>
       <r>   -4.1635    1.0000 </r>
       <r>   -4.0726    1.0000 </r>
       <r>   -3.9421    1.0000 </r>
       <r>   -3.6588    0.9982 </r>
       <r>   -3.5310    0.9773 </r>
       <r>   -3.1046    0.1554 </r>
       <r>   -2.9503    0.0177 </r>
       <r>   -2.8065    0.0009 </r>
       <r>   -2.7325    0.0001 </r>
       <r>   -2.5149    0.0000 </r>
       <r>   -2.4499    0.0000 </r>
       <r>   -2.3533    0.0000 </r>
       <r>   -2.1007    0.0000 </r>
       <r>   -1.9797    0.0000 </r>
       <r>   -1.9406    0.0000 </r>
       <r>   -1.8429    0.0000 </r>
       <r>   -1.7698    0.0000 </r>
       <r>   -1.6349    0.0000 </r>
       <r>   -1.4725    0.0000 </r>
       <r>   -1.4048    0.0000 </r>
       <r>   -1.2855    0.0000 </r>
       <r>   -1.1304    0.0000 </r>
       <r>   -1.0491    0.0000 </r>
       <r>   -0.9984    0.0000 </r>
       <r>   -0.9548    0.0000 </r>
       <r>   -0.9074    0.0000 </r>
       <r>   -0.8035    0.0000 </r>
       <r>   -0.7363    0.0000 </r>
       <r>   -0.6606    0.0000 </r>
       <r>   -0.5669    0.0000 </r>
       <r>   -0.4149    0.0000 </r>
       <r>   -0.3197    0.0000 </r>
       <r>   -0.1613    0.0000 </r>
       <r>   -0.1175    0.0000 </r>
       <r>    0.0677    0.0000 </r>
       <r>    0.1771    0.0000 </r>
       <r>    0.4753    0.0000 </r>
       <r>    0.5941    0.0000 </r>
       <r>    0.7403    0.0000 </r>
       <r>    0.9280    0.0000 </r>
       <r>    1.0917    0.0000 </r>
       <r>    1.2006    0.0000 </r>
       <r>    1.3696    0.0000 </r>
       <r>    2.1190    0.0000 </r>
       <r>    2.2917    0.0000 </r>
       <r>    2.5946    0.0000 </r>
      </set>
      <set comment="kpoint 33">
       <r>  -17.5243    1.0000 </r>
       <r>  -17.3114    1.0000 </r>
       <r>  -16.9157    1.0000 </r>
       <r>  -16.6565    1.0000 </r>
       <r>  -16.5213    1.0000 </r>
       <r>  -16.4024    1.0000 </r>
       <r>  -16.2882    1.0000 </r>
       <r>  -16.2186    1.0000 </r>
       <r>  -16.1384    1.0000 </r>
       <r>  -16.0673    1.0000 </r>
       <r>  -15.9300    1.0000 </r>
       <r>  -15.8329    1.0000 </r>
       <r>  -15.8001    1.0000 </r>
       <r>  -15.7191    1.0000 </r>
       <r>  -15.6474    1.0000 </r>
       <r>  -15.5168    1.0000 </r>
       <r>  -15.2888    1.0000 </r>
       <r>  -15.1615    1.0000 </r>
       <r>   -9.8431    1.0000 </r>
       <r>   -9.4649    1.0000 </r>
       <r>   -9.3088    1.0000 </r>
       <r>   -9.0108    1.0000 </r>
       <r>   -8.8891    1.0000 </r>
       <r>   -8.7259    1.0000 </r>
       <r>   -8.5296    1.0000 </r>
       <r>   -8.4833    1.0000 </r>
       <r>   -8.4060    1.0000 </r>
       <r>   -8.3306    1.0000 </r>
       <r>   -8.2451    1.0000 </r>
       <r>   -8.2246    1.0000 </r>
       <r>   -8.1729    1.0000 </r>
       <r>   -8.0998    1.0000 </r>
       <r>   -8.0219    1.0000 </r>
       <r>   -7.8787    1.0000 </r>
       <r>   -7.7737    1.0000 </r>
       <r>   -7.7019    1.0000 </r>
       <r>   -7.5986    1.0000 </r>
       <r>   -7.4332    1.0000 </r>
       <r>   -7.3530    1.0000 </r>
       <r>   -7.2287    1.0000 </r>
       <r>   -7.1605    1.0000 </r>
       <r>   -7.1345    1.0000 </r>
       <r>   -7.0842    1.0000 </r>
       <r>   -6.8969    1.0000 </r>
       <r>   -6.8310    1.0000 </r>
       <r>   -6.7748    1.0000 </r>
       <r>   -6.6558    1.0000 </r>
       <r>   -6.6093    1.0000 </r>
       <r>   -6.4990    1.0000 </r>
       <r>   -6.4387    1.0000 </r>
       <r>   -6.3338    1.0000 </r>
       <r>   -6.3274    1.0000 </r>
       <r>   -6.2682    1.0000 </r>
       <r>   -6.1727    1.0000 </r>
       <r>   -6.1264    1.0000 </r>
       <r>   -6.0880    1.0000 </r>
       <r>   -6.0523    1.0000 </r>
       <r>   -5.9580    1.0000 </r>
       <r>   -5.8606    1.0000 </r>
       <r>   -5.7842    1.0000 </r>
       <r>   -5.6467    1.0000 </r>
       <r>   -5.5954    1.0000 </r>
       <r>   -5.4980    1.0000 </r>
       <r>   -5.4143    1.0000 </r>
       <r>   -5.3075    1.0000 </r>
       <r>   -5.1859    1.0000 </r>
       <r>   -5.0506    1.0000 </r>
       <r>   -4.8161    1.0000 </r>
       <r>   -4.7784    1.0000 </r>
       <r>   -4.5555    1.0000 </r>
       <r>   -4.4789    1.0000 </r>
       <r>   -4.4252    1.0000 </r>
       <r>   -4.3204    1.0000 </r>
       <r>   -4.2496    1.0000 </r>
       <r>   -4.2064    1.0000 </r>
       <r>   -4.0679    1.0000 </r>
       <r>   -4.0331    1.0000 </r>
       <r>   -3.6789    0.9988 </r>
       <r>   -3.5488    0.9833 </r>
       <r>   -3.0607    0.0928 </r>
       <r>   -2.9313    0.0126 </r>
       <r>   -2.7528    0.0002 </r>
       <r>   -2.6606    0.0000 </r>
       <r>   -2.5116    0.0000 </r>
       <r>   -2.3841    0.0000 </r>
       <r>   -2.3435    0.0000 </r>
       <r>   -2.0502    0.0000 </r>
       <r>   -1.9708    0.0000 </r>
       <r>   -1.9329    0.0000 </r>
       <r>   -1.8647    0.0000 </r>
       <r>   -1.7259    0.0000 </r>
       <r>   -1.6338    0.0000 </r>
       <r>   -1.5361    0.0000 </r>
       <r>   -1.4587    0.0000 </r>
       <r>   -1.3546    0.0000 </r>
       <r>   -1.1579    0.0000 </r>
       <r>   -1.0717    0.0000 </r>
       <r>   -1.0035    0.0000 </r>
       <r>   -0.9545    0.0000 </r>
       <r>   -0.9229    0.0000 </r>
       <r>   -0.8078    0.0000 </r>
       <r>   -0.7502    0.0000 </r>
       <r>   -0.6638    0.0000 </r>
       <r>   -0.6043    0.0000 </r>
       <r>   -0.3462    0.0000 </r>
       <r>   -0.2655    0.0000 </r>
       <r>   -0.2296    0.0000 </r>
       <r>   -0.0003    0.0000 </r>
       <r>    0.0645    0.0000 </r>
       <r>    0.2696    0.0000 </r>
       <r>    0.4628    0.0000 </r>
       <r>    0.6778    0.0000 </r>
       <r>    0.7793    0.0000 </r>
       <r>    0.8993    0.0000 </r>
       <r>    1.0178    0.0000 </r>
       <r>    1.1642    0.0000 </r>
       <r>    1.2473    0.0000 </r>
       <r>    2.1409    0.0000 </r>
       <r>    2.3283    0.0000 </r>
       <r>    2.3835    0.0000 </r>
      </set>
      <set comment="kpoint 34">
       <r>  -17.4944    1.0000 </r>
       <r>  -17.3800    1.0000 </r>
       <r>  -16.7365    1.0000 </r>
       <r>  -16.7269    1.0000 </r>
       <r>  -16.6083    1.0000 </r>
       <r>  -16.4228    1.0000 </r>
       <r>  -16.2748    1.0000 </r>
       <r>  -16.2444    1.0000 </r>
       <r>  -16.1244    1.0000 </r>
       <r>  -16.0541    1.0000 </r>
       <r>  -15.8825    1.0000 </r>
       <r>  -15.8283    1.0000 </r>
       <r>  -15.7852    1.0000 </r>
       <r>  -15.7071    1.0000 </r>
       <r>  -15.6899    1.0000 </r>
       <r>  -15.5415    1.0000 </r>
       <r>  -15.2771    1.0000 </r>
       <r>  -15.1637    1.0000 </r>
       <r>   -9.8782    1.0000 </r>
       <r>   -9.3281    1.0000 </r>
       <r>   -9.2851    1.0000 </r>
       <r>   -9.0262    1.0000 </r>
       <r>   -8.9431    1.0000 </r>
       <r>   -8.8847    1.0000 </r>
       <r>   -8.5366    1.0000 </r>
       <r>   -8.4667    1.0000 </r>
       <r>   -8.4264    1.0000 </r>
       <r>   -8.3271    1.0000 </r>
       <r>   -8.2517    1.0000 </r>
       <r>   -8.2338    1.0000 </r>
       <r>   -8.1177    1.0000 </r>
       <r>   -8.0934    1.0000 </r>
       <r>   -7.9520    1.0000 </r>
       <r>   -7.8884    1.0000 </r>
       <r>   -7.8113    1.0000 </r>
       <r>   -7.7151    1.0000 </r>
       <r>   -7.4861    1.0000 </r>
       <r>   -7.3634    1.0000 </r>
       <r>   -7.3317    1.0000 </r>
       <r>   -7.2339    1.0000 </r>
       <r>   -7.1292    1.0000 </r>
       <r>   -7.1229    1.0000 </r>
       <r>   -7.0643    1.0000 </r>
       <r>   -7.0526    1.0000 </r>
       <r>   -6.7991    1.0000 </r>
       <r>   -6.7558    1.0000 </r>
       <r>   -6.6615    1.0000 </r>
       <r>   -6.5698    1.0000 </r>
       <r>   -6.5606    1.0000 </r>
       <r>   -6.4518    1.0000 </r>
       <r>   -6.3250    1.0000 </r>
       <r>   -6.3101    1.0000 </r>
       <r>   -6.2472    1.0000 </r>
       <r>   -6.2378    1.0000 </r>
       <r>   -6.1619    1.0000 </r>
       <r>   -6.1441    1.0000 </r>
       <r>   -6.0907    1.0000 </r>
       <r>   -5.9042    1.0000 </r>
       <r>   -5.8832    1.0000 </r>
       <r>   -5.8010    1.0000 </r>
       <r>   -5.7052    1.0000 </r>
       <r>   -5.5690    1.0000 </r>
       <r>   -5.5379    1.0000 </r>
       <r>   -5.4094    1.0000 </r>
       <r>   -5.2667    1.0000 </r>
       <r>   -5.2377    1.0000 </r>
       <r>   -4.9069    1.0000 </r>
       <r>   -4.7926    1.0000 </r>
       <r>   -4.7168    1.0000 </r>
       <r>   -4.6366    1.0000 </r>
       <r>   -4.4696    1.0000 </r>
       <r>   -4.3531    1.0000 </r>
       <r>   -4.3408    1.0000 </r>
       <r>   -4.3217    1.0000 </r>
       <r>   -4.2078    1.0000 </r>
       <r>   -4.0810    1.0000 </r>
       <r>   -3.9974    1.0000 </r>
       <r>   -3.7147    0.9995 </r>
       <r>   -3.5627    0.9870 </r>
       <r>   -3.0605    0.0925 </r>
       <r>   -2.9626    0.0218 </r>
       <r>   -2.6724    0.0000 </r>
       <r>   -2.6408    0.0000 </r>
       <r>   -2.5103    0.0000 </r>
       <r>   -2.3931    0.0000 </r>
       <r>   -2.2705    0.0000 </r>
       <r>   -2.0819    0.0000 </r>
       <r>   -1.9990    0.0000 </r>
       <r>   -1.9353    0.0000 </r>
       <r>   -1.8182    0.0000 </r>
       <r>   -1.6595    0.0000 </r>
       <r>   -1.6376    0.0000 </r>
       <r>   -1.5806    0.0000 </r>
       <r>   -1.4849    0.0000 </r>
       <r>   -1.3928    0.0000 </r>
       <r>   -1.1831    0.0000 </r>
       <r>   -1.0575    0.0000 </r>
       <r>   -1.0057    0.0000 </r>
       <r>   -0.9706    0.0000 </r>
       <r>   -0.9009    0.0000 </r>
       <r>   -0.8525    0.0000 </r>
       <r>   -0.7461    0.0000 </r>
       <r>   -0.6664    0.0000 </r>
       <r>   -0.6203    0.0000 </r>
       <r>   -0.3420    0.0000 </r>
       <r>   -0.2433    0.0000 </r>
       <r>   -0.2252    0.0000 </r>
       <r>    0.0317    0.0000 </r>
       <r>    0.0462    0.0000 </r>
       <r>    0.3485    0.0000 </r>
       <r>    0.4116    0.0000 </r>
       <r>    0.7394    0.0000 </r>
       <r>    0.8203    0.0000 </r>
       <r>    0.8778    0.0000 </r>
       <r>    0.9768    0.0000 </r>
       <r>    1.1669    0.0000 </r>
       <r>    1.2003    0.0000 </r>
       <r>    2.2007    0.0000 </r>
       <r>    2.2546    0.0000 </r>
       <r>    2.3767    0.0000 </r>
      </set>
     </set>
    </set>
   </array>
  </eigenvalues>
  <separator name="orbital magnetization" >
   <v name="MAGDIPOLOUT">      0.00000000      0.00000000      0.00000000</v>
  </separator>
 </calculation>
 <structure name="finalpos" >
  <crystal>
   <varray name="basis" >
    <v>       8.33181342       4.78597460       0.00000000 </v>
    <v>      -8.33056846       4.78380413       0.00000000 </v>
    <v>       0.00000000       0.00000000      30.00000000 </v>
   </varray>
   <i name="volume">   2391.82957466 </i>
   <varray name="rec_basis" >
    <v>       0.06000182       0.10448782       0.00000000 </v>
    <v>      -0.06002904       0.10450343       0.00000000 </v>
    <v>       0.00000000       0.00000000       0.03333333 </v>
   </varray>
  </crystal>
  <varray name="positions" >
   <v>       0.65037021       0.01605234      -0.00180996 </v>
   <v>       0.01775138      -0.01672162       0.00196819 </v>
   <v>       0.68335524       0.64871935       0.00195036 </v>
   <v>       0.66033710       0.32730059       0.00016682 </v>
   <v>       0.33796381       0.00489160       0.00016721 </v>
   <v>       0.00573892       0.66334006       0.00035444 </v>
   <v>       0.98248573       0.35502109      -0.00242107 </v>
   <v>       0.35313300       0.31319585       0.00211400 </v>
   <v>       0.31178587       0.68406964      -0.00239527 </v>
   <v>       0.11006437       0.22048682       0.95638117 </v>
   <v>       0.22043551       0.10638540       0.05563509 </v>
   <v>       0.10718442       0.55967087       0.94187129 </v>
   <v>       0.22261336       0.44385902       0.04434293 </v>
   <v>       0.10992321       0.89028659       0.94742306 </v>
   <v>       0.22092124       0.78132780       0.05501475 </v>
   <v>       0.44674088       0.21951331       0.94449627 </v>
   <v>       0.55772668       0.10859761       0.05401655 </v>
   <v>       0.44607169       0.55639500       0.95640622 </v>
   <v>       0.56003163       0.44587036       0.05562873 </v>
   <v>       0.44789392       0.89338844       0.94474552 </v>
   <v>       0.55658253       0.77891682       0.04272120 </v>
   <v>       0.77305613       0.21869471       0.94476296 </v>
   <v>       0.88761321       0.11008846       0.04267563 </v>
   <v>       0.77642884       0.55648224       0.94761872 </v>
   <v>       0.88515114       0.44602108       0.05478841 </v>
   <v>       0.77847341       0.88801898       0.95808877 </v>
   <v>       0.88838104       0.77834207       0.05328792 </v>
  </varray>
 </structure>
</modeling>
