unknown system                          
           1
     8.859930    5.102626    0.000000
    -8.859936    5.102637    0.000000
     0.000000    0.000000   30.000000
   V    Mo   W    S 
   3   3   3  18
Direct configuration=     1
   0.66666669  0.00000000  0.00000000
   0.00000000  0.00000000  0.00000000
   0.66666669  0.66666669  0.00000000
   0.66666669  0.33333334  0.00000000
   0.33333334  0.00000000  0.00000000
   0.00000000  0.66666669  0.00000000
   1.00000000  0.33333334  0.00000000
   0.33333334  0.33333334  0.00000000
   0.33333334  0.66666669  0.00000000
   0.11068511  0.22244981  0.95539999
   0.22244981  0.11068511  0.04460000
   0.11068511  0.55578315  0.95539999
   0.22244981  0.44401845  0.04460000
   0.11068511  0.88911647  0.95539999
   0.22244981  0.77735180  0.04460000
   0.44401845  0.22244981  0.95539999
   0.55578315  0.11068511  0.04460000
   0.44401845  0.55578315  0.95539999
   0.55578315  0.44401845  0.04460000
   0.44401845  0.88911647  0.95539999
   0.55578315  0.77735180  0.04460000
   0.77735180  0.22244981  0.95539999
   0.88911647  0.11068511  0.04460000
   0.77735180  0.55578315  0.95539999
   0.88911647  0.44401845  0.04460000
   0.77735180  0.88911647  0.95539999
   0.88911647  0.77735180  0.04460000
unknown system                          
           1
     8.670402    4.996173    0.000000
    -8.670410    4.996187    0.000000
     0.000000    0.000000   30.000000
   V    Mo   W    S 
   3   3   3  18
Direct configuration=     2
   0.66600754  0.00067609 -0.00002187
   0.00020164 -0.00165131 -0.00005907
   0.66833613  0.66648518 -0.00006129
   0.66658300  0.33331422  0.00018498
   0.33331909  0.00004551  0.00019080
  -0.00008651  0.66671886 -0.00018662
   0.99806612  0.33425969 -0.00012754
   0.33495150  0.33168069  0.00020261
   0.33236709  0.66855893 -0.00012470
   0.10923041  0.21851529  0.95198303
   0.21820625  0.10984683  0.04811223
   0.11148503  0.55499916  0.95061490
   0.22220692  0.44428530  0.04920284
   0.10852012  0.89107301  0.95202124
   0.22265571  0.77742029  0.04926582
   0.44394603  0.22255148  0.95073952
   0.55782835  0.10866128  0.04799601
   0.44794894  0.55724610  0.95197762
   0.55662488  0.44825097  0.04811824
   0.44835634  0.88989882  0.95192627
   0.55897336  0.77918090  0.04684737
   0.77657805  0.21810662  0.95193226
   0.88728668  0.10750547  0.04684264
   0.77541858  0.55797049  0.95202173
   0.88907546  0.44383806  0.04926605
   0.77755767  0.88889530  0.95417461
   0.88657008  0.77988122  0.04696021
unknown system                          
           1
     8.486789    4.897845    0.000000
    -8.486417    4.897200    0.000000
     0.000000    0.000000   30.000000
   V    Mo   W    S 
   3   3   3  18
Direct configuration=     3
   0.66579084  0.00089385  0.00003160
   0.00039691 -0.00202071 -0.00011003
   0.66870715  0.66629223 -0.00011171
   0.66645196  0.33329003  0.00020347
   0.33334099  0.00017282  0.00020834
   0.00028078  0.66634817 -0.00021965
   0.99771192  0.33507206 -0.00009197
   0.33558135  0.33105538  0.00016783
   0.33155465  0.66891221 -0.00008992
   0.10928856  0.21869278  0.95213280
   0.21821145  0.10998361  0.04817344
   0.11157123  0.55491341  0.95050379
   0.22222406  0.44426635  0.04905058
   0.10845211  0.89112659  0.95198010
   0.22278377  0.77729818  0.04934342
   0.44382180  0.22267732  0.95068435
   0.55789784  0.10859266  0.04805816
   0.44777027  0.55718593  0.95212879
   0.55648820  0.44824540  0.04817804
   0.44834782  0.88974933  0.95189549
   0.55882375  0.77914601  0.04671138
   0.77672890  0.21811597  0.95190014
   0.88732081  0.10765463  0.04670781
   0.77536641  0.55803963  0.95198062
   0.88919975  0.44371119  0.04934318
   0.77757726  0.88887279  0.95429348
   0.88652392  0.77992662  0.04694638
unknown system                          
           1
     8.296083    4.776780    0.000000
    -8.296198    4.776980    0.000000
     0.000000    0.000000   30.000000
   V    Mo   W    S 
   3   3   3  18
Direct configuration=     4
   0.66485071  0.00187477  0.00023583
   0.00181355 -0.00281261 -0.00026031
   0.66956272  0.66499152 -0.00025989
   0.66570995  0.33312060  0.00019310
   0.33337295  0.00088282  0.00019374
   0.00240508  0.66428297 -0.00026056
   0.99703193  0.33908587  0.00006561
   0.33791468  0.32852789 -0.00003328
   0.32745471  0.66955736  0.00006226
   0.10872992  0.21799110  0.95131199
   0.21693216  0.10916228  0.04992341
   0.11151054  0.55498243  0.94833350
   0.22234906  0.44414766  0.05001575
   0.10786655  0.89167018  0.95042267
   0.22272534  0.77734018  0.05127349
   0.44389657  0.22262292  0.94883665
   0.55853152  0.10797557  0.04972977
   0.44841029  0.55771315  0.95130489
   0.55728529  0.44946681  0.04992889
   0.44945204  0.89045677  0.95030096
   0.55974060  0.77970105  0.04750190
   0.77603833  0.21703010  0.95029771
   0.88680823  0.10671070  0.04748893
   0.77487039  0.55859399  0.95041117
   0.88917076  0.44378020  0.05126641
   0.77766384  0.88890175  0.95353069
   0.88611678  0.78045643  0.04818463
unknown system                          
           1
     8.312562    4.777460    0.000000
    -8.312315    4.777030    0.000000
     0.000000    0.000000   30.000000
   V    Mo   W    S 
   3   3   3  18
Direct configuration=     5
   0.66326881  0.00344843  0.00051438
   0.00437567 -0.00441549 -0.00035931
   0.67114739  0.66241481 -0.00036244
   0.66367924  0.33264293  0.00008748
   0.33377449  0.00287608  0.00007829
   0.00681576  0.65984286 -0.00013526
   0.99560007  0.34746353  0.00017948
   0.34328405  0.32310792 -0.00019584
   0.31903477  0.67094723  0.00016268
   0.10822910  0.21782352  0.95070438
   0.21587380  0.10812456  0.05229035
   0.11124479  0.55525440  0.94502409
   0.22266494  0.44383120  0.05073924
   0.10743506  0.89152505  0.94842895
   0.22219227  0.77828030  0.05394452
   0.44463888  0.22188846  0.94621676
   0.55885522  0.10763054  0.05196641
   0.44862381  0.55822974  0.95073185
   0.55832278  0.45055690  0.05225092
   0.45014241  0.89118049  0.94837765
   0.55999828  0.77995623  0.04824356
   0.77535274  0.21635769  0.94836043
   0.88656518  0.10648341  0.04824866
   0.77503026  0.55907632  0.94844849
   0.88826027  0.44433821  0.05392512
   0.77770765  0.88887729  0.95240181
   0.88609676  0.78047186  0.04972726
unknown system                          
           1
     8.304989    4.769722    0.000000
    -8.305025    4.769786    0.000000
     0.000000    0.000000   30.000000
   V    Mo   W    S 
   3   3   3  18
Direct configuration=     6
   0.66282304  0.00387880  0.00054982
   0.00492531 -0.00568151 -0.00039956
   0.67241678  0.66187959 -0.00040160
   0.66281270  0.33206422  0.00006805
   0.33432719  0.00372584  0.00006791
   0.00722418  0.65945669  0.00005456
   0.99486689  0.34933985  0.00001656
   0.34482042  0.32152112 -0.00004444
   0.31714620  0.67168366  0.00001614
   0.10860979  0.21888300  0.95121858
   0.21631364  0.10810495  0.05248559
   0.11113883  0.55534111  0.94446728
   0.22297266  0.44354093  0.05022175
   0.10748164  0.89077025  0.94839758
   0.22193342  0.77911028  0.05426257
   0.44526242  0.22126205  0.94572126
   0.55860605  0.10788203  0.05211093
   0.44757014  0.55785635  0.95124247
   0.55835923  0.45014095  0.05245521
   0.44963753  0.89102428  0.94832007
   0.55870572  0.77932562  0.04797238
   0.77550986  0.21687038  0.94830785
   0.88720661  0.10779006  0.04797982
   0.77577784  0.55902570  0.94841545
   0.88742401  0.44461345  0.05425270
   0.77777809  0.88880706  0.95245770
   0.88656428  0.77999772  0.04978324
unknown system                          
           1
     8.321716    4.774065    0.000000
    -8.321627    4.773911    0.000000
     0.000000    0.000000   30.000000
   V    Mo   W    S 
   3   3   3  18
Direct configuration=     7
   0.66203039  0.00470647  0.00072802
   0.00593036 -0.00815094 -0.00049997
   0.67489770  0.66098665 -0.00050589
   0.66126015  0.33086421  0.00003471
   0.33542094  0.00527752  0.00002557
   0.00818232  0.65853074  0.00021450
   0.99321754  0.35298487 -0.00005172
   0.34772676  0.31848791 -0.00002459
   0.31349237  0.67328812 -0.00006506
   0.10907617  0.22018496  0.95203527
   0.21665453  0.10775484  0.05297105
   0.11067503  0.55581903  0.94356459
   0.22339093  0.44312640  0.04940289
   0.10756675  0.89007975  0.94821842
   0.22171036  0.78010623  0.05481070
   0.44594116  0.22057976  0.94496972
   0.55840181  0.10809536  0.05247852
   0.44623804  0.55738119  0.95205744
   0.55868652  0.44976587  0.05293764
   0.44921790  0.89106599  0.94801978
   0.55716261  0.77854949  0.04749203
   0.77545956  0.21729676  0.94800289
   0.88801130  0.10932714  0.04749051
   0.77649255  0.55891814  0.94822742
   0.88642838  0.44482636  0.05478740
   0.77793734  0.88872752  0.95258531
   0.88700498  0.77963415  0.05009274
unknown system                          
           1
     8.323353    4.772616    0.000000
    -8.323340    4.772594    0.000000
     0.000000    0.000000   30.000000
   V    Mo   W    S 
   3   3   3  18
Direct configuration=     8
   0.66174891  0.00497786  0.00073849
   0.00617127 -0.00889712 -0.00048177
   0.67564797  0.66071717 -0.00049234
   0.66098676  0.33039998  0.00003360
   0.33592204  0.00554227  0.00002662
   0.00783449  0.65886654  0.00029314
   0.99280327  0.35316159 -0.00018241
   0.34796484  0.31830961  0.00012205
   0.31331331  0.67370728 -0.00018747
   0.10918314  0.22050246  0.95231858
   0.21675550  0.10768620  0.05298261
   0.11050091  0.55598449  0.94351042
   0.22351068  0.44300534  0.04911460
   0.10769840  0.89000328  0.94819245
   0.22159944  0.78037730  0.05486976
   0.44616906  0.22034664  0.94482369
   0.55834963  0.10813308  0.05253096
   0.44594057  0.55727685  0.95234705
   0.55875687  0.44967955  0.05293875
   0.44919528  0.89105697  0.94800428
   0.55681298  0.77833951  0.04728617
   0.77546879  0.21731834  0.94798714
   0.88821640  0.10968853  0.04729013
   0.77654213  0.55879821  0.94821514
   0.88615167  0.44495262  0.05485215
   0.77798315  0.88866237  0.95271003
   0.88698700  0.77961752  0.05015609
unknown system                          
           1
     8.336707    4.776641    0.000000
    -8.336600    4.776454    0.000000
     0.000000    0.000000   30.000000
   V    Mo   W    S 
   3   3   3  18
Direct configuration=     9
   0.66112891  0.00559797  0.00080583
   0.00675397 -0.01054578 -0.00050256
   0.67729470  0.66009601 -0.00051550
   0.66023405  0.32948026  0.00002266
   0.33687664  0.00628683  0.00001492
   0.00769687  0.65898643  0.00039243
   0.99170031  0.35441656 -0.00028222
   0.34919088  0.31713449  0.00020798
   0.31205718  0.67479782 -0.00028630
   0.10938019  0.22115919  0.95290733
   0.21696902  0.10744075  0.05312463
   0.11006238  0.55642835  0.94325128
   0.22370979  0.44279779  0.04851431
   0.10793969  0.88984377  0.94813093
   0.22147001  0.78083550  0.05500022
   0.44646871  0.22004499  0.94457425
   0.55824359  0.10823283  0.05269080
   0.44529656  0.55708821  0.95293943
   0.55900753  0.44948079  0.05307589
   0.44911475  0.89113136  0.94788285
   0.55608120  0.77790793  0.04686700
   0.77538841  0.21739911  0.94786516
   0.88864640  0.11043015  0.04687596
   0.77668393  0.55856464  0.94815960
   0.88568542  0.44508494  0.05498262
   0.77809539  0.88854689  0.95294528
   0.88703797  0.77954667  0.05035510
unknown system                          
           1
     8.334449    4.773603    0.000000
    -8.334303    4.773349    0.000000
     0.000000    0.000000   30.000000
   V    Mo   W    S 
   3   3   3  18
Direct configuration=    10
   0.66046238  0.00625735  0.00082567
   0.00733051 -0.01191362 -0.00048176
   0.67866189  0.65944995 -0.00049376
   0.65970730  0.32863170  0.00002174
   0.33777703  0.00679474  0.00001480
   0.00736097  0.65930550  0.00047492
   0.99075262  0.35519698 -0.00043131
   0.35000231  0.31638801  0.00036588
   0.31127504  0.67574350 -0.00043264
   0.10948389  0.22164674  0.95340911
   0.21714736  0.10719182  0.05325946
   0.10961404  0.55687944  0.94305011
   0.22387918  0.44262016  0.04799897
   0.10824888  0.88974511  0.94802587
   0.22130760  0.78126932  0.05513641
   0.44675875  0.21975014  0.94431821
   0.55816338  0.10830875  0.05288483
   0.44483063  0.55699923  0.95344323
   0.55927245  0.44933051  0.05321471
   0.44915399  0.89125896  0.94773465
   0.55556671  0.77757856  0.04649635
   0.77525759  0.21736046  0.94771736
   0.88896604  0.11095755  0.04651241
   0.77676632  0.55827313  0.94805612
   0.88524776  0.44525279  0.05512127
   0.77818245  0.88843099  0.95317198
   0.88703738  0.77950667  0.05058532
unknown system                          
           1
     8.344421    4.778117    0.000000
    -8.344276    4.777865    0.000000
     0.000000    0.000000   30.000000
   V    Mo   W    S 
   3   3   3  18
Direct configuration=    11
   0.65960168  0.00711713  0.00081960
   0.00812723 -0.01344293 -0.00044188
   0.68017470  0.65856244 -0.00044805
   0.65914498  0.32771952  0.00001965
   0.33873517  0.00733662  0.00001433
   0.00693443  0.65971811  0.00055592
   0.98959828  0.35603021 -0.00057969
   0.35094611  0.31551130  0.00051612
   0.31044729  0.67689197 -0.00058012
   0.10956984  0.22211341  0.95402964
   0.21740119  0.10688436  0.05336871
   0.10902670  0.55747279  0.94290412
   0.22399921  0.44249154  0.04734609
   0.10870168  0.88972920  0.94795357
   0.22114171  0.78165601  0.05517957
   0.44698194  0.21952694  0.94417561
   0.55805008  0.10842740  0.05309190
   0.44439700  0.55693826  0.95406390
   0.55960395  0.44911397  0.05333374
   0.44920185  0.89142541  0.94756895
   0.55506578  0.77720915  0.04601526
   0.77508735  0.21731714  0.94755373
   0.88931580  0.11147361  0.04604011
   0.77677365  0.55783977  0.94797980
   0.88485630  0.44541665  0.05516533
   0.77832093  0.88824295  0.95352381
   0.88700963  0.77949152  0.05083020
unknown system                          
           1
     8.342968    4.776366    0.000000
    -8.342855    4.776171    0.000000
     0.000000    0.000000   30.000000
   V    Mo   W    S 
   3   3   3  18
Direct configuration=    12
   0.65922935  0.00749598  0.00078399
   0.00850675 -0.01384869 -0.00039836
   0.68055903  0.65820618 -0.00040200
   0.65905613  0.32741649  0.00002413
   0.33900477  0.00742346  0.00002026
   0.00671772  0.65995593  0.00057254
   0.98921790  0.35615016 -0.00065972
   0.35110812  0.31531727  0.00059826
   0.31033055  0.67726622 -0.00065905
   0.10955229  0.22219041  0.95420757
   0.21745150  0.10673979  0.05344702
   0.10880119  0.55769564  0.94282873
   0.22403559  0.44245506  0.04715643
   0.10887902  0.88973063  0.94788975
   0.22106189  0.78181606  0.05522911
   0.44707279  0.21943712  0.94409050
   0.55802284  0.10846324  0.05320729
   0.44431364  0.55695458  0.95423687
   0.55974670  0.44905801  0.05341963
   0.44928547  0.89152747  0.94746650
   0.55498196  0.77711849  0.04586852
   0.77498379  0.21724030  0.94745173
   0.88941165  0.11155455  0.04589156
   0.77678923  0.55765061  0.94790710
   0.88469455  0.44549166  0.05521464
   0.77838395  0.88819398  0.95365330
   0.88701608  0.77951386  0.05095361
unknown system                          
           1
     8.349966    4.779696    0.000000
    -8.349863    4.779518    0.000000
     0.000000    0.000000   30.000000
   V    Mo   W    S 
   3   3   3  18
Direct configuration=    13
   0.65850349  0.00823682  0.00072740
   0.00925033 -0.01460214 -0.00032355
   0.68128235  0.65753417 -0.00032841
   0.65884027  0.32681395  0.00003058
   0.33953239  0.00763555  0.00002785
   0.00644066  0.66028164  0.00060212
   0.98844748  0.35649882 -0.00077673
   0.35153393  0.31482547  0.00072046
   0.30998213  0.67801854 -0.00077588
   0.10956600  0.22236621  0.95457885
   0.21762994  0.10652949  0.05354365
   0.10838666  0.55810682  0.94275518
   0.22405772  0.44243156  0.04674735
   0.10921954  0.88974754  0.94782970
   0.22093581  0.78202144  0.05523335
   0.44717983  0.21933069  0.94403725
   0.55795799  0.10854001  0.05336293
   0.44411775  0.55692953  0.95459937
   0.55994214  0.44885533  0.05352418
   0.44937684  0.89167969  0.94732596
   0.55479020  0.77697960  0.04555069
   0.77482666  0.21715970  0.94730997
   0.88956666  0.11173517  0.04556676
   0.77680091  0.55728585  0.94783573
   0.88448584  0.44561118  0.05521584
   0.77851047  0.88811357  0.95393954
   0.88705047  0.77954824  0.05113975
unknown system                          
           1
     8.346314    4.777695    0.000000
    -8.346165    4.777435    0.000000
     0.000000    0.000000   30.000000
   V    Mo   W    S 
   3   3   3  18
Direct configuration=    14
   0.65782265  0.00892564  0.00063916
   0.00994576 -0.01515257 -0.00023081
   0.68183209  0.65685179 -0.00024409
   0.65875379  0.32645462  0.00004012
   0.33987310  0.00771112  0.00003528
   0.00611229  0.66063548  0.00061765
   0.98781322  0.35663216 -0.00089410
   0.35182850  0.31453392  0.00083695
   0.30984342  0.67864282 -0.00089377
   0.10954753  0.22243845  0.95485172
   0.21776458  0.10633066  0.05366955
   0.10805285  0.55844476  0.94266501
   0.22405161  0.44243219  0.04644099
   0.10952250  0.88976760  0.94775244
   0.22083305  0.78220320  0.05526243
   0.44726832  0.21923810  0.94397627
   0.55790280  0.10858967  0.05353323
   0.44403806  0.55693737  0.95486998
   0.56012799  0.44870548  0.05364288
   0.44948837  0.89184181  0.94716177
   0.55472387  0.77689060  0.04529328
   0.77465975  0.21704972  0.94714239
   0.88966525  0.11179711  0.04530508
   0.77677753  0.55698220  0.94776705
   0.88430172  0.44572121  0.05524102
   0.77860825  0.88804238  0.95420621
   0.88705558  0.77956696  0.05131223
unknown system                          
           1
     8.350855    4.780289    0.000000
    -8.350691    4.780002    0.000000
     0.000000    0.000000   30.000000
   V    Mo   W    S 
   3   3   3  18
Direct configuration=    15
   0.65709638  0.00965204  0.00053700
   0.01064617 -0.01559258 -0.00012550
   0.68228342  0.65607891 -0.00014268
   0.65869142  0.32618880  0.00005557
   0.34018455  0.00774996  0.00004896
   0.00584338  0.66090486  0.00062372
   0.98717452  0.35675017 -0.00100395
   0.35215846  0.31427511  0.00094439
   0.30972297  0.67928294 -0.00100154
   0.10956371  0.22248390  0.95511172
   0.21796678  0.10620501  0.05377370
   0.10775196  0.55875346  0.94262308
   0.22399517  0.44247990  0.04613500
   0.10983132  0.88978258  0.94770044
   0.22074579  0.78230516  0.05523563
   0.44731583  0.21918584  0.94397985
   0.55784040  0.10863849  0.05366015
   0.44401138  0.55692697  0.95513348
   0.56026614  0.44852222  0.05374027
   0.44955569  0.89198463  0.94701660
   0.55471220  0.77684858  0.04501492
   0.77451514  0.21697909  0.94699537
   0.88969961  0.11182037  0.04503157
   0.77673981  0.55669624  0.94772908
   0.88419676  0.44582229  0.05521375
   0.77866884  0.88795119  0.95450950
   0.88703665  0.77953835  0.05145982
unknown system                          
           1
     8.348251    4.779704    0.000000
    -8.348074    4.779396    0.000000
     0.000000    0.000000   30.000000
   V    Mo   W    S 
   3   3   3  18
Direct configuration=    16
   0.65657552  0.01017183  0.00044238
   0.01119360 -0.01582084 -0.00004045
   0.68249638  0.65554190 -0.00005352
   0.65872341  0.32604665  0.00006282
   0.34030161  0.00770703  0.00005805
   0.00565556  0.66112511  0.00062056
   0.98677158  0.35673826 -0.00108951
   0.35227706  0.31413567  0.00102100
   0.30974108  0.67968131 -0.00108513
   0.10956396  0.22247171  0.95525758
   0.21808418  0.10611708  0.05387620
   0.10756461  0.55893961  0.94256686
   0.22395011  0.44252262  0.04596045
   0.11001879  0.88980057  0.94765130
   0.22067618  0.78237994  0.05524576
   0.44735390  0.21914812  0.94396086
   0.55780810  0.10867356  0.05377367
   0.44402431  0.55692743  0.95527660
   0.56036167  0.44841345  0.05384812
   0.44961934  0.89210121  0.94688330
   0.55475578  0.77684799  0.04484259
   0.77439706  0.21692159  0.94686257
   0.88970176  0.11177871  0.04485933
   0.77673222  0.55650313  0.94767499
   0.88412052  0.44589247  0.05522296
   0.77870106  0.88791873  0.95471971
   0.88704509  0.77952962  0.05158084
unknown system                          
           1
     8.350807    4.781902    0.000000
    -8.350569    4.781488    0.000000
     0.000000    0.000000   30.000000
   V    Mo   W    S 
   3   3   3  18
Direct configuration=    17
   0.65589459  0.01085301  0.00031353
   0.01192086 -0.01600582  0.00007951
   0.68266813  0.65483136  0.00006649
   0.65876139  0.32587223  0.00007538
   0.34043822  0.00765382  0.00007128
   0.00551990  0.66130728  0.00061132
   0.98626295  0.35676421 -0.00118647
   0.35246391  0.31392738  0.00111210
   0.30971956  0.68018282 -0.00118234
   0.10959588  0.22245295  0.95543048
   0.21828671  0.10606240  0.05398729
   0.10735705  0.55915050  0.94252584
   0.22386972  0.44259919  0.04574333
   0.11025009  0.88980974  0.94760797
   0.22059863  0.78242108  0.05522269
   0.44737325  0.21912608  0.94398282
   0.55775989  0.10872486  0.05387806
   0.44403424  0.55689005  0.95544581
   0.56041356  0.44820571  0.05396240
   0.44965532  0.89222995  0.94673881
   0.55481552  0.77689664  0.04462396
   0.77426427  0.21689137  0.94671750
   0.88965927  0.11171617  0.04463752
   0.77673540  0.55626293  0.94762877
   0.88407881  0.44597239  0.05519578
   0.77872891  0.88790791  0.95499319
   0.88708842  0.77950827  0.05171690
unknown system                          
           1
     8.346308    4.779994    0.000000
    -8.346059    4.779559    0.000000
     0.000000    0.000000   30.000000
   V    Mo   W    S 
   3   3   3  18
Direct configuration=    18
   0.65499555  0.01174332  0.00010349
   0.01287162 -0.01629695  0.00025772
   0.68296620  0.65377846  0.00023950
   0.65893083  0.32592757  0.00009546
   0.34042546  0.00744311  0.00008894
   0.00520582  0.66164204  0.00059636
   0.98561710  0.35662812 -0.00133680
   0.35266087  0.31381524  0.00124736
   0.30986104  0.68083518 -0.00133257
   0.10962551  0.22236092  0.95563640
   0.21853927  0.10599709  0.05418623
   0.10713852  0.55938639  0.94243599
   0.22373892  0.44272197  0.04547955
   0.11051563  0.88983908  0.94753848
   0.22050484  0.78246564  0.05522017
   0.44739933  0.21908945  0.94398509
   0.55769850  0.10877199  0.05405344
   0.44415589  0.55687047  0.95565707
   0.56049072  0.44797434  0.05415376
   0.44968319  0.89239992  0.94649064
   0.55498784  0.77697657  0.04431807
   0.77409325  0.21686068  0.94646750
   0.88956488  0.11156400  0.04433729
   0.77668508  0.55602600  0.94757790
   0.88403409  0.44608592  0.05518887
   0.77872635  0.88785905  0.95541445
   0.88709813  0.77944888  0.05189950
unknown system                          
           1
     8.344995    4.780666    0.000000
    -8.344713    4.780174    0.000000
     0.000000    0.000000   30.000000
   V    Mo   W    S 
   3   3   3  18
Direct configuration=    19
   0.65464326  0.01208769  0.00002437
   0.01323117 -0.01633678  0.00033343
   0.68299135  0.65339259  0.00032312
   0.65896596  0.32589614  0.00010587
   0.34045183  0.00739534  0.00010169
   0.00517209  0.66169938  0.00058528
   0.98535073  0.35657826 -0.00138575
   0.35275595  0.31371890  0.00128220
   0.30992064  0.68110602 -0.00137924
   0.10965359  0.22230177  0.95570359
   0.21865030  0.10601537  0.05424223
   0.10708774  0.55944123  0.94243020
   0.22367244  0.44278872  0.04538918
   0.11057984  0.88984729  0.94752752
   0.22048329  0.78242763  0.05518980
   0.44738200  0.21910600  0.94402865
   0.55767869  0.10879572  0.05406773
   0.44421608  0.55684716  0.95572079
   0.56048441  0.44787371  0.05421766
   0.44964766  0.89245172  0.94641510
   0.55507175  0.77704712  0.04420249
   0.77404191  0.21690026  0.94639483
   0.88949160  0.11148664  0.04422280
   0.77668737  0.55595719  0.94756061
   0.88407063  0.44610960  0.05515887
   0.77871123  0.88786298  0.95557702
   0.88712093  0.77941681  0.05195985
unknown system                          
           1
     8.345170    4.783055    0.000000
    -8.344906    4.782596    0.000000
     0.000000    0.000000   30.000000
   V    Mo   W    S 
   3   3   3  18
Direct configuration=    20
   0.65406940  0.01264605 -0.00014826
   0.01389326 -0.01649077  0.00047516
   0.68312249  0.65264100  0.00046971
   0.65908195  0.32605443  0.00011891
   0.34032549  0.00725411  0.00011498
   0.00496258  0.66192121  0.00056491
   0.98495400  0.35642268 -0.00149046
   0.35286452  0.31366511  0.00137216
   0.31009401  0.68151378 -0.00148508
   0.10967062  0.22216486  0.95579806
   0.21879859  0.10599927  0.05437276
   0.10701658  0.55952926  0.94237197
   0.22357883  0.44288302  0.04526094
   0.11068035  0.88988136  0.94749442
   0.22044685  0.78242260  0.05519161
   0.44739194  0.21909036  0.94403977
   0.55763891  0.10883578  0.05414750
   0.44438208  0.55684589  0.95581727
   0.56052121  0.44775061  0.05435214
   0.44960689  0.89257508  0.94624386
   0.55526096  0.77712682  0.04402412
   0.77391885  0.21694156  0.94622504
   0.88939466  0.11131847  0.04404962
   0.77664810  0.55587187  0.94753267
   0.88407803  0.44615490  0.05515775
   0.77868164  0.88783452  0.95585608
   0.88713166  0.77936061  0.05207230
unknown system                          
           1
     8.340862    4.780920    0.000000
    -8.340607    4.780476    0.000000
     0.000000    0.000000   30.000000
   V    Mo   W    S 
   3   3   3  18
Direct configuration=    21
   0.65304587  0.01364328 -0.00043459
   0.01500660 -0.01653517  0.00072509
   0.68310249  0.65154221  0.00073091
   0.65942130  0.32611783  0.00013869
   0.34016899  0.00688731  0.00014361
   0.00489156  0.66210518  0.00052629
   0.98421536  0.35616676 -0.00163886
   0.35295378  0.31349592  0.00148861
   0.31037663  0.68225846 -0.00162937
   0.10975626  0.22191206  0.95596819
   0.21911752  0.10607180  0.05464151
   0.10689805  0.55966147  0.94229695
   0.22337578  0.44309572  0.04501196
   0.11081165  0.88991362  0.94741536
   0.22038315  0.78229414  0.05514300
   0.44733831  0.21913606  0.94410683
   0.55760475  0.10889262  0.05424597
   0.44462499  0.55676211  0.95597564
   0.56044395  0.44740663  0.05464889
   0.44948329  0.89277843  0.94593315
   0.55557678  0.77741461  0.04368105
   0.77371886  0.21708625  0.94592207
   0.88911373  0.11100409  0.04370102
   0.77666577  0.55570327  0.94743222
   0.88420814  0.44622010  0.05510440
   0.77862274  0.88790425  0.95638334
   0.88728816  0.77927546  0.05233798
unknown system                          
           1
     8.336784    4.780717    0.000000
    -8.336511    4.780240    0.000000
     0.000000    0.000000   30.000000
   V    Mo   W    S 
   3   3   3  18
Direct configuration=    22
   0.65283623  0.01385181 -0.00053064
   0.01527836 -0.01658168  0.00080578
   0.68315993  0.65128231  0.00080010
   0.65946430  0.32621075  0.00014291
   0.34004671  0.00682676  0.00014287
   0.00486705  0.66217100  0.00050525
   0.98409116  0.35607874 -0.00170933
   0.35299681  0.31345156  0.00155511
   0.31046685  0.68238253 -0.00170506
   0.10977512  0.22184200  0.95600091
   0.21922954  0.10612420  0.05467695
   0.10692380  0.55964630  0.94229832
   0.22332161  0.44315087  0.04495978
   0.11079459  0.88992353  0.94743190
   0.22037469  0.78226274  0.05514050
   0.44732442  0.21914280  0.94414323
   0.55759078  0.10890284  0.05424779
   0.44468207  0.55673052  0.95600890
   0.56036770  0.44726118  0.05467394
   0.44938910  0.89279348  0.94587888
   0.55563948  0.77750951  0.04361125
   0.77370060  0.21717696  0.94586410
   0.88902841  0.11093221  0.04362372
   0.77665325  0.55571705  0.94746126
   0.88424087  0.44623595  0.05509289
   0.77861489  0.88794277  0.95651336
   0.88735611  0.77924579  0.05236523
unknown system                          
           1
     8.337976    4.782846    0.000000
    -8.337611    4.782210    0.000000
     0.000000    0.000000   30.000000
   V    Mo   W    S 
   3   3   3  18
Direct configuration=    23
   0.65241461  0.01425949 -0.00068658
   0.01575404 -0.01656070  0.00094998
   0.68314963  0.65079822  0.00093913
   0.65959786  0.32631930  0.00015814
   0.33990524  0.00664622  0.00015780
   0.00485948  0.66226077  0.00049587
   0.98380566  0.35591728 -0.00177554
   0.35303864  0.31341387  0.00160536
   0.31063380  0.68267966 -0.00176569
   0.10981301  0.22169792  0.95604294
   0.21937481  0.10613889  0.05482266
   0.10692166  0.55965767  0.94222180
   0.22323055  0.44324486  0.04487883
   0.11078709  0.88992919  0.94739976
   0.22038110  0.78217598  0.05512631
   0.44728712  0.21917381  0.94416786
   0.55757834  0.10890403  0.05426945
   0.44482754  0.55668478  0.95605197
   0.56034732  0.44710346  0.05481204
   0.44927526  0.89290571  0.94571401
   0.55580892  0.77768571  0.04348275
   0.77359083  0.21729200  0.94570003
   0.88885534  0.11076391  0.04349149
   0.77664272  0.55572400  0.94744217
   0.88432316  0.44624878  0.05507503
   0.77856328  0.88799710  0.95674036
   0.88744744  0.77915256  0.05248198
unknown system                          
           1
     8.335954    4.782991    0.000000
    -8.335479    4.782163    0.000000
     0.000000    0.000000   30.000000
   V    Mo   W    S 
   3   3   3  18
Direct configuration=    24
   0.65213742  0.01451070 -0.00083004
   0.01611327 -0.01658025  0.00106252
   0.68317338  0.65036803  0.00105306
   0.65972158  0.32657077  0.00015871
   0.33967309  0.00647635  0.00015568
   0.00483274  0.66233024  0.00046222
   0.98365013  0.35583673 -0.00186601
   0.35309429  0.31341215  0.00167052
   0.31073621  0.68284201 -0.00185942
   0.10984026  0.22157186  0.95607773
   0.21951764  0.10619788  0.05492517
   0.10694108  0.55966065  0.94219757
   0.22315972  0.44331608  0.04482045
   0.11076656  0.88995575  0.94738885
   0.22039929  0.78211658  0.05512888
   0.44725295  0.21919620  0.94419319
   0.55755341  0.10891617  0.05429717
   0.44497238  0.55666573  0.95609064
   0.56030359  0.44697617  0.05491170
   0.44911877  0.89293815  0.94559118