   27   27  100    1
  0.9710400E+02  0.1002848E-08  0.1002848E-08  0.3000000E-08  0.5000000E-15
  1.000000000000000E-004
  CAR 
 unknown system                          
    159     34    120
 
  0.0000000E+00  0.0000000E+00  0.0000000E+00  0.1562500E-01
    1      -17.779899   1.000000
    2      -16.661339   1.000000
    3      -16.565344   1.000000
    4      -16.564261   1.000000
    5      -16.422263   1.000000
    6      -16.421155   1.000000
    7      -16.420084   1.000000
    8      -16.314435   1.000000
    9      -16.149437   1.000000
   10      -16.148194   1.000000
   11      -16.061414   1.000000
   12      -15.943645   1.000000
   13      -15.941133   1.000000
   14      -15.696725   1.000000
   15      -15.597457   1.000000
   16      -15.515740   1.000000
   17      -15.509946   1.000000
   18      -15.423754   1.000000
   19       -9.149411   1.000000
   20       -8.908128   1.000000
   21       -8.907853   1.000000
   22       -8.858548   1.000000
   23       -8.742230   1.000000
   24       -8.680380   1.000000
   25       -8.680237   1.000000
   26       -8.550350   1.000000
   27       -8.550177   1.000000
   28       -8.386240   1.000000
   29       -8.344326   1.000000
   30       -8.267228   1.000000
   31       -8.266409   1.000000
   32       -8.221513   1.000000
   33       -8.219916   1.000000
   34       -7.921829   1.000000
   35       -7.806846   1.000000
   36       -7.778730   1.000000
   37       -7.777503   1.000000
   38       -7.458477   1.000000
   39       -7.456405   1.000000
   40       -7.336245   1.000000
   41       -7.258745   1.000000
   42       -7.257489   1.000000
   43       -7.220936   1.000000
   44       -6.995451   1.000000
   45       -6.784358   1.000000
   46       -6.783269   1.000000
   47       -6.692044   1.000000
   48       -6.690041   1.000000
   49       -6.488448   1.000000
   50       -6.411148   1.000000
   51       -6.408918   1.000000
   52       -6.384197   1.000000
   53       -6.383609   1.000000
   54       -6.315506   1.000000
   55       -6.273548   1.000000
   56       -6.164669   1.000000
   57       -6.161169   1.000000
   58       -6.090081   1.000000
   59       -5.555016   1.000000
   60       -5.551432   1.000000
   61       -5.443296   1.000000
   62       -5.411697   1.000000
   63       -5.405631   1.000000
   64       -5.194177   1.000000
   65       -5.144021   1.000000
   66       -5.143272   1.000000
   67       -4.894556   1.000000
   68       -4.778404   1.000000
   69       -4.772590   1.000000
   70       -4.705831   1.000000
   71       -4.705352   1.000000
   72       -4.618049   1.000000
   73       -4.571145   1.000000
   74       -4.186824   1.000000
   75       -4.155460   1.000000
   76       -4.153480   1.000000
   77       -3.474071   0.992724
   78       -3.471847   0.992401
   79       -3.468879   0.991950
   80       -3.430278   0.983566
   81       -3.426151   0.982333
   82       -2.828476   0.016932
   83       -2.819451   0.014426
   84       -2.653427   0.000390
   85       -2.609773   0.000122
   86       -2.359798   0.000000
   87       -2.355518   0.000000
   88       -2.269013   0.000000
   89       -2.268503   0.000000
   90       -1.876026   0.000000
   91       -1.759154   0.000000
   92       -1.753770   0.000000
   93       -1.730620   0.000000
   94       -1.514597   0.000000
   95       -1.214387   0.000000
   96       -1.209231   0.000000
   97       -0.813308   0.000000
   98       -0.812210   0.000000
   99       -0.811550   0.000000
  100       -0.509760   0.000000
  101       -0.509145   0.000000
  102       -0.464852   0.000000
  103       -0.429375   0.000000
  104       -0.158844   0.000000
  105       -0.154614   0.000000
  106       -0.082719   0.000000
  107        0.041738   0.000000
  108        0.042146   0.000000
  109        0.067668   0.000000
  110        0.169672   0.000000
  111        0.170738   0.000000
  112        0.313078   0.000000
  113        0.529556   0.000000
  114        0.531372   0.000000
  115        1.180757   0.000000
  116        1.226865   0.000000
  117        1.228042   0.000000
  118        1.637894   0.000000
  119        1.827937   0.000000
  120        2.147345   0.000000
 
  0.1250000E+00  0.2775558E-16  0.0000000E+00  0.3125000E-01
    1      -17.754440   1.000000
    2      -16.727237   1.000000
    3      -16.647153   1.000000
    4      -16.608869   1.000000
    5      -16.487963   1.000000
    6      -16.366408   1.000000
    7      -16.319400   1.000000
    8      -16.250460   1.000000
    9      -16.190066   1.000000
   10      -16.151733   1.000000
   11      -16.005347   1.000000
   12      -15.924429   1.000000
   13      -15.909857   1.000000
   14      -15.714670   1.000000
   15      -15.587425   1.000000
   16      -15.530477   1.000000
   17      -15.517841   1.000000
   18      -15.430930   1.000000
   19       -9.158211   1.000000
   20       -9.109791   1.000000
   21       -8.936200   1.000000
   22       -8.930613   1.000000
   23       -8.786500   1.000000
   24       -8.757633   1.000000
   25       -8.631956   1.000000
   26       -8.628878   1.000000
   27       -8.481156   1.000000
   28       -8.367587   1.000000
   29       -8.361880   1.000000
   30       -8.236971   1.000000
   31       -8.193768   1.000000
   32       -8.077340   1.000000
   33       -8.020335   1.000000
   34       -7.938935   1.000000
   35       -7.765652   1.000000
   36       -7.732297   1.000000
   37       -7.668587   1.000000
   38       -7.513510   1.000000
   39       -7.509846   1.000000
   40       -7.377755   1.000000
   41       -7.241534   1.000000
   42       -7.214531   1.000000
   43       -7.177777   1.000000
   44       -7.033312   1.000000
   45       -6.851988   1.000000
   46       -6.849028   1.000000
   47       -6.664027   1.000000
   48       -6.620849   1.000000
   49       -6.518514   1.000000
   50       -6.435493   1.000000
   51       -6.431591   1.000000
   52       -6.393121   1.000000
   53       -6.358837   1.000000
   54       -6.313933   1.000000
   55       -6.275553   1.000000
   56       -6.194200   1.000000
   57       -6.132706   1.000000
   58       -5.980714   1.000000
   59       -5.597206   1.000000
   60       -5.580524   1.000000
   61       -5.522174   1.000000
   62       -5.418152   1.000000
   63       -5.328182   1.000000
   64       -5.247305   1.000000
   65       -5.153519   1.000000
   66       -5.104817   1.000000
   67       -5.019653   1.000000
   68       -4.929985   1.000000
   69       -4.800546   1.000000
   70       -4.711516   1.000000
   71       -4.636084   1.000000
   72       -4.567652   1.000000
   73       -4.522574   1.000000
   74       -4.183877   1.000000
   75       -4.090447   1.000000
   76       -3.963334   1.000000
   77       -3.789627   0.999999
   78       -3.689114   0.999963
   79       -3.469280   0.992013
   80       -3.234161   0.772452
   81       -3.199873   0.693043
   82       -2.835916   0.019270
   83       -2.829956   0.017377
   84       -2.644015   0.000306
   85       -2.612461   0.000132
   86       -2.385115   0.000000
   87       -2.369512   0.000000
   88       -2.228805   0.000000
   89       -2.220245   0.000000
   90       -1.901287   0.000000
   91       -1.780900   0.000000
   92       -1.762315   0.000000
   93       -1.697824   0.000000
   94       -1.510367   0.000000
   95       -1.207628   0.000000
   96       -1.189274   0.000000
   97       -0.825620   0.000000
   98       -0.804174   0.000000
   99       -0.791731   0.000000
  100       -0.602032   0.000000
  101       -0.576914   0.000000
  102       -0.484735   0.000000
  103       -0.478695   0.000000
  104       -0.293586   0.000000
  105       -0.179331   0.000000
  106       -0.176812   0.000000
  107       -0.105065   0.000000
  108        0.004203   0.000000
  109        0.024849   0.000000
  110        0.209571   0.000000
  111        0.242397   0.000000
  112        0.429799   0.000000
  113        0.630380   0.000000
  114        0.676297   0.000000
  115        1.171943   0.000000
  116        1.176410   0.000000
  117        1.231475   0.000000
  118        1.682494   0.000000
  119        1.866997   0.000000
  120        2.182379   0.000000
 
  0.2500000E+00  0.5551115E-16  0.0000000E+00  0.3125000E-01
    1      -17.679098   1.000000
    2      -16.950739   1.000000
    3      -16.670801   1.000000
    4      -16.664921   1.000000
    5      -16.524332   1.000000
    6      -16.285984   1.000000
    7      -16.285077   1.000000
    8      -16.232318   1.000000
    9      -16.142936   1.000000
   10      -16.126941   1.000000
   11      -15.964311   1.000000
   12      -15.885119   1.000000
   13      -15.802792   1.000000
   14      -15.760273   1.000000
   15      -15.582128   1.000000
   16      -15.547803   1.000000
   17      -15.538591   1.000000
   18      -15.452452   1.000000
   19       -9.460370   1.000000
   20       -9.137784   1.000000
   21       -9.023772   1.000000
   22       -8.988920   1.000000
   23       -8.898497   1.000000
   24       -8.838908   1.000000
   25       -8.655320   1.000000
   26       -8.567467   1.000000
   27       -8.418725   1.000000
   28       -8.339190   1.000000
   29       -8.317135   1.000000
   30       -8.141648   1.000000
   31       -8.139803   1.000000
   32       -8.029590   1.000000
   33       -7.841949   1.000000
   34       -7.820543   1.000000
   35       -7.769896   1.000000
   36       -7.602391   1.000000
   37       -7.585130   1.000000
   38       -7.549468   1.000000
   39       -7.427118   1.000000
   40       -7.414352   1.000000
   41       -7.251916   1.000000
   42       -7.175782   1.000000
   43       -7.072588   1.000000
   44       -6.974666   1.000000
   45       -6.886300   1.000000
   46       -6.815351   1.000000
   47       -6.777401   1.000000
   48       -6.603759   1.000000
   49       -6.594474   1.000000
   50       -6.480549   1.000000
   51       -6.444204   1.000000
   52       -6.410769   1.000000
   53       -6.331191   1.000000
   54       -6.286631   1.000000
   55       -6.193244   1.000000
   56       -6.121683   1.000000
   57       -6.091718   1.000000
   58       -5.884936   1.000000
   59       -5.752194   1.000000
   60       -5.685847   1.000000
   61       -5.576767   1.000000
   62       -5.569672   1.000000
   63       -5.404765   1.000000
   64       -5.322950   1.000000
   65       -5.225322   1.000000
   66       -5.159441   1.000000
   67       -5.026372   1.000000
   68       -4.937944   1.000000
   69       -4.800819   1.000000
   70       -4.726670   1.000000
   71       -4.522760   1.000000
   72       -4.470406   1.000000
   73       -4.430875   1.000000
   74       -4.265448   1.000000
   75       -4.144140   1.000000
   76       -3.969693   1.000000
   77       -3.908046   1.000000
   78       -3.639815   0.999850
   79       -3.467736   0.991770
   80       -3.082013   0.371114
   81       -3.011891   0.204760
   82       -2.849321   0.024175
   83       -2.844876   0.022443
   84       -2.631602   0.000221
   85       -2.625620   0.000188
   86       -2.444457   0.000001
   87       -2.384225   0.000000
   88       -2.149146   0.000000
   89       -2.113416   0.000000
   90       -1.952701   0.000000
   91       -1.802693   0.000000
   92       -1.768756   0.000000
   93       -1.650245   0.000000
   94       -1.501171   0.000000
   95       -1.192328   0.000000
   96       -1.150348   0.000000
   97       -0.876497   0.000000
   98       -0.811050   0.000000
   99       -0.798775   0.000000
  100       -0.775488   0.000000
  101       -0.644920   0.000000
  102       -0.592425   0.000000
  103       -0.567355   0.000000
  104       -0.493433   0.000000
  105       -0.328822   0.000000
  106       -0.327890   0.000000
  107       -0.215354   0.000000
  108       -0.121943   0.000000
  109       -0.021200   0.000000
  110        0.253210   0.000000
  111        0.375208   0.000000
  112        0.559699   0.000000
  113        0.825989   0.000000
  114        0.849482   0.000000
  115        1.087267   0.000000
  116        1.179098   0.000000
  117        1.264885   0.000000
  118        1.806407   0.000000
  119        1.978780   0.000000
  120        2.286367   0.000000
 
  0.3750000E+00  0.0000000E+00  0.0000000E+00  0.3125000E-01
    1      -17.557925   1.000000
    2      -17.175003   1.000000
    3      -16.712884   1.000000
    4      -16.684703   1.000000
    5      -16.526950   1.000000
    6      -16.328486   1.000000
    7      -16.248790   1.000000
    8      -16.204702   1.000000
    9      -16.085718   1.000000
   10      -16.038505   1.000000
   11      -15.932440   1.000000
   12      -15.876529   1.000000
   13      -15.790093   1.000000
   14      -15.728697   1.000000
   15      -15.612755   1.000000
   16      -15.569283   1.000000
   17      -15.511514   1.000000
   18      -15.482849   1.000000
   19       -9.681471   1.000000
   20       -9.244594   1.000000
   21       -9.107236   1.000000
   22       -9.007822   1.000000
   23       -8.887472   1.000000
   24       -8.866380   1.000000
   25       -8.597680   1.000000
   26       -8.487195   1.000000
   27       -8.412789   1.000000
   28       -8.318625   1.000000
   29       -8.310285   1.000000
   30       -8.167142   1.000000
   31       -8.079065   1.000000
   32       -8.043442   1.000000
   33       -7.867152   1.000000
   34       -7.834413   1.000000
   35       -7.720330   1.000000
   36       -7.598220   1.000000
   37       -7.527128   1.000000
   38       -7.482463   1.000000
   39       -7.411588   1.000000
   40       -7.246233   1.000000
   41       -7.176236   1.000000
   42       -7.149962   1.000000
   43       -6.974550   1.000000
   44       -6.971121   1.000000
   45       -6.841536   1.000000
   46       -6.803306   1.000000
   47       -6.642234   1.000000
   48       -6.609556   1.000000
   49       -6.566648   1.000000
   50       -6.525125   1.000000
   51       -6.411847   1.000000
   52       -6.393382   1.000000
   53       -6.305467   1.000000
   54       -6.201256   1.000000
   55       -6.192102   1.000000
   56       -6.045118   1.000000
   57       -6.028007   1.000000
   58       -5.961349   1.000000
   59       -5.920462   1.000000
   60       -5.786833   1.000000
   61       -5.760810   1.000000
   62       -5.729031   1.000000
   63       -5.611218   1.000000
   64       -5.424653   1.000000
   65       -5.209395   1.000000
   66       -5.034859   1.000000
   67       -4.993372   1.000000
   68       -4.928522   1.000000
   69       -4.824367   1.000000
   70       -4.682870   1.000000
   71       -4.677763   1.000000
   72       -4.421286   1.000000
   73       -4.402934   1.000000
   74       -4.316535   1.000000
   75       -4.182171   1.000000
   76       -4.119007   1.000000
   77       -3.760406   0.999996
   78       -3.492521   0.994971
   79       -3.396871   0.971118
   80       -3.048939   0.286795
   81       -2.895657   0.049816
   82       -2.823355   0.015468
   83       -2.814747   0.013252
   84       -2.663532   0.000504
   85       -2.627001   0.000195
   86       -2.511763   0.000006
   87       -2.390196   0.000000
   88       -2.096231   0.000000
   89       -2.005783   0.000000
   90       -1.976602   0.000000
   91       -1.814960   0.000000
   92       -1.756724   0.000000
   93       -1.613799   0.000000
   94       -1.494243   0.000000
   95       -1.186531   0.000000
   96       -1.127013   0.000000
   97       -0.974136   0.000000
   98       -0.923556   0.000000
   99       -0.888842   0.000000
  100       -0.794687   0.000000
  101       -0.704422   0.000000
  102       -0.689590   0.000000
  103       -0.610117   0.000000
  104       -0.600724   0.000000
  105       -0.499539   0.000000
  106       -0.458258   0.000000
  107       -0.247317   0.000000
  108       -0.185431   0.000000
  109       -0.069452   0.000000
  110        0.276470   0.000000
  111        0.417363   0.000000
  112        0.638075   0.000000
  113        0.912539   0.000000
  114        0.960222   0.000000
  115        1.063104   0.000000
  116        1.199478   0.000000
  117        1.349473   0.000000
  118        1.991228   0.000000
  119        2.151116   0.000000
  120        2.456361   0.000000
 
  0.5000000E+00  0.1110223E-15  0.0000000E+00  0.1562500E-01
    1      -17.432593   1.000000
    2      -17.336214   1.000000
    3      -16.727504   1.000000
    4      -16.693782   1.000000
    5      -16.521912   1.000000
    6      -16.348456   1.000000
    7      -16.243812   1.000000
    8      -16.196382   1.000000
    9      -16.032601   1.000000
   10      -16.004833   1.000000
   11      -15.913706   1.000000
   12      -15.905815   1.000000
   13      -15.779104   1.000000
   14      -15.735746   1.000000
   15      -15.601518   1.000000
   16      -15.586230   1.000000
   17      -15.510644   1.000000
   18      -15.484872   1.000000
   19       -9.760392   1.000000
   20       -9.286165   1.000000
   21       -9.139141   1.000000
   22       -9.045590   1.000000
   23       -8.898006   1.000000
   24       -8.775692   1.000000
   25       -8.559389   1.000000
   26       -8.531045   1.000000
   27       -8.401366   1.000000
   28       -8.316069   1.000000
   29       -8.281914   1.000000
   30       -8.181977   1.000000
   31       -8.092148   1.000000
   32       -8.015199   1.000000
   33       -7.887386   1.000000
   34       -7.865491   1.000000
   35       -7.751603   1.000000
   36       -7.620590   1.000000
   37       -7.483556   1.000000
   38       -7.432000   1.000000
   39       -7.428800   1.000000
   40       -7.197931   1.000000
   41       -7.134797   1.000000
   42       -7.083051   1.000000
   43       -6.988590   1.000000
   44       -6.933124   1.000000
   45       -6.765249   1.000000
   46       -6.719770   1.000000
   47       -6.699538   1.000000
   48       -6.622445   1.000000
   49       -6.522348   1.000000
   50       -6.425432   1.000000
   51       -6.382169   1.000000
   52       -6.366736   1.000000
   53       -6.334376   1.000000
   54       -6.269950   1.000000
   55       -6.180891   1.000000
   56       -6.036359   1.000000
   57       -6.035328   1.000000
   58       -6.014615   1.000000
   59       -5.943816   1.000000
   60       -5.875730   1.000000
   61       -5.771837   1.000000
   62       -5.686401   1.000000
   63       -5.637436   1.000000
   64       -5.491440   1.000000
   65       -5.328688   1.000000
   66       -5.081223   1.000000
   67       -4.989438   1.000000
   68       -4.968002   1.000000
   69       -4.819628   1.000000
   70       -4.683664   1.000000
   71       -4.642458   1.000000
   72       -4.407856   1.000000
   73       -4.381945   1.000000
   74       -4.287497   1.000000
   75       -4.283152   1.000000
   76       -4.103418   1.000000
   77       -3.668396   0.999933
   78       -3.532337   0.997851
   79       -3.269520   0.840611
   80       -3.093355   0.401796
   81       -2.876657   0.037457
   82       -2.782101   0.007151
   83       -2.757138   0.004318
   84       -2.695501   0.001099
   85       -2.636866   0.000254
   86       -2.546672   0.000019
   87       -2.390753   0.000000
   88       -2.089581   0.000000
   89       -1.972304   0.000000
   90       -1.958339   0.000000
   91       -1.819355   0.000000
   92       -1.745685   0.000000
   93       -1.600778   0.000000
   94       -1.491564   0.000000
   95       -1.193503   0.000000
   96       -1.123180   0.000000
   97       -1.038155   0.000000
   98       -0.937308   0.000000
   99       -0.932755   0.000000
  100       -0.779354   0.000000
  101       -0.761909   0.000000
  102       -0.750415   0.000000
  103       -0.651895   0.000000
  104       -0.577556   0.000000
  105       -0.564826   0.000000
  106       -0.510910   0.000000
  107       -0.256132   0.000000
  108       -0.201663   0.000000
  109       -0.090034   0.000000
  110        0.282788   0.000000
  111        0.417254   0.000000
  112        0.659775   0.000000
  113        0.923049   0.000000
  114        0.995415   0.000000
  115        1.078813   0.000000
  116        1.207692   0.000000
  117        1.395245   0.000000
  118        2.210381   0.000000
  119        2.240461   0.000000
  120        2.358011   0.000000
 
  0.0000000E+00  0.1250000E+00  0.0000000E+00  0.3125000E-01
    1      -17.754443   1.000000
    2      -16.727322   1.000000
    3      -16.647159   1.000000
    4      -16.608711   1.000000
    5      -16.488021   1.000000
    6      -16.366365   1.000000
    7      -16.319446   1.000000
    8      -16.250332   1.000000
    9      -16.190224   1.000000
   10      -16.151644   1.000000
   11      -16.005546   1.000000
   12      -15.923983   1.000000
   13      -15.910143   1.000000
   14      -15.714659   1.000000
   15      -15.587447   1.000000
   16      -15.530796   1.000000
   17      -15.517543   1.000000
   18      -15.430920   1.000000
   19       -9.158391   1.000000
   20       -9.109594   1.000000
   21       -8.936060   1.000000
   22       -8.930667   1.000000
   23       -8.786483   1.000000
   24       -8.757692   1.000000
   25       -8.631942   1.000000
   26       -8.628939   1.000000
   27       -8.481196   1.000000
   28       -8.367449   1.000000
   29       -8.362013   1.000000
   30       -8.236765   1.000000
   31       -8.193831   1.000000
   32       -8.077405   1.000000
   33       -8.020292   1.000000
   34       -7.938931   1.000000
   35       -7.765703   1.000000
   36       -7.732274   1.000000
   37       -7.668673   1.000000
   38       -7.513361   1.000000
   39       -7.510035   1.000000
   40       -7.377916   1.000000
   41       -7.241581   1.000000
   42       -7.214273   1.000000
   43       -7.177848   1.000000
   44       -7.033216   1.000000
   45       -6.852043   1.000000
   46       -6.848879   1.000000
   47       -6.664212   1.000000
   48       -6.620706   1.000000
   49       -6.518824   1.000000
   50       -6.435409   1.000000
   51       -6.431530   1.000000
   52       -6.392710   1.000000
   53       -6.359008   1.000000
   54       -6.313723   1.000000
   55       -6.275651   1.000000
   56       -6.195019   1.000000
   57       -6.132044   1.000000
   58       -5.980769   1.000000
   59       -5.597376   1.000000
   60       -5.580346   1.000000
   61       -5.522164   1.000000
   62       -5.418730   1.000000
   63       -5.327594   1.000000
   64       -5.247357   1.000000
   65       -5.153303   1.000000
   66       -5.104995   1.000000
   67       -5.020158   1.000000
   68       -4.929763   1.000000
   69       -4.800770   1.000000
   70       -4.710990   1.000000
   71       -4.635921   1.000000
   72       -4.567493   1.000000
   73       -4.522904   1.000000
   74       -4.183896   1.000000
   75       -4.090626   1.000000
   76       -3.963168   1.000000
   77       -3.789928   0.999999
   78       -3.688943   0.999963
   79       -3.469044   0.991976
   80       -3.233748   0.771571
   81       -3.200414   0.694385
   82       -2.836273   0.019388
   83       -2.829621   0.017275
   84       -2.644206   0.000308
   85       -2.612478   0.000132
   86       -2.386337   0.000000
   87       -2.368113   0.000000
   88       -2.228488   0.000000
   89       -2.220451   0.000000
   90       -1.901295   0.000000
   91       -1.781074   0.000000
   92       -1.762159   0.000000
   93       -1.697894   0.000000
   94       -1.510330   0.000000
   95       -1.207995   0.000000
   96       -1.188931   0.000000
   97       -0.825279   0.000000
   98       -0.804439   0.000000
   99       -0.791757   0.000000
  100       -0.601991   0.000000
  101       -0.576894   0.000000
  102       -0.484473   0.000000
  103       -0.479100   0.000000
  104       -0.293774   0.000000
  105       -0.179378   0.000000
  106       -0.176595   0.000000
  107       -0.104984   0.000000
  108        0.004054   0.000000
  109        0.024914   0.000000
  110        0.209718   0.000000
  111        0.242475   0.000000
  112        0.429790   0.000000
  113        0.630191   0.000000
  114        0.676366   0.000000
  115        1.172008   0.000000
  116        1.176420   0.000000
  117        1.231380   0.000000
  118        1.682488   0.000000
  119        1.866994   0.000000
  120        2.182376   0.000000
 
  0.1250000E+00  0.1250000E+00  0.0000000E+00  0.3125000E-01
    1      -17.704033   1.000000
    2      -16.844269   1.000000
    3      -16.787669   1.000000
    4      -16.601682   1.000000
    5      -16.441295   1.000000
    6      -16.356549   1.000000
    7      -16.270776   1.000000
    8      -16.230264   1.000000
    9      -16.199411   1.000000
   10      -16.116554   1.000000
   11      -15.975656   1.000000
   12      -15.894385   1.000000
   13      -15.832270   1.000000
   14      -15.745875   1.000000
   15      -15.573870   1.000000
   16      -15.552481   1.000000
   17      -15.535608   1.000000
   18      -15.442261   1.000000
   19       -9.343948   1.000000
   20       -9.214900   1.000000
   21       -9.029644   1.000000
   22       -8.970356   1.000000
   23       -8.819299   1.000000
   24       -8.754819   1.000000
   25       -8.659572   1.000000
   26       -8.594750   1.000000
   27       -8.436758   1.000000
   28       -8.360912   1.000000
   29       -8.315936   1.000000
   30       -8.201152   1.000000
   31       -8.133037   1.000000
   32       -8.029947   1.000000
   33       -7.934914   1.000000
   34       -7.804136   1.000000
   35       -7.767237   1.000000
   36       -7.706423   1.000000
   37       -7.612343   1.000000
   38       -7.464855   1.000000
   39       -7.439436   1.000000
   40       -7.335310   1.000000
   41       -7.324186   1.000000
   42       -7.175770   1.000000
   43       -7.083268   1.000000
   44       -7.045501   1.000000
   45       -6.925275   1.000000
   46       -6.806600   1.000000
   47       -6.747184   1.000000
   48       -6.637471   1.000000
   49       -6.535894   1.000000
   50       -6.458254   1.000000
   51       -6.444710   1.000000
   52       -6.409566   1.000000
   53       -6.368403   1.000000
   54       -6.264306   1.000000
   55       -6.225892   1.000000
   56       -6.155626   1.000000
   57       -6.103085   1.000000
   58       -5.899305   1.000000
   59       -5.708681   1.000000
   60       -5.650544   1.000000
   61       -5.593366   1.000000
   62       -5.426028   1.000000
   63       -5.359843   1.000000
   64       -5.274922   1.000000
   65       -5.209176   1.000000
   66       -5.181080   1.000000
   67       -5.066837   1.000000
   68       -4.948647   1.000000
   69       -4.880311   1.000000
   70       -4.675425   1.000000
   71       -4.552556   1.000000
   72       -4.500583   1.000000
   73       -4.441630   1.000000
   74       -4.163468   1.000000
   75       -4.120115   1.000000
   76       -3.994850   1.000000
   77       -3.896474   1.000000
   78       -3.712958   0.999982
   79       -3.437689   0.985596
   80       -3.137219   0.524505
   81       -3.044581   0.276396
   82       -2.851999   0.025271
   83       -2.839930   0.020641
   84       -2.633666   0.000233
   85       -2.620611   0.000164
   86       -2.424033   0.000000
   87       -2.381148   0.000000
   88       -2.173267   0.000000
   89       -2.143487   0.000000
   90       -1.938473   0.000000
   91       -1.797832   0.000000
   92       -1.771055   0.000000
   93       -1.661772   0.000000
   94       -1.504249   0.000000
   95       -1.197483   0.000000
   96       -1.161549   0.000000
   97       -0.864792   0.000000
   98       -0.811628   0.000000
   99       -0.757334   0.000000
  100       -0.717792   0.000000
  101       -0.658637   0.000000
  102       -0.558364   0.000000
  103       -0.554184   0.000000
  104       -0.440338   0.000000
  105       -0.315034   0.000000
  106       -0.247903   0.000000
  107       -0.193730   0.000000
  108       -0.094520   0.000000
  109        0.028624   0.000000
  110        0.146506   0.000000
  111        0.406365   0.000000
  112        0.547930   0.000000
  113        0.742542   0.000000
  114        0.824050   0.000000
  115        1.106294   0.000000
  116        1.183029   0.000000
  117        1.239671   0.000000
  118        1.766778   0.000000
  119        1.942393   0.000000
  120        2.251887   0.000000
 
  0.2500000E+00  0.1250000E+00  0.0000000E+00  0.3125000E-01
    1      -17.605449   1.000000
    2      -17.053044   1.000000
    3      -16.875650   1.000000
    4      -16.582320   1.000000
    5      -16.444236   1.000000
    6      -16.306251   1.000000
    7      -16.275522   1.000000
    8      -16.221729   1.000000
    9      -16.155736   1.000000
   10      -16.049381   1.000000
   11      -15.955281   1.000000
   12      -15.861389   1.000000
   13      -15.803384   1.000000
   14      -15.730301   1.000000
   15      -15.601970   1.000000
   16      -15.569753   1.000000
   17      -15.524845   1.000000
   18      -15.459915   1.000000
   19       -9.581288   1.000000
   20       -9.349755   1.000000
   21       -9.141379   1.000000
   22       -8.937415   1.000000
   23       -8.849935   1.000000
   24       -8.739025   1.000000
   25       -8.604585   1.000000
   26       -8.505783   1.000000
   27       -8.397883   1.000000
   28       -8.358663   1.000000
   29       -8.289357   1.000000
   30       -8.170369   1.000000
   31       -8.114868   1.000000
   32       -8.069257   1.000000
   33       -7.910582   1.000000
   34       -7.866536   1.000000
   35       -7.786320   1.000000
   36       -7.571380   1.000000
   37       -7.539135   1.000000
   38       -7.440049   1.000000
   39       -7.395390   1.000000
   40       -7.292226   1.000000
   41       -7.205769   1.000000
   42       -7.132526   1.000000
   43       -6.990725   1.000000
   44       -6.935759   1.000000
   45       -6.885461   1.000000
   46       -6.796282   1.000000
   47       -6.723219   1.000000