       N       E                     dE             d eps       ncg     rms          rms(c)
DAV:   1     0.112381016937E+04    0.11238E+04   -0.35870E+04  8160   0.577E+02
DAV:   2    -0.383074321173E+01   -0.11276E+04   -0.10860E+04 11360   0.173E+02
DAV:   3    -0.199736782194E+03   -0.19591E+03   -0.18852E+03 10880   0.820E+01
DAV:   4    -0.208889481637E+03   -0.91527E+01   -0.88558E+01 12000   0.261E+01
DAV:   5    -0.209225190020E+03   -0.33571E+00   -0.33472E+00 11440   0.373E+00    0.274E+01
DAV:   6    -0.236719979061E+03   -0.27495E+02   -0.11238E+02 12400   0.596E+01    0.592E+01
DAV:   7    -0.196847396890E+03    0.39873E+02   -0.17693E+02 13560   0.151E+02    0.204E+01
DAV:   8    -0.189973326868E+03    0.68741E+01   -0.17857E+01 12040   0.131E+01    0.134E+01
DAV:   9    -0.188243732039E+03    0.17296E+01   -0.33795E+00 12520   0.637E+00    0.950E+00
DAV:  10    -0.186913243065E+03    0.13305E+01   -0.17158E+00 13480   0.823E+00    0.199E+00
DAV:  11    -0.186923207382E+03   -0.99643E-02   -0.40574E-01 13520   0.221E+00    0.302E+00
DAV:  12    -0.186927915249E+03   -0.47079E-02   -0.37282E-01 12040   0.349E+00    0.380E+00
DAV:  13    -0.186823578755E+03    0.10434E+00   -0.25384E-01 12600   0.281E+00    0.883E-01
DAV:  14    -0.186816496770E+03    0.70820E-02   -0.15873E-02 12680   0.482E-01    0.493E-01
DAV:  15    -0.186815752038E+03    0.74473E-03   -0.12507E-02 12960   0.596E-01    0.578E-01
DAV:  16    -0.186813639289E+03    0.21127E-02   -0.96570E-03 13040   0.528E-01    0.301E-01
DAV:  17    -0.186812451659E+03    0.11876E-02   -0.24677E-03 12480   0.229E-01    0.873E-02
DAV:  18    -0.186812424000E+03    0.27659E-04   -0.64535E-04 10880   0.805E-02
   1 F= -.18681242E+03 E0= -.18664019E+03  d E =-.186812E+03
       N       E                     dE             d eps       ncg     rms          rms(c)
DAV:   1    -0.187494378912E+03   -0.68193E+00   -0.27894E+02  8160   0.355E+01    0.472E+00
DAV:   2    -0.189502257248E+03   -0.20079E+01   -0.20519E+01 11960   0.156E+01    0.941E+00
DAV:   3    -0.189321291407E+03    0.18097E+00   -0.41113E+00 12280   0.124E+01    0.635E+00
DAV:   4    -0.188751202218E+03    0.57009E+00   -0.66183E-01 12600   0.461E+00    0.180E+00
DAV:   5    -0.188763948816E+03   -0.12747E-01   -0.31638E-01 12960   0.222E+00    0.289E+00
DAV:   6    -0.188777892347E+03   -0.13944E-01   -0.52864E-01 12680   0.401E+00    0.346E+00
DAV:   7    -0.188679835399E+03    0.98057E-01   -0.21374E-01 12720   0.257E+00    0.997E-01
DAV:   8    -0.188661963103E+03    0.17872E-01   -0.42463E-02 10680   0.775E-01    0.389E-01
DAV:   9    -0.188661089072E+03    0.87403E-03   -0.59245E-03 12280   0.235E-01    0.253E-01
DAV:  10    -0.188661793867E+03   -0.70480E-03   -0.46644E-03 12080   0.362E-01    0.418E-01
DAV:  11    -0.188660676102E+03    0.11178E-02   -0.31971E-03 13000   0.318E-01    0.134E-01
DAV:  12    -0.188660882633E+03   -0.20653E-03   -0.68307E-04 10680   0.972E-02    0.747E-02
DAV:  13    -0.188660945775E+03   -0.63142E-04   -0.20661E-04  8000   0.538E-02
   2 F= -.18866095E+03 E0= -.18852019E+03  d E =-.184852E+01
       N       E                     dE             d eps       ncg     rms          rms(c)
DAV:   1    -0.190622412078E+03   -0.19615E+01   -0.32428E+01  9240   0.144E+01    0.446E+00
DAV:   2    -0.190527956124E+03    0.94456E-01   -0.27666E+00 12480   0.928E+00    0.697E+00
DAV:   3    -0.190104994351E+03    0.42296E+00   -0.13494E+00 12400   0.857E+00    0.425E+00
DAV:   4    -0.189886386456E+03    0.21861E+00   -0.73348E-01 13160   0.446E+00    0.244E+00
DAV:   5    -0.189795118724E+03    0.91268E-01   -0.29998E-01 11680   0.199E+00    0.758E-01
DAV:   6    -0.189781958595E+03    0.13160E-01   -0.36983E-02 10880   0.643E-01    0.226E-01
DAV:   7    -0.189783233000E+03   -0.12744E-02   -0.71956E-03 11360   0.402E-01    0.407E-01
DAV:   8    -0.189782041930E+03    0.11911E-02   -0.27055E-03 11080   0.337E-01    0.143E-01
DAV:   9    -0.189782180933E+03   -0.13900E-03   -0.64468E-04 10120   0.108E-01    0.676E-02
DAV:  10    -0.189782321133E+03   -0.14020E-03   -0.42551E-04  9960   0.131E-01    0.131E-01
DAV:  11    -0.189782244698E+03    0.76435E-04   -0.34017E-04  7560   0.121E-01
   3 F= -.18978224E+03 E0= -.18966204E+03  d E =-.112130E+01
       N       E                     dE             d eps       ncg     rms          rms(c)
DAV:   1    -0.191413147795E+03   -0.16308E+01   -0.86321E+01  8160   0.211E+01    0.462E+00
DAV:   2    -0.191231325566E+03    0.18182E+00   -0.55502E+00 12960   0.759E+00    0.442E+00
DAV:   3    -0.191356773919E+03   -0.12545E+00   -0.14930E+00 12240   0.893E+00    0.630E+00
DAV:   4    -0.190991827414E+03    0.36495E+00   -0.12750E+00 12960   0.775E+00    0.288E+00
DAV:   5    -0.190859964188E+03    0.13186E+00   -0.32594E-01 11840   0.244E+00    0.941E-01
DAV:   6    -0.190841609249E+03    0.18355E-01   -0.79960E-02 11160   0.104E+00    0.545E-01
DAV:   7    -0.190849524554E+03   -0.79153E-02   -0.36397E-02 11840   0.118E+00    0.111E+00
DAV:   8    -0.190838402255E+03    0.11122E-01   -0.16465E-02 11960   0.860E-01    0.143E-01
DAV:   9    -0.190838611044E+03   -0.20879E-03   -0.22130E-03 11320   0.145E-01    0.954E-02
DAV:  10    -0.190838875615E+03   -0.26457E-03   -0.91914E-04 11400   0.201E-01    0.184E-01
DAV:  11    -0.190838593697E+03    0.28192E-03   -0.49155E-04  8760   0.148E-01    0.359E-02
DAV:  12    -0.190838595865E+03   -0.21683E-05   -0.55588E-05  6320   0.296E-02
   4 F= -.19083860E+03 E0= -.19072958E+03  d E =-.105635E+01
       N       E                     dE             d eps       ncg     rms          rms(c)
DAV:   1    -0.192135672096E+03   -0.12971E+01   -0.18199E+02  8160   0.297E+01    0.537E+00
DAV:   2    -0.191977678962E+03    0.15799E+00   -0.91600E+00 11240   0.791E+00    0.350E+00
DAV:   3    -0.191885175963E+03    0.92503E-01   -0.15674E+00 12480   0.648E+00    0.405E+00
DAV:   4    -0.191857669123E+03    0.27507E-01   -0.11854E+00 12960   0.779E+00    0.414E+00
DAV:   5    -0.191602120005E+03    0.25555E+00   -0.46679E-01 12600   0.439E+00    0.767E-01
DAV:   6    -0.191593589463E+03    0.85305E-02   -0.81014E-02 11520   0.108E+00    0.498E-01
DAV:   7    -0.191595660130E+03   -0.20707E-02   -0.29857E-02 12080   0.953E-01    0.867E-01
DAV:   8    -0.191589133421E+03    0.65267E-02   -0.14129E-02 11840   0.724E-01    0.171E-01
DAV:   9    -0.191589542044E+03   -0.40862E-03   -0.28592E-03 11480   0.229E-01    0.228E-01
DAV:  10    -0.191589307470E+03    0.23457E-03   -0.21347E-03 10560   0.282E-01    0.148E-01
DAV:  11    -0.191589148799E+03    0.15867E-03   -0.40389E-04  8040   0.114E-01    0.223E-02
DAV:  12    -0.191589172359E+03   -0.23560E-04   -0.59696E-05  6600   0.256E-02
   5 F= -.19158917E+03 E0= -.19147513E+03  d E =-.750576E+00
       N       E                     dE             d eps       ncg     rms          rms(c)
DAV:   1    -0.191709184100E+03   -0.12004E+00   -0.92382E+00  8160   0.635E+00    0.743E-01
DAV:   2    -0.191765779263E+03   -0.56595E-01   -0.35704E-01 13600   0.300E+00    0.205E+00
DAV:   3    -0.191720616595E+03    0.45163E-01   -0.99848E-02 12480   0.218E+00    0.362E-01
DAV:   4    -0.191717572104E+03    0.30445E-02   -0.72275E-03 12080   0.337E-01    0.239E-01
DAV:   5    -0.191718663096E+03   -0.10910E-02   -0.85441E-03 12120   0.443E-01    0.465E-01
DAV:   6    -0.191717130690E+03    0.15324E-02   -0.67989E-03 11000   0.497E-01    0.212E-01
DAV:   7    -0.191716676005E+03    0.45468E-03   -0.99272E-04  8760   0.165E-01    0.378E-02
DAV:   8    -0.191716705847E+03   -0.29842E-04   -0.17327E-04  6880   0.651E-02
   6 F= -.19171671E+03 E0= -.19160282E+03  d E =-.127533E+00
       N       E                     dE             d eps       ncg     rms          rms(c)
DAV:   1    -0.191796532546E+03   -0.79857E-01   -0.40897E+00  8160   0.421E+00    0.430E-01
DAV:   2    -0.191816472974E+03   -0.19940E-01   -0.11676E-01 12880   0.157E+00    0.118E+00
DAV:   3    -0.191800732380E+03    0.15741E-01   -0.37867E-02 12720   0.133E+00    0.296E-01
DAV:   4    -0.191801969750E+03   -0.12374E-02   -0.78173E-03 11560   0.497E-01    0.517E-01
DAV:   5    -0.191799775789E+03    0.21940E-02   -0.63832E-03 10960   0.485E-01    0.177E-01
DAV:   6    -0.191799625520E+03    0.15027E-03   -0.13384E-03 10280   0.155E-01    0.773E-02
DAV:   7    -0.191799499990E+03    0.12553E-03   -0.45622E-04 10560   0.765E-02    0.289E-02
DAV:   8    -0.191799495062E+03    0.49275E-05   -0.70007E-05  6680   0.357E-02
   7 F= -.19179950E+03 E0= -.19168631E+03  d E =-.827892E-01
       N       E                     dE             d eps       ncg     rms          rms(c)
DAV:   1    -0.191965480298E+03   -0.16598E+00   -0.21171E+01  8160   0.956E+00    0.982E-01
DAV:   2    -0.192081714596E+03   -0.11623E+00   -0.63767E-01 12320   0.415E+00    0.294E+00
DAV:   3    -0.191986691597E+03    0.95023E-01   -0.21200E-01 12360   0.319E+00    0.504E-01
DAV:   4    -0.191986641091E+03    0.50506E-04   -0.20880E-02 12360   0.750E-01    0.784E-01
DAV:   5    -0.191983294548E+03    0.33465E-02   -0.22379E-02 11120   0.905E-01    0.533E-01
DAV:   6    -0.191980935771E+03    0.23588E-02   -0.79998E-03 12240   0.429E-01    0.136E-01
DAV:   7    -0.191980893267E+03    0.42503E-04   -0.19138E-03 11760   0.218E-01    0.193E-01
DAV:   8    -0.191980616874E+03    0.27639E-03   -0.97140E-04  9200   0.187E-01    0.779E-02
DAV:   9    -0.191980575346E+03    0.41528E-04   -0.19346E-04  6200   0.686E-02
   8 F= -.19198058E+03 E0= -.19187130E+03  d E =-.181080E+00
       N       E                     dE             d eps       ncg     rms          rms(c)
DAV:   1    -0.192101937728E+03   -0.12132E+00   -0.70006E+01  8160   0.175E+01    0.187E+00
DAV:   2    -0.192459331055E+03   -0.35739E+00   -0.24344E+00 10880   0.723E+00    0.495E+00
DAV:   3    -0.192211799985E+03    0.24753E+00   -0.71929E-01 12240   0.568E+00    0.105E+00
DAV:   4    -0.192186706339E+03    0.25094E-01   -0.47275E-02 11320   0.937E-01    0.576E-01
DAV:   5    -0.192221670596E+03   -0.34964E-01   -0.84887E-02 12280   0.182E+00    0.226E+00
DAV:   6    -0.192184264810E+03    0.37406E-01   -0.77503E-02 11880   0.174E+00    0.465E-01
DAV:   7    -0.192182548999E+03    0.17158E-02   -0.10837E-02 11520   0.580E-01    0.465E-01
DAV:   8    -0.192180869612E+03    0.16794E-02   -0.46389E-03 12000   0.407E-01    0.129E-01
DAV:   9    -0.192180669444E+03    0.20017E-03   -0.72315E-04  9760   0.101E-01    0.394E-02
DAV:  10    -0.192180686519E+03   -0.17075E-04   -0.23329E-04  9760   0.428E-02
   9 F= -.19218069E+03 E0= -.19207621E+03  d E =-.200111E+00
       N       E                     dE             d eps       ncg     rms          rms(c)
DAV:   1    -0.192191224625E+03   -0.10555E-01   -0.17549E+00  8160   0.270E+00    0.236E-01
DAV:   2    -0.192195980288E+03   -0.47557E-02   -0.59115E-02 11520   0.663E-01    0.179E-01
DAV:   3    -0.192196063387E+03   -0.83098E-04   -0.39110E-03 12760   0.353E-01    0.243E-01
DAV:   4    -0.192195480109E+03    0.58328E-03   -0.19152E-03 10640   0.305E-01    0.143E-01
DAV:   5    -0.192195672692E+03   -0.19258E-03   -0.14156E-03 10560   0.228E-01    0.220E-01
DAV:   6    -0.192195433611E+03    0.23908E-03   -0.14006E-03  9760   0.244E-01    0.128E-01
DAV:   7    -0.192195250622E+03    0.18299E-03   -0.37111E-04  8200   0.106E-01    0.170E-02
DAV:   8    -0.192195258664E+03   -0.80421E-05   -0.59890E-05  7040   0.266E-02
  10 F= -.19219526E+03 E0= -.19209042E+03  d E =-.145721E-01
       N       E                     dE             d eps       ncg     rms          rms(c)
DAV:   1    -0.192201713197E+03   -0.64626E-02   -0.71609E+00  8160   0.553E+00    0.698E-01
DAV:   2    -0.192246545496E+03   -0.44832E-01   -0.31025E-01 11400   0.263E+00    0.177E+00
DAV:   3    -0.192212898395E+03    0.33647E-01   -0.88713E-02 12480   0.203E+00    0.380E-01
DAV:   4    -0.192211918790E+03    0.97960E-03   -0.97376E-03 11560   0.517E-01    0.526E-01
DAV:   5    -0.192210824408E+03    0.10944E-02   -0.98176E-03 11520   0.628E-01    0.408E-01
DAV:   6    -0.192209731046E+03    0.10934E-02   -0.44897E-03 11560   0.343E-01    0.131E-01
DAV:   7    -0.192209289850E+03    0.44120E-03   -0.11015E-03 10640   0.121E-01    0.356E-02
DAV:   8    -0.192209366464E+03   -0.76614E-04   -0.24726E-04  8680   0.935E-02
  11 F= -.19220937E+03 E0= -.19210377E+03  d E =-.141078E-01
       N       E                     dE             d eps       ncg     rms          rms(c)
DAV:   1    -0.192210202305E+03   -0.91246E-03   -0.43897E-01  8160   0.138E+00    0.127E-01
DAV:   2    -0.192211735867E+03   -0.15336E-02   -0.10276E-02 11440   0.461E-01    0.318E-01
DAV:   3    -0.192210544230E+03    0.11916E-02   -0.28423E-03 11800   0.372E-01    0.976E-02
DAV:   4    -0.192210677529E+03   -0.13330E-03   -0.74352E-04  9000   0.165E-01    0.175E-01
DAV:   5    -0.192210420274E+03    0.25726E-03   -0.55947E-04  8560   0.152E-01    0.484E-02
DAV:   6    -0.192210401593E+03    0.18681E-04   -0.11837E-04  5960   0.449E-02
  12 F= -.19221040E+03 E0= -.19210463E+03  d E =-.103513E-02
       N       E                     dE             d eps       ncg     rms          rms(c)
DAV:   1    -0.192211221360E+03   -0.80109E-03   -0.19759E-01  8160   0.930E-01    0.145E-01
DAV:   2    -0.192213397209E+03   -0.21758E-02   -0.12077E-02 11120   0.544E-01    0.454E-01
DAV:   3    -0.192211549292E+03    0.18479E-02   -0.47843E-03 11400   0.443E-01    0.154E-01
DAV:   4    -0.192211725395E+03   -0.17610E-03   -0.14451E-03 10040   0.247E-01    0.195E-01
DAV:   5    -0.192211315799E+03    0.40960E-03   -0.65518E-04  8600   0.171E-01    0.356E-02
DAV:   6    -0.192211333342E+03   -0.17542E-04   -0.15601E-04  6240   0.575E-02
  13 F= -.19221133E+03 E0= -.19210494E+03  d E =-.931748E-03
