 vasp.5.4.1 05Feb16 (build Jul 05 2020 17:13:04) complex                        
  
 executed on           IFC91_ompi date 2024.04.23  19:32:43
 running on   40 total cores
 distrk:  each k-point on   40 cores,    1 groups
 distr:  one band on NCORES_PER_BAND=   1 cores,   40 groups


--------------------------------------------------------------------------------------------------------


 INCAR:
 POTCAR:   PAW_PBE V 08Apr2002                    
 POTCAR:   PAW_PBE Mo 08Apr2002                   
 POTCAR:   PAW_PBE W 08Apr2002                    
 POTCAR:    PAW_PBE S 17Jan2003                   

 ----------------------------------------------------------------------------- 
|                                                                             |
|           W    W    AA    RRRRR   N    N  II  N    N   GGGG   !!!           |
|           W    W   A  A   R    R  NN   N  II  NN   N  G    G  !!!           |
|           W    W  A    A  R    R  N N  N  II  N N  N  G       !!!           |
|           W WW W  AAAAAA  RRRRR   N  N N  II  N  N N  G  GGG   !            |
|           WW  WW  A    A  R   R   N   NN  II  N   NN  G    G                |
|           W    W  A    A  R    R  N    N  II  N    N   GGGG   !!!           |
|                                                                             |
|      For optimal performance we recommend to set                            |
|        NCORE= 4 - approx SQRT( number of cores)                             |
|      NCORE specifies how many cores store one orbital (NPAR=cpu/NCORE).     |
|      This setting can  greatly improve the performance of VASP for DFT.     |
|      The default, NPAR=number of cores might be grossly inefficient         |
|      on modern multi-core architectures or massively parallel machines.     |
|      Do your own testing !!!!                                               |
|      Unfortunately you need to use the default for GW and RPA calculations. |
|      (for HF NCORE is supported but not extensively tested yet)             |
|                                                                             |
 ----------------------------------------------------------------------------- 

 POTCAR:   PAW_PBE V 08Apr2002                    
   VRHFIN =V: p6 d4 s1                                                          
   LEXCH  = PE                                                                  
   EATOM  =   170.8679 eV,   12.5584 Ry                                         
                                                                                
   TITEL  = PAW_PBE V 08Apr2002                                                 
   LULTRA =        F    use ultrasoft PP ?                                      
   IUNSCR =        1    unscreen: 0-lin 1-nonlin 2-no                           
   RPACOR =    2.000    partial core radius                                     
   POMASS =   50.941; ZVAL   =    5.000    mass and valenz                      
   RCORE  =    2.700    outmost cutoff radius                                   
   RWIGS  =    2.500; RWIGS  =    1.323    wigner-seitz radius (au A)           
   ENMAX  =  192.543; ENMIN  =  144.408 eV                                      
   RCLOC  =    1.779    cutoff for local pot                                    
   LCOR   =        T    correct aug charges                                     
   LPAW   =        T    paw PP                                                  
   EAUG   =  358.662                                                            
   DEXC   =    -.034                                                            
   RMAX   =    3.323    core radius for proj-oper                               
   RAUG   =    1.300    factor for augmentation sphere                          
   RDEP   =    2.762    radius for radial grids                                 
   QCUT   =   -3.762; QGAM   =    7.524    optimization parameters              
                                                                                
   Description                                                                  
     l     E      TYP  RCUT    TYP  RCUT                                        
     2   .000     23  2.700                                                     
     2   .000     23  2.700                                                     
     0   .000     23  2.700                                                     
     0  2.000     23  2.700                                                     
     1   .000     23  2.700                                                     
     1  2.000     23  2.700                                                     
     3   .000      7   .000                                                     
  local pseudopotential read in
  partial core-charges read in
  atomic valenz-charges read in
  non local Contribution for L=           2  read in
    real space projection operators read in
  non local Contribution for L=           2  read in
    real space projection operators read in
  non local Contribution for L=           0  read in
    real space projection operators read in
  non local Contribution for L=           0  read in
    real space projection operators read in
  non local Contribution for L=           1  read in
    real space projection operators read in
  non local Contribution for L=           1  read in
    real space projection operators read in
    PAW grid and wavefunctions read in
 
   number of l-projection  operators is LMAX  =           6
   number of lm-projection operators is LMMAX =          18
 
 POTCAR:   PAW_PBE Mo 08Apr2002                   
   VRHFIN =Mo: 4p5s4d                                                           
   LEXCH  = PE                                                                  
   EATOM  =   217.5180 eV,   15.9871 Ry                                         
                                                                                
   TITEL  = PAW_PBE Mo 08Apr2002                                                
   LULTRA =        F    use ultrasoft PP ?                                      
   IUNSCR =        1    unscreen: 0-lin 1-nonlin 2-no                           
   RPACOR =    2.200    partial core radius                                     
   POMASS =   95.940; ZVAL   =    6.000    mass and valenz                      
   RCORE  =    2.750    outmost cutoff radius                                   
   RWIGS  =    2.750; RWIGS  =    1.455    wigner-seitz radius (au A)           
   ENMAX  =  224.584; ENMIN  =  168.438 eV                                      
   RCLOC  =    2.111    cutoff for local pot                                    
   LCOR   =        T    correct aug charges                                     
   LPAW   =        T    paw PP                                                  
   EAUG   =  345.278                                                            
   DEXC   =    -.088                                                            
   RMAX   =    3.077    core radius for proj-oper                               
   RAUG   =    1.300    factor for augmentation sphere                          
   RDEP   =    2.815    radius for radial grids                                 
   QCUT   =   -4.063; QGAM   =    8.126    optimization parameters              
                                                                                
   Description                                                                  
     l     E      TYP  RCUT    TYP  RCUT                                        
     2   .000     23  2.500                                                     
     2   .000     23  2.500                                                     
     0   .000     23  2.600                                                     
     0  1.000     23  2.600                                                     
     1   .400     23  2.750                                                     
     1  2.000     23  2.750                                                     
     3   .000      7   .000                                                     
  local pseudopotential read in
  partial core-charges read in
  atomic valenz-charges read in
  non local Contribution for L=           2  read in
    real space projection operators read in
  non local Contribution for L=           2  read in
    real space projection operators read in
  non local Contribution for L=           0  read in
    real space projection operators read in
  non local Contribution for L=           0  read in
    real space projection operators read in
  non local Contribution for L=           1  read in
    real space projection operators read in
  non local Contribution for L=           1  read in
    real space projection operators read in
    PAW grid and wavefunctions read in
 
   number of l-projection  operators is LMAX  =           6
   number of lm-projection operators is LMMAX =          18
 
 POTCAR:   PAW_PBE W 08Apr2002                    
   VRHFIN =W : 6s5d                                                             
   LEXCH  = PE                                                                  
   EATOM  =   204.6100 eV,   15.0384 Ry                                         
                                                                                
   TITEL  = PAW_PBE W 08Apr2002                                                 
   LULTRA =        F    use ultrasoft PP ?                                      
   IUNSCR =        1    unscreen: 0-lin 1-nonlin 2-no                           
   RPACOR =    2.330    partial core radius                                     
   POMASS =  183.850; ZVAL   =    6.000    mass and valenz                      
   RCORE  =    2.750    outmost cutoff radius                                   
   RWIGS  =    2.750; RWIGS  =    1.455    wigner-seitz radius (au A)           
   ENMAX  =  223.057; ENMIN  =  167.293 eV                                      
   RCLOC  =    2.147    cutoff for local pot                                    
   LCOR   =        T    correct aug charges                                     
   LPAW   =        T    paw PP                                                  
   EAUG   =  373.438                                                            
   DEXC   =    -.060                                                            
   RMAX   =    3.087    core radius for proj-oper                               
   RAUG   =    1.300    factor for augmentation sphere                          
   RDEP   =    2.886    radius for radial grids                                 
   QCUT   =   -4.049; QGAM   =    8.098    optimization parameters              
                                                                                
   Description                                                                  
     l     E      TYP  RCUT    TYP  RCUT                                        
     2   .000     23  2.500                                                     
     2   .000     23  2.500                                                     
     0   .000     23  2.500                                                     
     0   .000     23  2.500                                                     
     1   .200     23  2.750                                                     
     1  2.000     23  2.750                                                     
     3   .000      7   .000                                                     
  local pseudopotential read in
  partial core-charges read in
  atomic valenz-charges read in
  non local Contribution for L=           2  read in
    real space projection operators read in
  non local Contribution for L=           2  read in
    real space projection operators read in
  non local Contribution for L=           0  read in
    real space projection operators read in
  non local Contribution for L=           0  read in
    real space projection operators read in
  non local Contribution for L=           1  read in
    real space projection operators read in
  non local Contribution for L=           1  read in
    real space projection operators read in
    PAW grid and wavefunctions read in
 
   number of l-projection  operators is LMAX  =           6
   number of lm-projection operators is LMMAX =          18
 
 POTCAR:    PAW_PBE S 17Jan2003                   
   VRHFIN =S : s2p4                                                             
   LEXCH  = PE                                                                  
   EATOM  =   276.8230 eV,   20.3459 Ry                                         
                                                                                
   TITEL  = PAW_PBE S 17Jan2003                                                 
   LULTRA =        F    use ultrasoft PP ?                                      
   IUNSCR =        1    unscreen: 0-lin 1-nonlin 2-no                           
   RPACOR =    1.500    partial core radius                                     
   POMASS =   32.066; ZVAL   =    6.000    mass and valenz                      
   RCORE  =    1.900    outmost cutoff radius                                   
   RWIGS  =    2.200; RWIGS  =    1.164    wigner-seitz radius (au A)           
   ENMAX  =  280.000; ENMIN  =  194.016 eV                                      
   ICORE  =        2    local potential                                         
   LCOR   =        T    correct aug charges                                     
   LPAW   =        T    paw PP                                                  
   EAUG   =  335.092                                                            
   DEXC   =     .000                                                            
   RMAX   =    2.867    core radius for proj-oper                               
   RAUG   =    1.300    factor for augmentation sphere                          
   RDEP   =    1.954    radius for radial grids                                 
   QCUT   =   -4.360; QGAM   =    8.721    optimization parameters              
                                                                                
   Description                                                                  
     l     E      TYP  RCUT    TYP  RCUT                                        
     0   .000     23  1.900                                                     
     0   .000     23  1.900                                                     
     1   .000     23  1.900                                                     
     1   .000     23  1.900                                                     
     2   .000     23  1.900                                                     
  local pseudopotential read in
  partial core-charges read in
  atomic valenz-charges read in
  non local Contribution for L=           0  read in
    real space projection operators read in
  non local Contribution for L=           0  read in
    real space projection operators read in
  non local Contribution for L=           1  read in
    real space projection operators read in
  non local Contribution for L=           1  read in
    real space projection operators read in
    PAW grid and wavefunctions read in
 
   number of l-projection  operators is LMAX  =           4
   number of lm-projection operators is LMMAX =           8
 

 ----------------------------------------------------------------------------- 
|                                                                             |
|  ADVICE TO THIS USER RUNNING 'VASP/VAMP'   (HEAR YOUR MASTER'S VOICE ...):  |
|                                                                             |
|      You have a (more or less) 'large supercell' and for larger cells       |
|      it might be more efficient to use real space projection operators      |
|      So try LREAL= Auto  in the INCAR   file.                               |
|      Mind: If you want to do a very accurate calculations keep the          |
|      reciprocal projection scheme          (i.e. LREAL=.FALSE.)             |
|                                                                             |
 ----------------------------------------------------------------------------- 

 PAW_PBE V 08Apr2002                    :
 energy of atom  1       EATOM= -170.8679
 kinetic energy error for atom=    0.0047 (will be added to EATOM!!)
 PAW_PBE Mo 08Apr2002                   :
 energy of atom  2       EATOM= -217.5180
 kinetic energy error for atom=    0.0215 (will be added to EATOM!!)
 PAW_PBE W 08Apr2002                    :
 energy of atom  3       EATOM= -204.6100
 kinetic energy error for atom=    0.0205 (will be added to EATOM!!)
  PAW_PBE S 17Jan2003                   :
 energy of atom  4       EATOM= -276.8230
 kinetic energy error for atom=    0.0122 (will be added to EATOM!!)
 
 
 POSCAR: crystal structure from VMoWS2 with Hexag
  positions in cartesian coordinates
  No initial velocities read in
 exchange correlation table for  LEXCH =        8
   RHO(1)=    0.500       N(1)  =     2000
   RHO(2)=  100.500       N(2)  =     4000
 


--------------------------------------------------------------------------------------------------------


 ion  position               nearest neighbor table
   1  0.667  0.667  0.000-  21 2.34  24 2.34  27 2.36  26 2.36  19 2.36  18 2.36
   2  0.333  0.333  0.000-  13 2.34  16 2.34  19 2.36  18 2.36  11 2.36  10 2.36
   3  0.333  0.667  0.000-  15 2.34  18 2.34  20 2.36  21 2.36  13 2.36  12 2.36
   4  1.000  0.333  0.000-  25 2.34  10 2.34  13 2.36  12 2.36  22 2.36  23 2.36   5 3.34   8 3.34
                             7 3.34   6 3.36
   5  0.667  0.333  0.000-  19 2.34  22 2.34  25 2.36  24 2.36  17 2.36  16 2.36   4 3.34   6 3.34
                             8 3.36   9 3.36
   6  0.667  0.000  0.000-  17 2.34  26 2.34  23 2.36  22 2.36  21 2.36  20 2.36   7 3.34   5 3.34
                             9 3.34   4 3.36
   7  0.000  0.000  0.000-  23 2.34  14 2.34  11 2.36  10 2.36  27 2.36  26 2.36   6 3.34   8 3.34
                             4 3.34   9 3.34
   8  0.000  0.667  0.000-  27 2.34  12 2.34  14 2.36  15 2.36  24 2.36  25 2.36   7 3.34   4 3.34
                             9 3.36   5 3.36
   9  0.333  0.000  0.000-  11 2.34  20 2.34  17 2.36  16 2.36  15 2.36  14 2.36   6 3.34   7 3.34
                             8 3.36   5 3.36
  10  0.111  0.222  0.955-   4 2.34   7 2.36   2 2.36
  11  0.222  0.111  0.045-   9 2.34   7 2.36   2 2.36
  12  0.111  0.556  0.955-   8 2.34   4 2.36   3 2.36
  13  0.222  0.444  0.045-   2 2.34   4 2.36   3 2.36
  14  0.111  0.889  0.955-   7 2.34   8 2.36   9 2.36
  15  0.222  0.777  0.045-   3 2.34   8 2.36   9 2.36
  16  0.444  0.222  0.955-   2 2.34   9 2.36   5 2.36
  17  0.556  0.111  0.045-   6 2.34   9 2.36   5 2.36
  18  0.444  0.556  0.955-   3 2.34   2 2.36   1 2.36
  19  0.556  0.444  0.045-   5 2.34   2 2.36   1 2.36
  20  0.444  0.889  0.955-   9 2.34   3 2.36   6 2.36
  21  0.556  0.777  0.045-   1 2.34   3 2.36   6 2.36
  22  0.777  0.222  0.955-   5 2.34   6 2.36   4 2.36
  23  0.889  0.111  0.045-   7 2.34   6 2.36   4 2.36
  24  0.777  0.556  0.955-   1 2.34   5 2.36   8 2.36
  25  0.889  0.444  0.045-   4 2.34   5 2.36   8 2.36
  26  0.777  0.889  0.955-   6 2.34   1 2.36   7 2.36
  27  0.889  0.777  0.045-   8 2.34   1 2.36   7 2.36
 

IMPORTANT INFORMATION: All symmetrisations will be switched off!
NOSYMM: (Re-)initialisation of all symmetry stuff for point group C_1.

 
 
 KPOINTS: K-POINTS 	#supercell of CrS2 in hexagona

Automatic generation of k-mesh.
Space group operators:
 irot       det(A)        alpha          n_x          n_y          n_z        tau_x        tau_y        tau_z
    1     1.000000     0.000000     1.000000     0.000000     0.000000     0.000000     0.000000     0.000000
 
 Subroutine IBZKPT returns following result:
 ===========================================
 
 Found     34 irreducible k-points:
 
 Following reciprocal coordinates:
            Coordinates               Weight
  0.000000  0.000000  0.000000      1.000000
  0.125000  0.000000  0.000000      2.000000
  0.250000  0.000000  0.000000      2.000000
  0.375000  0.000000  0.000000      2.000000
  0.500000  0.000000  0.000000      1.000000
  0.000000  0.125000  0.000000      2.000000
  0.125000  0.125000  0.000000      2.000000
  0.250000  0.125000  0.000000      2.000000
  0.375000  0.125000  0.000000      2.000000
  0.500000  0.125000  0.000000      2.000000
 -0.375000  0.125000  0.000000      2.000000
 -0.250000  0.125000  0.000000      2.000000
 -0.125000  0.125000  0.000000      2.000000
  0.000000  0.250000  0.000000      2.000000
  0.125000  0.250000  0.000000      2.000000
  0.250000  0.250000  0.000000      2.000000
  0.375000  0.250000  0.000000      2.000000
  0.500000  0.250000  0.000000      2.000000
 -0.375000  0.250000  0.000000      2.000000
 -0.250000  0.250000  0.000000      2.000000
 -0.125000  0.250000  0.000000      2.000000
 -0.000000  0.375000  0.000000      2.000000
  0.125000  0.375000  0.000000      2.000000
  0.250000  0.375000  0.000000      2.000000
  0.375000  0.375000  0.000000      2.000000
  0.500000  0.375000  0.000000      2.000000
 -0.375000  0.375000  0.000000      2.000000
 -0.250000  0.375000  0.000000      2.000000
 -0.125000  0.375000  0.000000      2.000000
  0.000000  0.500000  0.000000      1.000000
  0.125000  0.500000  0.000000      2.000000
  0.250000  0.500000  0.000000      2.000000
  0.375000  0.500000  0.000000      2.000000
  0.500000  0.500000  0.000000      1.000000
 
 Following cartesian coordinates:
            Coordinates               Weight
  0.000000  0.000000  0.000000      1.000000
  0.007209  0.012401  0.000000      2.000000
  0.014418  0.024802  0.000000      2.000000
  0.021626  0.037202  0.000000      2.000000
  0.028835  0.049603  0.000000      1.000000
 -0.007209  0.012401  0.000000      2.000000
  0.000000  0.024802  0.000000      2.000000
  0.007209  0.037202  0.000000      2.000000
  0.014418  0.049603  0.000000      2.000000
  0.021626  0.062004  0.000000      2.000000
 -0.028835 -0.024802  0.000000      2.000000
 -0.021626 -0.012401  0.000000      2.000000
 -0.014418  0.000000  0.000000      2.000000
 -0.014418  0.024802  0.000000      2.000000
 -0.007209  0.037202  0.000000      2.000000
  0.000000  0.049603  0.000000      2.000000
  0.007209  0.062004  0.000000      2.000000
  0.014418  0.074405  0.000000      2.000000
 -0.036044 -0.012401  0.000000      2.000000
 -0.028835  0.000000  0.000000      2.000000
 -0.021626  0.012401  0.000000      2.000000
 -0.021626  0.037202  0.000000      2.000000
 -0.014418  0.049603  0.000000      2.000000
 -0.007209  0.062004  0.000000      2.000000
  0.000000  0.074405  0.000000      2.000000
  0.007209  0.086806  0.000000      2.000000
 -0.043253  0.000000  0.000000      2.000000
 -0.036044  0.012401  0.000000      2.000000
 -0.028835  0.024802  0.000000      2.000000
 -0.028835  0.049603  0.000000      1.000000
 -0.021626  0.062004  0.000000      2.000000
 -0.014418  0.074405  0.000000      2.000000
 -0.007209  0.086806  0.000000      2.000000
  0.000000  0.099206  0.000000      1.000000
 


--------------------------------------------------------------------------------------------------------




 Dimension of arrays:
   k-points           NKPTS =     34   k-points in BZ     NKDIM =     34   number of bands    NBANDS=    120
   number of dos      NEDOS =    301   number of ions     NIONS =     27
   non local maximal  LDIM  =      6   non local SUM 2l+1 LMDIM =     18
   total plane-waves  NPLWV = 222264
   max r-space proj   IRMAX =      1   max aug-charges    IRDMAX=   5642
   dimension x,y,z NGX =    42 NGY =   42 NGZ =  126
   dimension x,y,z NGXF=    84 NGYF=   84 NGZF=  252
   support grid    NGXF=    84 NGYF=   84 NGZF=  252
   ions per type =               3   3   3  18
 NGX,Y,Z   is equivalent  to a cutoff of   6.96,  6.96,  6.98 a.u.
 NGXF,Y,Z  is equivalent  to a cutoff of  13.92, 13.92, 13.96 a.u.


 I would recommend the setting:
   dimension x,y,z NGX =    41 NGY =   41 NGZ =  123
 SYSTEM =  unknown system                          
 POSCAR =  crystal structure from VMoWS2 with Hexag

 Startparameter for this run:
   NWRITE =      2    write-flag & timer
   PREC   = normal    normal or accurate (medium, high low for compatibility)
   ISTART =      0    job   : 0-new  1-cont  2-samecut
   ICHARG =      2    charge: 1-file 2-atom 10-const
   ISPIN  =      1    spin polarized calculation?
   LNONCOLLINEAR =      F non collinear calculations
   LSORBIT =      F    spin-orbit coupling
   INIWAV =      1    electr: 0-lowe 1-rand  2-diag
   LASPH  =      F    aspherical Exc in radial PAW
   METAGGA=      F    non-selfconsistent MetaGGA calc.

 Electronic Relaxation 1
   ENCUT  =  280.0 eV  20.58 Ry    4.54 a.u.  13.68 13.68 40.93*2*pi/ulx,y,z
   ENINI  =  280.0     initial cutoff
   ENAUG  =  373.4 eV  augmentation charge cutoff
   NELM   =     60;   NELMIN=  2; NELMDL= -5     # of ELM steps 
   EDIFF  = 0.1E-03   stopping-criterion for ELM
   LREAL  =      F    real-space projection
   NLSPLINE    = F    spline interpolate recip. space projectors
   LCOMPAT=      F    compatible to vasp.4.4
   GGA_COMPAT  = T    GGA compatible to vasp.4.4-vasp.4.6
   LMAXPAW     = -100 max onsite density
   LMAXMIX     =    2 max onsite mixed and CHGCAR
   VOSKOWN=      0    Vosko Wilk Nusair interpolation
   ROPT   =    0.00000   0.00000   0.00000   0.00000
 Ionic relaxation
   EDIFFG = 0.1E-02   stopping-criterion for IOM
   NSW    =    100    number of steps for IOM
   NBLOCK =      1;   KBLOCK =    100    inner block; outer block 
   IBRION =      1    ionic relax: 0-MD 1-quasi-New 2-CG
   NFREE  =      0    steps in history (QN), initial steepest desc. (CG)
   ISIF   =      3    stress and relaxation
   IWAVPR =     11    prediction:  0-non 1-charg 2-wave 3-comb
   ISYM   =      0    0-nonsym 1-usesym 2-fastsym
   LCORR  =      T    Harris-Foulkes like correction to forces

   POTIM  = 0.5000    time-step for ionic-motion
   TEIN   =    0.0    initial temperature
   TEBEG  =    0.0;   TEEND  =   0.0 temperature during run
   SMASS  =  -3.00    Nose mass-parameter (am)
   estimated Nose-frequenzy (Omega)   =  0.10E-29 period in steps =****** mass=  -0.230E-26a.u.
   SCALEE = 1.0000    scale energy and forces
   NPACO  =    256;   APACO  = 16.0  distance and # of slots for P.C.
   PSTRESS=    0.0 pullay stress

  Mass of Ions in am
   POMASS =  50.94 95.94183.85 32.07
  Ionic Valenz
   ZVAL   =   5.00  6.00  6.00  6.00
  Atomic Wigner-Seitz radii
   RWIGS  =  -1.00 -1.00 -1.00 -1.00
  virtual crystal weights 
   VCA    =   1.00  1.00  1.00  1.00
   NELECT =     159.0000    total number of electrons
   NUPDOWN=      -1.0000    fix difference up-down

 DOS related values:
   EMIN   =  10.00;   EMAX   =-10.00  energy-range for DOS
   EFERMI =   0.00
   ISMEAR =     0;   SIGMA  =   0.20  broadening in eV -4-tet -1-fermi 0-gaus

 Electronic relaxation 2 (details)
   IALGO  =     38    algorithm
   LDIAG  =      T    sub-space diagonalisation (order eigenvalues)
   LSUBROT=      F    optimize rotation matrix (better conditioning)
   TURBO    =      0    0=normal 1=particle mesh
   IRESTART =      0    0=no restart 2=restart with 2 vectors
   NREBOOT  =      0    no. of reboots
   NMIN     =      0    reboot dimension
   EREF     =   0.00    reference energy to select bands
   IMIX   =      4    mixing-type and parameters
     AMIX     =   0.40;   BMIX     =  1.00
     AMIX_MAG =   1.60;   BMIX_MAG =  1.00
     AMIN     =   0.10
     WC   =   100.;   INIMIX=   1;  MIXPRE=   1;  MAXMIX= -45

 Intra band minimization:
   WEIMIN = 0.0010     energy-eigenvalue tresh-hold
   EBREAK =  0.21E-06  absolut break condition
   DEPER  =   0.30     relativ break condition  

   TIME   =   0.40     timestep for ELM

  volume/ion in A,a.u.               =      97.10       655.29
  Fermi-wavevector in a.u.,A,eV,Ry     =   0.643191  1.215456  5.628665  0.413695
  Thomas-Fermi vector in A             =   1.710110
 
 Write flags
   LWAVE  =      F    write WAVECAR
   LCHARG =      F    write CHGCAR
   LVTOT  =      F    write LOCPOT, total local potential
   LVHAR  =      F    write LOCPOT, Hartree potential only
   LELF   =      F    write electronic localiz. function (ELF)
   LORBIT =      0    0 simple, 1 ext, 2 COOP (PROOUT)


 Dipole corrections
   LMONO  =      F    monopole corrections only (constant potential shift)
   LDIPOL =      F    correct potential (dipole corrections)
   IDIPOL =      0    1-x, 2-y, 3-z, 4-all directions 
   EPSILON=  1.0000000 bulk dielectric constant

 Exchange correlation treatment:
   GGA     =    --    GGA type
   LEXCH   =     8    internal setting for exchange type
   VOSKOWN=      0    Vosko Wilk Nusair interpolation
   LHFCALC =     F    Hartree Fock is set to
   LHFONE  =     F    Hartree Fock one center treatment
   AEXX    =    0.0000 exact exchange contribution

 Linear response parameters
   LEPSILON=     F    determine dielectric tensor
   LRPA    =     F    only Hartree local field effects (RPA)
   LNABLA  =     F    use nabla operator in PAW spheres
   LVEL    =     F    velocity operator in full k-point grid
   LINTERFAST=   F  fast interpolation
   KINTER  =     0    interpolate to denser k-point grid
   CSHIFT  =0.1000    complex shift for real part using Kramers Kronig
   OMEGAMAX=  -1.0    maximum frequency
   DEG_THRESHOLD= 0.2000000E-02 threshold for treating states as degnerate
   RTIME   =    0.100 relaxation time in fs

 Orbital magnetization related:
   ORBITALMAG=     F  switch on orbital magnetization
   LCHIMAG   =     F  perturbation theory with respect to B field
   DQ        =  0.001000  dq finite difference perturbation B field



--------------------------------------------------------------------------------------------------------


 quasi-Newton-method for relaxation of ions
 charge density and potential will be updated during run
 non-spin polarized calculation
 Variant of blocked Davidson
 Davidson routine will perform the subspace rotation
 perform sub-space diagonalisation
    after iterative eigenvector-optimisation
 modified Broyden-mixing scheme, WC =      100.0
 initial mixing is a Kerker type mixing with AMIX =  0.4000 and BMIX =      1.0000
 Hartree-type preconditioning will be used
 using additional bands           40
 reciprocal scheme for non local part
 use partial core corrections
 calculate Harris-corrections to forces 
   (improved forces if not selfconsistent)
 use gradient corrections 
 use of overlap-Matrix (Vanderbilt PP)
 Gauss-broadening in eV      SIGMA  =   0.20


--------------------------------------------------------------------------------------------------------


  energy-cutoff  :      280.00
  volume of cell :     2621.81
      direct lattice vectors                 reciprocal lattice vectors
     8.669999960  5.039999894  0.000000000     0.057670129  0.099206348  0.000000000
    -8.669999821  5.040000133  0.000000000    -0.057670126  0.099206350  0.000000000
     0.000000000  0.000000000 30.000000000     0.000000000  0.000000000  0.033333333

  length of vectors
    10.028484344 10.028484344 30.000000000     0.114750788  0.114750788  0.033333333


 
 k-points in units of 2pi/SCALE and weight: K-POINTS 	#supercell of CrS2 in hexagona
   0.00000000  0.00000000  0.00000000       0.016
   0.00720877  0.01240079  0.00000000       0.031
   0.01441753  0.02480159  0.00000000       0.031
   0.02162630  0.03720238  0.00000000       0.031
   0.02883506  0.04960317  0.00000000       0.016
  -0.00720877  0.01240079  0.00000000       0.031
   0.00000000  0.02480159  0.00000000       0.031
   0.00720877  0.03720238  0.00000000       0.031
   0.01441753  0.04960317  0.00000000       0.031
   0.02162630  0.06200397  0.00000000       0.031
  -0.02883506 -0.02480159  0.00000000       0.031
  -0.02162630 -0.01240079  0.00000000       0.031
  -0.01441753  0.00000000  0.00000000       0.031
  -0.01441753  0.02480159  0.00000000       0.031
  -0.00720877  0.03720238  0.00000000       0.031
   0.00000000  0.04960317  0.00000000       0.031
   0.00720877  0.06200397  0.00000000       0.031
   0.01441753  0.07440476  0.00000000       0.031
  -0.03604383 -0.01240079  0.00000000       0.031
  -0.02883506  0.00000000  0.00000000       0.031
  -0.02162630  0.01240079  0.00000000       0.031
  -0.02162630  0.03720238  0.00000000       0.031
  -0.01441753  0.04960317  0.00000000       0.031
  -0.00720877  0.06200397  0.00000000       0.031
   0.00000000  0.07440476  0.00000000       0.031
   0.00720877  0.08680556  0.00000000       0.031
  -0.04325260  0.00000000  0.00000000       0.031
  -0.03604383  0.01240079  0.00000000       0.031
  -0.02883506  0.02480159  0.00000000       0.031
  -0.02883506  0.04960317  0.00000000       0.016
  -0.02162630  0.06200397  0.00000000       0.031
  -0.01441753  0.07440476  0.00000000       0.031
  -0.00720876  0.08680556  0.00000000       0.031
   0.00000000  0.09920635  0.00000000       0.016
 
 k-points in reciprocal lattice and weights: K-POINTS 	#supercell of CrS2 in hexagona
   0.00000000  0.00000000  0.00000000       0.016
   0.12500000  0.00000000  0.00000000       0.031
   0.25000000  0.00000000  0.00000000       0.031
   0.37500000  0.00000000  0.00000000       0.031
   0.50000000  0.00000000  0.00000000       0.016
   0.00000000  0.12500000  0.00000000       0.031
   0.12500000  0.12500000  0.00000000       0.031
   0.25000000  0.12500000  0.00000000       0.031
   0.37500000  0.12500000  0.00000000       0.031
   0.50000000  0.12500000  0.00000000       0.031
  -0.37500000  0.12500000  0.00000000       0.031
  -0.25000000  0.12500000  0.00000000       0.031
  -0.12500000  0.12500000  0.00000000       0.031
   0.00000000  0.25000000  0.00000000       0.031
   0.12500000  0.25000000  0.00000000       0.031
   0.25000000  0.25000000  0.00000000       0.031
   0.37500000  0.25000000  0.00000000       0.031
   0.50000000  0.25000000  0.00000000       0.031
  -0.37500000  0.25000000  0.00000000       0.031
  -0.25000000  0.25000000  0.00000000       0.031
  -0.12500000  0.25000000  0.00000000       0.031
  -0.00000000  0.37500000  0.00000000       0.031
   0.12500000  0.37500000  0.00000000       0.031
   0.25000000  0.37500000  0.00000000       0.031
   0.37500000  0.37500000  0.00000000       0.031
   0.50000000  0.37500000  0.00000000       0.031
  -0.37500000  0.37500000  0.00000000       0.031
  -0.25000000  0.37500000  0.00000000       0.031
  -0.12500000  0.37500000  0.00000000       0.031
   0.00000000  0.50000000  0.00000000       0.016
   0.12500000  0.50000000  0.00000000       0.031
   0.25000000  0.50000000  0.00000000       0.031
   0.37500000  0.50000000  0.00000000       0.031
   0.50000000  0.50000000  0.00000000       0.016
 
 position of ions in fractional coordinates (direct lattice) 
   0.66666669  0.66666669  0.00000000
   0.33333334  0.33333334  0.00000000
   0.33333334  0.66666669  0.00000000
   1.00000000  0.33333334  0.00000000
   0.66666669  0.33333334  0.00000000
   0.66666669  0.00000000  0.00000000
   0.00000000  0.00000000  0.00000000
   0.00000000  0.66666669  0.00000000
   0.33333334  0.00000000  0.00000000
   0.11068511  0.22244981  0.95539999
   0.22244981  0.11068511  0.04460000
   0.11068511  0.55578315  0.95539999
   0.22244981  0.44401845  0.04460000
   0.11068511  0.88911647  0.95539999
   0.22244981  0.77735180  0.04460000
   0.44401845  0.22244981  0.95539999
   0.55578315  0.11068511  0.04460000
   0.44401845  0.55578315  0.95539999
   0.55578315  0.44401845  0.04460000
   0.44401845  0.88911647  0.95539999
   0.55578315  0.77735180  0.04460000
   0.77735180  0.22244981  0.95539999
   0.88911647  0.11068511  0.04460000
   0.77735180  0.55578315  0.95539999
   0.88911647  0.44401845  0.04460000
   0.77735180  0.88911647  0.95539999
   0.88911647  0.77735180  0.04460000
 
 position of ions in cartesian coordinates  (Angst):
   0.00000009  6.72000022  0.00000000
   0.00000005  3.36000011  0.00000000
  -2.88999998  5.04000020  0.00000000
   5.77999993  6.71999999  0.00000000
   2.89000012  5.04000012  0.00000000
   5.78000015  3.36000003  0.00000000
   0.00000000  0.00000000  0.00000000
  -5.78000005  3.36000019  0.00000000
   2.89000007  1.68000002  0.00000000
  -0.96899991  1.67900001 28.66199970
   0.96899995  1.67899998  1.33799996
  -3.85899993  3.35900011 28.66199970
  -1.92100007  3.35900008  1.33799996
  -6.74899970  5.03900005 28.66199970
  -4.81100010  5.03900017  1.33799996
   1.92100017  3.35900003 28.66199970
   3.85900003  3.35900000  1.33799996
  -0.96899986  5.03900012 28.66199970
   0.96900000  5.03900009  1.33799996
  -3.85899963  6.71900006 28.66199970
  -1.92100003  6.71900019  1.33799996
   4.81100024  5.03900004 28.66199970
   6.74899984  5.03899987  1.33799996
   1.92100021  6.71900014 28.66199970
   3.85899981  6.71899996  1.33799996
  -0.96899956  8.39900008 28.66199970
   0.96899979  8.39900005  1.33799996
 


--------------------------------------------------------------------------------------------------------


 k-point  1 :   0.0000 0.0000 0.0000  plane waves:   27959
 k-point  2 :   0.1250 0.0000 0.0000  plane waves:   27889
 k-point  3 :   0.2500 0.0000 0.0000  plane waves:   27875
 k-point  4 :   0.3750 0.0000 0.0000  plane waves:   27893
 k-point  5 :   0.5000 0.0000 0.0000  plane waves:   27932
 k-point  6 :   0.0000 0.1250 0.0000  plane waves:   27889
 k-point  7 :   0.1250 0.1250 0.0000  plane waves:   27906
 k-point  8 :   0.2500 0.1250 0.0000  plane waves:   27898
 k-point  9 :   0.3750 0.1250 0.0000  plane waves:   27888
 k-point 10 :   0.5000 0.1250 0.0000  plane waves:   27873
 k-point 11 :  -0.3750 0.1250 0.0000  plane waves:   27874
 k-point 12 :  -0.2500 0.1250 0.0000  plane waves:   27895
 k-point 13 :  -0.1250 0.1250 0.0000  plane waves:   27879
 k-point 14 :   0.0000 0.2500 0.0000  plane waves:   27875
 k-point 15 :   0.1250 0.2500 0.0000  plane waves:   27898
 k-point 16 :   0.2500 0.2500 0.0000  plane waves:   27920
 k-point 17 :   0.3750 0.2500 0.0000  plane waves:   27901
 k-point 18 :   0.5000 0.2500 0.0000  plane waves:   27875
 k-point 19 :  -0.3750 0.2500 0.0000  plane waves:   27894
 k-point 20 :  -0.2500 0.2500 0.0000  plane waves:   27870
 k-point 21 :  -0.1250 0.2500 0.0000  plane waves:   27895
 k-point 22 :  -0.0000 0.3750 0.0000  plane waves:   27893
 k-point 23 :   0.1250 0.3750 0.0000  plane waves:   27888
 k-point 24 :   0.2500 0.3750 0.0000  plane waves:   27901
 k-point 25 :   0.3750 0.3750 0.0000  plane waves:   27860
 k-point 26 :   0.5000 0.3750 0.0000  plane waves:   27895
 k-point 27 :  -0.3750 0.3750 0.0000  plane waves:   27858
 k-point 28 :  -0.2500 0.3750 0.0000  plane waves:   27894
 k-point 29 :  -0.1250 0.3750 0.0000  plane waves:   27874
 k-point 30 :   0.0000 0.5000 0.0000  plane waves:   27932
 k-point 31 :   0.1250 0.5000 0.0000  plane waves:   27873
 k-point 32 :   0.2500 0.5000 0.0000  plane waves:   27875
 k-point 33 :   0.3750 0.5000 0.0000  plane waves:   27895
 k-point 34 :   0.5000 0.5000 0.0000  plane waves:   27910

 maximum and minimum number of plane-waves per node :     27959    27858

 maximum number of plane-waves:     27959
 maximum index in each direction: 
   IXMAX=   14   IYMAX=   13   IZMAX=   40
   IXMIN=  -14   IYMIN=  -14   IZMIN=  -40

 WARNING: aliasing errors must be expected set NGX to  58 to avoid them
 WARNING: aliasing errors must be expected set NGY to  56 to avoid them
 WARNING: aliasing errors must be expected set NGZ to 162 to avoid them
 aliasing errors are usually negligible using standard VASP settings
 and one can safely disregard these warnings

 serial   3D FFT for wavefunctions

 total amount of memory used by VASP on root node   650782. kBytes
========================================================================

   base      :      30000. kBytes
   nonl-proj :     559647. kBytes
   fftplans  :       2414. kBytes
   grid      :      12150. kBytes
   one-center:        419. kBytes
   wavefun   :      46152. kBytes
 
     INWAV:  cpu time    0.0001: real time    0.0001
 Broyden mixing: mesh for mixing (old mesh)
   NGX = 27   NGY = 27   NGZ = 81
  (NGX  = 84   NGY  = 84   NGZ  =252)
  gives a total of  59049 points

 initial charge density was supplied:
 charge density of overlapping atoms calculated
 number of electron     159.0000000 magnetization 
 keeping initial charge density in first step


--------------------------------------------------------------------------------------------------------


 Maximum index for augmentation-charges          139 (set IRDMAX)


--------------------------------------------------------------------------------------------------------


 First call to EWALD:  gamma=   0.129
 Maximum number of real-space cells 4x 4x 2
 Maximum number of reciprocal cells 2x 2x 5

 FEWALD executed in parallel
    FEWALD:  cpu time    0.0016: real time    0.0016


----------------------------------------- Iteration    1(   1)  ---------------------------------------


    POTLOK:  cpu time    0.0397: real time    0.0402
    SETDIJ:  cpu time    0.0033: real time    0.0035
     EDDAV:  cpu time   23.1993: real time   23.2578
       DOS:  cpu time    0.0014: real time    0.0015
    --------------------------------------------
      LOOP:  cpu time   23.2478: real time   23.3103

 eigenvalue-minimisations  :  8160
 total energy-change (2. order) : 0.1123810E+04  (-0.3586967E+04)
 number of electron     159.0000000 magnetization 
 augmentation part      159.0000000 magnetization 

 Free energy of the ion-electron system (eV)
  ---------------------------------------------------
  alpha Z        PSCENC =        81.65567618
  Ewald energy   TEWEN  =     41891.17178794
  -Hartree energ DENC   =    -47723.81766557
  -exchange      EXHF   =         0.00000000
  -V(xc)+E(xc)   XCENC  =      -242.92463154
  PAW double counting   =      3467.42045192    -2871.19716117
  entropy T*S    EENTRO =        -0.53383879
  eigenvalues    EBANDS =      -239.40697386
  atomic energy  EATOM  =      6761.44252427
  Solvation  Ediel_sol  =         0.00000000
  ---------------------------------------------------
  free energy    TOTEN  =      1123.81016937 eV

  energy without entropy =     1124.34400817  energy(sigma->0) =     1124.07708877


--------------------------------------------------------------------------------------------------------




----------------------------------------- Iteration    1(   2)  ---------------------------------------


     EDDAV:  cpu time   30.2339: real time   30.3064
       DOS:  cpu time    0.0009: real time    0.0009
    --------------------------------------------
      LOOP:  cpu time   30.2359: real time   30.3146

 eigenvalue-minimisations  : 11360
 total energy-change (2. order) :-0.1127641E+04  (-0.1086013E+04)
 number of electron     159.0000000 magnetization 
 augmentation part      159.0000000 magnetization 

 Free energy of the ion-electron system (eV)
  ---------------------------------------------------
  alpha Z        PSCENC =        81.65567618
  Ewald energy   TEWEN  =     41891.17178794
  -Hartree energ DENC   =    -47723.81766557
  -exchange      EXHF   =         0.00000000
  -V(xc)+E(xc)   XCENC  =      -242.92463154
  PAW double counting   =      3467.42045192    -2871.19716117
  entropy T*S    EENTRO =        -0.19780987
  eigenvalues    EBANDS =     -1367.38391536
  atomic energy  EATOM  =      6761.44252427
  Solvation  Ediel_sol  =         0.00000000
  ---------------------------------------------------
  free energy    TOTEN  =        -3.83074321 eV

  energy without entropy =       -3.63293334  energy(sigma->0) =       -3.73183827


--------------------------------------------------------------------------------------------------------




----------------------------------------- Iteration    1(   3)  ---------------------------------------


     EDDAV:  cpu time   29.1963: real time   29.2667
       DOS:  cpu time    0.0010: real time    0.0010
    --------------------------------------------
      LOOP:  cpu time   29.1981: real time   29.2747

 eigenvalue-minimisations  : 10880
 total energy-change (2. order) :-0.1959060E+03  (-0.1885211E+03)
 number of electron     159.0000000 magnetization 
 augmentation part      159.0000000 magnetization 

 Free energy of the ion-electron system (eV)
  ---------------------------------------------------
  alpha Z        PSCENC =        81.65567618
  Ewald energy   TEWEN  =     41891.17178794
  -Hartree energ DENC   =    -47723.81766557
  -exchange      EXHF   =         0.00000000
  -V(xc)+E(xc)   XCENC  =      -242.92463154
  PAW double counting   =      3467.42045192    -2871.19716117
  entropy T*S    EENTRO =        -0.28612299
  eigenvalues    EBANDS =     -1563.20164123
  atomic energy  EATOM  =      6761.44252427
  Solvation  Ediel_sol  =         0.00000000
  ---------------------------------------------------
  free energy    TOTEN  =      -199.73678219 eV

  energy without entropy =     -199.45065921  energy(sigma->0) =     -199.59372070


--------------------------------------------------------------------------------------------------------




----------------------------------------- Iteration    1(   4)  ---------------------------------------


     EDDAV:  cpu time   31.5617: real time   31.6373
       DOS:  cpu time    0.0010: real time    0.0010
    --------------------------------------------
      LOOP:  cpu time   31.5643: real time   31.6447

 eigenvalue-minimisations  : 12000
 total energy-change (2. order) :-0.9152699E+01  (-0.8855793E+01)
 number of electron     159.0000000 magnetization 
 augmentation part      159.0000000 magnetization 

 Free energy of the ion-electron system (eV)
  ---------------------------------------------------
  alpha Z        PSCENC =        81.65567618
  Ewald energy   TEWEN  =     41891.17178794
  -Hartree energ DENC   =    -47723.81766557
  -exchange      EXHF   =         0.00000000
  -V(xc)+E(xc)   XCENC  =      -242.92463154
  PAW double counting   =      3467.42045192    -2871.19716117
  entropy T*S    EENTRO =        -0.32105903
  eigenvalues    EBANDS =     -1572.31940463
  atomic energy  EATOM  =      6761.44252427
  Solvation  Ediel_sol  =         0.00000000
  ---------------------------------------------------
  free energy    TOTEN  =      -208.88948164 eV

  energy without entropy =     -208.56842260  energy(sigma->0) =     -208.72895212


--------------------------------------------------------------------------------------------------------




----------------------------------------- Iteration    1(   5)  ---------------------------------------


     EDDAV:  cpu time   30.3388: real time   30.4115
       DOS:  cpu time    0.0010: real time    0.0010
    CHARGE:  cpu time    0.4620: real time    0.4632
    MIXING:  cpu time    0.0020: real time    0.0020
    --------------------------------------------
      LOOP:  cpu time   30.8040: real time   30.8846

 eigenvalue-minimisations  : 11440
 total energy-change (2. order) :-0.3357084E+00  (-0.3347216E+00)
 number of electron     159.0000110 magnetization 
 augmentation part       -9.8079396 magnetization 

 Broyden mixing:
  rms(total) = 0.27437E+01    rms(broyden)= 0.27433E+01
  rms(prec ) = 0.29282E+01
  weight for this iteration     100.00

 Free energy of the ion-electron system (eV)
  ---------------------------------------------------
  alpha Z        PSCENC =        81.65567618
  Ewald energy   TEWEN  =     41891.17178794
  -Hartree energ DENC   =    -47723.81766557
  -exchange      EXHF   =         0.00000000
  -V(xc)+E(xc)   XCENC  =      -242.92463154
  PAW double counting   =      3467.42045192    -2871.19716117
  entropy T*S    EENTRO =        -0.31750008
  eigenvalues    EBANDS =     -1572.65867197
  atomic energy  EATOM  =      6761.44252427
  Solvation  Ediel_sol  =         0.00000000
  ---------------------------------------------------
  free energy    TOTEN  =      -209.22519002 eV

  energy without entropy =     -208.90768994  energy(sigma->0) =     -209.06643998


--------------------------------------------------------------------------------------------------------




----------------------------------------- Iteration    1(   6)  ---------------------------------------


    POTLOK:  cpu time    0.0352: real time    0.0353
    SETDIJ:  cpu time    0.0028: real time    0.0028
     EDDAV:  cpu time   32.3385: real time   32.4158
       DOS:  cpu time    0.0011: real time    0.0011
    CHARGE:  cpu time    0.4662: real time    0.4673
    MIXING:  cpu time    0.0018: real time    0.0019
    --------------------------------------------
      LOOP:  cpu time   32.8466: real time   32.9326

 eigenvalue-minimisations  : 12400
 total energy-change (2. order) :-0.2749479E+02  (-0.1123783E+02)
 number of electron     159.0000105 magnetization 
 augmentation part        7.0939114 magnetization 

 Broyden mixing:
  rms(total) = 0.59220E+01    rms(broyden)= 0.59214E+01
  rms(prec ) = 0.65294E+01
  weight for this iteration     100.00

 eigenvalues of (default mixing * dielectric matrix)
  average eigenvalue GAMMA=   0.2940
  0.2940

 Free energy of the ion-electron system (eV)
  ---------------------------------------------------
  alpha Z        PSCENC =        81.65567618
  Ewald energy   TEWEN  =     41891.17178794
  -Hartree energ DENC   =    -47701.73862829
  -exchange      EXHF   =         0.00000000
  -V(xc)+E(xc)   XCENC  =      -233.61250700
  PAW double counting   =      3675.80096764    -3081.90578492
  entropy T*S    EENTRO =        -0.25624588
  eigenvalues    EBANDS =     -1629.27776901
  atomic energy  EATOM  =      6761.44252427
  Solvation  Ediel_sol  =         0.00000000
  ---------------------------------------------------
  free energy    TOTEN  =      -236.71997906 eV

  energy without entropy =     -236.46373318  energy(sigma->0) =     -236.59185612


--------------------------------------------------------------------------------------------------------




----------------------------------------- Iteration    1(   7)  ---------------------------------------


    POTLOK:  cpu time    0.0346: real time    0.0347
    SETDIJ:  cpu time    0.0027: real time    0.0027
     EDDAV:  cpu time   35.0034: real time   35.0879
       DOS:  cpu time    0.0012: real time    0.0012
    CHARGE:  cpu time    0.4667: real time    0.4678
    MIXING:  cpu time    0.0014: real time    0.0014
    --------------------------------------------
      LOOP:  cpu time   35.5110: real time   35.6050

 eigenvalue-minimisations  : 13560
 total energy-change (2. order) : 0.3987258E+02  (-0.1769323E+02)
 number of electron     159.0000086 magnetization 
 augmentation part       -6.2251295 magnetization 

 Broyden mixing:
  rms(total) = 0.20361E+01    rms(broyden)= 0.20341E+01
  rms(prec ) = 0.22632E+01
  weight for this iteration     100.00

 eigenvalues of (default mixing * dielectric matrix)
  average eigenvalue GAMMA=   0.5420
  0.8738  0.2101

 Free energy of the ion-electron system (eV)
  ---------------------------------------------------
  alpha Z        PSCENC =        81.65567618
  Ewald energy   TEWEN  =     41891.17178794
  -Hartree energ DENC   =    -47739.01493954
  -exchange      EXHF   =         0.00000000
  -V(xc)+E(xc)   XCENC  =      -234.99206384
  PAW double counting   =      3763.60338389    -3177.64011701
  entropy T*S    EENTRO =        -0.32031969
  eigenvalues    EBANDS =     -1542.75332908
  atomic energy  EATOM  =      6761.44252427
  Solvation  Ediel_sol  =         0.00000000
  ---------------------------------------------------
  free energy    TOTEN  =      -196.84739689 eV

  energy without entropy =     -196.52707720  energy(sigma->0) =     -196.68723704


--------------------------------------------------------------------------------------------------------




----------------------------------------- Iteration    1(   8)  ---------------------------------------


    POTLOK:  cpu time    0.0330: real time    0.0331
    SETDIJ:  cpu time    0.0026: real time    0.0026
     EDDAV:  cpu time   31.6029: real time   31.6791
       DOS:  cpu time    0.0011: real time    0.0011
    CHARGE:  cpu time    0.4745: real time    0.4757
    MIXING:  cpu time    0.0014: real time    0.0014
    --------------------------------------------
      LOOP:  cpu time   32.1164: real time   32.2015

 eigenvalue-minimisations  : 12040
 total energy-change (2. order) : 0.6874070E+01  (-0.1785735E+01)
 number of electron     159.0000095 magnetization 
 augmentation part       -6.4893685 magnetization 

 Broyden mixing:
  rms(total) = 0.13448E+01    rms(broyden)= 0.13445E+01
  rms(prec ) = 0.14642E+01
  weight for this iteration     100.00

 eigenvalues of (default mixing * dielectric matrix)
  average eigenvalue GAMMA=   0.5410
  1.0701  0.2413  0.3115

 Free energy of the ion-electron system (eV)
  ---------------------------------------------------
  alpha Z        PSCENC =        81.65567618
  Ewald energy   TEWEN  =     41891.17178794
  -Hartree energ DENC   =    -47762.25887604
  -exchange      EXHF   =         0.00000000
  -V(xc)+E(xc)   XCENC  =      -235.02983408
  PAW double counting   =      3904.62942975    -3320.28819925
  entropy T*S    EENTRO =        -0.31030760
  eigenvalues    EBANDS =     -1510.98552803
  atomic energy  EATOM  =      6761.44252427
  Solvation  Ediel_sol  =         0.00000000
  ---------------------------------------------------
  free energy    TOTEN  =      -189.97332687 eV

  energy without entropy =     -189.66301926  energy(sigma->0) =     -189.81817307


--------------------------------------------------------------------------------------------------------




----------------------------------------- Iteration    1(   9)  ---------------------------------------


    POTLOK:  cpu time    0.0328: real time    0.0328
    SETDIJ:  cpu time    0.0027: real time    0.0027
     EDDAV:  cpu time   32.7394: real time   32.8183
       DOS:  cpu time    0.0010: real time    0.0010
    CHARGE:  cpu time    0.4816: real time    0.4827
    MIXING:  cpu time    0.0014: real time    0.0014
    --------------------------------------------
      LOOP:  cpu time   33.2598: real time   33.3476

 eigenvalue-minimisations  : 12520
 total energy-change (2. order) : 0.1729595E+01  (-0.3379504E+00)
 number of electron     159.0000091 magnetization 
 augmentation part       -5.7124556 magnetization 

 Broyden mixing:
  rms(total) = 0.95023E+00    rms(broyden)= 0.94998E+00
  rms(prec ) = 0.10240E+01
  weight for this iteration     100.00

 eigenvalues of (default mixing * dielectric matrix)
  average eigenvalue GAMMA=   0.7352
  1.8024  0.6139  0.2201  0.3043

 Free energy of the ion-electron system (eV)
  ---------------------------------------------------
  alpha Z        PSCENC =        81.65567618
  Ewald energy   TEWEN  =     41891.17178794
  -Hartree energ DENC   =    -47766.11500137
  -exchange      EXHF   =         0.00000000
  -V(xc)+E(xc)   XCENC  =      -234.30481044
  PAW double counting   =      3963.42116929    -3379.78969245
  entropy T*S    EENTRO =        -0.34656923
  eigenvalues    EBANDS =     -1505.37881623
  atomic energy  EATOM  =      6761.44252427
  Solvation  Ediel_sol  =         0.00000000
  ---------------------------------------------------
  free energy    TOTEN  =      -188.24373204 eV

  energy without entropy =     -187.89716281  energy(sigma->0) =     -188.07044742


--------------------------------------------------------------------------------------------------------




----------------------------------------- Iteration    1(  10)  ---------------------------------------


    POTLOK:  cpu time    0.0325: real time    0.0326
    SETDIJ:  cpu time    0.0026: real time    0.0026
     EDDAV:  cpu time   34.7325: real time   34.8162
       DOS:  cpu time    0.0010: real time    0.0010
    CHARGE:  cpu time    0.4993: real time    0.5004
    MIXING:  cpu time    0.0015: real time    0.0015
    --------------------------------------------
      LOOP:  cpu time   35.2703: real time   35.3634

 eigenvalue-minimisations  : 13480
 total energy-change (2. order) : 0.1330489E+01  (-0.1715819E+00)
 number of electron     159.0000092 magnetization 
 augmentation part       -4.2713347 magnetization 

 Broyden mixing:
  rms(total) = 0.19911E+00    rms(broyden)= 0.19867E+00
  rms(prec ) = 0.20612E+00
  weight for this iteration     100.00

 eigenvalues of (default mixing * dielectric matrix)
  average eigenvalue GAMMA=   0.9532
  1.8064  1.8064  0.6379  0.2210  0.2944

 Free energy of the ion-electron system (eV)
  ---------------------------------------------------
  alpha Z        PSCENC =        81.65567618
  Ewald energy   TEWEN  =     41891.17178794
  -Hartree energ DENC   =    -47780.45711889
  -exchange      EXHF   =         0.00000000
  -V(xc)+E(xc)   XCENC  =      -232.58097924
  PAW double counting   =      4105.31055028    -3523.45303953
  entropy T*S    EENTRO =        -0.35260914
  eigenvalues    EBANDS =     -1489.65003493
  atomic energy  EATOM  =      6761.44252427
  Solvation  Ediel_sol  =         0.00000000
  ---------------------------------------------------
  free energy    TOTEN  =      -186.91324307 eV

  energy without entropy =     -186.56063392  energy(sigma->0) =     -186.73693849


--------------------------------------------------------------------------------------------------------




----------------------------------------- Iteration    1(  11)  ---------------------------------------


    POTLOK:  cpu time    0.0315: real time    0.0328
    SETDIJ:  cpu time    0.0026: real time    0.0026
     EDDAV:  cpu time   34.9176: real time   35.0011
       DOS:  cpu time    0.0010: real time    0.0010
    CHARGE:  cpu time    0.4990: real time    0.5001
    MIXING:  cpu time    0.0015: real time    0.0015
    --------------------------------------------
      LOOP:  cpu time   35.4554: real time   35.5480

 eigenvalue-minimisations  : 13520
 total energy-change (2. order) :-0.9964317E-02  (-0.4057399E-01)
 number of electron     159.0000087 magnetization 
 augmentation part       -4.6295555 magnetization 

 Broyden mixing:
  rms(total) = 0.30203E+00    rms(broyden)= 0.30197E+00
  rms(prec ) = 0.33438E+00
  weight for this iteration     100.00

 eigenvalues of (default mixing * dielectric matrix)
  average eigenvalue GAMMA=   0.9390
  2.1157  1.7693  0.6155  0.6155  0.2206  0.2976

 Free energy of the ion-electron system (eV)
  ---------------------------------------------------
  alpha Z        PSCENC =        81.65567618
  Ewald energy   TEWEN  =     41891.17178794
  -Hartree energ DENC   =    -47795.11121081
  -exchange      EXHF   =         0.00000000
  -V(xc)+E(xc)   XCENC  =      -232.12030558
  PAW double counting   =      4172.47251528    -3590.72658784
  entropy T*S    EENTRO =        -0.33458088
  eigenvalues    EBANDS =     -1475.37302594
  atomic energy  EATOM  =      6761.44252427
  Solvation  Ediel_sol  =         0.00000000
  ---------------------------------------------------
  free energy    TOTEN  =      -186.92320738 eV

  energy without entropy =     -186.58862651  energy(sigma->0) =     -186.75591694


--------------------------------------------------------------------------------------------------------




----------------------------------------- Iteration    1(  12)  ---------------------------------------


    POTLOK:  cpu time    0.0329: real time    0.0332
    SETDIJ:  cpu time    0.0027: real time    0.0027
     EDDAV:  cpu time   31.5757: real time   31.6519
       DOS:  cpu time    0.0010: real time    0.0010
    CHARGE:  cpu time    0.4993: real time    0.5004
    MIXING:  cpu time    0.0015: real time    0.0015
    --------------------------------------------
      LOOP:  cpu time   32.1144: real time   32.1997

 eigenvalue-minimisations  : 12040
 total energy-change (2. order) :-0.4707867E-02  (-0.3728223E-01)
 number of electron     159.0000089 magnetization 
 augmentation part       -4.2176812 magnetization 

 Broyden mixing:
  rms(total) = 0.37956E+00    rms(broyden)= 0.37937E+00
  rms(prec ) = 0.41808E+00
  weight for this iteration     100.00

 eigenvalues of (default mixing * dielectric matrix)
  average eigenvalue GAMMA=   0.8628
  2.2688  1.6940  0.7878  0.6432  0.2207  0.2969  0.1285

 Free energy of the ion-electron system (eV)
  ---------------------------------------------------
  alpha Z        PSCENC =        81.65567618
  Ewald energy   TEWEN  =     41891.17178794
  -Hartree energ DENC   =    -47800.40412960
  -exchange      EXHF   =         0.00000000
  -V(xc)+E(xc)   XCENC  =      -231.95081502
  PAW double counting   =      4187.25461900    -3605.46021262
  entropy T*S    EENTRO =        -0.34087929
  eigenvalues    EBANDS =     -1470.29648611
  atomic energy  EATOM  =      6761.44252427
  Solvation  Ediel_sol  =         0.00000000
  ---------------------------------------------------
  free energy    TOTEN  =      -186.92791525 eV

  energy without entropy =     -186.58703596  energy(sigma->0) =     -186.75747561


--------------------------------------------------------------------------------------------------------




----------------------------------------- Iteration    1(  13)  ---------------------------------------


    POTLOK:  cpu time    0.0327: real time    0.0328
    SETDIJ:  cpu time    0.0026: real time    0.0026
     EDDAV:  cpu time   32.8779: real time   32.9565
       DOS:  cpu time    0.0010: real time    0.0010
    CHARGE:  cpu time    0.5008: real time    0.5020
    MIXING:  cpu time    0.0016: real time    0.0016
    --------------------------------------------
      LOOP:  cpu time   33.4176: real time   33.5064

 eigenvalue-minimisations  : 12600
 total energy-change (2. order) : 0.1043365E+00  (-0.2538408E-01)
 number of electron     159.0000089 magnetization 
 augmentation part       -4.1132986 magnetization 

 Broyden mixing:
  rms(total) = 0.88300E-01    rms(broyden)= 0.87879E-01
  rms(prec ) = 0.98880E-01
  weight for this iteration     100.00

 eigenvalues of (default mixing * dielectric matrix)
  average eigenvalue GAMMA=   0.8095
  2.2737  1.7175  0.8546  0.6286  0.2206  0.2976  0.3655  0.1176

 Free energy of the ion-electron system (eV)
  ---------------------------------------------------
  alpha Z        PSCENC =        81.65567618
  Ewald energy   TEWEN  =     41891.17178794
  -Hartree energ DENC   =    -47802.86860659
  -exchange      EXHF   =         0.00000000
  -V(xc)+E(xc)   XCENC  =      -231.88331024
  PAW double counting   =      4191.71147964    -3609.88647821
  entropy T*S    EENTRO =        -0.34549740
  eigenvalues    EBANDS =     -1467.82115435
  atomic energy  EATOM  =      6761.44252427
  Solvation  Ediel_sol  =         0.00000000
  ---------------------------------------------------
  free energy    TOTEN  =      -186.82357875 eV

  energy without entropy =     -186.47808136  energy(sigma->0) =     -186.65083006


--------------------------------------------------------------------------------------------------------




----------------------------------------- Iteration    1(  14)  ---------------------------------------


    POTLOK:  cpu time    0.0337: real time    0.0340
    SETDIJ:  cpu time    0.0028: real time    0.0028
     EDDAV:  cpu time   32.9828: real time   33.0623
       DOS:  cpu time    0.0011: real time    0.0011
    CHARGE:  cpu time    0.5004: real time    0.5016
    MIXING:  cpu time    0.0017: real time    0.0017
    --------------------------------------------
      LOOP:  cpu time   33.5237: real time   33.6123

 eigenvalue-minimisations  : 12680
 total energy-change (2. order) : 0.7081985E-02  (-0.1587266E-02)
 number of electron     159.0000089 magnetization 
 augmentation part       -4.1422458 magnetization 

 Broyden mixing:
  rms(total) = 0.49348E-01    rms(broyden)= 0.49303E-01
  rms(prec ) = 0.55880E-01
  weight for this iteration     100.00

 eigenvalues of (default mixing * dielectric matrix)
  average eigenvalue GAMMA=   0.8299
  2.2627  1.8757  1.1308  0.6569  0.6569  0.2969  0.2206  0.2509  0.1178

 Free energy of the ion-electron system (eV)
  ---------------------------------------------------
  alpha Z        PSCENC =        81.65567618
  Ewald energy   TEWEN  =     41891.17178794
  -Hartree energ DENC   =    -47804.83284379
  -exchange      EXHF   =         0.00000000
  -V(xc)+E(xc)   XCENC  =      -231.85731071
  PAW double counting   =      4192.46988320    -3610.61635623
  entropy T*S    EENTRO =        -0.34537068
  eigenvalues    EBANDS =     -1465.90448696
  atomic energy  EATOM  =      6761.44252427
  Solvation  Ediel_sol  =         0.00000000
  ---------------------------------------------------
  free energy    TOTEN  =      -186.81649677 eV

  energy without entropy =     -186.47112609  energy(sigma->0) =     -186.64381143


--------------------------------------------------------------------------------------------------------




----------------------------------------- Iteration    1(  15)  ---------------------------------------


    POTLOK:  cpu time    0.0328: real time    0.0329
    SETDIJ:  cpu time    0.0026: real time    0.0026
     EDDAV:  cpu time   33.6474: real time   33.7278
       DOS:  cpu time    0.0009: real time    0.0009
    CHARGE:  cpu time    0.4993: real time    0.5005
    MIXING:  cpu time    0.0019: real time    0.0019
    --------------------------------------------
      LOOP:  cpu time   34.1860: real time   34.2761

 eigenvalue-minimisations  : 12960
 total energy-change (2. order) : 0.7447313E-03  (-0.1250715E-02)
 number of electron     159.0000089 magnetization 
 augmentation part       -4.2036281 magnetization 

 Broyden mixing:
  rms(total) = 0.57795E-01    rms(broyden)= 0.57766E-01
  rms(prec ) = 0.64345E-01
  weight for this iteration     100.00

 eigenvalues of (default mixing * dielectric matrix)
  average eigenvalue GAMMA=   0.8068
  2.1820  2.1412  1.2991  0.6838  0.6838  0.2206  0.2937  0.2937  0.1175  0.1529

 Free energy of the ion-electron system (eV)
  ---------------------------------------------------
  alpha Z        PSCENC =        81.65567618
  Ewald energy   TEWEN  =     41891.17178794
  -Hartree energ DENC   =    -47809.04015957
  -exchange      EXHF   =         0.00000000
  -V(xc)+E(xc)   XCENC  =      -231.80416705
  PAW double counting   =      4193.54898249    -3611.63965428
  entropy T*S    EENTRO =        -0.34424261
  eigenvalues    EBANDS =     -1461.80649941
  atomic energy  EATOM  =      6761.44252427
  Solvation  Ediel_sol  =         0.00000000
  ---------------------------------------------------
  free energy    TOTEN  =      -186.81575204 eV

  energy without entropy =     -186.47150942  energy(sigma->0) =     -186.64363073


--------------------------------------------------------------------------------------------------------




----------------------------------------- Iteration    1(  16)  ---------------------------------------


    POTLOK:  cpu time    0.0358: real time    0.0359
    SETDIJ:  cpu time    0.0027: real time    0.0028
     EDDAV:  cpu time   33.7737: real time   33.8552
       DOS:  cpu time    0.0011: real time    0.0011
    CHARGE:  cpu time    0.5005: real time    0.5017
    MIXING:  cpu time    0.0018: real time    0.0018
    --------------------------------------------
      LOOP:  cpu time   34.3166: real time   34.4083

 eigenvalue-minimisations  : 13040
 total energy-change (2. order) : 0.2112749E-02  (-0.9657009E-03)
 number of electron     159.0000089 magnetization 
 augmentation part       -4.2203065 magnetization 

 Broyden mixing:
  rms(total) = 0.30108E-01    rms(broyden)= 0.30067E-01
  rms(prec ) = 0.34372E-01
  weight for this iteration     100.00

 eigenvalues of (default mixing * dielectric matrix)
  average eigenvalue GAMMA=   0.8486
  2.3325  2.3325  1.3569  1.0069  0.6449  0.6449  0.2971  0.2206  0.2559  0.1172
  0.1247

 Free energy of the ion-electron system (eV)
  ---------------------------------------------------
  alpha Z        PSCENC =        81.65567618
  Ewald energy   TEWEN  =     41891.17178794
  -Hartree energ DENC   =    -47811.25899166
  -exchange      EXHF   =         0.00000000
  -V(xc)+E(xc)   XCENC  =      -231.77689496
  PAW double counting   =      4194.00729022    -3612.07179598
  entropy T*S    EENTRO =        -0.34399135
  eigenvalues    EBANDS =     -1459.63924395
  atomic energy  EATOM  =      6761.44252427
  Solvation  Ediel_sol  =         0.00000000
  ---------------------------------------------------
  free energy    TOTEN  =      -186.81363929 eV

  energy without entropy =     -186.46964794  energy(sigma->0) =     -186.64164361


--------------------------------------------------------------------------------------------------------




----------------------------------------- Iteration    1(  17)  ---------------------------------------


    POTLOK:  cpu time    0.0323: real time    0.0324
    SETDIJ:  cpu time    0.0027: real time    0.0027
     EDDAV:  cpu time   32.5272: real time   32.6050
       DOS:  cpu time    0.0011: real time    0.0011
    CHARGE:  cpu time    0.4995: real time    0.5007
    MIXING:  cpu time    0.0019: real time    0.0019
    --------------------------------------------
      LOOP:  cpu time   33.0657: real time   33.1526

 eigenvalue-minimisations  : 12480
 total energy-change (2. order) : 0.1187630E-02  (-0.2467723E-03)
 number of electron     159.0000089 magnetization 
 augmentation part       -4.1942946 magnetization 

 Broyden mixing:
  rms(total) = 0.87261E-02    rms(broyden)= 0.87052E-02
  rms(prec ) = 0.11901E-01
  weight for this iteration     100.00

 eigenvalues of (default mixing * dielectric matrix)
  average eigenvalue GAMMA=   0.8368
  2.3657  2.3657  1.3542  1.1297  0.6651  0.6651  0.4826  0.2970  0.2206  0.2539
  0.1172  0.1243

 Free energy of the ion-electron system (eV)
  ---------------------------------------------------
  alpha Z        PSCENC =        81.65567618
  Ewald energy   TEWEN  =     41891.17178794
  -Hartree energ DENC   =    -47815.66016184
  -exchange      EXHF   =         0.00000000
  -V(xc)+E(xc)   XCENC  =      -231.72733824
  PAW double counting   =      4194.43862422    -3612.46255038
  entropy T*S    EENTRO =        -0.34443579
  eigenvalues    EBANDS =     -1455.32657802
  atomic energy  EATOM  =      6761.44252427
  Solvation  Ediel_sol  =         0.00000000
  ---------------------------------------------------
  free energy    TOTEN  =      -186.81245166 eV

  energy without entropy =     -186.46801587  energy(sigma->0) =     -186.64023377


--------------------------------------------------------------------------------------------------------




----------------------------------------- Iteration    1(  18)  ---------------------------------------


    POTLOK:  cpu time    0.0328: real time    0.0329
    SETDIJ:  cpu time    0.0026: real time    0.0026
     EDDAV:  cpu time   29.0071: real time   29.0770
       DOS:  cpu time    0.0010: real time    0.0010
    --------------------------------------------
      LOOP:  cpu time   29.0444: real time   29.1225

 eigenvalue-minimisations  : 10880
 total energy-change (2. order) : 0.2765920E-04  (-0.6453481E-04)
 number of electron     159.0000089 magnetization 
 augmentation part       -4.1942946 magnetization 

 Free energy of the ion-electron system (eV)
  ---------------------------------------------------
  alpha Z        PSCENC =        81.65567618
  Ewald energy   TEWEN  =     41891.17178794
  -Hartree energ DENC   =    -47817.82639767
  -exchange      EXHF   =         0.00000000
  -V(xc)+E(xc)   XCENC  =      -231.70636595
  PAW double counting   =      4194.28523956    -3612.30029279
  entropy T*S    EENTRO =        -0.34446235
  eigenvalues    EBANDS =     -1453.19013319
  atomic energy  EATOM  =      6761.44252427
  Solvation  Ediel_sol  =         0.00000000
  ---------------------------------------------------
  free energy    TOTEN  =      -186.81242400 eV

  energy without entropy =     -186.46796165  energy(sigma->0) =     -186.64019282


--------------------------------------------------------------------------------------------------------




 average (electrostatic) potential at core
  the test charge radii are     1.2064  1.2296  1.1823  0.9698
  (the norm of the test charge is              1.0000)
       1 -50.0872       2 -50.0870       3 -50.0901       4 -47.5679       5 -47.5712
       6 -47.5677       7 -49.9840       8 -50.0009       9 -50.0013      10 -95.2484
      11 -95.3172      12 -95.2520      13 -95.0536      14 -95.5663      15 -95.3131
      16 -95.2455      17 -95.3825      18 -94.9007      19 -95.0574      20 -95.2511
      21 -95.0522      22 -95.2892      23 -95.3814      24 -95.2450      25 -95.3822
      26 -95.2468      27 -95.3159
 
 
 
 E-fermi :  -3.4240     XC(G=0):  -2.4981     alpha+bet : -2.1596


 k-point     1 :       0.0000    0.0000    0.0000
  band No.  band energies     occupation 
      1     -18.3536      2.00000
      2     -17.1887      2.00000
      3     -17.1753      2.00000
      4     -17.1518      2.00000
      5     -16.9515      2.00000
      6     -16.9201      2.00000
      7     -16.9065      2.00000
      8     -16.5847      2.00000
      9     -16.4525      2.00000
     10     -16.4514      2.00000
     11     -16.4177      2.00000
     12     -16.4135      2.00000
     13     -16.4122      2.00000
     14     -16.3528      2.00000
     15     -16.2396      2.00000
     16     -16.0055      2.00000
     17     -16.0044      2.00000
     18     -15.7740      2.00000
     19      -9.7115      2.00000
     20      -9.5568      2.00000
     21      -9.5438      2.00000
     22      -9.3412      2.00000
     23      -9.2795      2.00000
     24      -9.2723      2.00000
     25      -9.2287      2.00000
     26      -8.9483      2.00000
     27      -8.8888      2.00000
     28      -8.8761      2.00000
     29      -8.7466      2.00000
     30      -8.7457      2.00000
     31      -8.6956      2.00000
     32      -8.4413      2.00000
     33      -8.4363      2.00000
     34      -8.4094      2.00000
     35      -8.2900      2.00000
     36      -8.2867      2.00000
     37      -8.2775      2.00000
     38      -8.2689      2.00000
     39      -8.2093      2.00000
     40      -8.0402      2.00000
     41      -7.9505      2.00000
     42      -7.9392      2.00000
     43      -7.9245      2.00000
     44      -7.6422      2.00000
     45      -7.6263      2.00000
     46      -7.4891      2.00000
     47      -7.4837      2.00000
     48      -7.3795      2.00000
     49      -7.3127      2.00000
     50      -7.1381      2.00000
     51      -7.1273      2.00000
     52      -6.7146      2.00000
     53      -6.6679      2.00000
     54      -6.6439      2.00000
     55      -6.5787      2.00000
     56      -6.5754      2.00000
     57      -6.5505      2.00000
     58      -5.8390      2.00000
     59      -5.8042      2.00000
     60      -5.7588      2.00000
     61      -5.6673      2.00000
     62      -5.6205      2.00000
     63      -5.6184      2.00000
     64      -5.5343      2.00000
     65      -5.4462      2.00000
     66      -5.4453      2.00000
     67      -5.4028      2.00000
     68      -5.3369      2.00000
     69      -5.3366      2.00000
     70      -5.2016      2.00000
     71      -4.4132      2.00000
     72      -4.4015      2.00000
     73      -4.3412      2.00000
     74      -4.1862      2.00000
     75      -4.1802      2.00000
     76      -3.9997      1.99995
     77      -3.9997      1.99995
     78      -3.9766      1.99991
     79      -3.9521      1.99981
     80      -3.9313      1.99967
     81      -3.3360      0.53416
     82      -3.3349      0.52873
     83      -2.8994      0.00021
     84      -2.7987      0.00001
     85      -2.7589      0.00000
     86      -2.7533      0.00000
     87      -2.6101      0.00000
     88      -2.6094      0.00000
     89      -2.5998      0.00000
     90      -2.4824      0.00000
     91      -2.4092      0.00000
     92      -2.4044      0.00000
     93      -2.2443      0.00000
     94      -2.1905      0.00000
     95      -2.1893      0.00000
     96      -2.1748      0.00000
     97      -1.9629      0.00000
     98      -1.9428      0.00000
     99      -1.9339      0.00000
    100      -0.7662      0.00000
    101      -0.7293      0.00000
    102      -0.7110      0.00000
    103      -0.6491      0.00000
    104      -0.4269      0.00000
    105      -0.3870      0.00000
    106       0.2547      0.00000
    107       0.2597      0.00000
    108       0.3198      0.00000
    109       0.3642      0.00000
    110       0.5459      0.00000
    111       0.5924      0.00000
    112       0.7113      0.00000
    113       0.8421      0.00000
    114       0.8567      0.00000
    115       0.9529      0.00000
    116       1.0107      0.00000
    117       1.0359      0.00000
    118       1.2830      0.00000
    119       1.3545      0.00000
    120       1.9166      0.00000

 k-point     2 :       0.1250    0.0000    0.0000
  band No.  band energies     occupation 
      1     -18.3321      2.00000
      2     -17.3453      2.00000
      3     -17.1821      2.00000
      4     -17.0929      2.00000
      5     -16.9397      2.00000
      6     -16.8910      2.00000
      7     -16.8743      2.00000
      8     -16.5840      2.00000
      9     -16.4871      2.00000
     10     -16.4633      2.00000
     11     -16.4190      2.00000
     12     -16.4065      2.00000
     13     -16.3693      2.00000
     14     -16.3175      2.00000
     15     -16.2443      2.00000
     16     -16.0113      2.00000
     17     -16.0078      2.00000
     18     -15.7786      2.00000
     19      -9.7862      2.00000
     20      -9.6533      2.00000
     21      -9.5862      2.00000
     22      -9.3718      2.00000
     23      -9.2797      2.00000
     24      -9.2408      2.00000
     25      -9.1639      2.00000
     26      -9.0259      2.00000
     27      -8.9408      2.00000
     28      -8.8936      2.00000
     29      -8.7352      2.00000
     30      -8.6367      2.00000
     31      -8.6023      2.00000
     32      -8.4533      2.00000
     33      -8.4157      2.00000
     34      -8.3827      2.00000
     35      -8.3285      2.00000
     36      -8.2817      2.00000
     37      -8.2576      2.00000
     38      -8.2528      2.00000
     39      -8.1871      2.00000
     40      -8.0359      2.00000
     41      -7.9144      2.00000
     42      -7.8651      2.00000
     43      -7.8350      2.00000
     44      -7.6651      2.00000
     45      -7.6196      2.00000
     46      -7.4721      2.00000
     47      -7.4619      2.00000
     48      -7.3453      2.00000
     49      -7.3340      2.00000
     50      -7.1471      2.00000
     51      -7.1295      2.00000
     52      -6.7974      2.00000
     53      -6.7366      2.00000
     54      -6.6895      2.00000
     55      -6.6059      2.00000
     56      -6.4471      2.00000
     57      -6.4156      2.00000
     58      -5.9423      2.00000
     59      -5.9161      2.00000
     60      -5.8341      2.00000
     61      -5.7661      2.00000
     62      -5.6746      2.00000
     63      -5.6707      2.00000
     64      -5.6126      2.00000
     65      -5.5263      2.00000
     66      -5.5169      2.00000
     67      -5.3512      2.00000
     68      -5.2249      2.00000
     69      -5.2052      2.00000
     70      -5.0483      2.00000
     71      -4.5715      2.00000
     72      -4.4892      2.00000
     73      -4.3094      2.00000
     74      -4.1984      2.00000
     75      -4.1620      2.00000
     76      -4.0437      1.99999
     77      -3.9802      1.99992
     78      -3.9394      1.99973
[...]
    104      -0.5734      0.00000
    105      -0.5060      0.00000
    106      -0.4654      0.00000
    107      -0.2865      0.00000
    108      -0.2626      0.00000
    109      -0.0530      0.00000
    110       0.1615      0.00000
    111       0.5454      0.00000
    112       0.6701      0.00000
    113       0.9113      0.00000
    114       0.9710      0.00000
    115       1.0698      0.00000
    116       1.1896      0.00000
    117       1.3668      0.00000
    118       2.1293      0.00000
    119       2.2806      0.00000
    120       2.3903      0.00000

 k-point    34 :       0.5000    0.5000    0.0000
  band No.  band energies     occupation 
      1     -17.4318      2.00000
      2     -17.3370      2.00000
      3     -16.7278      2.00000
      4     -16.6941      2.00000
      5     -16.5216      2.00000
      6     -16.3475      2.00000
      7     -16.2431      2.00000
      8     -16.1973      2.00000
      9     -16.0325      2.00000
     10     -16.0054      2.00000
     11     -15.9156      2.00000
     12     -15.9054      2.00000
     13     -15.7796      2.00000
     14     -15.7308      2.00000
     15     -15.6024      2.00000
     16     -15.5905      2.00000
     17     -15.5106      2.00000
     18     -15.4826      2.00000
     19      -9.7605      2.00000
     20      -9.2859      2.00000
     21      -9.1401      2.00000
     22      -9.0455      2.00000
     23      -8.8980      2.00000
     24      -8.7759      2.00000
     25      -8.5585      2.00000
     26      -8.5308      2.00000
     27      -8.4015      2.00000
     28      -8.3159      2.00000
     29      -8.2821      2.00000
     30      -8.1810      2.00000
     31      -8.0921      2.00000
     32      -8.0166      2.00000
     33      -7.8886      2.00000
     34      -7.8663      2.00000
     35      -7.7527      2.00000
     36      -7.6192      2.00000
     37      -7.4808      2.00000
     38      -7.4330      2.00000
     39      -7.4294      2.00000
     40      -7.1967      2.00000
     41      -7.1330      2.00000
     42      -7.0826      2.00000
     43      -6.9900      2.00000
     44      -6.9327      2.00000
     45      -6.7641      2.00000
     46      -6.7196      2.00000
     47      -6.6989      2.00000
     48      -6.6236      2.00000
     49      -6.5245      2.00000
     50      -6.4235      2.00000
     51      -6.3839      2.00000
     52      -6.3648      2.00000
     53      -6.3364      2.00000
     54      -6.2693      2.00000
     55      -6.1786      2.00000
     56      -6.0368      2.00000
     57      -6.0337      2.00000
     58      -6.0175      2.00000
     59      -5.9462      2.00000
     60      -5.8758      2.00000
     61      -5.7727      2.00000
     62      -5.6844      2.00000
     63      -5.6386      2.00000
     64      -5.4897      2.00000
     65      -5.3280      2.00000
     66      -5.0809      2.00000
     67      -4.9909      2.00000
     68      -4.9683      2.00000
     69      -4.8145      2.00000
     70      -4.6853      2.00000
     71      -4.6450      2.00000
     72      -4.4089      2.00000
     73      -4.3838      2.00000
     74      -4.2871      2.00000
     75      -4.2853      2.00000
     76      -4.1029      2.00000
     77      -3.6687      1.99987
     78      -3.5298      1.99545
     79      -3.2694      1.68065
     80      -3.0949      0.81225
     81      -2.8768      0.07504
     82      -2.7791      0.01348
     83      -2.7563      0.00849
     84      -2.6946      0.00215
     85      -2.6314      0.00044
     86      -2.5521      0.00005
     87      -2.3937      0.00000
     88      -2.0913      0.00000
     89      -1.9733      0.00000
     90      -1.9587      0.00000
     91      -1.8142      0.00000
     92      -1.7471      0.00000
     93      -1.5989      0.00000
     94      -1.4926      0.00000
     95      -1.1921      0.00000
     96      -1.1251      0.00000
     97      -1.0399      0.00000
     98      -0.9375      0.00000
     99      -0.9366      0.00000
    100      -0.7709      0.00000
    101      -0.7646      0.00000
    102      -0.7503      0.00000
    103      -0.6519      0.00000
    104      -0.5772      0.00000
    105      -0.5652      0.00000
    106      -0.5090      0.00000
    107      -0.2537      0.00000
    108      -0.2024      0.00000
    109      -0.0900      0.00000
    110       0.2835      0.00000
    111       0.4184      0.00000
    112       0.6595      0.00000
    113       0.9218      0.00000
    114       0.9932      0.00000
    115       1.0767      0.00000
    116       1.2078      0.00000
    117       1.3950      0.00000
    118       2.2100      0.00000
    119       2.2411      0.00000
    120       2.3583      0.00000


--------------------------------------------------------------------------------------------------------


 soft charge-density along one line, spin component           1
         0         1         2         3         4         5         6         7         8         9
 total charge-density along one line
 
 pseudopotential strength for first ion, spin component:           1
 -7.291   0.009  -0.016   0.034   0.001   0.695  -0.004   0.005
  0.009  -7.213   0.021   0.009  -0.034  -0.004   0.672  -0.006
 -0.016   0.021  -7.188   0.012   0.010   0.005  -0.006   0.666
  0.034   0.009   0.012  -7.226   0.030  -0.010  -0.003  -0.004
  0.001  -0.034   0.010   0.030  -7.289  -0.000   0.010  -0.003
  0.695  -0.004   0.005  -0.010  -0.000   0.327   0.002  -0.002
 -0.004   0.672  -0.006  -0.003   0.010   0.002   0.334   0.002
  0.005  -0.006   0.666  -0.004  -0.003  -0.002   0.002   0.334
 -0.010  -0.003  -0.004   0.675  -0.008   0.003   0.001   0.001
 -0.000   0.010  -0.003  -0.008   0.695   0.000  -0.003   0.001
 -0.004  -0.012  -0.016  -0.007   0.003   0.001   0.003   0.003
 -0.001  -0.004  -0.006  -0.002   0.001   0.000   0.001   0.001
  0.002   0.003   0.000   0.000  -0.000  -0.000  -0.000  -0.000
  0.000   0.000   0.000   0.000  -0.000   0.000   0.001   0.000
  0.000   0.000  -0.000   0.003  -0.002   0.001   0.000  -0.000
  0.003   0.001  -0.000   0.000  -0.001  -0.001   0.000   0.000
  0.000   0.001  -0.002   0.001  -0.000  -0.000  -0.000   0.001
  0.001   0.000  -0.000   0.001  -0.002  -0.000  -0.000   0.000
 total augmentation occupancy for first ion, spin component:           1
  0.802   0.174  -0.053   0.038   0.024   0.411   0.261  -0.015   0.014   0.004   0.000   0.004   0.053  -0.001  -0.011   0.000
  0.174   1.086   0.038  -0.016  -0.039   0.260   0.625  -0.002   0.015  -0.016   0.024   0.004   0.047  -0.001   0.001   0.002
 -0.053   0.038   0.720   0.022   0.032  -0.013  -0.005   0.263  -0.003   0.007   0.167  -0.001   0.005  -0.020   0.001   0.000
  0.038  -0.016   0.022   1.105  -0.131   0.016   0.015  -0.001   0.608  -0.242   0.014   0.002   0.000  -0.003   0.050   0.000
  0.024  -0.039   0.032  -0.131   0.826   0.004  -0.014   0.009  -0.245   0.416  -0.000  -0.002   0.010   0.002  -0.064   0.001
  0.411   0.260  -0.013   0.016   0.004   0.378   0.236  -0.006   0.014  -0.002   0.030   0.003   0.024   0.008   0.004   0.002
  0.261   0.625  -0.005   0.015  -0.014   0.236   0.561  -0.006   0.014  -0.014   0.012   0.005   0.053   0.004   0.008   0.004
 -0.015  -0.002   0.263  -0.001   0.009  -0.006  -0.006   0.238  -0.003   0.004   0.005   0.003  -0.002  -0.007  -0.001   0.000
  0.014   0.015  -0.003   0.608  -0.245   0.014   0.014  -0.003   0.546  -0.220   0.007   0.003   0.008   0.000   0.047   0.000
  0.004  -0.016   0.007  -0.242   0.416  -0.002  -0.014   0.004  -0.220   0.376  -0.017  -0.002  -0.004  -0.003  -0.021   0.000
  0.000   0.024   0.167   0.014  -0.000   0.030   0.012   0.005   0.007  -0.017   1.380   0.130  -0.007   0.072  -0.006  -0.000
  0.004   0.004  -0.001   0.002  -0.002   0.003   0.005   0.003   0.003  -0.002   0.130   0.025   0.001   0.004   0.000   0.000
  0.053   0.047   0.005   0.000   0.010   0.024   0.053  -0.002   0.008  -0.004  -0.007   0.001   0.351   0.014   0.004   0.026
 -0.001  -0.001  -0.020  -0.003   0.002   0.008   0.004  -0.007   0.000  -0.003   0.072   0.004   0.014   0.403   0.008   0.001
 -0.011   0.001   0.001   0.050  -0.064   0.004   0.008  -0.001   0.047  -0.021  -0.006   0.000   0.004   0.008   0.347   0.001
  0.000   0.002   0.000   0.000   0.001   0.002   0.004   0.000   0.000   0.000  -0.000   0.000   0.026   0.001   0.001   0.003
  0.000  -0.001  -0.000  -0.001  -0.000   0.000  -0.000  -0.001  -0.000  -0.000   0.003   0.001   0.001   0.028   0.000   0.000
 -0.001   0.000   0.000   0.002  -0.001  -0.000   0.000   0.000   0.004  -0.003  -0.000  -0.000   0.001   0.000   0.026   0.000


------------------------ aborting loop because EDIFF is reached ----------------------------------------


    CHARGE:  cpu time    0.4632: real time    0.4643
    FORLOC:  cpu time    0.0091: real time    0.0092
    FORNL :  cpu time    6.8061: real time    6.8223
    STRESS:  cpu time   33.4684: real time   33.5484
    FORCOR:  cpu time    0.0388: real time    0.0393
    FORHAR:  cpu time    0.0151: real time    0.0152
    MIXING:  cpu time    0.0014: real time    0.0014
    OFIELD:  cpu time    0.0000: real time    0.0000

  FORCE on cell =-STRESS in cart. coord.  units (eV):
  Direction    XX          YY          ZZ          XY          YZ          ZX
  --------------------------------------------------------------------------------------
  Alpha Z    88.19449    88.19449    88.19449
  Ewald   48748.79189 48749.06243-53686.15877     0.04696     0.06097    -0.09943
  Hartree 49463.59873 49463.88968-49110.27143     0.05225     0.00454    -0.03158
  E(xc)    -609.96545  -609.97575  -617.04087    -0.00101    -0.00165     0.00473
  Local  ************************100238.29290    -0.10054    -0.06248     0.15215
  n-local  1214.99632  1214.87546  1250.45188     0.00136     0.00717    -0.00036
  augment  -212.46008  -212.40457  -215.26043     0.00204     0.00064    -0.00459
  Kinetic  2012.86518  2013.00931  2049.70714     0.00141    -0.00175    -0.03908
  Fock        0.00000     0.00000     0.00000     0.00000     0.00000     0.00000
  -------------------------------------------------------------------------------------
  Total       0.20869     0.22648    -2.08508     0.00247     0.00743    -0.01815
  in kB       0.13774     0.14948    -1.37622     0.00163     0.00490    -0.01198
  external pressure =       -0.36 kB  Pullay stress =        0.00 kB


 VOLUME and BASIS-vectors are now :
 -----------------------------------------------------------------------------
  energy-cutoff  :      280.00
  volume of cell :     2427.42
      direct lattice vectors                 reciprocal lattice vectors
     8.370403574  4.833140464  0.000000000     0.059735567  0.103450169  0.000000000
    -8.370583633  4.833453229  0.000000000    -0.059731701  0.103447944  0.000000000
     0.000000000  0.000000000 30.000000000     0.000000000  0.000000000  0.033333333

  length of vectors
     9.665552376  9.665864704 30.000000000     0.119458258  0.119454398  0.033333333


 FORCES acting on ions
    electron-ion (+dipol)            ewald-force                    non-local-force                 convergence-correction
 -----------------------------------------------------------------------------------------------
   -.589E+00 -.228E+00 -.930E+01   0.322E+00 -.265E+00 0.964E+01   0.237E+00 0.484E+00 -.341E+00   0.817E-03 0.388E-02 -.251E-02
   -.557E+00 0.177E+00 -.928E+01   0.292E+00 0.276E+00 0.962E+01   0.241E+00 -.486E+00 -.339E+00   -.221E-02 0.328E-01 -.776E-03
   0.475E+00 0.125E-01 -.896E+01   0.303E-01 -.303E-01 0.930E+01   -.532E+00 0.256E-02 -.337E+00   0.426E-01 0.156E-01 -.107E-02
   -.161E+02 -.279E+02 0.133E+01   0.158E+02 0.274E+02 -.151E+01   0.293E+00 0.495E+00 0.166E+00   -.180E-01 -.553E-01 0.584E-02
   0.325E+02 -.223E-01 0.120E+01   -.319E+02 -.928E-03 -.137E+01   -.548E+00 -.162E-02 0.164E+00   0.181E-01 0.227E-01 0.370E-02
   -.161E+02 0.279E+02 0.134E+01   0.158E+02 -.274E+02 -.152E+01   0.292E+00 -.496E+00 0.169E+00   0.177E-01 0.395E-01 0.403E-02
   -.347E+02 0.379E-01 0.844E+01   0.353E+02 0.875E-02 -.881E+01   -.496E+00 0.349E-02 0.364E+00   -.538E-01 -.446E-01 0.158E-02
   0.175E+02 -.300E+02 0.846E+01   -.177E+02 0.305E+02 -.883E+01   0.252E+00 -.423E+00 0.364E+00   -.249E-01 -.746E-01 0.128E-02
   0.175E+02 0.300E+02 0.847E+01   -.177E+02 -.305E+02 -.884E+01   0.249E+00 0.425E+00 0.366E+00   0.146E-01 0.544E-01 0.525E-04
   -.186E+02 -.175E+02 0.571E+03   0.194E+02 0.171E+02 -.575E+03   -.802E+00 0.407E+00 0.376E+01   -.422E-01 -.116E-01 -.188E-02
   -.775E+01 0.131E+02 -.529E+03   0.723E+01 -.122E+02 0.534E+03   0.527E+00 -.913E+00 -.447E+01   -.164E-01 0.478E-02 0.302E-01
   -.586E+01 -.248E+02 0.571E+03   0.507E+01 0.253E+02 -.575E+03   0.765E+00 -.474E+00 0.376E+01   0.144E-01 -.602E-01 -.217E-01
   -.414E+01 -.731E+01 -.532E+03   0.453E+01 0.801E+01 0.536E+03   -.401E+00 -.662E+00 -.341E+01   0.304E-02 -.413E-01 0.179E-01
   0.272E-03 0.409E-01 0.463E+03   0.240E-01 -.182E-01 -.468E+03   0.297E-02 -.523E-03 0.511E+01   -.269E-01 -.226E-01 -.299E-01
   0.153E+02 0.258E-01 -.529E+03   -.143E+02 -.207E-01 0.534E+03   -.104E+01 -.128E-03 -.448E+01   -.103E-01 -.508E-02 0.496E-01
   0.247E+02 0.711E+01 0.570E+03   -.247E+02 -.807E+01 -.574E+03   0.234E-01 0.908E+00 0.376E+01   0.877E-02 0.569E-01 -.766E-02
   0.963E+01 0.165E+02 -.621E+03   -.102E+02 -.175E+02 0.624E+03   0.571E+00 0.960E+00 -.355E+01   0.306E-01 0.584E-01 -.132E-01
   -.375E+00 -.705E-01 0.521E+03   0.307E+00 0.623E-02 -.525E+03   0.595E-02 -.204E-02 0.404E+01   0.604E-01 0.660E-01 0.114E-01
   0.838E+01 -.984E-01 -.531E+03   -.913E+01 0.272E-01 0.535E+03   0.759E+00 -.953E-03 -.344E+01   0.698E-03 0.719E-01 -.419E-01
   -.589E+01 0.248E+02 0.571E+03   0.508E+01 -.253E+02 -.575E+03   0.765E+00 0.476E+00 0.376E+01   0.369E-01 0.577E-01 -.226E-01
   -.425E+01 0.728E+01 -.532E+03   0.457E+01 -.799E+01 0.536E+03   -.403E+00 0.664E+00 -.341E+01   0.776E-01 0.564E-01 -.287E-01
   0.255E-01 -.197E-03 0.634E+03   -.444E-01 -.804E-03 -.638E+03   0.183E-01 -.210E-02 0.347E+01   0.539E-02 0.280E-02 0.582E-01
   -.190E+02 0.990E-02 -.621E+03   0.202E+02 0.342E-02 0.624E+03   -.112E+01 -.119E-02 -.355E+01   -.442E-01 -.124E-01 -.311E-01
   0.248E+02 -.714E+01 0.570E+03   -.247E+02 0.808E+01 -.574E+03   0.199E-01 -.910E+00 0.376E+01   -.499E-01 -.337E-01 0.428E-01
   0.965E+01 -.165E+02 -.621E+03   -.102E+02 0.175E+02 0.624E+03   0.570E+00 -.960E+00 -.355E+01   0.136E-01 -.536E-01 -.229E-01
   -.187E+02 0.176E+02 0.571E+03   0.195E+02 -.171E+02 -.575E+03   -.804E+00 -.410E+00 0.376E+01   -.183E-02 -.485E-01 0.483E-01
   -.772E+01 -.130E+02 -.529E+03   0.724E+01 0.122E+02 0.534E+03   0.527E+00 0.914E+00 -.447E+01   -.524E-01 -.768E-01 -.248E-01
 -----------------------------------------------------------------------------------------------
   0.323E-01 -.575E-03 -.144E+01   -.284E-13 -.320E-13 0.000E+00   -.361E-01 -.350E-02 0.141E+01   0.222E-02 0.322E-02 0.243E-01
 
 
 POSITION                                       TOTAL-FORCE (eV/Angst)
 -----------------------------------------------------------------------------------
      0.01148      6.47203      0.05008        -0.028820     -0.004398     -0.000257
      0.01203      3.19293      0.05002        -0.026742      0.000218      0.000861
     -2.82041      4.83309      0.04871         0.016138      0.000346     -0.004429
      5.48634      6.28061     -0.00947         0.005358      0.005724     -0.007235
      2.98132      4.83261     -0.00905         0.011579     -0.002030     -0.002935
      5.48646      3.38430     -0.00951         0.003118     -0.006484     -0.004848
     -0.32571     -0.00058     -0.02986         0.013008      0.005505     -0.002820
     -5.41725      2.93958     -0.03011        -0.000544      0.013642     -0.004244
      2.95316      1.89243     -0.03015        -0.004716     -0.009898     -0.002505
     -0.95475      1.65484     28.44783         0.000214     -0.006096      0.010595
      0.93077      1.60870      1.43067        -0.007548      0.011444     -0.003646
     -3.66905      3.22221     28.44868        -0.002354     -0.004645      0.015228
     -1.85544      3.23091      1.42476        -0.005459     -0.003996     -0.009495
     -6.51040      4.83277     28.77672         0.000420     -0.000419      0.012609
     -4.65166      4.83278      1.43068         0.014223     -0.000078     -0.003631
      1.83452      3.26583     28.44989         0.005209      0.003100      0.017813
      3.74013      3.25576      1.68916         0.001860      0.000896     -0.000443
     -0.93020      4.83258     28.59348        -0.001065     -0.000362     -0.004373
      0.92016      4.83250      1.42184         0.010323     -0.000259     -0.027719
     -3.66931      6.44326     28.44865        -0.001141      0.004076      0.012680
     -1.85565      6.43451      1.42523        -0.005971      0.004927     -0.007062
      4.65087      4.83254     28.27514         0.004775     -0.000268     -0.009270
      6.47039      4.83255      1.68901        -0.001229     -0.000224      0.001887
      1.83457      6.39944     28.45007         0.005240     -0.003904      0.016732
      3.74010      6.40943      1.68911         0.001595     -0.000727      0.001325
     -0.95484      8.01078     28.44805        -0.000786      0.004254      0.007032
      0.93062      8.05659      1.43037        -0.006685     -0.010345     -0.001852
 -----------------------------------------------------------------------------------
    total drift:                               -0.001607     -0.000863      0.002475


--------------------------------------------------------------------------------------------------------



  FREE ENERGIE OF THE ION-ELECTRON SYSTEM (eV)
  ---------------------------------------------------
  free  energy   TOTEN  =      -192.21133334 eV

  energy  without entropy=     -191.99855120  energy(sigma->0) =     -192.10494227
 
 d Force = 0.7907299E-03[ 0.357E-03, 0.122E-02]  d Energy = 0.9317485E-03-0.141E-03
 d Force =-0.1838143E+02[-0.184E+02,-0.184E+02]  d Ewald  = 0.2633909E+02-0.447E+02


--------------------------------------------------------------------------------------------------------


    POTLOK:  cpu time    0.0363: real time    0.0364


--------------------------------------------------------------------------------------------------------


 Quasi-Newton relaxation of ions (Broydens 2nd method)
  g(Force)  = 0.292E-03   g(Stress)= 0.169E-03

 retain information from N=  1 steps
 eigenvalues of (default step * inverse Hessian matrix)
  average eigenvalue of G=   2.4240
 eigenvalue spectrum of G is  2.4240


--------------------------------------------------------------------------------------------------------


  
 reached required accuracy - stopping structural energy minimisation
     LOOP+:  cpu time  196.4485: real time  196.9387
    4ORBIT:  cpu time    0.0000: real time    0.0000

 total amount of memory used by VASP on root node   650782. kBytes
========================================================================

   base      :      30000. kBytes
   nonl-proj :     559647. kBytes
   fftplans  :       2414. kBytes
   grid      :      12150. kBytes
   one-center:        419. kBytes
   wavefun   :      46152. kBytes
 
  
  
 General timing and accounting informations for this job:
 ========================================================
  
                  Total CPU time used (sec):     4380.950
                            User time (sec):     4341.934
                          System time (sec):       39.016
                         Elapsed time (sec):     4392.787
  
                   Maximum memory used (kb):      738828.
                   Average memory used (kb):           0.
  
                          Minor page faults:       475446
                          Major page faults:            1
                 Voluntary context switches:         3690
