<?xml version="1.0" encoding="ISO-8859-1"?>
<modeling>
 <generator>
  <i name="program" type="string">vasp </i>
  <i name="version" type="string">5.4.1  </i>
  <i name="subversion" type="string">05Feb16 (build Jul 05 2020 17:13:04) complex                          parallel </i>
  <i name="platform" type="string">IFC91_ompi </i>
  <i name="date" type="string">2024 04 23 </i>
  <i name="time" type="string">19:32:43 </i>
 </generator>
 <incar>
  <i type="int" name="ISTART">     0</i>
  <i type="string" name="PREC">normal</i>
  <i type="string" name="ALGO"> Normal</i>
  <i type="int" name="ISPIN">     1</i>
  <i type="int" name="ICHARG">     2</i>
  <i type="int" name="IBRION">     1</i>
  <i type="int" name="NSW">   100</i>
  <i type="int" name="ISIF">     3</i>
  <i type="int" name="ISYM">     0</i>
  <i name="SYMPREC">      0.00000001</i>
  <i name="POTIM">      0.50000000</i>
  <i type="logical" name="LREAL"> F  </i>
  <i type="logical" name="LPLANE"> F  </i>
  <i type="int" name="ISMEAR">     0</i>
  <i type="logical" name="LWAVE"> F  </i>
  <i type="logical" name="LCHARG"> F  </i>
  <v type="int" name="KPOINT_BSE">    -1     0     0     0</v>
 </incar>
 <kpoints>
  <generation param="Gamma">
   <v type="int" name="divisions">       8        8        1 </v>
   <v name="usershift">      0.00000000       0.00000000       0.00000000 </v>
   <v name="genvec1">      0.12500000       0.00000000       0.00000000 </v>
   <v name="genvec2">     -0.00000000       0.12500000       0.00000000 </v>
   <v name="genvec3">      0.00000000       0.00000000       1.00000000 </v>
   <v name="shift">      0.00000000       0.00000000       0.00000000 </v>
  </generation>
  <varray name="kpointlist" >
   <v>       0.00000000       0.00000000       0.00000000 </v>
   <v>       0.12500000       0.00000000       0.00000000 </v>
   <v>       0.25000000       0.00000000       0.00000000 </v>
   <v>       0.37500000       0.00000000       0.00000000 </v>
   <v>       0.50000000       0.00000000       0.00000000 </v>
   <v>       0.00000000       0.12500000       0.00000000 </v>
   <v>       0.12500000       0.12500000       0.00000000 </v>
   <v>       0.25000000       0.12500000       0.00000000 </v>
   <v>       0.37500000       0.12500000       0.00000000 </v>
   <v>       0.50000000       0.12500000       0.00000000 </v>
   <v>      -0.37500000       0.12500000       0.00000000 </v>
   <v>      -0.25000000       0.12500000       0.00000000 </v>
   <v>      -0.12500000       0.12500000       0.00000000 </v>
   <v>       0.00000000       0.25000000       0.00000000 </v>
   <v>       0.12500000       0.25000000       0.00000000 </v>
   <v>       0.25000000       0.25000000       0.00000000 </v>
   <v>       0.37500000       0.25000000       0.00000000 </v>
   <v>       0.50000000       0.25000000       0.00000000 </v>
   <v>      -0.37500000       0.25000000       0.00000000 </v>
   <v>      -0.25000000       0.25000000       0.00000000 </v>
   <v>      -0.12500000       0.25000000       0.00000000 </v>
   <v>      -0.00000000       0.37500000       0.00000000 </v>
   <v>       0.12500000       0.37500000       0.00000000 </v>
   <v>       0.25000000       0.37500000       0.00000000 </v>
   <v>       0.37500000       0.37500000       0.00000000 </v>
   <v>       0.50000000       0.37500000       0.00000000 </v>
   <v>      -0.37500000       0.37500000       0.00000000 </v>
   <v>      -0.25000000       0.37500000       0.00000000 </v>
   <v>      -0.12500000       0.37500000       0.00000000 </v>
   <v>       0.00000000       0.50000000       0.00000000 </v>
   <v>       0.12500000       0.50000000       0.00000000 </v>
   <v>       0.25000000       0.50000000       0.00000000 </v>
   <v>       0.37500000       0.50000000       0.00000000 </v>
   <v>       0.50000000       0.50000000       0.00000000 </v>
  </varray>
  <varray name="weights" >
   <v>       0.01562500 </v>
   <v>       0.03125000 </v>
   <v>       0.03125000 </v>
   <v>       0.03125000 </v>
   <v>       0.01562500 </v>
   <v>       0.03125000 </v>
   <v>       0.03125000 </v>
   <v>       0.03125000 </v>
   <v>       0.03125000 </v>
   <v>       0.03125000 </v>
   <v>       0.03125000 </v>
   <v>       0.03125000 </v>
   <v>       0.03125000 </v>
   <v>       0.03125000 </v>
   <v>       0.03125000 </v>
   <v>       0.03125000 </v>
   <v>       0.03125000 </v>
   <v>       0.03125000 </v>
   <v>       0.03125000 </v>
   <v>       0.03125000 </v>
   <v>       0.03125000 </v>
   <v>       0.03125000 </v>
   <v>       0.03125000 </v>
   <v>       0.03125000 </v>
   <v>       0.03125000 </v>
   <v>       0.03125000 </v>
   <v>       0.03125000 </v>
   <v>       0.03125000 </v>
   <v>       0.03125000 </v>
   <v>       0.01562500 </v>
   <v>       0.03125000 </v>
   <v>       0.03125000 </v>
   <v>       0.03125000 </v>
   <v>       0.01562500 </v>
  </varray>
 </kpoints>
 <parameters>
  <separator name="general" >
   <i type="string" name="SYSTEM">unknown system</i>
   <i type="logical" name="LCOMPAT"> F  </i>
  </separator>
  <separator name="electronic" >
   <i type="string" name="PREC">normal</i>
   <i name="ENMAX">    280.00000000</i>
   <i name="ENAUG">    373.43800000</i>
   <i name="EDIFF">      0.00010000</i>
   <i type="int" name="IALGO">    38</i>
   <i type="int" name="IWAVPR">    11</i>
   <i type="int" name="NBANDS">   120</i>
   <i name="NELECT">    159.00000000</i>
   <i type="int" name="TURBO">     0</i>
   <i type="int" name="IRESTART">     0</i>
   <i type="int" name="NREBOOT">     0</i>
   <i type="int" name="NMIN">     0</i>
   <i name="EREF">      0.00000000</i>
   <separator name="electronic smearing" >
    <i type="int" name="ISMEAR">     0</i>
    <i name="SIGMA">      0.20000000</i>
    <i name="KSPACING">      0.50000000</i>
    <i type="logical" name="KGAMMA"> T  </i>
   </separator>
   <separator name="electronic projectors" >
    <i type="logical" name="LREAL"> F  </i>
    <v name="ROPT">      0.00000000      0.00000000      0.00000000      0.00000000</v>
    <i type="int" name="LMAXPAW">  -100</i>
    <i type="int" name="LMAXMIX">     2</i>
    <i type="logical" name="NLSPLINE"> F  </i>
   </separator>
   <separator name="electronic startup" >
    <i type="int" name="ISTART">     0</i>
    <i type="int" name="ICHARG">     2</i>
    <i type="int" name="INIWAV">     1</i>
   </separator>
   <separator name="electronic spin" >
    <i type="int" name="ISPIN">     1</i>
    <i type="logical" name="LNONCOLLINEAR"> F  </i>
    <v name="MAGMOM">      1.00000000      1.00000000      1.00000000      1.00000000      1.00000000      1.00000000      1.00000000      1.00000000      1.00000000      1.00000000      1.00000000      1.00000000      1.00000000      1.00000000      1.00000000      1.00000000      1.00000000      1.00000000      1.00000000      1.00000000
      1.00000000      1.00000000      1.00000000      1.00000000      1.00000000      1.00000000      1.00000000</v>
    <i name="NUPDOWN">     -1.00000000</i>
    <i type="logical" name="LSORBIT"> F  </i>
    <v name="SAXIS">      0.00000000      0.00000000      1.00000000</v>
    <i type="logical" name="LSPIRAL"> F  </i>
    <v name="QSPIRAL">      0.00000000      0.00000000      0.00000000</v>
    <i type="logical" name="LZEROZ"> F  </i>
   </separator>
   <separator name="electronic exchange-correlation" >
    <i type="logical" name="LASPH"> F  </i>
    <i type="logical" name="LMETAGGA"> F  </i>
   </separator>
   <separator name="electronic convergence" >
    <i type="int" name="NELM">    60</i>
    <i type="int" name="NELMDL">    -5</i>
    <i type="int" name="NELMIN">     2</i>
    <i name="ENINI">    280.00000000</i>
    <separator name="electronic convergence detail" >
     <i type="logical" name="LDIAG"> T  </i>
     <i type="logical" name="LSUBROT"> F  </i>
     <i name="WEIMIN">      0.00100000</i>
     <i name="EBREAK">      0.00000021</i>
     <i name="DEPER">      0.30000000</i>
     <i type="int" name="NRMM">     4</i>
     <i name="TIME">      0.40000000</i>
    </separator>
   </separator>
   <separator name="electronic mixer" >
    <i name="AMIX">      0.40000000</i>
    <i name="BMIX">      1.00000000</i>
    <i name="AMIN">      0.10000000</i>
    <i name="AMIX_MAG">      1.60000000</i>
    <i name="BMIX_MAG">      1.00000000</i>
    <separator name="electronic mixer details" >
     <i type="int" name="IMIX">     4</i>
     <i type="logical" name="MIXFIRST"> F  </i>
     <i type="int" name="MAXMIX">   -45</i>
     <i name="WC">    100.00000000</i>
     <i type="int" name="INIMIX">     1</i>
     <i type="int" name="MIXPRE">     1</i>
     <i type="int" name="MREMOVE">     5</i>
    </separator>
   </separator>
   <separator name="electronic dipolcorrection" >
    <i type="logical" name="LDIPOL"> F  </i>
    <i type="logical" name="LMONO"> F  </i>
    <i type="int" name="IDIPOL">     0</i>
    <i name="EPSILON">      1.00000000</i>
    <v name="DIPOL">   -100.00000000   -100.00000000   -100.00000000</v>
    <i name="EFIELD">      0.00000000</i>
   </separator>
  </separator>
  <separator name="grids" >
   <i type="int" name="NGX">    42</i>
   <i type="int" name="NGY">    42</i>
   <i type="int" name="NGZ">   126</i>
   <i type="int" name="NGXF">    84</i>
   <i type="int" name="NGYF">    84</i>
   <i type="int" name="NGZF">   252</i>
   <i type="logical" name="ADDGRID"> F  </i>
  </separator>
  <separator name="ionic" >
   <i type="int" name="NSW">   100</i>
   <i type="int" name="IBRION">     1</i>
   <i type="int" name="ISIF">     3</i>
   <i name="PSTRESS">      0.00000000</i>
   <i name="EDIFFG">      0.00100000</i>
   <i type="int" name="NFREE">     0</i>
   <i name="POTIM">      0.50000000</i>
   <i name="SMASS">     -3.00000000</i>
   <i name="SCALEE">      1.00000000</i>
  </separator>
  <separator name="ionic md" >
   <i name="TEBEG">      0.00010000</i>
   <i name="TEEND">      0.00010000</i>
   <i type="int" name="NBLOCK">     1</i>
   <i type="int" name="KBLOCK">   100</i>
   <i type="int" name="NPACO">   256</i>
   <i name="APACO">     16.00000000</i>
  </separator>
  <separator name="symmetry" >
   <i type="int" name="ISYM">     0</i>
   <i name="SYMPREC">      0.00000001</i>
  </separator>
  <separator name="dos" >
   <i type="logical" name="LORBIT"> F  </i>
   <v name="RWIGS">     -1.00000000     -1.00000000     -1.00000000     -1.00000000</v>
   <i type="int" name="NEDOS">   301</i>
   <i name="EMIN">     10.00000000</i>
   <i name="EMAX">    -10.00000000</i>
   <i name="EFERMI">      0.00000000</i>
  </separator>
  <separator name="writing" >
   <i type="int" name="NWRITE">     2</i>
   <i type="logical" name="LWAVE"> F  </i>
   <i type="logical" name="LCHARG"> F  </i>
   <i type="logical" name="LPARD"> F  </i>
   <i type="logical" name="LVTOT"> F  </i>
   <i type="logical" name="LVHAR"> F  </i>
   <i type="logical" name="LELF"> F  </i>
   <i type="logical" name="LOPTICS"> F  </i>
   <v name="STM">      0.00000000      0.00000000      0.00000000      0.00000000      0.00000000      0.00000000      0.00000000</v>
  </separator>
  <separator name="performance" >
   <i type="int" name="NPAR">    40</i>
   <i type="int" name="NSIM">     4</i>
   <i type="int" name="NBLK">    -1</i>
   <i type="logical" name="LPLANE"> F  </i>
   <i type="logical" name="LSCALAPACK"> T  </i>
   <i type="logical" name="LSCAAWARE"> F  </i>
   <i type="logical" name="LSCALU"> F  </i>
   <i type="logical" name="LASYNC"> F  </i>
   <i type="logical" name="LORBITALREAL"> F  </i>
  </separator>
  <separator name="miscellaneous" >
   <i type="int" name="IDIOT">     3</i>
   <i type="logical" name="LMUSIC"> F  </i>
   <v name="POMASS">     50.94100000     95.94000000    183.85000000     32.06600000</v>
   <v name="DARWINR">      0.00000000      0.00000000      0.00000000      0.00000000</v>
   <v name="DARWINV">      1.00000000      1.00000000      1.00000000      1.00000000</v>
   <i type="logical" name="LCORR"> T  </i>
  </separator>
  <i type="logical" name="GGA_COMPAT"> T  </i>
  <i type="logical" name="LBERRY"> F  </i>
  <i type="int" name="ICORELEVEL">     0</i>
  <i type="logical" name="LDAU"> F  </i>
  <i type="int" name="I_CONSTRAINED_M">     0</i>
  <separator name="electronic exchange-correlation" >
   <i type="string" name="GGA">--</i>
   <i type="int" name="VOSKOWN">     0</i>
   <i type="logical" name="LHFCALC"> F  </i>
   <i type="string" name="PRECFOCK"></i>
   <i type="logical" name="LSYMGRAD"> F  </i>
   <i type="logical" name="LHFONE"> F  </i>
   <i type="logical" name="LRHFCALC"> F  </i>
   <i type="logical" name="LTHOMAS"> F  </i>
   <i type="logical" name="LMODELHF"> F  </i>
   <i name="ENCUT4O">     -1.00000000</i>
   <i type="int" name="EXXOEP">     0</i>
   <i type="int" name="FOURORBIT">     0</i>
   <i name="AEXX">      0.00000000</i>
   <i name="HFALPHA">      0.00000000</i>
   <i name="MCALPHA">      0.00000000</i>
   <i name="ALDAX">      1.00000000</i>
   <i name="AGGAX">      1.00000000</i>
   <i name="ALDAC">      1.00000000</i>
   <i name="AGGAC">      1.00000000</i>
   <i type="int" name="NKREDX">     1</i>
   <i type="int" name="NKREDY">     1</i>
   <i type="int" name="NKREDZ">     1</i>
   <i type="logical" name="SHIFTRED"> F  </i>
   <i type="logical" name="ODDONLY"> F  </i>
   <i type="logical" name="EVENONLY"> F  </i>
   <i type="int" name="LMAXFOCK">     0</i>
   <i type="int" name="NMAXFOCKAE">     0</i>
   <i type="logical" name="LFOCKAEDFT"> F  </i>
   <i name="HFSCREEN">      0.00000000</i>
   <i name="HFSCREENC">      0.00000000</i>
   <i type="int" name="NBANDSGWLOW">     0</i>
  </separator>
  <separator name="vdW DFT" >
   <i type="logical" name="LUSE_VDW"> F  </i>
   <i name="Zab_VDW">     -0.84910000</i>
   <i name="PARAM1">      0.12340000</i>
   <i name="PARAM2">      1.00000000</i>
   <i name="PARAM3">      0.00000000</i>
  </separator>
  <separator name="model GW" >
   <i type="int" name="MODEL_GW">     0</i>
   <i name="MODEL_EPS0">     58.26239943</i>
   <i name="MODEL_ALPHA">      1.00000000</i>
  </separator>
  <separator name="linear response parameters" >
   <i type="logical" name="LEPSILON"> F  </i>
   <i type="logical" name="LRPA"> F  </i>
   <i type="logical" name="LNABLA"> F  </i>
   <i type="logical" name="LVEL"> F  </i>
   <i type="int" name="KINTER">     0</i>
   <i name="CSHIFT">      0.10000000</i>
   <i name="OMEGAMAX">     -1.00000000</i>
   <i name="DEG_THRESHOLD">      0.00200000</i>
  </separator>
  <separator name="orbital magnetization" >
   <i type="logical" name="NUCIND"> F  </i>
   <v name="MAGPOS">      0.00000000      0.00000000      0.00000000</v>
   <i type="logical" name="LNICSALL"> T  </i>
   <i type="logical" name="ORBITALMAG"> F  </i>
   <i type="logical" name="LMAGBLOCH"> F  </i>
   <i type="logical" name="LCHIMAG"> F  </i>
   <i type="logical" name="LGAUGE"> T  </i>
   <i type="int" name="MAGATOM">     0</i>
   <v name="MAGDIPOL">      0.00000000      0.00000000      0.00000000</v>
   <v name="AVECCONST">      0.00000000      0.00000000      0.00000000</v>
  </separator>
  <separator name="response functions" >
   <i type="logical" name="LADDER"> F  </i>
   <i type="logical" name="LFXC"> F  </i>
   <i type="logical" name="LHARTREE"> T  </i>
   <i type="int" name="IBSE">     0</i>
   <v type="int" name="KPOINT">    -1     0     0     0</v>
   <i type="logical" name="LTCTE"> F  </i>
   <i type="logical" name="LTETE"> F  </i>
   <i type="logical" name="LTRIPLET"> F  </i>
   <i type="logical" name="LFXCEPS"> F  </i>
   <i type="logical" name="LFXHEG"> F  </i>
   <i type="int" name="NATURALO">     0</i>
   <i type="logical" name="L2ORDER"> F  </i>
   <i type="logical" name="LUSEW"> F  </i>
   <i name="ENCUTGW">     -2.00000000</i>
   <i name="ENCUTGWSOFT">     -2.00000000</i>
   <i name="ENCUTLF">     -1.00000000</i>
   <i type="int" name="LMAXMP2">    -1</i>
   <i name="SCISSOR">      0.00000000</i>
   <i type="int" name="NOMEGA">     0</i>
   <i type="int" name="NOMEGAR">     0</i>
   <i type="int" name="NBANDSGW">    -1</i>
   <i type="int" name="NBANDSO">    -1</i>
   <i type="int" name="NBANDSV">    -1</i>
   <i type="int" name="NELM">     1</i>
   <i type="int" name="NELMHF">     1</i>
   <i type="int" name="DIM">     3</i>
   <i type="int" name="ANTIRES">     0</i>
   <i name="OMEGAMAX">    -30.00000000</i>
   <i name="OMEGAMIN">    -30.00000000</i>
   <i name="OMEGATL">   -200.00000000</i>
   <i type="int" name="OMEGAGRID">     0</i>
   <i name="CSHIFT">     -0.10000000</i>
   <i type="logical" name="SELFENERGY"> F  </i>
   <i type="logical" name="LSPECTRAL"> F  </i>
   <i type="logical" name="LSPECTRALGW"> F  </i>
   <i type="logical" name="LSINGLES"> F  </i>
   <i type="logical" name="LFERMIGW"> F  </i>
   <i type="logical" name="ODDONLYGW"> F  </i>
   <i type="logical" name="EVENONLYGW"> F  </i>
   <i type="int" name="NKREDLFX">     1</i>
   <i type="int" name="NKREDLFY">     1</i>
   <i type="int" name="NKREDLFZ">     1</i>
   <i type="int" name="MAXMEM">  1800</i>
   <i type="int" name="TELESCOPE">     0</i>
   <i type="int" name="TAUPAR">     1</i>
   <i type="int" name="OMEGAPAR">    -1</i>
   <i name="LAMBDA">      1.00000000</i>
  </separator>
  <separator name="External order field" >
   <i name="OFIELD_KAPPA">      0.00000000</i>
   <v name="OFIELD_K">      0.00000000      0.00000000      0.00000000</v>
   <i name="OFIELD_Q6_NEAR">      0.00000000</i>
   <i name="OFIELD_Q6_FAR">      0.00000000</i>
   <i name="OFIELD_A">      0.00000000</i>
  </separator>
 </parameters>
 <atominfo>
  <atoms>      27 </atoms>
  <types>       4 </types>
  <array name="atoms" >
   <dimension dim="1">ion</dimension>
   <field type="string">element</field>
   <field type="int">atomtype</field>
   <set>
    <rc><c>V </c><c>   1</c></rc>
    <rc><c>V </c><c>   1</c></rc>
    <rc><c>V </c><c>   1</c></rc>
    <rc><c>Mo</c><c>   2</c></rc>
    <rc><c>Mo</c><c>   2</c></rc>
    <rc><c>Mo</c><c>   2</c></rc>
    <rc><c>W </c><c>   3</c></rc>
    <rc><c>W </c><c>   3</c></rc>
    <rc><c>W </c><c>   3</c></rc>
    <rc><c>S </c><c>   4</c></rc>
    <rc><c>S </c><c>   4</c></rc>
    <rc><c>S </c><c>   4</c></rc>
    <rc><c>S </c><c>   4</c></rc>
    <rc><c>S </c><c>   4</c></rc>
    <rc><c>S </c><c>   4</c></rc>
    <rc><c>S </c><c>   4</c></rc>
    <rc><c>S </c><c>   4</c></rc>
    <rc><c>S </c><c>   4</c></rc>
    <rc><c>S </c><c>   4</c></rc>
    <rc><c>S </c><c>   4</c></rc>
    <rc><c>S </c><c>   4</c></rc>
    <rc><c>S </c><c>   4</c></rc>
    <rc><c>S </c><c>   4</c></rc>
    <rc><c>S </c><c>   4</c></rc>
    <rc><c>S </c><c>   4</c></rc>
    <rc><c>S </c><c>   4</c></rc>
    <rc><c>S </c><c>   4</c></rc>
   </set>
  </array>
  <array name="atomtypes" >
   <dimension dim="1">type</dimension>
   <field type="int">atomspertype</field>
   <field type="string">element</field>
   <field>mass</field>
   <field>valence</field>
   <field type="string">pseudopotential</field>
   <set>
    <rc><c>   3</c><c>V </c><c>     50.94100000</c><c>      5.00000000</c><c> PAW_PBE V 08Apr2002                    </c></rc>
    <rc><c>   3</c><c>Mo</c><c>     95.94000000</c><c>      6.00000000</c><c> PAW_PBE Mo 08Apr2002                   </c></rc>
    <rc><c>   3</c><c>W </c><c>    183.85000000</c><c>      6.00000000</c><c> PAW_PBE W 08Apr2002                    </c></rc>
    <rc><c>  18</c><c>S </c><c>     32.06600000</c><c>      6.00000000</c><c>  PAW_PBE S 17Jan2003                   </c></rc>
   </set>
  </array>
 </atominfo>
 <structure name="initialpos" >
  <crystal>
   <varray name="basis" >
    <v>       8.66999996       5.03999989       0.00000000 </v>
    <v>      -8.66999982       5.04000013       0.00000000 </v>
    <v>       0.00000000       0.00000000      30.00000000 </v>
   </varray>
   <i name="volume">   2621.80797419 </i>
   <varray name="rec_basis" >
    <v>       0.05767013       0.09920635       0.00000000 </v>
    <v>      -0.05767013       0.09920635       0.00000000 </v>
    <v>       0.00000000       0.00000000       0.03333333 </v>
   </varray>
  </crystal>
  <varray name="positions" >
   <v>       0.66666669       0.66666669       0.00000000 </v>
   <v>       0.33333334       0.33333334       0.00000000 </v>
   <v>       0.33333334       0.66666669       0.00000000 </v>
   <v>       1.00000000       0.33333334       0.00000000 </v>
   <v>       0.66666669       0.33333334       0.00000000 </v>
   <v>       0.66666669       0.00000000       0.00000000 </v>
   <v>       0.00000000       0.00000000       0.00000000 </v>
   <v>       0.00000000       0.66666669       0.00000000 </v>
   <v>       0.33333334       0.00000000       0.00000000 </v>
   <v>       0.11068511       0.22244981       0.95539999 </v>
   <v>       0.22244981       0.11068511       0.04460000 </v>
   <v>       0.11068511       0.55578315       0.95539999 </v>
   <v>       0.22244981       0.44401845       0.04460000 </v>
   <v>       0.11068511       0.88911647       0.95539999 </v>
   <v>       0.22244981       0.77735180       0.04460000 </v>
   <v>       0.44401845       0.22244981       0.95539999 </v>
   <v>       0.55578315       0.11068511       0.04460000 </v>
   <v>       0.44401845       0.55578315       0.95539999 </v>
   <v>       0.55578315       0.44401845       0.04460000 </v>
   <v>       0.44401845       0.88911647       0.95539999 </v>
   <v>       0.55578315       0.77735180       0.04460000 </v>
   <v>       0.77735180       0.22244981       0.95539999 </v>
   <v>       0.88911647       0.11068511       0.04460000 </v>
   <v>       0.77735180       0.55578315       0.95539999 </v>
   <v>       0.88911647       0.44401845       0.04460000 </v>
   <v>       0.77735180       0.88911647       0.95539999 </v>
   <v>       0.88911647       0.77735180       0.04460000 </v>
  </varray>
 </structure>
 <calculation>
  <scstep>
   <time name="dav">   23.20   23.26</time>
   <time name="total">   23.25   23.31</time>
   <energy>
    <i name="alphaZ">     81.65567618 </i>
    <i name="ewald">  41891.17178794 </i>
    <i name="hartreedc"> -47723.81766557 </i>
    <i name="XCdc">   -242.92463154 </i>
    <i name="pawpsdc">   3467.42045192 </i>
    <i name="pawaedc">  -2871.19716117 </i>
    <i name="eentropy">     -0.53383879 </i>
    <i name="bandstr">   -239.40697386 </i>
    <i name="atom">   6761.44252427 </i>
    <i name="e_fr_energy">   1123.81016937 </i>
    <i name="e_wo_entrp">   1124.34400817 </i>
    <i name="e_0_energy">   1124.07708877 </i>
   </energy>
  </scstep>
  <scstep>
   <time name="dav">   30.23   30.31</time>
   <time name="total">   30.24   30.31</time>
   <energy>
    <i name="e_fr_energy">     -3.83074321 </i>
    <i name="e_wo_entrp">     -3.63293334 </i>
    <i name="e_0_energy">     -3.73183827 </i>
   </energy>
  </scstep>
  <scstep>
   <time name="dav">   29.20   29.27</time>
   <time name="total">   29.20   29.27</time>
   <energy>
    <i name="e_fr_energy">   -199.73678219 </i>
    <i name="e_wo_entrp">   -199.45065921 </i>
    <i name="e_0_energy">   -199.59372070 </i>
   </energy>
  </scstep>
  <scstep>
   <time name="dav">   31.56   31.64</time>
   <time name="total">   31.56   31.64</time>
   <energy>
    <i name="e_fr_energy">   -208.88948164 </i>
    <i name="e_wo_entrp">   -208.56842260 </i>
    <i name="e_0_energy">   -208.72895212 </i>
   </energy>
  </scstep>
  <scstep>
   <time name="dav">   30.34   30.41</time>
   <time name="total">   30.80   30.88</time>
   <energy>
    <i name="e_fr_energy">   -209.22519002 </i>
    <i name="e_wo_entrp">   -208.90768994 </i>
    <i name="e_0_energy">   -209.06643998 </i>
   </energy>
  </scstep>
  <scstep>
   <time name="dav">   32.34   32.42</time>
   <time name="total">   32.85   32.93</time>
   <energy>
    <i name="e_fr_energy">   -236.71997906 </i>
    <i name="e_wo_entrp">   -236.46373318 </i>
    <i name="e_0_energy">   -236.59185612 </i>
   </energy>
  </scstep>
  <scstep>
   <time name="dav">   35.00   35.09</time>
   <time name="total">   35.51   35.60</time>
   <energy>
    <i name="e_fr_energy">   -196.84739689 </i>
    <i name="e_wo_entrp">   -196.52707720 </i>
    <i name="e_0_energy">   -196.68723704 </i>
   </energy>
  </scstep>
  <scstep>
   <time name="dav">   31.60   31.68</time>
   <time name="total">   32.12   32.20</time>
   <energy>
    <i name="e_fr_energy">   -189.97332687 </i>
    <i name="e_wo_entrp">   -189.66301926 </i>
    <i name="e_0_energy">   -189.81817307 </i>
   </energy>
  </scstep>
  <scstep>
   <time name="dav">   32.74   32.82</time>
   <time name="total">   33.26   33.35</time>
   <energy>
    <i name="e_fr_energy">   -188.24373204 </i>
    <i name="e_wo_entrp">   -187.89716281 </i>
    <i name="e_0_energy">   -188.07044742 </i>
   </energy>
  </scstep>
  <scstep>
   <time name="dav">   34.73   34.82</time>
   <time name="total">   35.27   35.36</time>
   <energy>
    <i name="e_fr_energy">   -186.91324307 </i>
    <i name="e_wo_entrp">   -186.56063392 </i>
    <i name="e_0_energy">   -186.73693849 </i>
   </energy>
  </scstep>
  <scstep>
   <time name="dav">   34.92   35.00</time>
   <time name="total">   35.46   35.55</time>
   <energy>
    <i name="e_fr_energy">   -186.92320738 </i>
    <i name="e_wo_entrp">   -186.58862651 </i>
    <i name="e_0_energy">   -186.75591694 </i>
   </energy>
  </scstep>
  <scstep>
   <time name="dav">   31.58   31.65</time>
   <time name="total">   32.11   32.20</time>
   <energy>
    <i name="e_fr_energy">   -186.92791525 </i>
    <i name="e_wo_entrp">   -186.58703596 </i>
    <i name="e_0_energy">   -186.75747561 </i>
   </energy>
  </scstep>
  <scstep>
   <time name="dav">   32.88   32.96</time>
   <time name="total">   33.42   33.51</time>
   <energy>
    <i name="e_fr_energy">   -186.82357875 </i>
    <i name="e_wo_entrp">   -186.47808136 </i>
    <i name="e_0_energy">   -186.65083006 </i>
   </energy>
  </scstep>
  <scstep>
   <time name="dav">   32.98   33.06</time>
   <time name="total">   33.52   33.61</time>
   <energy>
    <i name="e_fr_energy">   -186.81649677 </i>
    <i name="e_wo_entrp">   -186.47112609 </i>
    <i name="e_0_energy">   -186.64381143 </i>
   </energy>
  </scstep>
  <scstep>
   <time name="dav">   33.65   33.73</time>
   <time name="total">   34.19   34.28</time>
   <energy>
    <i name="e_fr_energy">   -186.81575204 </i>
    <i name="e_wo_entrp">   -186.47150942 </i>
    <i name="e_0_energy">   -186.64363073 </i>
   </energy>
  </scstep>
  <scstep>
   <time name="dav">   33.77   33.86</time>
   <time name="total">   34.32   34.41</time>
   <energy>
    <i name="e_fr_energy">   -186.81363929 </i>
    <i name="e_wo_entrp">   -186.46964794 </i>
    <i name="e_0_energy">   -186.64164361 </i>
   </energy>
  </scstep>
  <scstep>
   <time name="dav">   32.53   32.60</time>
   <time name="total">   33.07   33.15</time>
   <energy>
    <i name="e_fr_energy">   -186.81245166 </i>
    <i name="e_wo_entrp">   -186.46801587 </i>
    <i name="e_0_energy">   -186.64023377 </i>
   </energy>
  </scstep>
  <scstep>
   <time name="dav">   29.01   29.08</time>
   <time name="total">   29.04   29.12</time>
   <energy>
    <i name="alphaZ">     81.65567618 </i>
    <i name="ewald">  41891.17178794 </i>
    <i name="hartreedc"> -47817.82639767 </i>
    <i name="XCdc">   -231.70636595 </i>
    <i name="pawpsdc">   4194.28523956 </i>
    <i name="pawaedc">  -3612.30029279 </i>
    <i name="eentropy">     -0.34446235 </i>
    <i name="bandstr">  -1453.19013319 </i>
    <i name="atom">   6761.44252427 </i>
    <i name="e_fr_energy">   -186.81242400 </i>
    <i name="e_wo_entrp">   -186.46796165 </i>
    <i name="e_0_energy">   -186.64019282 </i>
   </energy>
  </scstep>
  <structure>
   <crystal>
    <varray name="basis" >
     <v>       8.66999996       5.03999989       0.00000000 </v>
     <v>      -8.66999982       5.04000013       0.00000000 </v>
     <v>       0.00000000       0.00000000      30.00000000 </v>
    </varray>
    <i name="volume">   2621.80797419 </i>
    <varray name="rec_basis" >
     <v>       0.05767013       0.09920635       0.00000000 </v>
     <v>      -0.05767013       0.09920635       0.00000000 </v>
     <v>       0.00000000       0.00000000       0.03333333 </v>
    </varray>
   </crystal>
   <varray name="positions" >
    <v>       0.66666669       0.66666669       0.00000000 </v>
    <v>       0.33333334       0.33333334       0.00000000 </v>
    <v>       0.33333334       0.66666669       0.00000000 </v>
    <v>       1.00000000       0.33333334       0.00000000 </v>
    <v>       0.66666669       0.33333334       0.00000000 </v>
    <v>       0.66666669       0.00000000       0.00000000 </v>
    <v>       0.00000000       0.00000000       0.00000000 </v>
    <v>       0.00000000       0.66666669       0.00000000 </v>
    <v>       0.33333334       0.00000000       0.00000000 </v>
    <v>       0.11068511       0.22244981       0.95539999 </v>
    <v>       0.22244981       0.11068511       0.04460000 </v>
    <v>       0.11068511       0.55578315       0.95539999 </v>
    <v>       0.22244981       0.44401845       0.04460000 </v>
    <v>       0.11068511       0.88911647       0.95539999 </v>
    <v>       0.22244981       0.77735180       0.04460000 </v>
    <v>       0.44401845       0.22244981       0.95539999 </v>
    <v>       0.55578315       0.11068511       0.04460000 </v>
    <v>       0.44401845       0.55578315       0.95539999 </v>
    <v>       0.55578315       0.44401845       0.04460000 </v>
    <v>       0.44401845       0.88911647       0.95539999 </v>
    <v>       0.55578315       0.77735180       0.04460000 </v>
    <v>       0.77735180       0.22244981       0.95539999 </v>
    <v>       0.88911647       0.11068511       0.04460000 </v>
    <v>       0.77735180       0.55578315       0.95539999 </v>
    <v>       0.88911647       0.44401845       0.04460000 </v>
    <v>       0.77735180       0.88911647       0.95539999 </v>
    <v>       0.88911647       0.77735180       0.04460000 </v>
   </varray>
  </structure>
  <varray name="forces" >
   <v>      -0.08167680      -0.12851197       0.03276522 </v>
   <v>      -0.08317304       0.13230644       0.03330528 </v>
   <v>       0.15837104       0.00076391       0.02347488 </v>
   <v>      -0.22889038      -0.38499344      -0.07054963 </v>
   <v>       0.45886991      -0.00300474      -0.06377510 </v>
   <v>      -0.22873256       0.37855630      -0.07373119 </v>
   <v>      -0.60978292      -0.00318749       0.06567900 </v>
   <v>       0.30802634      -0.50809058       0.06053619 </v>
   <v>       0.30607279       0.49840190       0.05813241 </v>
   <v>       0.60239740       0.55683133      -2.15737210 </v>
   <v>      -0.44450580       0.54279389       2.16953729 </v>
   <v>       0.37688813       0.69268879      -2.16181124 </v>
   <v>       0.32962282       0.67762547       1.37840285 </v>
   <v>       0.14105847       0.00341489      -2.80258572 </v>
   <v>       0.56674888       0.00262195       2.12519762 </v>
   <v>      -0.66291052      -0.13406172      -2.11209955 </v>
   <v>      -0.22749197      -0.18024334       2.90303871 </v>
   <v>       0.06389411      -0.00214576      -0.79242766 </v>
   <v>      -0.90947396      -0.00210811       1.41562117 </v>
   <v>       0.37966538      -0.69141468      -2.15787475 </v>
   <v>       0.32666883      -0.67648751       1.37564661 </v>
   <v>       0.11341833       0.00153414      -2.95947640 </v>
   <v>       0.07903432       0.00258551       2.90854286 </v>
   <v>      -0.66383705       0.13891668      -2.11280390 </v>
   <v>      -0.22719206       0.18506682       2.90290389 </v>
   <v>       0.60434321      -0.55688261      -2.15433401 </v>
   <v>      -0.44741290      -0.54297607       2.16605728 </v>
  </varray>
  <varray name="stress" >
   <v>       7.45859268      -0.00034600      -1.55698741 </v>
   <v>      -0.00034615       4.51854819      -0.00011693 </v>
   <v>      -1.55698768      -0.00011695      31.20324833 </v>
  </varray>
  <energy>
   <i name="e_fr_energy">   -186.81242400 </i>
   <i name="e_wo_entrp">   -186.64019282 </i>
   <i name="e_0_energy">     -0.34446235 </i>
  </energy>
  <time name="totalsc">  623.79  625.43</time>
 </calculation>
 <calculation>
  <scstep>
   <time name="dav">   23.11   23.17</time>
   <time name="total">   23.66   23.71</time>
   <energy>
    <i name="alphaZ">     78.87092558 </i>
    <i name="ewald">  39352.26468050 </i>
    <i name="hartreedc"> -45298.66734194 </i>
    <i name="XCdc">   -239.18918072 </i>
    <i name="pawpsdc">   4193.60303008 </i>
    <i name="pawaedc">  -3611.60397702 </i>
    <i name="eentropy">     -0.28574968 </i>
    <i name="bandstr">  -1423.92928998 </i>
    <i name="atom">   6761.44252427 </i>
    <i name="e_fr_energy">   -187.49437891 </i>
    <i name="e_wo_entrp">   -187.20862923 </i>
    <i name="e_0_energy">   -187.35150407 </i>
   </energy>
  </scstep>
  <scstep>
   <time name="dav">   31.43   31.51</time>
   <time name="total">   31.97   32.05</time>
   <energy>
    <i name="e_fr_energy">   -189.50225725 </i>
    <i name="e_wo_entrp">   -189.17486988 </i>
    <i name="e_0_energy">   -189.33856357 </i>
   </energy>
  </scstep>
  <scstep>
   <time name="dav">   32.01   32.09</time>
   <time name="total">   32.57   32.66</time>
   <energy>
    <i name="e_fr_energy">   -189.32129141 </i>
    <i name="e_wo_entrp">   -189.04964457 </i>
    <i name="e_0_energy">   -189.18546799 </i>
   </energy>
  </scstep>
  <scstep>
   <time name="dav">   32.74   32.81</time>
   <time name="total">   33.28   33.37</time>
   <energy>
    <i name="e_fr_energy">   -188.75120222 </i>
    <i name="e_wo_entrp">   -188.46691779 </i>
    <i name="e_0_energy">   -188.60906000 </i>
   </energy>
  </scstep>
  <scstep>
   <time name="dav">   33.60   33.68</time>
   <time name="total">   34.15   34.24</time>
   <energy>
    <i name="e_fr_energy">   -188.76394882 </i>
    <i name="e_wo_entrp">   -188.47865552 </i>
    <i name="e_0_energy">   -188.62130217 </i>
   </energy>
  </scstep>
  <scstep>
   <time name="dav">   32.93   33.00</time>
   <time name="total">   33.48   33.56</time>
   <energy>
    <i name="e_fr_energy">   -188.77789235 </i>
    <i name="e_wo_entrp">   -188.49210246 </i>
    <i name="e_0_energy">   -188.63499741 </i>
   </energy>
  </scstep>
  <scstep>
   <time name="dav">   33.04   33.12</time>
   <time name="total">   33.58   33.67</time>
   <energy>
    <i name="e_fr_energy">   -188.67983540 </i>
    <i name="e_wo_entrp">   -188.39729795 </i>
    <i name="e_0_energy">   -188.53856668 </i>
   </energy>
  </scstep>
  <scstep>
   <time name="dav">   28.56   28.63</time>
   <time name="total">   29.11   29.19</time>
   <energy>
    <i name="e_fr_energy">   -188.66196310 </i>
    <i name="e_wo_entrp">   -188.37957926 </i>
    <i name="e_0_energy">   -188.52077118 </i>
   </energy>
  </scstep>
  <scstep>
   <time name="dav">   32.18   32.26</time>
   <time name="total">   32.73   32.82</time>
   <energy>
    <i name="e_fr_energy">   -188.66108907 </i>
    <i name="e_wo_entrp">   -188.37903318 </i>
    <i name="e_0_energy">   -188.52006113 </i>
   </energy>
  </scstep>
  <scstep>
   <time name="dav">   31.63   31.71</time>
   <time name="total">   32.18   32.26</time>
   <energy>
    <i name="e_fr_energy">   -188.66179387 </i>
    <i name="e_wo_entrp">   -188.38008023 </i>
    <i name="e_0_energy">   -188.52093705 </i>
   </energy>
  </scstep>
  <scstep>
   <time name="dav">   33.76   33.84</time>
   <time name="total">   34.30   34.40</time>
   <energy>
    <i name="e_fr_energy">   -188.66067610 </i>
    <i name="e_wo_entrp">   -188.37915832 </i>
    <i name="e_0_energy">   -188.51991721 </i>
   </energy>
  </scstep>
  <scstep>
   <time name="dav">   28.58   28.65</time>
   <time name="total">   29.13   29.21</time>
   <energy>
    <i name="e_fr_energy">   -188.66088263 </i>
    <i name="e_wo_entrp">   -188.37941877 </i>
    <i name="e_0_energy">   -188.52015070 </i>
   </energy>
  </scstep>
  <scstep>
   <time name="dav">   23.10   23.15</time>
   <time name="total">   23.14   23.20</time>
   <energy>
    <i name="alphaZ">     78.87092558 </i>
    <i name="ewald">  39352.26468050 </i>
    <i name="hartreedc"> -45316.98500052 </i>
    <i name="XCdc">   -238.02813067 </i>
    <i name="pawpsdc">   3949.64246519 </i>
    <i name="pawaedc">  -3364.13675989 </i>
    <i name="eentropy">     -0.28150607 </i>
    <i name="bandstr">  -1411.45014417 </i>
    <i name="atom">   6761.44252427 </i>
    <i name="e_fr_energy">   -188.66094577 </i>
    <i name="e_wo_entrp">   -188.37943970 </i>
    <i name="e_0_energy">   -188.52019274 </i>
   </energy>
  </scstep>
  <structure>
   <crystal>
    <varray name="basis" >
     <v>       8.85906969       5.10657778       0.00000000 </v>
     <v>      -8.85907975       5.10659556       0.00000000 </v>
     <v>       0.00000000       0.00000000      30.00000000 </v>
    </varray>
    <i name="volume">   2714.37797084 </i>
    <varray name="rec_basis" >
     <v>       0.05643940       0.09791282       0.00000000 </v>
     <v>      -0.05643920       0.09791271       0.00000000 </v>
     <v>       0.00000000       0.00000000       0.03333333 </v>
    </varray>
   </crystal>
   <varray name="positions" >
    <v>       0.66582439       0.66627887       0.00005269 </v>
    <v>       0.33373516       0.33419796       0.00005356 </v>
    <v>       0.33377761       0.66622973       0.00003775 </v>
    <v>       0.99752062       0.33212758      -0.00011345 </v>
    <v>       0.66792896       0.33204231      -0.00010256 </v>
    <v>       0.66784208       0.00244813      -0.00011857 </v>
    <v>      -0.00171177       0.00168126       0.00010562 </v>
    <v>      -0.00157473       0.66337800       0.00009735 </v>
    <v>       0.33657023       0.00153380       0.00009348 </v>
    <v>       0.11502606       0.22343883       0.95193074 </v>
    <v>       0.22381092       0.11451960       0.04808881 </v>
    <v>       0.11504887       0.55804978       0.95192361 </v>
    <v>       0.22660997       0.44634449       0.04681659 </v>
    <v>       0.11109390       0.88874036       0.95089318 </v>
    <v>       0.22403914       0.77578756       0.04801750 </v>
    <v>       0.44153251       0.22365252       0.95200355 </v>
    <v>       0.55428759       0.11045539       0.04926834 </v>
    <v>       0.44418595       0.55559512       0.95412570 </v>
    <v>       0.55324276       0.44653867       0.04687644 </v>
    <v>       0.44176565       0.88475108       0.95192994 </v>
    <v>       0.55345434       0.77320530       0.04681216 </v>
    <v>       0.77767469       0.22214160       0.95064089 </v>
    <v>       0.88934873       0.11047760       0.04927719 </v>
    <v>       0.77616975       0.55829491       0.95200241 </v>
    <v>       0.88937011       0.44553626       0.04926813 </v>
    <v>       0.77636795       0.88476986       0.95193563 </v>
    <v>       0.88527302       0.77599790       0.04808321 </v>
   </varray>
  </structure>
  <varray name="forces" >
   <v>      -0.01218780      -0.01899027       0.11659714 </v>
   <v>      -0.01351152       0.02100201       0.11779898 </v>
   <v>       0.02483994      -0.00028098       0.10931581 </v>
   <v>      -0.33170530      -0.57849179      -0.03466585 </v>
   <v>       0.66006290       0.00005634      -0.03801662 </v>
   <v>      -0.33093971       0.57710069      -0.03337889 </v>
   <v>      -0.53915422       0.00092001      -0.07967265 </v>
   <v>       0.27345798      -0.46949176      -0.08767650 </v>
   <v>       0.27111175       0.46740307      -0.08596212 </v>
   <v>       0.06076777      -0.05436550       0.03345716 </v>
   <v>       0.06137022      -0.07414701      -0.14374972 </v>
   <v>      -0.10350659       0.03718404       0.03903186 </v>
   <v>       0.00252864       0.04199929      -0.17511853 </v>
   <v>      -0.01422092       0.00006987       0.42268340 </v>
   <v>      -0.09804174      -0.00020173      -0.11962341 </v>
   <v>       0.03448207      -0.08938708       0.02250282 </v>
   <v>      -0.05058016      -0.10419766       0.23896946 </v>
   <v>       0.01368323      -0.00044514       0.07937642 </v>
   <v>      -0.03072804      -0.00001266      -0.19356899 </v>
   <v>      -0.10280516      -0.03658425       0.03719505 </v>
   <v>       0.00231522      -0.04163874      -0.17367991 </v>
   <v>      -0.00877465       0.00066634      -0.43941139 </v>
   <v>       0.12711452       0.00020364       0.23448757 </v>
   <v>       0.03406151       0.08942590       0.02275637 </v>
   <v>      -0.05113463       0.10564881       0.24056157 </v>
   <v>       0.06075832       0.05354612       0.03171740 </v>
   <v>       0.06073637       0.07300846      -0.14192641 </v>
  </varray>
  <varray name="stress" >
   <v>     -20.00488439      -0.00027126       0.04238223 </v>
   <v>      -0.00027136     -19.55926680       0.00018707 </v>
   <v>       0.04238221       0.00018710      -1.73140836 </v>
  </varray>
  <energy>
   <i name="e_fr_energy">   -188.66094577 </i>
   <i name="e_wo_entrp">   -188.52019274 </i>
   <i name="e_0_energy">     -0.28150607 </i>
  </energy>
  <time name="totalsc">  447.67  448.84</time>
 </calculation>
 <calculation>
  <scstep>
   <time name="dav">   25.43   25.49</time>
   <time name="total">   25.96   26.03</time>
   <energy>
    <i name="alphaZ">     82.31687624 </i>
    <i name="ewald">  41288.81443901 </i>
    <i name="hartreedc"> -47284.68273259 </i>
    <i name="XCdc">   -233.87134867 </i>
    <i name="pawpsdc">   3948.60754321 </i>
    <i name="pawaedc">  -3363.09242290 </i>
    <i name="eentropy">     -0.23809460 </i>
    <i name="bandstr">  -1389.91919606 </i>
    <i name="atom">   6761.44252427 </i>
    <i name="e_fr_energy">   -190.62241208 </i>
    <i name="e_wo_entrp">   -190.38431747 </i>
    <i name="e_0_energy">   -190.50336478 </i>
   </energy>
  </scstep>
  <scstep>
   <time name="dav">   32.58   32.66</time>
   <time name="total">   33.11   33.19</time>
   <energy>
    <i name="e_fr_energy">   -190.52795612 </i>
    <i name="e_wo_entrp">   -190.29529915 </i>
    <i name="e_0_energy">   -190.41162764 </i>
   </energy>
  </scstep>
  <scstep>
   <time name="dav">   32.28   32.36</time>
   <time name="total">   32.82   32.91</time>
   <energy>
    <i name="e_fr_energy">   -190.10499435 </i>
    <i name="e_wo_entrp">   -189.85292276 </i>
    <i name="e_0_energy">   -189.97895856 </i>
   </energy>
  </scstep>
  <scstep>
   <time name="dav">   34.05   34.13</time>
   <time name="total">   34.59   34.68</time>
   <energy>
    <i name="e_fr_energy">   -189.88638646 </i>
    <i name="e_wo_entrp">   -189.65198798 </i>
    <i name="e_0_energy">   -189.76918722 </i>
   </energy>
  </scstep>
  <scstep>
   <time name="dav">   30.69   30.76</time>
   <time name="total">   31.22   31.30</time>
   <energy>
    <i name="e_fr_energy">   -189.79511872 </i>
    <i name="e_wo_entrp">   -189.55548930 </i>
    <i name="e_0_energy">   -189.67530401 </i>
   </energy>
  </scstep>
  <scstep>
   <time name="dav">   29.05   29.12</time>
   <time name="total">   29.59   29.66</time>
   <energy>
    <i name="e_fr_energy">   -189.78195859 </i>
    <i name="e_wo_entrp">   -189.54151954 </i>
    <i name="e_0_energy">   -189.66173907 </i>
   </energy>
  </scstep>
  <scstep>
   <time name="dav">   30.04   30.11</time>
   <time name="total">   30.58   30.66</time>
   <energy>
    <i name="e_fr_energy">   -189.78323300 </i>
    <i name="e_wo_entrp">   -189.54286429 </i>
    <i name="e_0_energy">   -189.66304864 </i>
   </energy>
  </scstep>
  <scstep>
   <time name="dav">   29.49   29.57</time>
   <time name="total">   30.03   30.11</time>
   <energy>
    <i name="e_fr_energy">   -189.78204193 </i>
    <i name="e_wo_entrp">   -189.54175519 </i>
    <i name="e_0_energy">   -189.66189856 </i>
   </energy>
  </scstep>
  <scstep>
   <time name="dav">   27.35   27.41</time>
   <time name="total">   27.88   27.95</time>
   <energy>
    <i name="e_fr_energy">   -189.78218093 </i>
    <i name="e_wo_entrp">   -189.54179989 </i>
    <i name="e_0_energy">   -189.66199041 </i>
   </energy>
  </scstep>
  <scstep>
   <time name="dav">   27.27   27.33</time>
   <time name="total">   27.80   27.87</time>
   <energy>
    <i name="e_fr_energy">   -189.78232113 </i>
    <i name="e_wo_entrp">   -189.54191613 </i>
    <i name="e_0_energy">   -189.66211863 </i>
   </energy>
  </scstep>
  <scstep>
   <time name="dav">   21.91   21.96</time>
   <time name="total">   21.95   22.01</time>
   <energy>
    <i name="alphaZ">     82.31687624 </i>
    <i name="ewald">  41288.81443901 </i>
    <i name="hartreedc"> -47259.84504934 </i>
    <i name="XCdc">   -235.25827528 </i>
    <i name="pawpsdc">   4038.63373233 </i>
    <i name="pawaedc">  -3454.33775357 </i>
    <i name="eentropy">     -0.24041237 </i>
    <i name="bandstr">  -1411.30832599 </i>
    <i name="atom">   6761.44252427 </i>
    <i name="e_fr_energy">   -189.78224470 </i>
    <i name="e_wo_entrp">   -189.54183233 </i>
    <i name="e_0_energy">   -189.66203851 </i>
   </energy>
  </scstep>
  <structure>
   <crystal>
    <varray name="basis" >
     <v>       8.66954602       4.99976361       0.00000000 </v>
     <v>      -8.66955883       4.99978616       0.00000000 </v>
     <v>       0.00000000       0.00000000      30.00000000 </v>
    </varray>
    <i name="volume">   2600.74862778 </i>
    <varray name="rec_basis" >
     <v>       0.05767323       0.10000458       0.00000000 </v>
     <v>      -0.05767297       0.10000443       0.00000000 </v>
     <v>       0.00000000       0.00000000       0.03333333 </v>
    </varray>
   </crystal>
   <varray name="positions" >
    <v>       0.66578098       0.66625890       0.00011893 </v>
    <v>       0.33375721       0.33424600       0.00012048 </v>
    <v>       0.33380104       0.66620537       0.00009985 </v>
    <v>       0.99623623       0.33148131      -0.00013314 </v>
    <v>       0.66856395       0.33140751      -0.00012415 </v>
    <v>       0.66848676       0.00372947      -0.00013753 </v>
    <v>      -0.00222884       0.00220140       0.00006036 </v>
    <v>      -0.00209514       0.66233152       0.00004754 </v>
    <v>       0.33761096       0.00205298       0.00004465 </v>
    <v>       0.11499379       0.22328965       0.95194975 </v>
    <v>       0.22374622       0.11433684       0.04800714 </v>
    <v>       0.11501135       0.55821139       0.95194578 </v>
    <v>       0.22668249       0.44641214       0.04671711 </v>
    <v>       0.11108034       0.88875416       0.95113331 </v>
    <v>       0.22394450       0.77588153       0.04794955 </v>
    <v>       0.44141652       0.22347019       0.95201633 </v>
    <v>       0.55406507       0.11033017       0.04940410 </v>
    <v>       0.44419837       0.55558121       0.95417079 </v>
    <v>       0.55321318       0.44656820       0.04676648 </v>
    <v>       0.44160571       0.88478892       0.95195107 </v>
    <v>       0.55338709       0.77313359       0.04671349 </v>
    <v>       0.77766736       0.22215116       0.95039126 </v>
    <v>       0.88947134       0.11035567       0.04941040 </v>
    <v>       0.77635174       0.55841137       0.95201534 </v>
    <v>       0.88949722       0.44576175       0.04940479 </v>
    <v>       0.77651574       0.88480077       0.95195365 </v>
    <v>       0.88545327       0.77606131       0.04800258 </v>
   </varray>
  </structure>
  <varray name="forces" >
   <v>       0.02768283       0.04569255       0.11533079 </v>
   <v>       0.02859488      -0.05090914       0.11675923 </v>
   <v>      -0.05649530      -0.00167425       0.11239034 </v>
   <v>      -0.36119630      -0.62867959      -0.01531870 </v>
   <v>       0.71792105      -0.00349175      -0.01719872 </v>
   <v>      -0.36300643       0.62518453      -0.01398156 </v>
   <v>      -0.51923982       0.00169769      -0.09442343 </v>
   <v>       0.26552300      -0.45772690      -0.09752937 </v>
   <v>       0.26295191       0.45645771      -0.09613352 </v>
   <v>       0.04036017       0.09447544      -0.46916514 </v>
   <v>      -0.01306741       0.04523891       0.35264150 </v>
   <v>       0.04204574       0.09115856      -0.46963632 </v>
   <v>       0.02506421       0.07725757       0.25484543 </v>
   <v>      -0.01681128       0.00031396      -0.08103019 </v>
   <v>       0.04072673       0.00026788       0.37772076 </v>
   <v>      -0.08514901       0.00769339      -0.48112617 </v>
   <v>      -0.00055983      -0.01287221       0.81820911 </v>
   <v>       0.01578760      -0.00095124      -0.34146281 </v>
   <v>      -0.07281944      -0.00018089       0.23642030 </v>
   <v>       0.04292489      -0.08835123      -0.47010101 </v>
   <v>       0.02287260      -0.07355309       0.25653479 </v>
   <v>      -0.00709298       0.00048609      -1.03220273 </v>
   <v>       0.02377170      -0.00030619       0.81428194 </v>
   <v>      -0.08414297      -0.00609934      -0.48097316 </v>
   <v>      -0.00228667       0.01521247       0.81981998 </v>
   <v>       0.03843332      -0.09208504      -0.46925685 </v>
   <v>      -0.01279322      -0.04425588       0.35458553 </v>
  </varray>
  <varray name="stress" >
   <v>     -10.17615364      -0.00412934       0.02334362 </v>
   <v>      -0.00412946      -9.84593538      -0.00113262 </v>
   <v>       0.02334358      -0.00113237       6.49744860 </v>
  </varray>
  <energy>
   <i name="e_fr_energy">   -189.78224470 </i>
   <i name="e_wo_entrp">   -189.66203851 </i>
   <i name="e_0_energy">     -0.24041237 </i>
  </energy>
  <time name="totalsc">  370.11  371.09</time>
 </calculation>
 <calculation>
  <scstep>
   <time name="dav">   23.07   23.13</time>
   <time name="total">   23.60   23.66</time>
   <energy>
    <i name="alphaZ">     85.79931839 </i>
    <i name="ewald">  42825.02822170 </i>
    <i name="hartreedc"> -48840.45698701 </i>
    <i name="XCdc">   -232.96192365 </i>
    <i name="pawpsdc">   4038.98209611 </i>
    <i name="pawaedc">  -3454.68755315 </i>
    <i name="eentropy">     -0.21321414 </i>
    <i name="bandstr">  -1374.34563032 </i>
    <i name="atom">   6761.44252427 </i>
    <i name="e_fr_energy">   -191.41314780 </i>
    <i name="e_wo_entrp">   -191.19993365 </i>
    <i name="e_0_energy">   -191.30654072 </i>
   </energy>
  </scstep>
  <scstep>
   <time name="dav">   33.54   33.62</time>
   <time name="total">   34.06   34.15</time>
   <energy>
    <i name="e_fr_energy">   -191.23132557 </i>
    <i name="e_wo_entrp">   -191.02320134 </i>
    <i name="e_0_energy">   -191.12726345 </i>
   </energy>
  </scstep>
  <scstep>
   <time name="dav">   31.91   31.99</time>
   <time name="total">   32.43   32.51</time>
   <energy>
    <i name="e_fr_energy">   -191.35677392 </i>
    <i name="e_wo_entrp">   -191.12578725 </i>
    <i name="e_0_energy">   -191.24128059 </i>
   </energy>
  </scstep>
  <scstep>
   <time name="dav">   33.57   33.65</time>
   <time name="total">   34.09   34.18</time>
   <energy>
    <i name="e_fr_energy">   -190.99182741 </i>
    <i name="e_wo_entrp">   -190.78041563 </i>
    <i name="e_0_energy">   -190.88612152 </i>
   </energy>
  </scstep>
  <scstep>
   <time name="dav">   31.13   31.21</time>
   <time name="total">   31.65   31.73</time>
   <energy>
    <i name="e_fr_energy">   -190.85996419 </i>
    <i name="e_wo_entrp">   -190.64436100 </i>
    <i name="e_0_energy">   -190.75216260 </i>
   </energy>
  </scstep>
  <scstep>
   <time name="dav">   29.62   29.69</time>
   <time name="total">   30.14   30.22</time>
   <energy>
    <i name="e_fr_energy">   -190.84160925 </i>
    <i name="e_wo_entrp">   -190.62303687 </i>
    <i name="e_0_energy">   -190.73232306 </i>
   </energy>
  </scstep>
  <scstep>
   <time name="dav">   31.12   31.20</time>
   <time name="total">   31.64   31.73</time>
   <energy>
    <i name="e_fr_energy">   -190.84952455 </i>
    <i name="e_wo_entrp">   -190.63097369 </i>
    <i name="e_0_energy">   -190.74024912 </i>
   </energy>
  </scstep>
  <scstep>
   <time name="dav">   31.39   31.47</time>
   <time name="total">   31.92   32.00</time>
   <energy>
    <i name="e_fr_energy">   -190.83840225 </i>
    <i name="e_wo_entrp">   -190.62041465 </i>
    <i name="e_0_energy">   -190.72940845 </i>
   </energy>
  </scstep>
  <scstep>
   <time name="dav">   29.96   30.03</time>
   <time name="total">   30.48   30.56</time>
   <energy>
    <i name="e_fr_energy">   -190.83861104 </i>
    <i name="e_wo_entrp">   -190.62066653 </i>
    <i name="e_0_energy">   -190.72963879 </i>
   </energy>
  </scstep>
  <scstep>
   <time name="dav">   30.14   30.21</time>
   <time name="total">   30.66   30.74</time>
   <energy>
    <i name="e_fr_energy">   -190.83887561 </i>
    <i name="e_wo_entrp">   -190.62088499 </i>
    <i name="e_0_energy">   -190.72988030 </i>
   </energy>
  </scstep>
  <scstep>
   <time name="dav">   24.53   24.59</time>
   <time name="total">   25.05   25.12</time>
   <energy>
    <i name="e_fr_energy">   -190.83859370 </i>
    <i name="e_wo_entrp">   -190.62056861 </i>
    <i name="e_0_energy">   -190.72958115 </i>
   </energy>
  </scstep>
  <scstep>
   <time name="dav">   19.32   19.36</time>
   <time name="total">   19.36   19.41</time>
   <energy>
    <i name="alphaZ">     85.79931839 </i>
    <i name="ewald">  42825.02822170 </i>
    <i name="hartreedc"> -48812.77475118 </i>
    <i name="XCdc">   -234.27543584 </i>
    <i name="pawpsdc">   4065.32612376 </i>
    <i name="pawaedc">  -3481.23934889 </i>
    <i name="eentropy">     -0.21803910 </i>
    <i name="bandstr">  -1399.92720898 </i>
    <i name="atom">   6761.44252427 </i>
    <i name="e_fr_energy">   -190.83859587 </i>
    <i name="e_wo_entrp">   -190.62055677 </i>
    <i name="e_0_energy">   -190.72957632 </i>
   </energy>
  </scstep>
  <structure>
   <crystal>
    <varray name="basis" >
     <v>       8.48736011       4.89955338       0.00000000 </v>
     <v>      -8.48758497       4.89994363       0.00000000 </v>
     <v>       0.00000000       0.00000000      30.00000000 </v>
    </varray>
    <i name="volume">   2495.18885402 </i>
    <varray name="rec_basis" >
     <v>       0.05891270       0.10204741       0.00000000 </v>
     <v>      -0.05890801       0.10204470       0.00000000 </v>
     <v>       0.00000000       0.00000000       0.03333333 </v>
    </varray>
   </crystal>
   <varray name="positions" >
    <v>       0.66638388       0.66654816       0.00035641 </v>
    <v>       0.33342390       0.33358608       0.00036111 </v>
    <v>       0.33346711       0.66651144       0.00033491 </v>
    <v>       0.99083146       0.32876852      -0.00014852 </v>
    <v>       0.67120754       0.32870266      -0.00014218 </v>
    <v>       0.67116226       0.00911735      -0.00015010 </v>
    <v>      -0.00406231       0.00405996      -0.00014738 </v>
    <v>      -0.00398346       0.65854880      -0.00016250 </v>
    <v>       0.34137818       0.00394498      -0.00016277 </v>
    <v>       0.11607008       0.22413278       0.95055575 </v>
    <v>       0.22417149       0.11506887       0.04915487 </v>
    <v>       0.11607494       0.55855604       0.95054571 </v>
    <v>       0.22737592       0.44686029       0.04760658 </v>
    <v>       0.11101852       0.88882111       0.95054121 </v>
    <v>       0.22429237       0.77553934       0.04914995 </v>
    <v>       0.44122690       0.22423673       0.95059674 </v>
    <v>       0.55427992       0.11040632       0.05158463 </v>
    <v>       0.44425116       0.55551401       0.95310985 </v>
    <v>       0.55288870       0.44688959       0.04761785 </v>
    <v>       0.44128753       0.88374494       0.95055119 </v>
    <v>       0.55295966       0.77248236       0.04760667 </v>
    <v>       0.77764675       0.22217696       0.94775668 </v>
    <v>       0.88940651       0.11041413       0.05158328 </v>
    <v>       0.77560468       0.55860915       0.95059598 </v>
    <v>       0.88943000       0.44557164       0.05158867 </v>
    <v>       0.77568583       0.88375708       0.95056085 </v>
    <v>       0.88473492       0.77564516       0.04915444 </v>
   </varray>
  </structure>
  <varray name="forces" >
   <v>       0.05940755       0.10641795       0.08860531 </v>
   <v>       0.05864406      -0.10952189       0.08839907 </v>
   <v>      -0.12225456      -0.00224629       0.09010699 </v>
   <v>      -0.34102630      -0.59719432       0.00487339 </v>
   <v>       0.68548097      -0.00037329       0.00798445 </v>
   <v>      -0.33892461       0.59247040       0.00362372 </v>
   <v>      -0.65269326      -0.00218655      -0.09084495 </v>
   <v>       0.32673657      -0.56535046      -0.08380606 </v>
   <v>       0.32588516       0.55931020      -0.08465961 </v>
   <v>      -0.08618186       0.05490427      -0.32288034 </v>
   <v>       0.00203502       0.00122974       0.20532240 </v>
   <v>       0.09064607      -0.04688998      -0.32412522 </v>
   <v>      -0.05660784      -0.07532373       0.16656919 </v>
   <v>      -0.00082687       0.00088493       0.13754804 </v>
   <v>      -0.01083080       0.00159374       0.20908028 </v>
   <v>       0.00763838       0.10033111      -0.33066799 </v>
   <v>       0.02919404       0.05363590       0.61030920 </v>
   <v>       0.01183369       0.00161968      -0.27740155 </v>
   <v>       0.08621166       0.00232042       0.16106158 </v>
   <v>       0.08913112       0.04835799      -0.32474768 </v>
   <v>      -0.05475402       0.07677042       0.16693298 </v>
   <v>       0.00364527       0.00193771      -0.87151276 </v>
   <v>      -0.06511053       0.00210605       0.60942310 </v>
   <v>       0.00606992      -0.09926218      -0.32889734 </v>
   <v>       0.03068887      -0.05200581       0.60832043 </v>
   <v>      -0.08492278      -0.05375513      -0.32179146 </v>
   <v>       0.00088509       0.00021911       0.20317482 </v>
  </varray>
  <varray name="stress" >
   <v>      -5.54990801       0.00675729      -0.07072235 </v>
   <v>       0.00675712      -5.54691056       0.00270209 </v>
   <v>      -0.07072239       0.00270207       4.47891552 </v>
  </varray>
  <energy>
   <i name="e_fr_energy">   -190.83859587 </i>
   <i name="e_wo_entrp">   -190.72957632 </i>
   <i name="e_0_energy">     -0.21803910 </i>
  </energy>
  <time name="totalsc">  399.72  400.78</time>
 </calculation>
 <calculation>
  <scstep>
   <time name="dav">   23.07   23.12</time>
   <time name="total">   23.57   23.63</time>
   <energy>
    <i name="alphaZ">     89.80112497 </i>
    <i name="ewald">  44504.20017006 </i>
    <i name="hartreedc"> -50543.10960439 </i>
    <i name="XCdc">   -232.05014302 </i>
    <i name="pawpsdc">   4065.16189996 </i>
    <i name="pawaedc">  -3481.06737081 </i>
    <i name="eentropy">     -0.22246276 </i>
    <i name="bandstr">  -1356.29181038 </i>
    <i name="atom">   6761.44252427 </i>
    <i name="e_fr_energy">   -192.13567210 </i>
    <i name="e_wo_entrp">   -191.91320934 </i>
    <i name="e_0_energy">   -192.02444072 </i>
   </energy>
  </scstep>
  <scstep>
   <time name="dav">   29.71   29.78</time>
   <time name="total">   30.22   30.30</time>
   <energy>
    <i name="e_fr_energy">   -191.97767896 </i>
    <i name="e_wo_entrp">   -191.75579649 </i>
    <i name="e_0_energy">   -191.86673773 </i>
   </energy>
  </scstep>
  <scstep>
   <time name="dav">   32.44   32.53</time>
   <time name="total">   32.95   33.05</time>
   <energy>
    <i name="e_fr_energy">   -191.88517596 </i>
    <i name="e_wo_entrp">   -191.65170841 </i>
    <i name="e_0_energy">   -191.76844219 </i>
   </energy>
  </scstep>
  <scstep>
   <time name="dav">   33.54   33.62</time>
   <time name="total">   34.05   34.14</time>
   <energy>
    <i name="e_fr_energy">   -191.85766912 </i>
    <i name="e_wo_entrp">   -191.64582896 </i>
    <i name="e_0_energy">   -191.75174904 </i>
   </energy>
  </scstep>
  <scstep>
   <time name="dav">   32.74   32.82</time>
   <time name="total">   33.25   33.34</time>
   <energy>
    <i name="e_fr_energy">   -191.60212001 </i>
    <i name="e_wo_entrp">   -191.37267535 </i>
    <i name="e_0_energy">   -191.48739768 </i>
   </energy>
  </scstep>
  <scstep>
   <time name="dav">   30.34   30.41</time>
   <time name="total">   30.85   30.93</time>
   <energy>
    <i name="e_fr_energy">   -191.59358946 </i>
    <i name="e_wo_entrp">   -191.36597630 </i>
    <i name="e_0_energy">   -191.47978288 </i>
   </energy>
  </scstep>
  <scstep>
   <time name="dav">   31.59   31.67</time>
   <time name="total">   32.09   32.18</time>
   <energy>
    <i name="e_fr_energy">   -191.59566013 </i>
    <i name="e_wo_entrp">   -191.36771783 </i>
    <i name="e_0_energy">   -191.48168898 </i>
   </energy>
  </scstep>
  <scstep>
   <time name="dav">   31.07   31.14</time>
   <time name="total">   31.58   31.66</time>
   <energy>
    <i name="e_fr_energy">   -191.58913342 </i>
    <i name="e_wo_entrp">   -191.36118088 </i>
    <i name="e_0_energy">   -191.47515715 </i>
   </energy>
  </scstep>
  <scstep>
   <time name="dav">   30.25   30.32</time>
   <time name="total">   30.75   30.84</time>
   <energy>
    <i name="e_fr_energy">   -191.58954204 </i>
    <i name="e_wo_entrp">   -191.36151340 </i>
    <i name="e_0_energy">   -191.47552772 </i>
   </energy>
  </scstep>
  <scstep>
   <time name="dav">   28.30   28.36</time>
   <time name="total">   28.80   28.88</time>
   <energy>
    <i name="e_fr_energy">   -191.58930747 </i>
    <i name="e_wo_entrp">   -191.36126520 </i>
    <i name="e_0_energy">   -191.47528633 </i>
   </energy>
  </scstep>
  <scstep>
   <time name="dav">   22.96   23.02</time>
   <time name="total">   23.47   23.53</time>
   <energy>
    <i name="e_fr_energy">   -191.58914880 </i>
    <i name="e_wo_entrp">   -191.36106328 </i>
    <i name="e_0_energy">   -191.47510604 </i>
   </energy>
  </scstep>
  <scstep>
   <time name="dav">   19.93   19.97</time>
   <time name="total">   19.96   20.02</time>
   <energy>
    <i name="alphaZ">     89.80112497 </i>
    <i name="ewald">  44504.20017006 </i>
    <i name="hartreedc"> -50513.23377218 </i>
    <i name="XCdc">   -233.41235441 </i>
    <i name="pawpsdc">   4088.05235137 </i>
    <i name="pawaedc">  -3504.10837339 </i>
    <i name="eentropy">     -0.22808622 </i>
    <i name="bandstr">  -1384.10275683 </i>
    <i name="atom">   6761.44252427 </i>
    <i name="e_fr_energy">   -191.58917236 </i>
    <i name="e_wo_entrp">   -191.36108613 </i>
    <i name="e_0_energy">   -191.47512925 </i>
   </energy>
  </scstep>
  <structure>
   <crystal>
    <varray name="basis" >
     <v>       8.29602734       4.78950495       0.00000000 </v>
     <v>      -8.29596422       4.78939650       0.00000000 </v>
     <v>       0.00000000       0.00000000      30.00000000 </v>
    </varray>
    <i name="volume">   2383.99577961 </i>
    <varray name="rec_basis" >
     <v>       0.06026936       0.10439571       0.00000000 </v>
     <v>      -0.06027072       0.10439650       0.00000000 </v>
     <v>       0.00000000       0.00000000       0.03333333 </v>
    </varray>
   </crystal>
   <varray name="positions" >
    <v>       0.66812924       0.66743142       0.00070401 </v>
    <v>       0.33248218       0.33178292       0.00070892 </v>
    <v>       0.33255266       0.66736806       0.00068991 </v>
    <v>       0.98135850       0.32399745      -0.00012267 </v>
    <v>       0.67590555       0.32396834      -0.00010565 </v>
    <v>       0.67588159       0.01852462      -0.00012768 </v>
    <v>      -0.00831426       0.00827657      -0.00050647 </v>
    <v>      -0.00823548       0.65004171      -0.00049548 </v>
    <v>       0.34981715       0.00814368      -0.00049818 </v>
    <v>       0.11665809       0.22571817       0.94881458 </v>
    <v>       0.22445245       0.11557289       0.05044555 </v>
    <v>       0.11666442       0.55757555       0.94879482 </v>
    <v>       0.22654815       0.44658204       0.04866271 </v>
    <v>       0.11100519       0.88885457       0.95050868 </v>
    <v>       0.22449123       0.77537598       0.05046607 </v>
    <v>       0.44229703       0.22572629       0.94882314 </v>
    <v>       0.55528660       0.11092251       0.05451297 </v>
    <v>       0.44435082       0.55544160       0.95165360 </v>
    <v>       0.55328797       0.44653587       0.04864687 </v>
    <v>       0.44228511       0.88318816       0.94879924 </v>
    <v>       0.55327281       0.77333311       0.04866505 </v>
    <v>       0.77768424       0.22217920       0.94384944 </v>
    <v>       0.88891108       0.11094856       0.05450727 </v>
    <v>       0.77412625       0.55756246       0.94882821 </v>
    <v>       0.88894162       0.44458188       0.05451123 </v>
    <v>       0.77412679       0.88318988       0.94882469 </v>
    <v>       0.88424748       0.77539099       0.05043907 </v>
   </varray>
  </structure>
  <varray name="forces" >
   <v>       0.05467569       0.09463688       0.10538869 </v>
   <v>       0.05649945      -0.09864794       0.10398753 </v>
   <v>      -0.11203134      -0.00033369       0.10311773 </v>
   <v>      -0.01016461      -0.01768018      -0.07087525 </v>
   <v>       0.02260383      -0.00116184      -0.07674073 </v>
   <v>      -0.01092664       0.01621773      -0.06698756 </v>
   <v>      -0.76970617      -0.00144615      -0.01811798 </v>
   <v>       0.38088663      -0.66616711      -0.02903764 </v>
   <v>       0.38258740       0.66641741      -0.02646597 </v>
   <v>      -0.22242363      -0.02060199      -0.07292461 </v>
   <v>       0.06375862      -0.11645479      -0.14921709 </v>
   <v>       0.09342281      -0.20293894      -0.06603834 </v>
   <v>      -0.11831214      -0.20531572      -0.08262338 </v>
   <v>       0.00412724      -0.00011312       0.60788752 </v>
   <v>      -0.13563782      -0.00011207      -0.15175255 </v>
   <v>       0.13319134       0.17992632      -0.06438021 </v>
   <v>       0.04905713       0.08486963       0.26319157 </v>
   <v>      -0.00139027       0.00116974       0.01314219 </v>
   <v>       0.23523123       0.00113192      -0.08019519 </v>
   <v>       0.09271240       0.20374524      -0.06744948 </v>
   <v>      -0.11725559       0.20547624      -0.08267148 </v>
   <v>       0.00092326       0.00059850      -0.33318266 </v>
   <v>      -0.09860604      -0.00006340       0.26323849 </v>
   <v>       0.13364822      -0.17846796      -0.06468531 </v>
   <v>       0.04952762      -0.08589865       0.26595511 </v>
   <v>      -0.22144112       0.02272561      -0.07462090 </v>
   <v>       0.06504249       0.11848835      -0.14794249 </v>
  </varray>
  <varray name="stress" >
   <v>       0.50333343      -0.00755609      -0.01932278 </v>
   <v>      -0.00755625       0.52788636      -0.00432201 </v>
   <v>      -0.01932286      -0.00432194      -0.83814311 </v>
  </varray>
  <energy>
   <i name="e_fr_energy">   -191.58917236 </i>
   <i name="e_wo_entrp">   -191.47512925 </i>
   <i name="e_0_energy">     -0.22808622 </i>
  </energy>
  <time name="totalsc">  396.18  397.24</time>
 </calculation>
 <calculation>
  <scstep>
   <time name="dav">   23.08   23.13</time>
   <time name="total">   23.58   23.64</time>
   <energy>
    <i name="alphaZ">     89.45812983 </i>
    <i name="ewald">  44344.45821121 </i>
    <i name="hartreedc"> -50349.92010836 </i>
    <i name="XCdc">   -233.67224314 </i>
    <i name="pawpsdc">   4087.93533750 </i>
    <i name="pawaedc">  -3503.98756057 </i>
    <i name="eentropy">     -0.22609018 </i>
    <i name="bandstr">  -1387.19738465 </i>
    <i name="atom">   6761.44252427 </i>
    <i name="e_fr_energy">   -191.70918410 </i>
    <i name="e_wo_entrp">   -191.48309392 </i>
    <i name="e_0_energy">   -191.59613901 </i>
   </energy>
  </scstep>
  <scstep>
   <time name="dav">   35.03   35.12</time>
   <time name="total">   35.55   35.64</time>
   <energy>
    <i name="e_fr_energy">   -191.76577926 </i>
    <i name="e_wo_entrp">   -191.52914343 </i>
    <i name="e_0_energy">   -191.64746135 </i>
   </energy>
  </scstep>
  <scstep>
   <time name="dav">   32.44   32.51</time>
   <time name="total">   32.94   33.03</time>
   <energy>
    <i name="e_fr_energy">   -191.72061660 </i>
    <i name="e_wo_entrp">   -191.49413531 </i>
    <i name="e_0_energy">   -191.60737595 </i>
   </energy>
  </scstep>
  <scstep>
   <time name="dav">   31.54   31.61</time>
   <time name="total">   32.05   32.14</time>
   <energy>
    <i name="e_fr_energy">   -191.71757210 </i>
    <i name="e_wo_entrp">   -191.48902230 </i>
    <i name="e_0_energy">   -191.60329720 </i>
   </energy>
  </scstep>
  <scstep>
   <time name="dav">   31.67   31.75</time>
   <time name="total">   32.18   32.26</time>
   <energy>
    <i name="e_fr_energy">   -191.71866310 </i>
    <i name="e_wo_entrp">   -191.49077827 </i>
    <i name="e_0_energy">   -191.60472069 </i>
   </energy>
  </scstep>
  <scstep>
   <time name="dav">   29.25   29.32</time>
   <time name="total">   29.76   29.84</time>
   <energy>
    <i name="e_fr_energy">   -191.71713069 </i>
    <i name="e_wo_entrp">   -191.48934638 </i>
    <i name="e_0_energy">   -191.60323854 </i>
   </energy>
  </scstep>
  <scstep>
   <time name="dav">   24.44   24.50</time>
   <time name="total">   24.95   25.02</time>
   <energy>
    <i name="e_fr_energy">   -191.71667601 </i>
    <i name="e_wo_entrp">   -191.48891859 </i>
    <i name="e_0_energy">   -191.60279730 </i>
   </energy>
  </scstep>
  <scstep>
   <time name="dav">   20.57   20.61</time>
   <time name="total">   20.60   20.66</time>
   <energy>
    <i name="alphaZ">     89.45812983 </i>
    <i name="ewald">  44344.45821121 </i>
    <i name="hartreedc"> -50353.80647492 </i>
    <i name="XCdc">   -233.52793536 </i>
    <i name="pawpsdc">   4085.86774128 </i>
    <i name="pawaedc">  -3501.89532811 </i>
    <i name="eentropy">     -0.22777734 </i>
    <i name="bandstr">  -1383.48579670 </i>
    <i name="atom">   6761.44252427 </i>
    <i name="e_fr_energy">   -191.71670585 </i>
    <i name="e_wo_entrp">   -191.48892850 </i>
    <i name="e_0_energy">   -191.60281718 </i>
   </energy>
  </scstep>
  <structure>
   <crystal>
    <varray name="basis" >
     <v>       8.31159458       4.79865126       0.00000000 </v>
     <v>      -8.31171529       4.79886121       0.00000000 </v>
     <v>       0.00000000       0.00000000      30.00000000 </v>
    </varray>
    <i name="volume">   2393.13635725 </i>
    <varray name="rec_basis" >
     <v>       0.06015781       0.10419442       0.00000000 </v>
     <v>      -0.06015518       0.10419291       0.00000000 </v>
     <v>       0.00000000       0.00000000       0.03333333 </v>
    </varray>
   </crystal>
   <varray name="positions" >
    <v>       0.66860877       0.66767087       0.00083886 </v>
    <v>       0.33223300       0.33128438       0.00084167 </v>
    <v>       0.33230690       0.66761407       0.00082098 </v>
    <v>       0.98176521       0.32420234      -0.00022777 </v>
    <v>       0.67570550       0.32416079      -0.00021984 </v>
    <v>       0.67567119       0.01811658      -0.00022698 </v>
    <v>      -0.01013135       0.01008174      -0.00051322 </v>
    <v>      -0.01005365       0.64643504      -0.00051953 </v>
    <v>       0.35343274       0.00996091      -0.00051838 </v>
    <v>       0.11592498       0.22611200       0.94882111 </v>
    <v>       0.22406353       0.11482578       0.05013898 </v>
    <v>       0.11593134       0.55644693       0.94881212 </v>
    <v>       0.22532488       0.44596211       0.04846925 </v>
    <v>       0.11101698       0.88884069       0.95141930 </v>
    <v>       0.22411230       0.77575206       0.05015401 </v>
    <v>       0.44341962       0.22610317       0.94884398 </v>
    <v>       0.55574299       0.11114999       0.05471709 </v>
    <v>       0.44434713       0.55545493       0.95176617 </v>
    <v>       0.55390066       0.44593141       0.04845865 </v>
    <v>       0.44341423       0.88392485       0.94881449 </v>
    <v>       0.55389418       0.77455238       0.04847137 </v>
    <v>       0.77768778       0.22217921       0.94359484 </v>
    <v>       0.88868024       0.11117713       0.05471174 </v>
    <v>       0.77375628       0.55644404       0.94884834 </v>
    <v>       0.88870924       0.44411833       0.05471962 </v>
    <v>       0.77374368       0.88392838       0.94882845 </v>
    <v>       0.88500608       0.77578430       0.05013460 </v>
   </varray>
  </structure>
  <varray name="forces" >
   <v>       0.04387622       0.08631065       0.11257012 </v>
   <v>       0.04463232      -0.08721577       0.11213378 </v>
   <v>      -0.10588165       0.00028047       0.11222959 </v>
   <v>      -0.08061699      -0.13585420      -0.03367049 </v>
   <v>       0.16283366       0.00021516      -0.03106328 </v>
   <v>      -0.07909621       0.13335210      -0.03548644 </v>
   <v>      -0.85103218      -0.00365973      -0.03696183 </v>
   <v>       0.42928821      -0.73597575      -0.03351524 </v>
   <v>       0.43211275       0.73348684      -0.03438864 </v>
   <v>      -0.12846107      -0.00542544      -0.10222173 </v>
   <v>       0.06040222      -0.10854460      -0.18552739 </v>
   <v>       0.06418072      -0.11157345      -0.09865156 </v>
   <v>      -0.05861429      -0.09227198      -0.08109041 </v>
   <v>       0.00166276      -0.00003369       0.69871033 </v>
   <v>      -0.12353225       0.00010177      -0.18908003 </v>
   <v>       0.07095162       0.11005587      -0.10215472 </v>
   <v>       0.04606101       0.08248635       0.23933778 </v>
   <v>      -0.00225344       0.00252899       0.07725134 </v>
   <v>       0.11075310       0.00251122      -0.07811281 </v>
   <v>       0.06345664       0.11243526      -0.09921880 </v>
   <v>      -0.05653321       0.09289590      -0.08106084 </v>
   <v>       0.00233894      -0.00032955      -0.21939683 </v>
   <v>      -0.09549875       0.00046757       0.24173002 </v>
   <v>       0.07036693      -0.10986590      -0.10189212 </v>
   <v>       0.04624731      -0.08182924       0.23770300 </v>
   <v>      -0.12852255       0.00594169      -0.10248372 </v>
   <v>       0.06087815       0.10950946      -0.18568908 </v>
  </varray>
  <varray name="stress" >
   <v>       0.01780794       0.00225019      -0.02838809 </v>
   <v>       0.00225029       0.00619102       0.00227035 </v>
   <v>      -0.02838803       0.00227046      -1.27108997 </v>
  </varray>
  <energy>
   <i name="e_fr_energy">   -191.71670585 </i>
   <i name="e_wo_entrp">   -191.60281718 </i>
   <i name="e_0_energy">     -0.22777734 </i>
  </energy>
  <time name="totalsc">  276.29  277.01</time>
 </calculation>
 <calculation>
  <scstep>
   <time name="dav">   23.15   23.20</time>
   <time name="total">   23.66   23.72</time>
   <energy>
    <i name="alphaZ">     89.51437311 </i>
    <i name="ewald">  44353.95649592 </i>
    <i name="hartreedc"> -50364.31340550 </i>
    <i name="XCdc">   -233.55555278 </i>
    <i name="pawpsdc">   4085.66258814 </i>
    <i name="pawaedc">  -3501.68799397 </i>
    <i name="eentropy">     -0.22479183 </i>
    <i name="bandstr">  -1382.59076991 </i>
    <i name="atom">   6761.44252427 </i>
    <i name="e_fr_energy">   -191.79653255 </i>
    <i name="e_wo_entrp">   -191.57174071 </i>
    <i name="e_0_energy">   -191.68413663 </i>
   </energy>
  </scstep>
  <scstep>
   <time name="dav">   33.37   33.45</time>
   <time name="total">   33.88   33.97</time>
   <energy>
    <i name="e_fr_energy">   -191.81647297 </i>
    <i name="e_wo_entrp">   -191.58359668 </i>
    <i name="e_0_energy">   -191.70003483 </i>
   </energy>
  </scstep>
  <scstep>
   <time name="dav">   33.02   33.10</time>
   <time name="total">   33.52   33.61</time>
   <energy>
    <i name="e_fr_energy">   -191.80073238 </i>
    <i name="e_wo_entrp">   -191.57576890 </i>
    <i name="e_0_energy">   -191.68825064 </i>
   </energy>
  </scstep>
  <scstep>
   <time name="dav">   30.46   30.53</time>
   <time name="total">   30.98   31.06</time>
   <energy>
    <i name="e_fr_energy">   -191.80196975 </i>
    <i name="e_wo_entrp">   -191.57627675 </i>
    <i name="e_0_energy">   -191.68912325 </i>
   </energy>
  </scstep>
  <scstep>
   <time name="dav">   29.17   29.24</time>
   <time name="total">   29.68   29.76</time>
   <energy>
    <i name="e_fr_energy">   -191.79977579 </i>
    <i name="e_wo_entrp">   -191.57330591 </i>
    <i name="e_0_energy">   -191.68654085 </i>
   </energy>
  </scstep>
  <scstep>
   <time name="dav">   27.66   27.73</time>
   <time name="total">   28.17   28.25</time>
   <energy>
    <i name="e_fr_energy">   -191.79962552 </i>
    <i name="e_wo_entrp">   -191.57314308 </i>
    <i name="e_0_energy">   -191.68638430 </i>
   </energy>
  </scstep>
  <scstep>
   <time name="dav">   28.34   28.41</time>
   <time name="total">   28.86   28.93</time>
   <energy>
    <i name="e_fr_energy">   -191.79949999 </i>
    <i name="e_wo_entrp">   -191.57312466 </i>
    <i name="e_0_energy">   -191.68631232 </i>
   </energy>
  </scstep>
  <scstep>
   <time name="dav">   20.11   20.16</time>
   <time name="total">   20.15   20.20</time>
   <energy>
    <i name="alphaZ">     89.51437311 </i>
    <i name="ewald">  44353.95649592 </i>
    <i name="hartreedc"> -50364.24077245 </i>
    <i name="XCdc">   -233.55849148 </i>
    <i name="pawpsdc">   4085.01648460 </i>
    <i name="pawaedc">  -3501.02883040 </i>
    <i name="eentropy">     -0.22636638 </i>
    <i name="bandstr">  -1382.67491225 </i>
    <i name="atom">   6761.44252427 </i>
    <i name="e_fr_energy">   -191.79949506 </i>
    <i name="e_wo_entrp">   -191.57312868 </i>
    <i name="e_0_energy">   -191.68631187 </i>
   </energy>
  </scstep>
  <structure>
   <crystal>
    <varray name="basis" >
     <v>       8.30901841       4.79714360       0.00000000 </v>
     <v>      -8.30912129       4.79732267       0.00000000 </v>
     <v>       0.00000000       0.00000000      30.00000000 </v>
    </varray>
    <i name="volume">   2391.63271214 </i>
    <varray name="rec_basis" >
     <v>       0.06017633       0.10422739       0.00000000 </v>
     <v>      -0.06017408       0.10422610       0.00000000 </v>
     <v>       0.00000000       0.00000000       0.03333333 </v>
    </varray>
   </crystal>
   <varray name="positions" >
    <v>       0.66892618       0.66784000       0.00093179 </v>
    <v>       0.33205982       0.33096038       0.00093423 </v>
    <v>       0.33213594       0.66778397       0.00091376 </v>
    <v>       0.98108396       0.32386446      -0.00025467 </v>
    <v>       0.67605054       0.32381415      -0.00024528 </v>
    <v>       0.67600337       0.01878875      -0.00025477 </v>
    <v>      -0.01137997       0.01131410      -0.00055036 </v>
    <v>      -0.01128923       0.64395052      -0.00055462 </v>
    <v>       0.35591392       0.01118660      -0.00055386 </v>
    <v>       0.11575519       0.22633935       0.94868115 </v>
    <v>       0.22390870       0.11452376       0.05006024 </v>
    <v>       0.11577172       0.55605005       0.94867463 </v>
    <v>       0.22497928       0.44580295       0.04845378 </v>
    <v>       0.11101862       0.88883949       0.95190706 </v>
    <v>       0.22396008       0.77590572       0.05007385 </v>
    <v>       0.44382475       0.22632694       0.94870372 </v>
    <v>       0.55602977       0.11129637       0.05500222 </v>
    <v>       0.44435292       0.55546055       0.95176063 </v>
    <v>       0.55408001       0.44576402       0.04844428 </v>
    <v>       0.44381290       0.88408855       0.94867650 </v>
    <v>       0.55405846       0.77489787       0.04845600 </v>
    <v>       0.77769112       0.22217604       0.94328513 </v>
    <v>       0.88853699       0.11132323       0.05499824 </v>
    <v>       0.77353327       0.55604107       0.94870838 </v>
    <v>       0.88856504       0.44383302       0.05500381 </v>
    <v>       0.77351900       0.88410074       0.94868835 </v>
    <v>       0.88531208       0.77594178       0.05005573 </v>
   </varray>
  </structure>
  <varray name="forces" >
   <v>       0.03798806       0.06978215       0.11719752 </v>
[...]
      <set comment="kpoint 31">
       <r>  -17.4670    1.0000 </r>
       <r>  -17.2599    1.0000 </r>
       <r>  -16.9132    1.0000 </r>
       <r>  -16.5670    1.0000 </r>
       <r>  -16.4573    1.0000 </r>
       <r>  -16.3349    1.0000 </r>
       <r>  -16.2696    1.0000 </r>
       <r>  -16.1794    1.0000 </r>
       <r>  -16.0748    1.0000 </r>
       <r>  -16.0087    1.0000 </r>
       <r>  -15.9373    1.0000 </r>
       <r>  -15.8881    1.0000 </r>
       <r>  -15.8064    1.0000 </r>
       <r>  -15.7395    1.0000 </r>
       <r>  -15.6078    1.0000 </r>
       <r>  -15.5666    1.0000 </r>
       <r>  -15.4966    1.0000 </r>
       <r>  -15.4811    1.0000 </r>
       <r>   -9.7276    1.0000 </r>
       <r>   -9.4047    1.0000 </r>
       <r>   -9.2498    1.0000 </r>
       <r>   -8.9009    1.0000 </r>
       <r>   -8.7980    1.0000 </r>
       <r>   -8.7276    1.0000 </r>
       <r>   -8.5481    1.0000 </r>
       <r>   -8.4901    1.0000 </r>
       <r>   -8.3814    1.0000 </r>
       <r>   -8.3363    1.0000 </r>
       <r>   -8.3091    1.0000 </r>
       <r>   -8.1778    1.0000 </r>
       <r>   -8.1309    1.0000 </r>
       <r>   -8.0625    1.0000 </r>
       <r>   -7.9509    1.0000 </r>
       <r>   -7.8749    1.0000 </r>
       <r>   -7.7675    1.0000 </r>
       <r>   -7.6385    1.0000 </r>
       <r>   -7.5597    1.0000 </r>
       <r>   -7.4117    1.0000 </r>
       <r>   -7.2906    1.0000 </r>
       <r>   -7.2473    1.0000 </r>
       <r>   -7.1181    1.0000 </r>
       <r>   -7.0577    1.0000 </r>
       <r>   -7.0121    1.0000 </r>
       <r>   -6.9195    1.0000 </r>
       <r>   -6.7952    1.0000 </r>
       <r>   -6.7549    1.0000 </r>
       <r>   -6.6635    1.0000 </r>
       <r>   -6.6029    1.0000 </r>
       <r>   -6.5518    1.0000 </r>
       <r>   -6.4939    1.0000 </r>
       <r>   -6.4290    1.0000 </r>
       <r>   -6.3506    1.0000 </r>
       <r>   -6.3032    1.0000 </r>
       <r>   -6.2364    1.0000 </r>
       <r>   -6.1631    1.0000 </r>
       <r>   -6.0526    1.0000 </r>
       <r>   -6.0263    1.0000 </r>
       <r>   -5.9977    1.0000 </r>
       <r>   -5.8822    1.0000 </r>
       <r>   -5.8527    1.0000 </r>
       <r>   -5.7184    1.0000 </r>
       <r>   -5.6848    1.0000 </r>
       <r>   -5.6260    1.0000 </r>
       <r>   -5.4409    1.0000 </r>
       <r>   -5.3001    1.0000 </r>
       <r>   -5.1491    1.0000 </r>
       <r>   -5.1026    1.0000 </r>
       <r>   -4.9631    1.0000 </r>
       <r>   -4.8669    1.0000 </r>
       <r>   -4.7252    1.0000 </r>
       <r>   -4.5455    1.0000 </r>
       <r>   -4.4551    1.0000 </r>
       <r>   -4.3954    1.0000 </r>
       <r>   -4.3186    1.0000 </r>
       <r>   -4.2512    1.0000 </r>
       <r>   -4.1020    1.0000 </r>
       <r>   -3.6670    0.9999 </r>
       <r>   -3.4627    0.9909 </r>
       <r>   -3.2902    0.8736 </r>
       <r>   -3.0585    0.3103 </r>
       <r>   -2.8856    0.0429 </r>
       <r>   -2.8505    0.0247 </r>
       <r>   -2.7497    0.0037 </r>
       <r>   -2.6981    0.0012 </r>
       <r>   -2.6015    0.0001 </r>
       <r>   -2.5337    0.0000 </r>
       <r>   -2.4018    0.0000 </r>
       <r>   -2.0821    0.0000 </r>
       <r>   -1.9854    0.0000 </r>
       <r>   -1.9469    0.0000 </r>
       <r>   -1.8221    0.0000 </r>
       <r>   -1.7574    0.0000 </r>
       <r>   -1.6046    0.0000 </r>
       <r>   -1.4983    0.0000 </r>
       <r>   -1.2011    0.0000 </r>
       <r>   -1.1589    0.0000 </r>
       <r>   -0.9949    0.0000 </r>
       <r>   -0.9503    0.0000 </r>
       <r>   -0.8984    0.0000 </r>
       <r>   -0.8325    0.0000 </r>
       <r>   -0.7730    0.0000 </r>
       <r>   -0.6921    0.0000 </r>
       <r>   -0.6651    0.0000 </r>
       <r>   -0.5736    0.0000 </r>
       <r>   -0.5071    0.0000 </r>
       <r>   -0.4663    0.0000 </r>
       <r>   -0.2890    0.0000 </r>
       <r>   -0.2611    0.0000 </r>
       <r>   -0.0520    0.0000 </r>
       <r>    0.1605    0.0000 </r>
       <r>    0.5449    0.0000 </r>
       <r>    0.6700    0.0000 </r>
       <r>    0.9125    0.0000 </r>
       <r>    0.9728    0.0000 </r>
       <r>    1.0715    0.0000 </r>
       <r>    1.1893    0.0000 </r>
       <r>    1.3668    0.0000 </r>
       <r>    2.1293    0.0000 </r>
       <r>    2.2803    0.0000 </r>
       <r>    2.3903    0.0000 </r>
      </set>
      <set comment="kpoint 32">
       <r>  -17.4869    1.0000 </r>
       <r>  -17.1499    1.0000 </r>
       <r>  -17.0592    1.0000 </r>
       <r>  -16.5548    1.0000 </r>
       <r>  -16.3522    1.0000 </r>
       <r>  -16.3017    1.0000 </r>
       <r>  -16.2606    1.0000 </r>
       <r>  -16.2160    1.0000 </r>
       <r>  -16.1394    1.0000 </r>
       <r>  -16.0072    1.0000 </r>
       <r>  -15.9581    1.0000 </r>
       <r>  -15.8695    1.0000 </r>
       <r>  -15.8308    1.0000 </r>
       <r>  -15.7409    1.0000 </r>
       <r>  -15.6111    1.0000 </r>
       <r>  -15.5551    1.0000 </r>
       <r>  -15.4965    1.0000 </r>
       <r>  -15.4651    1.0000 </r>
       <r>   -9.6775    1.0000 </r>
       <r>   -9.4962    1.0000 </r>
       <r>   -9.3289    1.0000 </r>
       <r>   -8.8284    1.0000 </r>
       <r>   -8.7410    1.0000 </r>
       <r>   -8.5758    1.0000 </r>
       <r>   -8.5429    1.0000 </r>
       <r>   -8.4467    1.0000 </r>
       <r>   -8.3997    1.0000 </r>
       <r>   -8.3453    1.0000 </r>
       <r>   -8.3305    1.0000 </r>
       <r>   -8.2245    1.0000 </r>
       <r>   -8.1459    1.0000 </r>
       <r>   -8.1064    1.0000 </r>
       <r>   -8.0338    1.0000 </r>
       <r>   -7.9324    1.0000 </r>
       <r>   -7.7403    1.0000 </r>
       <r>   -7.6478    1.0000 </r>
       <r>   -7.5046    1.0000 </r>
       <r>   -7.4094    1.0000 </r>
       <r>   -7.3128    1.0000 </r>
       <r>   -7.2950    1.0000 </r>
       <r>   -7.1065    1.0000 </r>
       <r>   -7.0467    1.0000 </r>
       <r>   -7.0008    1.0000 </r>
       <r>   -6.8376    1.0000 </r>
       <r>   -6.8124    1.0000 </r>
       <r>   -6.7595    1.0000 </r>
       <r>   -6.6896    1.0000 </r>
       <r>   -6.6181    1.0000 </r>
       <r>   -6.5362    1.0000 </r>
       <r>   -6.5083    1.0000 </r>
       <r>   -6.4746    1.0000 </r>
       <r>   -6.3709    1.0000 </r>
       <r>   -6.3352    1.0000 </r>
       <r>   -6.2108    1.0000 </r>
       <r>   -6.1561    1.0000 </r>
       <r>   -6.0626    1.0000 </r>
       <r>   -6.0393    1.0000 </r>
       <r>   -5.9522    1.0000 </r>
       <r>   -5.8874    1.0000 </r>
       <r>   -5.7393    1.0000 </r>
       <r>   -5.6840    1.0000 </r>
       <r>   -5.6232    1.0000 </r>
       <r>   -5.5235    1.0000 </r>
       <r>   -5.4498    1.0000 </r>
       <r>   -5.3575    1.0000 </r>
       <r>   -5.2651    1.0000 </r>
       <r>   -5.1042    1.0000 </r>
       <r>   -5.0259    1.0000 </r>
       <r>   -4.8915    1.0000 </r>
       <r>   -4.7233    1.0000 </r>
       <r>   -4.5469    1.0000 </r>
       <r>   -4.4380    1.0000 </r>
       <r>   -4.4288    1.0000 </r>
       <r>   -4.3157    1.0000 </r>
       <r>   -4.2496    1.0000 </r>
       <r>   -4.0996    1.0000 </r>
       <r>   -3.6669    0.9999 </r>
       <r>   -3.3929    0.9692 </r>
       <r>   -3.3016    0.8894 </r>
       <r>   -3.0347    0.2536 </r>
       <r>   -2.9038    0.0561 </r>
       <r>   -2.8955    0.0497 </r>
       <r>   -2.7455    0.0034 </r>
       <r>   -2.6935    0.0010 </r>
       <r>   -2.5957    0.0001 </r>
       <r>   -2.5017    0.0000 </r>
       <r>   -2.4234    0.0000 </r>
       <r>   -2.0706    0.0000 </r>
       <r>   -1.9995    0.0000 </r>
       <r>   -1.9408    0.0000 </r>
       <r>   -1.8207    0.0000 </r>
       <r>   -1.7711    0.0000 </r>
       <r>   -1.6076    0.0000 </r>
       <r>   -1.5051    0.0000 </r>
       <r>   -1.2078    0.0000 </r>
       <r>   -1.1815    0.0000 </r>
       <r>   -0.9875    0.0000 </r>
       <r>   -0.9438    0.0000 </r>
       <r>   -0.8952    0.0000 </r>
       <r>   -0.8000    0.0000 </r>
       <r>   -0.7703    0.0000 </r>
       <r>   -0.6849    0.0000 </r>
       <r>   -0.6760    0.0000 </r>
       <r>   -0.5793    0.0000 </r>
       <r>   -0.4704    0.0000 </r>
       <r>   -0.3984    0.0000 </r>
       <r>   -0.3533    0.0000 </r>
       <r>   -0.2651    0.0000 </r>
       <r>   -0.0356    0.0000 </r>
       <r>    0.0706    0.0000 </r>
       <r>    0.6114    0.0000 </r>
       <r>    0.7185    0.0000 </r>
       <r>    0.8860    0.0000 </r>
       <r>    0.9406    0.0000 </r>
       <r>    1.0685    0.0000 </r>
       <r>    1.1680    0.0000 </r>
       <r>    1.3392    0.0000 </r>
       <r>    2.0981    0.0000 </r>
       <r>    2.2513    0.0000 </r>
       <r>    2.5575    0.0000 </r>
      </set>
      <set comment="kpoint 33">
       <r>  -17.4667    1.0000 </r>
       <r>  -17.2602    1.0000 </r>
       <r>  -16.9134    1.0000 </r>
       <r>  -16.5676    1.0000 </r>
       <r>  -16.4569    1.0000 </r>
       <r>  -16.3342    1.0000 </r>
       <r>  -16.2694    1.0000 </r>
       <r>  -16.1797    1.0000 </r>
       <r>  -16.0743    1.0000 </r>
       <r>  -16.0101    1.0000 </r>
       <r>  -15.9369    1.0000 </r>
       <r>  -15.8887    1.0000 </r>
       <r>  -15.8072    1.0000 </r>
       <r>  -15.7358    1.0000 </r>
       <r>  -15.6088    1.0000 </r>
       <r>  -15.5696    1.0000 </r>
       <r>  -15.4957    1.0000 </r>
       <r>  -15.4799    1.0000 </r>
       <r>   -9.7278    1.0000 </r>
       <r>   -9.4044    1.0000 </r>
       <r>   -9.2503    1.0000 </r>
       <r>   -8.9016    1.0000 </r>
       <r>   -8.7975    1.0000 </r>
       <r>   -8.7280    1.0000 </r>
       <r>   -8.5470    1.0000 </r>
       <r>   -8.4903    1.0000 </r>
       <r>   -8.3812    1.0000 </r>
       <r>   -8.3359    1.0000 </r>
       <r>   -8.3096    1.0000 </r>
       <r>   -8.1771    1.0000 </r>
       <r>   -8.1313    1.0000 </r>
       <r>   -8.0635    1.0000 </r>
       <r>   -7.9516    1.0000 </r>
       <r>   -7.8751    1.0000 </r>
       <r>   -7.7677    1.0000 </r>
       <r>   -7.6393    1.0000 </r>
       <r>   -7.5586    1.0000 </r>
       <r>   -7.4118    1.0000 </r>
       <r>   -7.2902    1.0000 </r>
       <r>   -7.2465    1.0000 </r>
       <r>   -7.1167    1.0000 </r>
       <r>   -7.0583    1.0000 </r>
       <r>   -7.0121    1.0000 </r>
       <r>   -6.9200    1.0000 </r>
       <r>   -6.7947    1.0000 </r>
       <r>   -6.7529    1.0000 </r>
       <r>   -6.6632    1.0000 </r>
       <r>   -6.6041    1.0000 </r>
       <r>   -6.5528    1.0000 </r>
       <r>   -6.4935    1.0000 </r>
       <r>   -6.4296    1.0000 </r>
       <r>   -6.3513    1.0000 </r>
       <r>   -6.3027    1.0000 </r>
       <r>   -6.2356    1.0000 </r>
       <r>   -6.1627    1.0000 </r>
       <r>   -6.0541    1.0000 </r>
       <r>   -6.0264    1.0000 </r>
       <r>   -5.9985    1.0000 </r>
       <r>   -5.8810    1.0000 </r>
       <r>   -5.8545    1.0000 </r>
       <r>   -5.7178    1.0000 </r>
       <r>   -5.6843    1.0000 </r>
       <r>   -5.6263    1.0000 </r>
       <r>   -5.4399    1.0000 </r>
       <r>   -5.2992    1.0000 </r>
       <r>   -5.1480    1.0000 </r>
       <r>   -5.1017    1.0000 </r>
       <r>   -4.9651    1.0000 </r>
       <r>   -4.8693    1.0000 </r>
       <r>   -4.7218    1.0000 </r>
       <r>   -4.5471    1.0000 </r>
       <r>   -4.4562    1.0000 </r>
       <r>   -4.3965    1.0000 </r>
       <r>   -4.3199    1.0000 </r>
       <r>   -4.2514    1.0000 </r>
       <r>   -4.1015    1.0000 </r>
       <r>   -3.6674    0.9999 </r>
       <r>   -3.4611    0.9906 </r>
       <r>   -3.2901    0.8733 </r>
       <r>   -3.0613    0.3172 </r>
       <r>   -2.8841    0.0420 </r>
       <r>   -2.8492    0.0241 </r>
       <r>   -2.7480    0.0036 </r>
       <r>   -2.6965    0.0011 </r>
       <r>   -2.5994    0.0001 </r>
       <r>   -2.5351    0.0000 </r>
       <r>   -2.4065    0.0000 </r>
       <r>   -2.0832    0.0000 </r>
       <r>   -1.9861    0.0000 </r>
       <r>   -1.9477    0.0000 </r>
       <r>   -1.8169    0.0000 </r>
       <r>   -1.7593    0.0000 </r>
       <r>   -1.6032    0.0000 </r>
       <r>   -1.4993    0.0000 </r>
       <r>   -1.1995    0.0000 </r>
       <r>   -1.1610    0.0000 </r>
       <r>   -0.9963    0.0000 </r>
       <r>   -0.9513    0.0000 </r>
       <r>   -0.9006    0.0000 </r>
       <r>   -0.8334    0.0000 </r>
       <r>   -0.7678    0.0000 </r>
       <r>   -0.6916    0.0000 </r>
       <r>   -0.6658    0.0000 </r>
       <r>   -0.5734    0.0000 </r>
       <r>   -0.5060    0.0000 </r>
       <r>   -0.4654    0.0000 </r>
       <r>   -0.2865    0.0000 </r>
       <r>   -0.2626    0.0000 </r>
       <r>   -0.0530    0.0000 </r>
       <r>    0.1615    0.0000 </r>
       <r>    0.5454    0.0000 </r>
       <r>    0.6701    0.0000 </r>
       <r>    0.9113    0.0000 </r>
       <r>    0.9710    0.0000 </r>
       <r>    1.0698    0.0000 </r>
       <r>    1.1896    0.0000 </r>
       <r>    1.3668    0.0000 </r>
       <r>    2.1293    0.0000 </r>
       <r>    2.2806    0.0000 </r>
       <r>    2.3903    0.0000 </r>
      </set>
      <set comment="kpoint 34">
       <r>  -17.4318    1.0000 </r>
       <r>  -17.3370    1.0000 </r>
       <r>  -16.7278    1.0000 </r>
       <r>  -16.6941    1.0000 </r>
       <r>  -16.5216    1.0000 </r>
       <r>  -16.3475    1.0000 </r>
       <r>  -16.2431    1.0000 </r>
       <r>  -16.1973    1.0000 </r>
       <r>  -16.0325    1.0000 </r>
       <r>  -16.0054    1.0000 </r>
       <r>  -15.9156    1.0000 </r>
       <r>  -15.9054    1.0000 </r>
       <r>  -15.7796    1.0000 </r>
       <r>  -15.7308    1.0000 </r>
       <r>  -15.6024    1.0000 </r>
       <r>  -15.5905    1.0000 </r>
       <r>  -15.5106    1.0000 </r>
       <r>  -15.4826    1.0000 </r>
       <r>   -9.7605    1.0000 </r>
       <r>   -9.2859    1.0000 </r>
       <r>   -9.1401    1.0000 </r>
       <r>   -9.0455    1.0000 </r>
       <r>   -8.8980    1.0000 </r>
       <r>   -8.7759    1.0000 </r>
       <r>   -8.5585    1.0000 </r>
       <r>   -8.5308    1.0000 </r>
       <r>   -8.4015    1.0000 </r>
       <r>   -8.3159    1.0000 </r>
       <r>   -8.2821    1.0000 </r>
       <r>   -8.1810    1.0000 </r>
       <r>   -8.0921    1.0000 </r>
       <r>   -8.0166    1.0000 </r>
       <r>   -7.8886    1.0000 </r>
       <r>   -7.8663    1.0000 </r>
       <r>   -7.7527    1.0000 </r>
       <r>   -7.6192    1.0000 </r>
       <r>   -7.4808    1.0000 </r>
       <r>   -7.4330    1.0000 </r>
       <r>   -7.4294    1.0000 </r>
       <r>   -7.1967    1.0000 </r>
       <r>   -7.1330    1.0000 </r>
       <r>   -7.0826    1.0000 </r>
       <r>   -6.9900    1.0000 </r>
       <r>   -6.9327    1.0000 </r>
       <r>   -6.7641    1.0000 </r>
       <r>   -6.7196    1.0000 </r>
       <r>   -6.6989    1.0000 </r>
       <r>   -6.6236    1.0000 </r>
       <r>   -6.5245    1.0000 </r>
       <r>   -6.4235    1.0000 </r>
       <r>   -6.3839    1.0000 </r>
       <r>   -6.3648    1.0000 </r>
       <r>   -6.3364    1.0000 </r>
       <r>   -6.2693    1.0000 </r>
       <r>   -6.1786    1.0000 </r>
       <r>   -6.0368    1.0000 </r>
       <r>   -6.0337    1.0000 </r>
       <r>   -6.0175    1.0000 </r>
       <r>   -5.9462    1.0000 </r>
       <r>   -5.8758    1.0000 </r>
       <r>   -5.7727    1.0000 </r>
       <r>   -5.6844    1.0000 </r>
       <r>   -5.6386    1.0000 </r>
       <r>   -5.4897    1.0000 </r>
       <r>   -5.3280    1.0000 </r>
       <r>   -5.0809    1.0000 </r>
       <r>   -4.9909    1.0000 </r>
       <r>   -4.9683    1.0000 </r>
       <r>   -4.8145    1.0000 </r>
       <r>   -4.6853    1.0000 </r>
       <r>   -4.6450    1.0000 </r>
       <r>   -4.4089    1.0000 </r>
       <r>   -4.3838    1.0000 </r>
       <r>   -4.2871    1.0000 </r>
       <r>   -4.2853    1.0000 </r>
       <r>   -4.1029    1.0000 </r>
       <r>   -3.6687    0.9999 </r>
       <r>   -3.5298    0.9977 </r>
       <r>   -3.2694    0.8403 </r>
       <r>   -3.0949    0.4061 </r>
       <r>   -2.8768    0.0375 </r>
       <r>   -2.7791    0.0067 </r>
       <r>   -2.7563    0.0042 </r>
       <r>   -2.6946    0.0011 </r>
       <r>   -2.6314    0.0002 </r>
       <r>   -2.5521    0.0000 </r>
       <r>   -2.3937    0.0000 </r>
       <r>   -2.0913    0.0000 </r>
       <r>   -1.9733    0.0000 </r>
       <r>   -1.9587    0.0000 </r>
       <r>   -1.8142    0.0000 </r>
       <r>   -1.7471    0.0000 </r>
       <r>   -1.5989    0.0000 </r>
       <r>   -1.4926    0.0000 </r>
       <r>   -1.1921    0.0000 </r>
       <r>   -1.1251    0.0000 </r>
       <r>   -1.0399    0.0000 </r>
       <r>   -0.9375    0.0000 </r>
       <r>   -0.9366    0.0000 </r>
       <r>   -0.7709    0.0000 </r>
       <r>   -0.7646    0.0000 </r>
       <r>   -0.7503    0.0000 </r>
       <r>   -0.6519    0.0000 </r>
       <r>   -0.5772    0.0000 </r>
       <r>   -0.5652    0.0000 </r>
       <r>   -0.5090    0.0000 </r>
       <r>   -0.2537    0.0000 </r>
       <r>   -0.2024    0.0000 </r>
       <r>   -0.0900    0.0000 </r>
       <r>    0.2835    0.0000 </r>
       <r>    0.4184    0.0000 </r>
       <r>    0.6595    0.0000 </r>
       <r>    0.9218    0.0000 </r>
       <r>    0.9932    0.0000 </r>
       <r>    1.0767    0.0000 </r>
       <r>    1.2078    0.0000 </r>
       <r>    1.3950    0.0000 </r>
       <r>    2.2100    0.0000 </r>
       <r>    2.2411    0.0000 </r>
       <r>    2.3583    0.0000 </r>
      </set>
     </set>
    </set>
   </array>
  </eigenvalues>
  <separator name="orbital magnetization" >
   <v name="MAGDIPOLOUT">      0.00000000      0.00000000      0.00000000</v>
  </separator>
 </calculation>
 <structure name="finalpos" >
  <crystal>
   <varray name="basis" >
    <v>       8.37040357       4.83314046       0.00000000 </v>
    <v>      -8.37058363       4.83345323       0.00000000 </v>
    <v>       0.00000000       0.00000000      30.00000000 </v>
   </varray>
   <i name="volume">   2427.42481955 </i>
   <varray name="rec_basis" >
    <v>       0.05973557       0.10345017       0.00000000 </v>
    <v>      -0.05973170       0.10344794       0.00000000 </v>
    <v>       0.00000000       0.00000000       0.03333333 </v>
   </varray>
  </crystal>
  <varray name="positions" >
   <v>       0.67021864       0.66883265       0.00166940 </v>
   <v>       0.33102773       0.32958379       0.00166738 </v>
   <v>       0.33150543       0.66844158       0.00162372 </v>
   <v>       0.97746027       0.32200821      -0.00031562 </v>
   <v>       0.67802554       0.32184483      -0.00030180 </v>
   <v>       0.67784368       0.02238327      -0.00031709 </v>
   <v>      -0.01951576       0.01939550      -0.00099532 </v>
   <v>      -0.01950227       0.62767507      -0.00100381 </v>
   <v>       0.37218092       0.01937079      -0.00100516 </v>
   <v>       0.11416030       0.22821843       0.94826116 </v>
   <v>       0.22202034       0.11082052       0.04768901 </v>
   <v>       0.11416555       0.55249019       0.94828921 </v>
   <v>       0.22340303       0.44505991       0.04749186 </v>
   <v>       0.11104815       0.88881692       0.95922391 </v>
   <v>       0.22208212       0.77779303       0.04768924 </v>
   <v>       0.44743616       0.22826422       0.94832972 </v>
   <v>       0.56022769       0.11339727       0.05630541 </v>
   <v>       0.44436512       0.55548281       0.95311610 </v>
   <v>       0.55488876       0.44494920       0.04739474 </v>
   <v>       0.44736815       0.88571608       0.94828830 </v>
   <v>       0.55480311       0.77647870       0.04750761 </v>
   <v>       0.77774967       0.22211237       0.94250481 </v>
   <v>       0.88644090       0.11342981       0.05630041 </v>
   <v>       0.77161235       0.55242678       0.94833574 </v>
   <v>       0.88647336       0.43963959       0.05630373 </v>
   <v>       0.77167914       0.88573334       0.94826829 </v>
   <v>       0.88904636       0.77784959       0.04767895 </v>
  </varray>
 </structure>
</modeling>
