unknown system                          
           1
     8.859070    5.106578    0.000000
    -8.859080    5.106596    0.000000
     0.000000    0.000000   30.000000
   V    Mo   W    S 
   3   3   3  18
Direct configuration=     1
   0.66666669  0.66666669  0.00000000
   0.33333334  0.33333334  0.00000000
   0.33333334  0.66666669  0.00000000
   1.00000000  0.33333334  0.00000000
   0.66666669  0.33333334  0.00000000
   0.66666669  0.00000000  0.00000000
   0.00000000  0.00000000  0.00000000
   0.00000000  0.66666669  0.00000000
   0.33333334  0.00000000  0.00000000
   0.11068511  0.22244981  0.95539999
   0.22244981  0.11068511  0.04460000
   0.11068511  0.55578315  0.95539999
   0.22244981  0.44401845  0.04460000
   0.11068511  0.88911647  0.95539999
   0.22244981  0.77735180  0.04460000
   0.44401845  0.22244981  0.95539999
   0.55578315  0.11068511  0.04460000
   0.44401845  0.55578315  0.95539999
   0.55578315  0.44401845  0.04460000
   0.44401845  0.88911647  0.95539999
   0.55578315  0.77735180  0.04460000
   0.77735180  0.22244981  0.95539999
   0.88911647  0.11068511  0.04460000
   0.77735180  0.55578315  0.95539999
   0.88911647  0.44401845  0.04460000
   0.77735180  0.88911647  0.95539999
   0.88911647  0.77735180  0.04460000
unknown system                          
           1
     8.669546    4.999764    0.000000
    -8.669559    4.999786    0.000000
     0.000000    0.000000   30.000000
   V    Mo   W    S 
   3   3   3  18
Direct configuration=     2
   0.66582439  0.66627887  0.00005269
   0.33373516  0.33419796  0.00005356
   0.33377761  0.66622973  0.00003775
   0.99752062  0.33212758 -0.00011345
   0.66792896  0.33204231 -0.00010256
   0.66784208  0.00244813 -0.00011857
  -0.00171177  0.00168126  0.00010562
  -0.00157473  0.66337800  0.00009735
   0.33657023  0.00153380  0.00009348
   0.11502606  0.22343883  0.95193074
   0.22381092  0.11451960  0.04808881
   0.11504887  0.55804978  0.95192361
   0.22660997  0.44634449  0.04681659
   0.11109390  0.88874036  0.95089318
   0.22403914  0.77578756  0.04801750
   0.44153251  0.22365252  0.95200355
   0.55428759  0.11045539  0.04926834
   0.44418595  0.55559512  0.95412570
   0.55324276  0.44653867  0.04687644
   0.44176565  0.88475108  0.95192994
   0.55345434  0.77320530  0.04681216
   0.77767469  0.22214160  0.95064089
   0.88934873  0.11047760  0.04927719
   0.77616975  0.55829491  0.95200241
   0.88937011  0.44553626  0.04926813
   0.77636795  0.88476986  0.95193563
   0.88527302  0.77599790  0.04808321
unknown system                          
           1
     8.487360    4.899553    0.000000
    -8.487585    4.899944    0.000000
     0.000000    0.000000   30.000000
   V    Mo   W    S 
   3   3   3  18
Direct configuration=     3
   0.66578098  0.66625890  0.00011893
   0.33375721  0.33424600  0.00012048
   0.33380104  0.66620537  0.00009985
   0.99623623  0.33148131 -0.00013314
   0.66856395  0.33140751 -0.00012415
   0.66848676  0.00372947 -0.00013753
  -0.00222884  0.00220140  0.00006036
  -0.00209514  0.66233152  0.00004754
   0.33761096  0.00205298  0.00004465
   0.11499379  0.22328965  0.95194975
   0.22374622  0.11433684  0.04800714
   0.11501135  0.55821139  0.95194578
   0.22668249  0.44641214  0.04671711
   0.11108034  0.88875416  0.95113331
   0.22394450  0.77588153  0.04794955
   0.44141652  0.22347019  0.95201633
   0.55406507  0.11033017  0.04940410
   0.44419837  0.55558121  0.95417079
   0.55321318  0.44656820  0.04676648
   0.44160571  0.88478892  0.95195107
   0.55338709  0.77313359  0.04671349
   0.77766736  0.22215116  0.95039126
   0.88947134  0.11035567  0.04941040
   0.77635174  0.55841137  0.95201534
   0.88949722  0.44576175  0.04940479
   0.77651574  0.88480077  0.95195365
   0.88545327  0.77606131  0.04800258
unknown system                          
           1
     8.296027    4.789505    0.000000
    -8.295964    4.789396    0.000000
     0.000000    0.000000   30.000000
   V    Mo   W    S 
   3   3   3  18
Direct configuration=     4
   0.66638388  0.66654816  0.00035641
   0.33342390  0.33358608  0.00036111
   0.33346711  0.66651144  0.00033491
   0.99083146  0.32876852 -0.00014852
   0.67120754  0.32870266 -0.00014218
   0.67116226  0.00911735 -0.00015010
  -0.00406231  0.00405996 -0.00014738
  -0.00398346  0.65854880 -0.00016250
   0.34137818  0.00394498 -0.00016277
   0.11607008  0.22413278  0.95055575
   0.22417149  0.11506887  0.04915487
   0.11607494  0.55855604  0.95054571
   0.22737592  0.44686029  0.04760658
   0.11101852  0.88882111  0.95054121
   0.22429237  0.77553934  0.04914995
   0.44122690  0.22423673  0.95059674
   0.55427992  0.11040632  0.05158463
   0.44425116  0.55551401  0.95310985
   0.55288870  0.44688959  0.04761785
   0.44128753  0.88374494  0.95055119
   0.55295966  0.77248236  0.04760667
   0.77764675  0.22217696  0.94775668
   0.88940651  0.11041413  0.05158328
   0.77560468  0.55860915  0.95059598
   0.88943000  0.44557164  0.05158867
   0.77568583  0.88375708  0.95056085
   0.88473492  0.77564516  0.04915444
unknown system                          
           1
     8.311595    4.798651    0.000000
    -8.311715    4.798861    0.000000
     0.000000    0.000000   30.000000
   V    Mo   W    S 
   3   3   3  18
Direct configuration=     5
   0.66812924  0.66743142  0.00070401
   0.33248218  0.33178292  0.00070892
   0.33255266  0.66736806  0.00068991
   0.98135850  0.32399745 -0.00012267
   0.67590555  0.32396834 -0.00010565
   0.67588159  0.01852462 -0.00012768
  -0.00831426  0.00827657 -0.00050647
  -0.00823548  0.65004171 -0.00049548
   0.34981715  0.00814368 -0.00049818
   0.11665809  0.22571817  0.94881458
   0.22445245  0.11557289  0.05044555
   0.11666442  0.55757555  0.94879482
   0.22654815  0.44658204  0.04866271
   0.11100519  0.88885457  0.95050868
   0.22449123  0.77537598  0.05046607
   0.44229703  0.22572629  0.94882314
   0.55528660  0.11092251  0.05451297
   0.44435082  0.55544160  0.95165360
   0.55328797  0.44653587  0.04864687
   0.44228511  0.88318816  0.94879924
   0.55327281  0.77333311  0.04866505
   0.77768424  0.22217920  0.94384944
   0.88891108  0.11094856  0.05450727
   0.77412625  0.55756246  0.94882821
   0.88894162  0.44458188  0.05451123
   0.77412679  0.88318988  0.94882469
   0.88424748  0.77539099  0.05043907
unknown system                          
           1
     8.309018    4.797144    0.000000
    -8.309121    4.797323    0.000000
     0.000000    0.000000   30.000000
   V    Mo   W    S 
   3   3   3  18
Direct configuration=     6
   0.66860877  0.66767087  0.00083886
   0.33223300  0.33128438  0.00084167
   0.33230690  0.66761407  0.00082098
   0.98176521  0.32420234 -0.00022777
   0.67570550  0.32416079 -0.00021984
   0.67567119  0.01811658 -0.00022698
  -0.01013135  0.01008174 -0.00051322
  -0.01005365  0.64643504 -0.00051953
   0.35343274  0.00996091 -0.00051838
   0.11592498  0.22611200  0.94882111
   0.22406353  0.11482578  0.05013898
   0.11593134  0.55644693  0.94881212
   0.22532488  0.44596211  0.04846925
   0.11101698  0.88884069  0.95141930
   0.22411230  0.77575206  0.05015401
   0.44341962  0.22610317  0.94884398
   0.55574299  0.11114999  0.05471709
   0.44434713  0.55545493  0.95176617
   0.55390066  0.44593141  0.04845865
   0.44341423  0.88392485  0.94881449
   0.55389418  0.77455238  0.04847137
   0.77768778  0.22217921  0.94359484
   0.88868024  0.11117713  0.05471174
   0.77375628  0.55644404  0.94884834
   0.88870924  0.44411833  0.05471962
   0.77374368  0.88392838  0.94882845
   0.88500608  0.77578430  0.05013460
unknown system                          
           1
     8.316465    4.801525    0.000000
    -8.316571    4.801709    0.000000
     0.000000    0.000000   30.000000
   V    Mo   W    S 
   3   3   3  18
Direct configuration=     7
   0.66892618  0.66784000  0.00093179
   0.33205982  0.33096038  0.00093423
   0.33213594  0.66778397  0.00091376
   0.98108396  0.32386446 -0.00025467
   0.67605054  0.32381415 -0.00024528
   0.67600337  0.01878875 -0.00025477
  -0.01137997  0.01131410 -0.00055036
  -0.01128923  0.64395052 -0.00055462
   0.35591392  0.01118660 -0.00055386
   0.11575519  0.22633935  0.94868115
   0.22390870  0.11452376  0.05006024
   0.11577172  0.55605005  0.94867463
   0.22497928  0.44580295  0.04845378
   0.11101862  0.88883949  0.95190706
   0.22396008  0.77590572  0.05007385
   0.44382475  0.22632694  0.94870372
   0.55602977  0.11129637  0.05500222
   0.44435292  0.55546055  0.95176063
   0.55408001  0.44576402  0.04844428
   0.44381290  0.88408855  0.94867650
   0.55405846  0.77489787  0.04845600
   0.77769112  0.22217604  0.94328513
   0.88853699  0.11132323  0.05499824
   0.77353327  0.55604107  0.94870838
   0.88856504  0.44383302  0.05500381
   0.77351900  0.88410074  0.94868835
   0.88531208  0.77594178  0.05005573
unknown system                          
           1
     8.346160    4.818949    0.000000
    -8.346413    4.819389    0.000000
     0.000000    0.000000   30.000000
   V    Mo   W    S 
   3   3   3  18
Direct configuration=     8
   0.66949493  0.66813168  0.00116993
   0.33173213  0.33034020  0.00117186
   0.33183518  0.66806441  0.00114953
   0.98028282  0.32345083 -0.00032000
   0.67646075  0.32339538 -0.00031013
   0.67641653  0.01959899 -0.00032122
  -0.01423986  0.01420890 -0.00065778
  -0.01418768  0.63819539 -0.00065771
   0.36166442  0.01410081 -0.00065856
   0.11526739  0.22674505  0.94851116
   0.22343005  0.11358035  0.04960450
   0.11527073  0.55513201  0.94850255
   0.22434407  0.44547624  0.04825523
   0.11102455  0.88883318  0.95346067
   0.22346876  0.77639593  0.04962117
   0.44472867  0.22672929  0.94853767
   0.55680819  0.11169233  0.05545740
   0.44435778  0.55545312  0.95197723
   0.55438553  0.44544742  0.04824237
   0.44473013  0.88459274  0.94850417
   0.55438391  0.77553950  0.04826341
   0.77769956  0.22216550  0.94292823
   0.88814325  0.11172266  0.05545395
   0.77313755  0.55513190  0.94853948
   0.88817321  0.44305597  0.05545746
   0.77312408  0.88460325  0.94851534
   0.88627784  0.77643145  0.04960199
unknown system                          
           1
     8.350312    4.821415    0.000000
    -8.350301    4.821398    0.000000
     0.000000    0.000000   30.000000
   V    Mo   W    S 
   3   3   3  18
Direct configuration=     9
   0.67040472  0.66864788  0.00164324
   0.33121429  0.32941890  0.00164159
   0.33138634  0.66852717  0.00161758
   0.97878025  0.32269939 -0.00038702
   0.67724746  0.32262118 -0.00037463
   0.67716384  0.02108209 -0.00038738
  -0.01910035  0.01897308 -0.00095772
  -0.01905276  0.62854242 -0.00095909
   0.37131501  0.01891750 -0.00095897
   0.11449849  0.22763949  0.94816619
   0.22236338  0.11148279  0.04846141
   0.11449489  0.55345962  0.94817483
   0.22363909  0.44513144  0.04782827
   0.11103687  0.88882528  0.95710904
   0.22241536  0.77745790  0.04846364
   0.44642330  0.22762869  0.94819799
   0.55900558  0.11279470  0.05635254
   0.44437521  0.55546391  0.95258602
   0.55474582  0.44510695  0.04780333
   0.44639821  0.88538411  0.94817903
   0.55473412  0.77623290  0.04783364
   0.77771927  0.22215319  0.94242664
   0.88704415  0.11282738  0.05634919
   0.77225062  0.55345328  0.94820892
   0.88707235  0.44085513  0.05635169
   0.77226198  0.88538530  0.94818182
   0.88837693  0.77750279  0.04844810
unknown system                          
           1
     8.365849    4.830579    0.000000
    -8.365925    4.830712    0.000000
     0.000000    0.000000   30.000000
   V    Mo   W    S 
   3   3   3  18
Direct configuration=    10
   0.67030930  0.66863319  0.00163987
   0.33122521  0.32950817  0.00163874
   0.33143679  0.66847735  0.00161287
   0.97830363  0.32245353 -0.00031444
   0.67749861  0.32236790 -0.00030217
   0.67741031  0.02156255 -0.00031304
  -0.01847433  0.01838918 -0.00094642
  -0.01844671  0.62975345 -0.00094700
   0.37010267  0.01833183 -0.00094668
   0.11447914  0.22784932  0.94819324
   0.22226247  0.11128194  0.04820442
   0.11448512  0.55321916  0.94820034
   0.22369286  0.44516804  0.04775072
   0.11103867  0.88882114  0.95769049
   0.22231209  0.77756065  0.04820768
   0.44666913  0.22785350  0.94822618
   0.55953095  0.11305762  0.05627523
   0.44437900  0.55547222  0.95276786
   0.55472540  0.44513167  0.04771771
   0.44663904  0.88538394  0.94819856
   0.55469868  0.77617735  0.04775893
   0.77772281  0.22214826  0.94251601
   0.88678437  0.11308942  0.05627073
   0.77200985  0.55319921  0.94823130
   0.88681180  0.44033237  0.05627494
   0.77202516  0.88538595  0.94819737
   0.88858243  0.77760557  0.04819646
unknown system                          
           1
     8.366633    4.830823    0.000000
    -8.366868    4.831230    0.000000
     0.000000    0.000000   30.000000
   V    Mo   W    S 
   3   3   3  18
Direct configuration=    11
   0.67043711  0.66877892  0.00166793
   0.33108453  0.32938079  0.00166639
   0.33139181  0.66853668  0.00163441
   0.97752202  0.32205166 -0.00031970
   0.67792386  0.32194597 -0.00030680
   0.67780567  0.02232946 -0.00032008
  -0.01978663  0.01967089 -0.00101699
  -0.01977425  0.62714795 -0.00102035
   0.37271377  0.01964718 -0.00101933
   0.11420304  0.22822795  0.94818705
   0.22188239  0.11053618  0.04772603
   0.11420257  0.55254697  0.94820296
   0.22345873  0.44506138  0.04756892
   0.11104472  0.88881795  0.95917661
   0.22193305  0.77793832  0.04772604
   0.44735748  0.22825106  0.94822956
   0.56026722  0.11342474  0.05639517
   0.44438581  0.55547972  0.95311956
   0.55484951  0.44501137  0.04751163
   0.44731285  0.88567075  0.94820054
   0.55480682  0.77641072  0.04757951
   0.77773390  0.22213335  0.94248230
   0.88641870  0.11345570  0.05639012
   0.77161469  0.55251137  0.94823452
   0.88644465  0.43959499  0.05639491
   0.77165050  0.88566699  0.94819076
   0.88932995  0.77798546  0.04771823
unknown system                          
           1
     8.370404    4.833140    0.000000
    -8.370584    4.833453    0.000000
     0.000000    0.000000   30.000000
   V    Mo   W    S 
   3   3   3  18
Direct configuration=    12
   0.67029036  0.66875813  0.00166885
   0.33107283  0.32948359  0.00167092
   0.33142890  0.66848265  0.00163688
   0.97766236  0.32211943 -0.00031339
   0.67787109  0.32197807 -0.00029817
   0.67773067  0.02219751 -0.00031231
  -0.01932330  0.01928535 -0.00100339
  -0.01929620  0.62799199 -0.00100751
   0.37187107  0.01920808 -0.00100817
   0.11421199  0.22817656  0.94822686
   0.22200640  0.11079132  0.04776560
   0.11421900  0.55260480  0.94824821
   0.22348895  0.44509123  0.04754807
   0.11104440  0.88881833  0.95899809
   0.22206636  0.77780148  0.04776338
   0.44731305  0.22821450  0.94827583
   0.56018102  0.11337888  0.05633657
   0.44436047  0.55547522  0.95307245
   0.55483369  0.44498567  0.04748987
   0.44725668  0.88565402  0.94824588
   0.55476842  0.77640455  0.04756771
   0.77773865  0.22212775  0.94249291
   0.88646431  0.11340767  0.05633281
   0.77165797  0.55254436  0.94827645
   0.88649237  0.43968730  0.05633643
   0.77170591  0.88567544  0.94822652
   0.88909703  0.77787058  0.04776255
unknown system                          
           1
     8.370404    4.833140    0.000000
    -8.370584    4.833453    0.000000
     0.000000    0.000000   30.000000
   V    Mo   W    S 
   3   3   3  18
Direct configuration=    13
   0.67021864  0.66883265  0.00166940
   0.33102773  0.32958379  0.00166738
   0.33150543  0.66844158  0.00162372
   0.97746027  0.32200821 -0.00031562
   0.67802554  0.32184483 -0.00030180
   0.67784368  0.02238327 -0.00031709
  -0.01951576  0.01939550 -0.00099532
  -0.01950227  0.62767507 -0.00100381
   0.37218092  0.01937079 -0.00100516
   0.11416030  0.22821843  0.94826116
   0.22202034  0.11082052  0.04768901
   0.11416555  0.55249019  0.94828921
   0.22340303  0.44505991  0.04749186
   0.11104815  0.88881692  0.95922391
   0.22208212  0.77779303  0.04768924
   0.44743616  0.22826422  0.94832972
   0.56022769  0.11339727  0.05630541
   0.44436512  0.55548281  0.95311610
   0.55488876  0.44494920  0.04739474
   0.44736815  0.88571608  0.94828830
   0.55480311  0.77647870  0.04750761
   0.77774967  0.22211237  0.94250481
   0.88644090  0.11342981  0.05630041
   0.77161235  0.55242678  0.94833574
   0.88647336  0.43963959  0.05630373
   0.77167914  0.88573334  0.94826829
   0.88904636  0.77784959  0.04767895
