   27   27  100    1
  0.9710400E+02  0.1002848E-08  0.1002848E-08  0.3000000E-08  0.5000000E-15
  1.000000000000000E-004
  CAR 
 unknown system                          
    159     34    120
 
  0.0000000E+00  0.0000000E+00  0.0000000E+00  0.1562500E-01
    1      -17.832897   1.000000
    2      -16.620153   1.000000
    3      -16.526860   1.000000
    4      -16.525470   1.000000
    5      -16.511711   1.000000
    6      -16.511670   1.000000
    7      -16.294710   1.000000
    8      -16.294663   1.000000
    9      -16.133369   1.000000
   10      -16.131980   1.000000
   11      -15.938961   1.000000
   12      -15.938897   1.000000
   13      -15.924024   1.000000
   14      -15.923918   1.000000
   15      -15.646827   1.000000
   16      -15.645879   1.000000
   17      -15.449850   1.000000
   18      -15.448889   1.000000
   19       -9.264808   1.000000
   20       -8.762973   1.000000
   21       -8.761952   1.000000
   22       -8.710180   1.000000
   23       -8.710098   1.000000
   24       -8.600092   1.000000
   25       -8.599470   1.000000
   26       -8.527528   1.000000
   27       -8.523219   1.000000
   28       -8.523150   1.000000
   29       -8.268478   1.000000
   30       -8.266098   1.000000
   31       -8.175909   1.000000
   32       -8.175179   1.000000
   33       -8.060738   1.000000
   34       -8.018990   1.000000
   35       -8.018824   1.000000
   36       -7.960172   1.000000
   37       -7.960030   1.000000
   38       -7.587902   1.000000
   39       -7.587871   1.000000
   40       -7.408293   1.000000
   41       -7.408242   1.000000
   42       -7.274250   1.000000
   43       -7.272665   1.000000
   44       -6.913712   1.000000
   45       -6.786540   1.000000
   46       -6.786008   1.000000
   47       -6.681210   1.000000
   48       -6.681051   1.000000
   49       -6.631352   1.000000
   50       -6.629051   1.000000
   51       -6.364017   1.000000
   52       -6.287453   1.000000
   53       -6.287371   1.000000
   54       -6.218906   1.000000
   55       -6.218725   1.000000
   56       -6.103326   1.000000
   57       -6.102718   1.000000
   58       -5.705273   1.000000
   59       -5.594982   1.000000
   60       -5.592788   1.000000
   61       -5.557302   1.000000
   62       -5.557150   1.000000
   63       -5.498232   1.000000
   64       -5.498036   1.000000
   65       -4.652463   1.000000
   66       -4.649477   1.000000
   67       -4.586111   1.000000
   68       -4.585800   1.000000
   69       -4.564782   1.000000
   70       -4.564575   1.000000
   71       -4.358969   1.000000
   72       -4.357620   1.000000
   73       -4.314009   1.000000
   74       -4.313926   1.000000
   75       -4.220821   1.000000
   76       -4.220672   1.000000
   77       -3.471482   0.999720
   78       -3.470411   0.999712
   79       -3.426044   0.999122
   80       -2.923126   0.334506
   81       -2.922777   0.333606
   82       -2.303694   0.000001
   83       -2.302955   0.000001
   84       -2.090134   0.000000
   85       -2.066453   0.000000
   86       -2.066028   0.000000
   87       -2.043672   0.000000
   88       -2.043459   0.000000
   89       -1.948073   0.000000
   90       -1.946149   0.000000
   91       -1.921272   0.000000
   92       -1.917628   0.000000
   93       -1.814031   0.000000
   94       -1.520592   0.000000
   95       -1.517091   0.000000
   96       -1.441904   0.000000
   97       -1.441680   0.000000
   98       -1.432195   0.000000
   99       -1.431829   0.000000
  100       -0.262227   0.000000
  101       -0.261677   0.000000
  102       -0.243019   0.000000
  103       -0.242974   0.000000
  104       -0.220207   0.000000
  105       -0.220119   0.000000
  106        0.407800   0.000000
  107        0.407878   0.000000
  108        0.450947   0.000000
  109        0.451264   0.000000
  110        0.476802   0.000000
  111        0.476810   0.000000
  112        1.005889   0.000000
  113        1.007051   0.000000
  114        1.029390   0.000000
  115        1.029943   0.000000
  116        1.072387   0.000000
  117        1.072428   0.000000
  118        1.672370   0.000000
  119        1.783978   0.000000
  120        2.238892   0.000000
 
  0.1250000E+00  0.2775558E-16  0.0000000E+00  0.3125000E-01
    1      -17.805795   1.000000
    2      -16.708551   1.000000
    3      -16.619929   1.000000
    4      -16.609701   1.000000
    5      -16.509361   1.000000
    6      -16.409668   1.000000
    7      -16.237480   1.000000
    8      -16.230349   1.000000
    9      -16.171803   1.000000
   10      -16.149094   1.000000
   11      -15.973928   1.000000
   12      -15.909920   1.000000
   13      -15.874986   1.000000
   14      -15.818985   1.000000
   15      -15.678464   1.000000
   16      -15.659651   1.000000
   17      -15.465533   1.000000
   18      -15.452055   1.000000
   19       -9.238784   1.000000
   20       -9.057168   1.000000
   21       -8.890171   1.000000
   22       -8.830281   1.000000
   23       -8.784567   1.000000
   24       -8.654550   1.000000
   25       -8.587134   1.000000
   26       -8.537902   1.000000
   27       -8.503635   1.000000
   28       -8.388316   1.000000
   29       -8.262826   1.000000
   30       -8.241212   1.000000
   31       -8.183709   1.000000
   32       -8.080111   1.000000
   33       -8.062326   1.000000
   34       -7.932394   1.000000
   35       -7.837810   1.000000
   36       -7.760452   1.000000
   37       -7.760003   1.000000
   38       -7.649294   1.000000
   39       -7.602722   1.000000
   40       -7.441237   1.000000
   41       -7.345470   1.000000
   42       -7.230741   1.000000
   43       -7.227202   1.000000
   44       -7.017471   1.000000
   45       -6.845220   1.000000
   46       -6.794481   1.000000
   47       -6.697438   1.000000
   48       -6.677135   1.000000
   49       -6.665958   1.000000
   50       -6.649606   1.000000
   51       -6.313021   1.000000
   52       -6.306575   1.000000
   53       -6.270478   1.000000
   54       -6.246213   1.000000
   55       -6.241381   1.000000
   56       -6.155011   1.000000
   57       -6.113768   1.000000
   58       -5.741087   1.000000
   59       -5.657467   1.000000
   60       -5.583441   1.000000
   61       -5.571106   1.000000
   62       -5.425368   1.000000
   63       -5.357624   1.000000
   64       -5.296284   1.000000
   65       -4.933939   1.000000
   66       -4.898763   1.000000
   67       -4.870468   1.000000
   68       -4.853417   1.000000
   69       -4.652116   1.000000
   70       -4.522724   1.000000
   71       -4.417086   1.000000
   72       -4.172993   1.000000
   73       -4.104487   1.000000
   74       -4.058303   1.000000
   75       -4.008969   1.000000
   76       -3.957224   1.000000
   77       -3.706865   1.000000
   78       -3.628595   0.999997
   79       -3.444223   0.999437
   80       -2.798633   0.095470
   81       -2.778065   0.073078
   82       -2.447265   0.000075
   83       -2.381750   0.000010
   84       -2.214187   0.000000
   85       -2.145246   0.000000
   86       -2.137185   0.000000
   87       -2.099868   0.000000
   88       -2.024253   0.000000
   89       -1.968529   0.000000
   90       -1.912215   0.000000
   91       -1.902560   0.000000
   92       -1.739834   0.000000
   93       -1.691840   0.000000
   94       -1.623399   0.000000
   95       -1.606378   0.000000
   96       -1.376707   0.000000
   97       -1.358648   0.000000
   98       -1.344446   0.000000
   99       -1.320559   0.000000
  100       -0.346966   0.000000
  101       -0.340151   0.000000
  102       -0.334357   0.000000
  103       -0.321358   0.000000
  104       -0.266312   0.000000
  105       -0.232406   0.000000
  106        0.305580   0.000000
  107        0.339464   0.000000
  108        0.349646   0.000000
  109        0.388079   0.000000
  110        0.464495   0.000000
  111        0.511522   0.000000
  112        1.003682   0.000000
  113        1.059822   0.000000
  114        1.064369   0.000000
  115        1.079496   0.000000
  116        1.157571   0.000000
  117        1.220762   0.000000
  118        1.714326   0.000000
  119        1.823454   0.000000
  120        2.274395   0.000000
 
  0.2500000E+00  0.5551115E-16  0.0000000E+00  0.3125000E-01
    1      -17.725300   1.000000
    2      -16.956531   1.000000
    3      -16.699054   1.000000
    4      -16.578965   1.000000
    5      -16.561013   1.000000
    6      -16.341502   1.000000
    7      -16.248734   1.000000
    8      -16.207802   1.000000
    9      -16.104472   1.000000
   10      -16.097812   1.000000
   11      -16.004206   1.000000
   12      -15.827247   1.000000
   13      -15.798482   1.000000
   14      -15.759438   1.000000
   15      -15.699838   1.000000
   16      -15.653054   1.000000
   17      -15.512728   1.000000
   18      -15.471147   1.000000
   19       -9.436857   1.000000
   20       -9.186679   1.000000
   21       -9.052943   1.000000
   22       -9.000851   1.000000
   23       -8.906322   1.000000
   24       -8.771307   1.000000
   25       -8.567105   1.000000
   26       -8.494434   1.000000
   27       -8.486081   1.000000
   28       -8.259708   1.000000
   29       -8.236750   1.000000
   30       -8.211453   1.000000
   31       -8.209298   1.000000
   32       -8.109787   1.000000
   33       -7.879297   1.000000
   34       -7.822218   1.000000
   35       -7.701693   1.000000
   36       -7.691299   1.000000
   37       -7.618386   1.000000
   38       -7.497750   1.000000
   39       -7.379772   1.000000
   40       -7.271280   1.000000
   41       -7.226953   1.000000
   42       -7.176756   1.000000
   43       -7.171061   1.000000
   44       -7.015153   1.000000
   45       -6.922984   1.000000
   46       -6.854024   1.000000
   47       -6.824158   1.000000
   48       -6.708116   1.000000
   49       -6.699971   1.000000
   50       -6.673015   1.000000
   51       -6.425463   1.000000
   52       -6.326372   1.000000
   53       -6.280929   1.000000
   54       -6.228351   1.000000
   55       -6.138889   1.000000
   56       -6.108169   1.000000
   57       -6.073031   1.000000
   58       -5.795462   1.000000
   59       -5.678031   1.000000
   60       -5.601268   1.000000
   61       -5.408017   1.000000
   62       -5.380992   1.000000
   63       -5.358196   1.000000
   64       -5.354245   1.000000
   65       -5.283195   1.000000
   66       -5.144971   1.000000
   67       -5.078242   1.000000
   68       -5.040227   1.000000
   69       -4.650561   1.000000
   70       -4.491039   1.000000
   71       -4.471866   1.000000
   72       -4.206072   1.000000
   73       -3.988444   1.000000
   74       -3.907799   1.000000
   75       -3.765500   1.000000
   76       -3.745723   1.000000
   77       -3.707706   1.000000
   78       -3.612878   0.999996
   79       -3.470121   0.999710
   80       -2.722208   0.032286
   81       -2.662950   0.011688
   82       -2.588085   0.002582
   83       -2.502476   0.000335
   84       -2.311187   0.000001
   85       -2.277705   0.000000
   86       -2.222412   0.000000
   87       -2.209604   0.000000
   88       -2.095807   0.000000
   89       -2.013418   0.000000
   90       -1.865957   0.000000
   91       -1.850096   0.000000
   92       -1.737862   0.000000
   93       -1.662728   0.000000
   94       -1.501780   0.000000
   95       -1.482014   0.000000
   96       -1.272794   0.000000
   97       -1.267039   0.000000
   98       -1.207053   0.000000
   99       -1.202850   0.000000
  100       -0.546132   0.000000
  101       -0.500958   0.000000
  102       -0.492303   0.000000
  103       -0.464453   0.000000
  104       -0.335387   0.000000
  105       -0.256797   0.000000
  106        0.037739   0.000000
  107        0.101108   0.000000
  108        0.125244   0.000000
  109        0.350217   0.000000
  110        0.415160   0.000000
  111        0.553167   0.000000
  112        1.074942   0.000000
  113        1.133397   0.000000
  114        1.166589   0.000000
  115        1.256754   0.000000
  116        1.295683   0.000000
  117        1.411246   0.000000
  118        1.833689   0.000000
  119        1.939105   0.000000
  120        2.380114   0.000000
 
  0.3750000E+00  0.0000000E+00  0.0000000E+00  0.3125000E-01
    1      -17.593979   1.000000
    2      -17.199964   1.000000
    3      -16.749431   1.000000
    4      -16.598485   1.000000
    5      -16.529690   1.000000
    6      -16.392146   1.000000
    7      -16.280080   1.000000
    8      -16.114247   1.000000
    9      -16.050047   1.000000
   10      -16.022638   1.000000
   11      -15.976466   1.000000
   12      -15.868257   1.000000
   13      -15.766288   1.000000
   14      -15.748566   1.000000
   15      -15.696034   1.000000
   16      -15.583874   1.000000
   17      -15.519558   1.000000
   18      -15.518496   1.000000
   19       -9.698233   1.000000
   20       -9.211806   1.000000
   21       -9.171249   1.000000
   22       -9.006822   1.000000
   23       -9.002870   1.000000
   24       -8.855460   1.000000
   25       -8.496880   1.000000
   26       -8.477486   1.000000
   27       -8.392736   1.000000
   28       -8.373410   1.000000
   29       -8.264741   1.000000
   30       -8.184571   1.000000
   31       -8.168773   1.000000
   32       -8.076102   1.000000
   33       -7.838911   1.000000
   34       -7.805405   1.000000
   35       -7.667073   1.000000
   36       -7.608092   1.000000
   37       -7.481164   1.000000
   38       -7.458435   1.000000
   39       -7.267705   1.000000
   40       -7.222925   1.000000
   41       -7.166435   1.000000
   42       -7.152214   1.000000
   43       -7.114780   1.000000
   44       -6.933264   1.000000
   45       -6.825855   1.000000
   46       -6.796232   1.000000
   47       -6.701206   1.000000
   48       -6.699678   1.000000
   49       -6.681541   1.000000
   50       -6.635589   1.000000
   51       -6.301150   1.000000
   52       -6.294872   1.000000
   53       -6.276642   1.000000
   54       -6.221953   1.000000
   55       -6.149165   1.000000
   56       -5.950281   1.000000
   57       -5.920037   1.000000
   58       -5.882275   1.000000
   59       -5.769833   1.000000
   60       -5.765442   1.000000
   61       -5.716532   1.000000
   62       -5.705117   1.000000
   63       -5.648058   1.000000
   64       -5.587002   1.000000
   65       -5.221597   1.000000
   66       -5.055803   1.000000
   67       -4.974777   1.000000
   68       -4.889943   1.000000
   69       -4.772119   1.000000
   70       -4.574193   1.000000
   71       -4.545934   1.000000
   72       -4.437357   1.000000
   73       -4.182852   1.000000
   74       -3.787302   1.000000
   75       -3.523696   0.999933
   76       -3.498892   0.999866
   77       -3.455248   0.999574
   78       -3.435916   0.999309
   79       -3.327531   0.992494
   80       -2.954576   0.418737
   81       -2.906066   0.291799
   82       -2.522402   0.000555
   83       -2.458568   0.000103
   84       -2.434333   0.000051
   85       -2.297808   0.000001
   86       -2.251285   0.000000
   87       -2.216774   0.000000
   88       -2.199478   0.000000
   89       -2.052253   0.000000
   90       -1.833922   0.000000
   91       -1.822297   0.000000
   92       -1.806663   0.000000
   93       -1.677246   0.000000
   94       -1.334351   0.000000
   95       -1.310639   0.000000
   96       -1.224518   0.000000
   97       -1.219590   0.000000
   98       -1.161085   0.000000
   99       -1.084871   0.000000
  100       -0.705824   0.000000
  101       -0.619302   0.000000
  102       -0.595899   0.000000
  103       -0.531877   0.000000
  104       -0.421753   0.000000
  105       -0.296656   0.000000
  106       -0.156170   0.000000
  107       -0.127768   0.000000
  108       -0.118223   0.000000
  109        0.310162   0.000000
  110        0.334544   0.000000
  111        0.567142   0.000000
  112        1.165470   0.000000
  113        1.186088   0.000000
  114        1.245664   0.000000
  115        1.405243   0.000000
  116        1.431702   0.000000
  117        1.524868   0.000000
  118        2.017245   0.000000
  119        2.125245   0.000000
  120        2.546301   0.000000
 
  0.5000000E+00  0.1110223E-15  0.0000000E+00  0.1562500E-01
    1      -17.416877   1.000000
    2      -17.415957   1.000000
    3      -16.766689   1.000000
    4      -16.611562   1.000000
    5      -16.465849   1.000000
    6      -16.464539   1.000000
    7      -16.291732   1.000000
    8      -16.033624   1.000000
    9      -16.029305   1.000000
   10      -15.990760   1.000000
   11      -15.990236   1.000000
   12      -15.859936   1.000000
   13      -15.859062   1.000000
   14      -15.667041   1.000000
   15      -15.666129   1.000000
   16      -15.597458   1.000000
   17      -15.597270   1.000000
   18      -15.467688   1.000000
   19       -9.790836   1.000000
   20       -9.226163   1.000000
   21       -9.225961   1.000000
   22       -9.032568   1.000000
   23       -9.032201   1.000000
   24       -8.702949   1.000000
   25       -8.702045   1.000000
   26       -8.436658   1.000000
   27       -8.338611   1.000000
   28       -8.338043   1.000000
   29       -8.256934   1.000000
   30       -8.256388   1.000000
   31       -8.149170   1.000000
   32       -8.020802   1.000000
   33       -7.861042   1.000000
   34       -7.690016   1.000000
   35       -7.636600   1.000000
   36       -7.634260   1.000000
   37       -7.616510   1.000000
   38       -7.494793   1.000000
   39       -7.208219   1.000000
   40       -7.207094   1.000000
   41       -7.174976   1.000000
   42       -7.076492   1.000000
   43       -7.075691   1.000000
   44       -6.846645   1.000000
   45       -6.846141   1.000000
   46       -6.720811   1.000000
   47       -6.719236   1.000000
   48       -6.679912   1.000000
   49       -6.461630   1.000000
   50       -6.461030   1.000000
   51       -6.334220   1.000000
   52       -6.333493   1.000000
   53       -6.262430   1.000000
   54       -6.213049   1.000000
   55       -6.096766   1.000000
   56       -6.095279   1.000000
   57       -5.951546   1.000000
   58       -5.812219   1.000000
   59       -5.806560   1.000000
   60       -5.806498   1.000000
   61       -5.716573   1.000000
   62       -5.715723   1.000000
   63       -5.714730   1.000000
   64       -5.595887   1.000000
   65       -5.594041   1.000000
   66       -5.007846   1.000000
   67       -4.960650   1.000000
   68       -4.959517   1.000000
   69       -4.821702   1.000000
   70       -4.567700   1.000000
   71       -4.425634   1.000000
   72       -4.414246   1.000000
   73       -4.413166   1.000000
   74       -3.625488   0.999997
   75       -3.623714   0.999997
   76       -3.396408   0.998245
   77       -3.194030   0.931635
   78       -3.191067   0.928828
   79       -3.189222   0.927037
   80       -3.171962   0.908574
   81       -3.170112   0.906406
   82       -2.639131   0.007432
   83       -2.506501   0.000371
   84       -2.336397   0.000002
   85       -2.333661   0.000002
   86       -2.226384   0.000000
   87       -2.222773   0.000000
   88       -2.141928   0.000000
   89       -2.139613   0.000000
   90       -1.828656   0.000000
   91       -1.825619   0.000000
   92       -1.815848   0.000000
   93       -1.678319   0.000000
   94       -1.244318   0.000000
   95       -1.242848   0.000000
   96       -1.214595   0.000000
   97       -1.204125   0.000000
   98       -1.202599   0.000000
   99       -1.036806   0.000000
  100       -0.765081   0.000000
  101       -0.634655   0.000000
  102       -0.632363   0.000000
  103       -0.502186   0.000000
  104       -0.500542   0.000000
  105       -0.329634   0.000000
  106       -0.228765   0.000000
  107       -0.227608   0.000000
  108       -0.209796   0.000000
  109        0.296030   0.000000
  110        0.296804   0.000000
  111        0.569837   0.000000
  112        1.175034   0.000000
  113        1.252971   0.000000
  114        1.253634   0.000000
  115        1.439505   0.000000
  116        1.530989   0.000000
  117        1.532577   0.000000
  118        2.255487   0.000000
  119        2.255677   0.000000
  120        2.375525   0.000000
 
  0.0000000E+00  0.1250000E+00  0.0000000E+00  0.3125000E-01
    1      -17.805795   1.000000
    2      -16.708551   1.000000
    3      -16.619930   1.000000
    4      -16.609699   1.000000
    5      -16.509366   1.000000
    6      -16.409664   1.000000
    7      -16.237478   1.000000
    8      -16.230355   1.000000
    9      -16.171801   1.000000
   10      -16.149093   1.000000
   11      -15.973930   1.000000
   12      -15.909917   1.000000
   13      -15.874990   1.000000
   14      -15.818983   1.000000
   15      -15.678464   1.000000
   16      -15.659651   1.000000
   17      -15.465532   1.000000
   18      -15.452055   1.000000
   19       -9.238784   1.000000
   20       -9.057168   1.000000
   21       -8.890170   1.000000
   22       -8.830280   1.000000
   23       -8.784569   1.000000
   24       -8.654550   1.000000
   25       -8.587135   1.000000
   26       -8.537904   1.000000
   27       -8.503634   1.000000
   28       -8.388314   1.000000
   29       -8.262826   1.000000
   30       -8.241215   1.000000
   31       -8.183705   1.000000
   32       -8.080114   1.000000
   33       -8.062323   1.000000
   34       -7.932395   1.000000
   35       -7.837810   1.000000
   36       -7.760453   1.000000
   37       -7.760001   1.000000
   38       -7.649297   1.000000
   39       -7.602719   1.000000
   40       -7.441236   1.000000
   41       -7.345473   1.000000
   42       -7.230740   1.000000
   43       -7.227202   1.000000
   44       -7.017470   1.000000
   45       -6.845221   1.000000
   46       -6.794479   1.000000
   47       -6.697435   1.000000
   48       -6.677134   1.000000
   49       -6.665959   1.000000
   50       -6.649607   1.000000
   51       -6.313024   1.000000
   52       -6.306568   1.000000
   53       -6.270478   1.000000
   54       -6.246236   1.000000
   55       -6.241367   1.000000
   56       -6.155011   1.000000
   57       -6.113770   1.000000
   58       -5.741083   1.000000
   59       -5.657466   1.000000
   60       -5.583442   1.000000
   61       -5.571108   1.000000
   62       -5.425363   1.000000
   63       -5.357630   1.000000
   64       -5.296281   1.000000
   65       -4.933933   1.000000
   66       -4.898765   1.000000
   67       -4.870470   1.000000
   68       -4.853418   1.000000
   69       -4.652119   1.000000
   70       -4.522727   1.000000
   71       -4.417084   1.000000
   72       -4.172992   1.000000
   73       -4.104489   1.000000
   74       -4.058302   1.000000
   75       -4.008968   1.000000
   76       -3.957225   1.000000
   77       -3.706861   1.000000
   78       -3.628599   0.999997
   79       -3.444222   0.999437
   80       -2.798635   0.095472
   81       -2.778068   0.073081
   82       -2.447254   0.000075
   83       -2.381747   0.000010
   84       -2.214214   0.000000
   85       -2.145236   0.000000
   86       -2.137197   0.000000
   87       -2.099861   0.000000
   88       -2.024250   0.000000
   89       -1.968523   0.000000
   90       -1.912179   0.000000
   91       -1.902597   0.000000
   92       -1.739836   0.000000
   93       -1.691841   0.000000
   94       -1.623386   0.000000
   95       -1.606387   0.000000
   96       -1.376710   0.000000
   97       -1.358648   0.000000
   98       -1.344436   0.000000
   99       -1.320565   0.000000
  100       -0.346975   0.000000
  101       -0.340152   0.000000
  102       -0.334360   0.000000
  103       -0.321350   0.000000
  104       -0.266310   0.000000
  105       -0.232408   0.000000
  106        0.305579   0.000000
  107        0.339459   0.000000
  108        0.349647   0.000000
  109        0.388087   0.000000
  110        0.464499   0.000000
  111        0.511526   0.000000
  112        1.003676   0.000000
  113        1.059822   0.000000
  114        1.064368   0.000000
  115        1.079496   0.000000
  116        1.157567   0.000000
  117        1.220765   0.000000
  118        1.714326   0.000000
  119        1.823454   0.000000
  120        2.274395   0.000000
 
  0.1250000E+00  0.1250000E+00  0.0000000E+00  0.3125000E-01
    1      -17.751992   1.000000
    2      -16.816434   1.000000
    3      -16.815558   1.000000
    4      -16.589112   1.000000
    5      -16.406033   1.000000
    6      -16.405788   1.000000
    7      -16.242213   1.000000
    8      -16.241081   1.000000
    9      -16.123390   1.000000
   10      -16.123083   1.000000
   11      -15.946754   1.000000
   12      -15.946171   1.000000
   13      -15.734889   1.000000
   14      -15.734807   1.000000
   15      -15.733520   1.000000
   16      -15.685809   1.000000
   17      -15.509708   1.000000
   18      -15.452179   1.000000
   19       -9.238946   1.000000
   20       -9.238610   1.000000
   21       -9.200799   1.000000
   22       -8.985765   1.000000
   23       -8.683015   1.000000
   24       -8.644667   1.000000
   25       -8.644061   1.000000
   26       -8.528887   1.000000
   27       -8.417449   1.000000
   28       -8.416317   1.000000
   29       -8.222661   1.000000
   30       -8.222362   1.000000
   31       -8.197690   1.000000
   32       -8.031892   1.000000
   33       -8.031476   1.000000
   34       -7.825692   1.000000
   35       -7.825277   1.000000
   36       -7.805076   1.000000
   37       -7.475008   1.000000
   38       -7.390116   1.000000
   39       -7.389903   1.000000
   40       -7.321083   1.000000
   41       -7.320791   1.000000
   42       -7.215403   1.000000
   43       -7.214664   1.000000
   44       -7.138099   1.000000
   45       -6.881064   1.000000
   46       -6.858221   1.000000
   47       -6.757929   1.000000
   48       -6.756648   1.000000
   49       -6.677033   1.000000
   50       -6.654706   1.000000
   51       -6.363361   1.000000
   52       -6.362211   1.000000
   53       -6.247476   1.000000
   54       -6.246161   1.000000
   55       -6.165243   1.000000
   56       -6.132679   1.000000
   57       -6.101777   1.000000
   58       -5.757600   1.000000
   59       -5.756578   1.000000
   60       -5.447248   1.000000
   61       -5.447109   1.000000
   62       -5.409954   1.000000
   63       -5.308558   1.000000
   64       -5.308055   1.000000
   65       -5.186824   1.000000
   66       -5.185905   1.000000
   67       -4.895943   1.000000
   68       -4.895666   1.000000
   69       -4.817130   1.000000
   70       -4.815309   1.000000
   71       -4.103301   1.000000
   72       -4.102104   1.000000
   73       -4.024199   1.000000
   74       -3.923514   1.000000
   75       -3.922690   1.000000
   76       -3.883739   1.000000
   77       -3.699871   1.000000
   78       -3.699139   1.000000
   79       -3.441760   0.999402
   80       -2.726492   0.034538
   81       -2.620612   0.005135
   82       -2.608904   0.004032
   83       -2.385374   0.000012
   84       -2.366563   0.000006
   85       -2.231325   0.000000
   86       -2.230260   0.000000
   87       -2.166954   0.000000
   88       -2.164433   0.000000
   89       -1.917732   0.000000
   90       -1.916733   0.000000
   91       -1.817473   0.000000
   92       -1.678659   0.000000
   93       -1.676839   0.000000
   94       -1.616861   0.000000
   95       -1.508044   0.000000
   96       -1.293378   0.000000
   97       -1.292490   0.000000
   98       -1.237338   0.000000
   99       -1.236756   0.000000
  100       -0.470247   0.000000
  101       -0.467571   0.000000
  102       -0.458593   0.000000
  103       -0.427945   0.000000
  104       -0.291813   0.000000
  105       -0.288983   0.000000
  106        0.144646   0.000000
  107        0.145348   0.000000
  108        0.219071   0.000000
  109        0.335239   0.000000
  110        0.491618   0.000000
  111        0.491783   0.000000
  112        1.066827   0.000000
  113        1.066961   0.000000
  114        1.162064   0.000000
  115        1.180967   0.000000
  116        1.322737   0.000000
  117        1.322989   0.000000
  118        1.795014   0.000000
  119        1.900976   0.000000
  120        2.344989   0.000000
 
  0.2500000E+00  0.1250000E+00  0.0000000E+00  0.3125000E-01
    1      -17.646060   1.000000
    2      -17.063386   1.000000
    3      -16.892519   1.000000
    4      -16.549101   1.000000
    5      -16.425285   1.000000
    6      -16.355648   1.000000
    7      -16.287699   1.000000
    8      -16.207418   1.000000
    9      -16.055894   1.000000
   10      -16.033474   1.000000
   11      -15.980632   1.000000
   12      -15.878329   1.000000
   13      -15.824392   1.000000
   14      -15.737165   1.000000
   15      -15.645875   1.000000
   16      -15.595766   1.000000
   17      -15.576439   1.000000
   18      -15.464456   1.000000
   19       -9.564470   1.000000
   20       -9.358467   1.000000
   21       -9.253057   1.000000
   22       -9.003962   1.000000
   23       -8.773992   1.000000
   24       -8.706698   1.000000
   25       -8.520679   1.000000
   26       -8.448477   1.000000
   27       -8.439998   1.000000
   28       -8.309818   1.000000
   29       -8.270270   1.000000
   30       -8.231663   1.000000
   31       -8.188106   1.000000
   32       -8.124494   1.000000
   33       -7.960496   1.000000
   34       -7.856670   1.000000
   35       -7.853974   1.000000
   36       -7.467364   1.000000
   37       -7.444803   1.000000
   38       -7.320003   1.000000
   39       -7.272667   1.000000
   40       -7.242651   1.000000
   41       -7.226675   1.000000
   42       -7.186252   1.000000
   43       -7.093598   1.000000
   44       -6.940927   1.000000
   45       -6.904479   1.000000
   46       -6.764891   1.000000
   47       -6.761099   1.000000