       N       E                     dE             d eps       ncg     rms          rms(c)
DAV:   1     0.112430130871E+04    0.11243E+04   -0.35861E+04  8160   0.577E+02
DAV:   2    -0.166565237497E+01   -0.11260E+04   -0.10829E+04 11480   0.173E+02
DAV:   3    -0.199933730385E+03   -0.19827E+03   -0.19015E+03 10880   0.820E+01
DAV:   4    -0.209104531644E+03   -0.91708E+01   -0.89285E+01 12240   0.263E+01
DAV:   5    -0.209414788218E+03   -0.31026E+00   -0.30953E+00 11200   0.352E+00    0.275E+01
DAV:   6    -0.237131975598E+03   -0.27717E+02   -0.10490E+02 12680   0.594E+01    0.596E+01
DAV:   7    -0.196037320989E+03    0.41095E+02   -0.17013E+02 12440   0.142E+02    0.198E+01
DAV:   8    -0.189322013538E+03    0.67153E+01   -0.16518E+01 12160   0.121E+01    0.120E+01
DAV:   9    -0.188210964840E+03    0.11110E+01   -0.35837E+00 12320   0.590E+00    0.914E+00
DAV:  10    -0.187079230697E+03    0.11317E+01   -0.16834E+00 12800   0.734E+00    0.214E+00
DAV:  11    -0.187204466226E+03   -0.12524E+00   -0.64422E-01 13480   0.357E+00    0.453E+00
DAV:  12    -0.186992152639E+03    0.21231E+00   -0.37984E-01 13160   0.397E+00    0.138E+00
DAV:  13    -0.186976219119E+03    0.15934E-01   -0.21965E-02 12720   0.623E-01    0.413E-01
DAV:  14    -0.186978446751E+03   -0.22276E-02   -0.11031E-02 13400   0.620E-01    0.748E-01
DAV:  15    -0.186972975717E+03    0.54710E-02   -0.89337E-03 12840   0.534E-01    0.115E-01
DAV:  16    -0.186973311355E+03   -0.33564E-03   -0.14058E-03 11800   0.111E-01    0.134E-01
DAV:  17    -0.186973300585E+03    0.10771E-04   -0.91865E-04 11400   0.118E-01
   1 F= -.18697330E+03 E0= -.18680093E+03  d E =-.186973E+03
       N       E                     dE             d eps       ncg     rms          rms(c)
DAV:   1    -0.187502278350E+03   -0.52897E+00   -0.26212E+02  8160   0.342E+01    0.461E+00
DAV:   2    -0.189355620523E+03   -0.18533E+01   -0.20223E+01 12600   0.151E+01    0.852E+00
DAV:   3    -0.189410986005E+03   -0.55365E-01   -0.39332E+00 12360   0.115E+01    0.725E+00
DAV:   4    -0.188794594418E+03    0.61639E+00   -0.75492E-01 11960   0.455E+00    0.218E+00
DAV:   5    -0.188756523822E+03    0.38071E-01   -0.29142E-01 10360   0.163E+00    0.211E+00
DAV:   6    -0.188816322832E+03   -0.59799E-01   -0.40712E-01 12280   0.347E+00    0.423E+00
DAV:   7    -0.188685485870E+03    0.13084E+00   -0.30624E-01 12320   0.333E+00    0.112E+00
DAV:   8    -0.188679784684E+03    0.57012E-02   -0.44761E-02 11680   0.117E+00    0.113E+00
DAV:   9    -0.188670028285E+03    0.97564E-02   -0.19162E-02 12080   0.845E-01    0.286E-01
DAV:  10    -0.188670320161E+03   -0.29188E-03   -0.40741E-03 11040   0.226E-01    0.246E-01
DAV:  11    -0.188669530293E+03    0.78987E-03   -0.26855E-03 10800   0.137E-01    0.894E-02
DAV:  12    -0.188669899415E+03   -0.36912E-03   -0.56769E-04  8400   0.813E-02    0.224E-02
DAV:  13    -0.188670143870E+03   -0.24446E-03   -0.64499E-05  6720   0.258E-02    0.270E-02
DAV:  14    -0.188670286881E+03   -0.14301E-03   -0.40792E-05  6000   0.200E-02    0.165E-02
DAV:  15    -0.188670406906E+03   -0.12002E-03   -0.16962E-05  6560   0.120E-02    0.100E-02
DAV:  16    -0.188670551187E+03   -0.14428E-03   -0.63254E-06  5840   0.864E-03    0.419E-03
DAV:  17    -0.188670836002E+03   -0.28481E-03   -0.91214E-06  5520   0.689E-03    0.288E-03
DAV:  18    -0.188671029694E+03   -0.19369E-03   -0.84546E-06  6720   0.521E-03    0.264E-03
DAV:  19    -0.188671073826E+03   -0.44131E-04   -0.32762E-06  6280   0.432E-03
   2 F= -.18867107E+03 E0= -.18852486E+03  d E =-.169777E+01
       N       E                     dE             d eps       ncg     rms          rms(c)
DAV:   1    -0.190566726013E+03   -0.18957E+01   -0.30054E+01  9040   0.140E+01    0.450E+00
DAV:   2    -0.190715154672E+03   -0.14843E+00   -0.29925E+00 12360   0.102E+01    0.839E+00
DAV:   3    -0.190021814834E+03    0.69334E+00   -0.14864E+00 12240   0.848E+00    0.400E+00
DAV:   4    -0.189833035053E+03    0.18878E+00   -0.67226E-01 12960   0.344E+00    0.252E+00
DAV:   5    -0.189749179869E+03    0.83855E-01   -0.29558E-01 11480   0.167E+00    0.981E-01
DAV:   6    -0.189729033138E+03    0.20147E-01   -0.42755E-02 10800   0.733E-01    0.203E-01
DAV:   7    -0.189730931233E+03   -0.18981E-02   -0.72686E-03 12320   0.435E-01    0.415E-01
DAV:   8    -0.189729629461E+03    0.13018E-02   -0.27082E-03 11840   0.336E-01    0.119E-01
DAV:   9    -0.189729778383E+03   -0.14892E-03   -0.45924E-04  8720   0.102E-01    0.765E-02
DAV:  10    -0.189729833385E+03   -0.55001E-04   -0.31505E-04  9400   0.124E-01
   3 F= -.18972983E+03 E0= -.18960568E+03  d E =-.105876E+01
       N       E                     dE             d eps       ncg     rms          rms(c)
DAV:   1    -0.191214213321E+03   -0.14844E+01   -0.59273E+01  9520   0.178E+01    0.470E+00
DAV:   2    -0.191326411199E+03   -0.11220E+00   -0.55100E+00 13600   0.996E+00    0.706E+00
DAV:   3    -0.190970386236E+03    0.35602E+00   -0.18032E+00 12240   0.923E+00    0.513E+00
DAV:   4    -0.190684351649E+03    0.28603E+00   -0.86926E-01 13320   0.491E+00    0.232E+00
DAV:   5    -0.190591997389E+03    0.92354E-01   -0.24363E-01 11000   0.160E+00    0.606E-01
DAV:   6    -0.190591364249E+03    0.63314E-03   -0.43879E-02 12160   0.783E-01    0.533E-01
DAV:   7    -0.190589190781E+03    0.21735E-02   -0.14998E-02 10960   0.743E-01    0.571E-01
DAV:   8    -0.190586263782E+03    0.29270E-02   -0.47828E-03 10880   0.500E-01    0.129E-01
DAV:   9    -0.190586596241E+03   -0.33246E-03   -0.15721E-03 11360   0.132E-01    0.106E-01
DAV:  10    -0.190586544191E+03    0.52050E-04   -0.62741E-04  9280   0.144E-01
   4 F= -.19058654E+03 E0= -.19048443E+03  d E =-.856711E+00
       N       E                     dE             d eps       ncg     rms          rms(c)
DAV:   1    -0.191947314690E+03   -0.13607E+01   -0.10382E+02  9160   0.234E+01    0.591E+00
DAV:   2    -0.191929185732E+03    0.18129E-01   -0.92016E+00 13480   0.115E+01    0.711E+00
DAV:   3    -0.191726643373E+03    0.20254E+00   -0.24949E+00 11840   0.116E+01    0.707E+00
DAV:   4    -0.191201857933E+03    0.52479E+00   -0.15304E+00 12560   0.775E+00    0.281E+00
DAV:   5    -0.191052561354E+03    0.14930E+00   -0.38964E-01 11160   0.219E+00    0.770E-01
DAV:   6    -0.191056839175E+03   -0.42778E-02   -0.79333E-02 12920   0.139E+00    0.102E+00
DAV:   7    -0.191051616593E+03    0.52226E-02   -0.40742E-02 11560   0.154E+00    0.822E-01
DAV:   8    -0.191043385001E+03    0.82316E-02   -0.10868E-02 11720   0.736E-01    0.155E-01
DAV:   9    -0.191044123746E+03   -0.73874E-03   -0.31586E-03 10000   0.169E-01    0.146E-01
DAV:  10    -0.191043810929E+03    0.31282E-03   -0.12490E-03 10880   0.145E-01    0.756E-02
DAV:  11    -0.191043876316E+03   -0.65387E-04   -0.37496E-04  8640   0.144E-01
   5 F= -.19104388E+03 E0= -.19096529E+03  d E =-.457332E+00
       N       E                     dE             d eps       ncg     rms          rms(c)
DAV:   1    -0.191051439902E+03   -0.76290E-02   -0.69640E-01  9640   0.191E+00    0.442E-01
DAV:   2    -0.191049818971E+03    0.16209E-02   -0.54930E-02 12880   0.647E-01    0.334E-01
DAV:   3    -0.191052559037E+03   -0.27401E-02   -0.13546E-02 10960   0.878E-01    0.657E-01
DAV:   4    -0.191048009969E+03    0.45491E-02   -0.87680E-03 10840   0.707E-01    0.221E-01
DAV:   5    -0.191047942375E+03    0.67595E-04   -0.31488E-03 11360   0.367E-01    0.251E-01
DAV:   6    -0.191047330509E+03    0.61187E-03   -0.16227E-03 11080   0.300E-01    0.912E-02
DAV:   7    -0.191047294392E+03    0.36117E-04   -0.21198E-04  6160   0.869E-02
   6 F= -.19104729E+03 E0= -.19097009E+03  d E =-.341808E-02
       N       E                     dE             d eps       ncg     rms          rms(c)
DAV:   1    -0.191047597429E+03   -0.26692E-03   -0.20455E-02  8640   0.315E-01    0.809E-02
DAV:   2    -0.191048135825E+03   -0.53840E-03   -0.25517E-03 11840   0.289E-01    0.227E-01
DAV:   3    -0.191047585158E+03    0.55067E-03   -0.81506E-04  9640   0.221E-01    0.407E-02
DAV:   4    -0.191047616626E+03   -0.31468E-04   -0.13099E-04  6080   0.855E-02
   7 F= -.19104762E+03 E0= -.19097020E+03  d E =-.322234E-03
