 vasp.5.4.1 05Feb16 (build Jul 05 2020 17:13:04) complex                        
  
 executed on           IFC91_ompi date 2024.04.22  11:47:36
 running on   40 total cores
 distrk:  each k-point on   40 cores,    1 groups
 distr:  one band on NCORES_PER_BAND=   1 cores,   40 groups


--------------------------------------------------------------------------------------------------------


 INCAR:
 POTCAR:   PAW_PBE V 08Apr2002                    
 POTCAR:   PAW_PBE Mo 08Apr2002                   
 POTCAR:   PAW_PBE W 08Apr2002                    
 POTCAR:    PAW_PBE S 17Jan2003                   

 ----------------------------------------------------------------------------- 
|                                                                             |
|           W    W    AA    RRRRR   N    N  II  N    N   GGGG   !!!           |
|           W    W   A  A   R    R  NN   N  II  NN   N  G    G  !!!           |
|           W    W  A    A  R    R  N N  N  II  N N  N  G       !!!           |
|           W WW W  AAAAAA  RRRRR   N  N N  II  N  N N  G  GGG   !            |
|           WW  WW  A    A  R   R   N   NN  II  N   NN  G    G                |
|           W    W  A    A  R    R  N    N  II  N    N   GGGG   !!!           |
|                                                                             |
|      For optimal performance we recommend to set                            |
|        NCORE= 4 - approx SQRT( number of cores)                             |
|      NCORE specifies how many cores store one orbital (NPAR=cpu/NCORE).     |
|      This setting can  greatly improve the performance of VASP for DFT.     |
|      The default, NPAR=number of cores might be grossly inefficient         |
|      on modern multi-core architectures or massively parallel machines.     |
|      Do your own testing !!!!                                               |
|      Unfortunately you need to use the default for GW and RPA calculations. |
|      (for HF NCORE is supported but not extensively tested yet)             |
|                                                                             |
 ----------------------------------------------------------------------------- 

 POTCAR:   PAW_PBE V 08Apr2002                    
   VRHFIN =V: p6 d4 s1                                                          
   LEXCH  = PE                                                                  
   EATOM  =   170.8679 eV,   12.5584 Ry                                         
                                                                                
   TITEL  = PAW_PBE V 08Apr2002                                                 
   LULTRA =        F    use ultrasoft PP ?                                      
   IUNSCR =        1    unscreen: 0-lin 1-nonlin 2-no                           
   RPACOR =    2.000    partial core radius                                     
   POMASS =   50.941; ZVAL   =    5.000    mass and valenz                      
   RCORE  =    2.700    outmost cutoff radius                                   
   RWIGS  =    2.500; RWIGS  =    1.323    wigner-seitz radius (au A)           
   ENMAX  =  192.543; ENMIN  =  144.408 eV                                      
   RCLOC  =    1.779    cutoff for local pot                                    
   LCOR   =        T    correct aug charges                                     
   LPAW   =        T    paw PP                                                  
   EAUG   =  358.662                                                            
   DEXC   =    -.034                                                            
   RMAX   =    3.323    core radius for proj-oper                               
   RAUG   =    1.300    factor for augmentation sphere                          
   RDEP   =    2.762    radius for radial grids                                 
   QCUT   =   -3.762; QGAM   =    7.524    optimization parameters              
                                                                                
   Description                                                                  
     l     E      TYP  RCUT    TYP  RCUT                                        
     2   .000     23  2.700                                                     
     2   .000     23  2.700                                                     
     0   .000     23  2.700                                                     
     0  2.000     23  2.700                                                     
     1   .000     23  2.700                                                     
     1  2.000     23  2.700                                                     
     3   .000      7   .000                                                     
  local pseudopotential read in
  partial core-charges read in
  atomic valenz-charges read in
  non local Contribution for L=           2  read in
    real space projection operators read in
  non local Contribution for L=           2  read in
    real space projection operators read in
  non local Contribution for L=           0  read in
    real space projection operators read in
  non local Contribution for L=           0  read in
    real space projection operators read in
  non local Contribution for L=           1  read in
    real space projection operators read in
  non local Contribution for L=           1  read in
    real space projection operators read in
    PAW grid and wavefunctions read in
 
   number of l-projection  operators is LMAX  =           6
   number of lm-projection operators is LMMAX =          18
 
 POTCAR:   PAW_PBE Mo 08Apr2002                   
   VRHFIN =Mo: 4p5s4d                                                           
   LEXCH  = PE                                                                  
   EATOM  =   217.5180 eV,   15.9871 Ry                                         
                                                                                
   TITEL  = PAW_PBE Mo 08Apr2002                                                
   LULTRA =        F    use ultrasoft PP ?                                      
   IUNSCR =        1    unscreen: 0-lin 1-nonlin 2-no                           
   RPACOR =    2.200    partial core radius                                     
   POMASS =   95.940; ZVAL   =    6.000    mass and valenz                      
   RCORE  =    2.750    outmost cutoff radius                                   
   RWIGS  =    2.750; RWIGS  =    1.455    wigner-seitz radius (au A)           
   ENMAX  =  224.584; ENMIN  =  168.438 eV                                      
   RCLOC  =    2.111    cutoff for local pot                                    
   LCOR   =        T    correct aug charges                                     
   LPAW   =        T    paw PP                                                  
   EAUG   =  345.278                                                            
   DEXC   =    -.088                                                            
   RMAX   =    3.077    core radius for proj-oper                               
   RAUG   =    1.300    factor for augmentation sphere                          
   RDEP   =    2.815    radius for radial grids                                 
   QCUT   =   -4.063; QGAM   =    8.126    optimization parameters              
                                                                                
   Description                                                                  
     l     E      TYP  RCUT    TYP  RCUT                                        
     2   .000     23  2.500                                                     
     2   .000     23  2.500                                                     
     0   .000     23  2.600                                                     
     0  1.000     23  2.600                                                     
     1   .400     23  2.750                                                     
     1  2.000     23  2.750                                                     
     3   .000      7   .000                                                     
  local pseudopotential read in
  partial core-charges read in
  atomic valenz-charges read in
  non local Contribution for L=           2  read in
    real space projection operators read in
  non local Contribution for L=           2  read in
    real space projection operators read in
  non local Contribution for L=           0  read in
    real space projection operators read in
  non local Contribution for L=           0  read in
    real space projection operators read in
  non local Contribution for L=           1  read in
    real space projection operators read in
  non local Contribution for L=           1  read in
    real space projection operators read in
    PAW grid and wavefunctions read in
 
   number of l-projection  operators is LMAX  =           6
   number of lm-projection operators is LMMAX =          18
 
 POTCAR:   PAW_PBE W 08Apr2002                    
   VRHFIN =W : 6s5d                                                             
   LEXCH  = PE                                                                  
   EATOM  =   204.6100 eV,   15.0384 Ry                                         
                                                                                
   TITEL  = PAW_PBE W 08Apr2002                                                 
   LULTRA =        F    use ultrasoft PP ?                                      
   IUNSCR =        1    unscreen: 0-lin 1-nonlin 2-no                           
   RPACOR =    2.330    partial core radius                                     
   POMASS =  183.850; ZVAL   =    6.000    mass and valenz                      
   RCORE  =    2.750    outmost cutoff radius                                   
   RWIGS  =    2.750; RWIGS  =    1.455    wigner-seitz radius (au A)           
   ENMAX  =  223.057; ENMIN  =  167.293 eV                                      
   RCLOC  =    2.147    cutoff for local pot                                    
   LCOR   =        T    correct aug charges                                     
   LPAW   =        T    paw PP                                                  
   EAUG   =  373.438                                                            
   DEXC   =    -.060                                                            
   RMAX   =    3.087    core radius for proj-oper                               
   RAUG   =    1.300    factor for augmentation sphere                          
   RDEP   =    2.886    radius for radial grids                                 
   QCUT   =   -4.049; QGAM   =    8.098    optimization parameters              
                                                                                
   Description                                                                  
     l     E      TYP  RCUT    TYP  RCUT                                        
     2   .000     23  2.500                                                     
     2   .000     23  2.500                                                     
     0   .000     23  2.500                                                     
     0   .000     23  2.500                                                     
     1   .200     23  2.750                                                     
     1  2.000     23  2.750                                                     
     3   .000      7   .000                                                     
  local pseudopotential read in
  partial core-charges read in
  atomic valenz-charges read in
  non local Contribution for L=           2  read in
    real space projection operators read in
  non local Contribution for L=           2  read in
    real space projection operators read in
  non local Contribution for L=           0  read in
    real space projection operators read in
  non local Contribution for L=           0  read in
    real space projection operators read in
  non local Contribution for L=           1  read in
    real space projection operators read in
  non local Contribution for L=           1  read in
    real space projection operators read in
    PAW grid and wavefunctions read in
 
   number of l-projection  operators is LMAX  =           6
   number of lm-projection operators is LMMAX =          18
 
 POTCAR:    PAW_PBE S 17Jan2003                   
   VRHFIN =S : s2p4                                                             
   LEXCH  = PE                                                                  
   EATOM  =   276.8230 eV,   20.3459 Ry                                         
                                                                                
   TITEL  = PAW_PBE S 17Jan2003                                                 
   LULTRA =        F    use ultrasoft PP ?                                      
   IUNSCR =        1    unscreen: 0-lin 1-nonlin 2-no                           
   RPACOR =    1.500    partial core radius                                     
   POMASS =   32.066; ZVAL   =    6.000    mass and valenz                      
   RCORE  =    1.900    outmost cutoff radius                                   
   RWIGS  =    2.200; RWIGS  =    1.164    wigner-seitz radius (au A)           
   ENMAX  =  280.000; ENMIN  =  194.016 eV                                      
   ICORE  =        2    local potential                                         
   LCOR   =        T    correct aug charges                                     
   LPAW   =        T    paw PP                                                  
   EAUG   =  335.092                                                            
   DEXC   =     .000                                                            
   RMAX   =    2.867    core radius for proj-oper                               
   RAUG   =    1.300    factor for augmentation sphere                          
   RDEP   =    1.954    radius for radial grids                                 
   QCUT   =   -4.360; QGAM   =    8.721    optimization parameters              
                                                                                
   Description                                                                  
     l     E      TYP  RCUT    TYP  RCUT                                        
     0   .000     23  1.900                                                     
     0   .000     23  1.900                                                     
     1   .000     23  1.900                                                     
     1   .000     23  1.900                                                     
     2   .000     23  1.900                                                     
  local pseudopotential read in
  partial core-charges read in
  atomic valenz-charges read in
  non local Contribution for L=           0  read in
    real space projection operators read in
  non local Contribution for L=           0  read in
    real space projection operators read in
  non local Contribution for L=           1  read in
    real space projection operators read in
  non local Contribution for L=           1  read in
    real space projection operators read in
    PAW grid and wavefunctions read in
 
   number of l-projection  operators is LMAX  =           4
   number of lm-projection operators is LMMAX =           8
 

 ----------------------------------------------------------------------------- 
|                                                                             |
|  ADVICE TO THIS USER RUNNING 'VASP/VAMP'   (HEAR YOUR MASTER'S VOICE ...):  |
|                                                                             |
|      You have a (more or less) 'large supercell' and for larger cells       |
|      it might be more efficient to use real space projection operators      |
|      So try LREAL= Auto  in the INCAR   file.                               |
|      Mind: If you want to do a very accurate calculations keep the          |
|      reciprocal projection scheme          (i.e. LREAL=.FALSE.)             |
|                                                                             |
 ----------------------------------------------------------------------------- 

 PAW_PBE V 08Apr2002                    :
 energy of atom  1       EATOM= -170.8679
 kinetic energy error for atom=    0.0047 (will be added to EATOM!!)
 PAW_PBE Mo 08Apr2002                   :
 energy of atom  2       EATOM= -217.5180
 kinetic energy error for atom=    0.0215 (will be added to EATOM!!)
 PAW_PBE W 08Apr2002                    :
 energy of atom  3       EATOM= -204.6100
 kinetic energy error for atom=    0.0205 (will be added to EATOM!!)
  PAW_PBE S 17Jan2003                   :
 energy of atom  4       EATOM= -276.8230
 kinetic energy error for atom=    0.0122 (will be added to EATOM!!)
 
 
 POSCAR: crystal structure from VMoWS2 with Hexag
  positions in cartesian coordinates
  No initial velocities read in
 exchange correlation table for  LEXCH =        8
   RHO(1)=    0.500       N(1)  =     2000
   RHO(2)=  100.500       N(2)  =     4000
 


--------------------------------------------------------------------------------------------------------


 ion  position               nearest neighbor table
   1  0.333  0.000  0.000-  11 2.34  20 2.34  17 2.36  16 2.36  15 2.36  14 2.36
   2  0.667  0.667  0.000-  21 2.34  24 2.34  27 2.36  26 2.36  19 2.36  18 2.36
   3  1.000  0.333  0.000-  25 2.34  10 2.34  13 2.36  12 2.36  22 2.36  23 2.36
   4  0.333  0.333  0.000-  13 2.34  16 2.34  19 2.36  18 2.36  11 2.36  10 2.36   8 3.34   9 3.34
                             7 3.36
   5  0.000  0.667  0.000-  27 2.34  12 2.34  14 2.36  15 2.36  24 2.36  25 2.36   7 3.34   8 3.34
                             9 3.36
   6  0.667  0.000  0.000-  17 2.34  26 2.34  23 2.36  22 2.36  21 2.36  20 2.36   7 3.34   9 3.34
                             8 3.36
   7  0.000  0.000  0.000-  23 2.34  14 2.34  11 2.36  10 2.36  27 2.36  26 2.36   6 3.34   5 3.34
                             4 3.36
   8  0.333  0.667  0.000-  15 2.34  18 2.34  20 2.36  21 2.36  13 2.36  12 2.36   4 3.34   5 3.34
                             6 3.36
   9  0.667  0.333  0.000-  19 2.34  22 2.34  25 2.36  24 2.36  17 2.36  16 2.36   6 3.34   4 3.34
                             5 3.36
  10  0.111  0.222  0.955-   3 2.34   7 2.36   4 2.36
  11  0.222  0.111  0.045-   1 2.34   7 2.36   4 2.36
  12  0.111  0.556  0.955-   5 2.34   3 2.36   8 2.36
  13  0.222  0.444  0.045-   4 2.34   3 2.36   8 2.36
  14  0.111  0.889  0.955-   7 2.34   5 2.36   1 2.36
  15  0.222  0.777  0.045-   8 2.34   5 2.36   1 2.36
  16  0.444  0.222  0.955-   4 2.34   1 2.36   9 2.36
  17  0.556  0.111  0.045-   6 2.34   1 2.36   9 2.36
  18  0.444  0.556  0.955-   8 2.34   4 2.36   2 2.36
  19  0.556  0.444  0.045-   9 2.34   4 2.36   2 2.36
  20  0.444  0.889  0.955-   1 2.34   8 2.36   6 2.36
  21  0.556  0.777  0.045-   2 2.34   8 2.36   6 2.36
  22  0.777  0.222  0.955-   9 2.34   6 2.36   3 2.36
  23  0.889  0.111  0.045-   7 2.34   6 2.36   3 2.36
  24  0.777  0.556  0.955-   2 2.34   9 2.36   5 2.36
  25  0.889  0.444  0.045-   3 2.34   9 2.36   5 2.36
  26  0.777  0.889  0.955-   6 2.34   2 2.36   7 2.36
  27  0.889  0.777  0.045-   5 2.34   2 2.36   7 2.36
 

IMPORTANT INFORMATION: All symmetrisations will be switched off!
NOSYMM: (Re-)initialisation of all symmetry stuff for point group C_1.

 
 
 KPOINTS: K-POINTS 	#supercell of CrS2 in hexagona

Automatic generation of k-mesh.
Space group operators:
 irot       det(A)        alpha          n_x          n_y          n_z        tau_x        tau_y        tau_z
    1     1.000000     0.000000     1.000000     0.000000     0.000000     0.000000     0.000000     0.000000
 
 Subroutine IBZKPT returns following result:
 ===========================================
 
 Found     34 irreducible k-points:
 
 Following reciprocal coordinates:
            Coordinates               Weight
  0.000000  0.000000  0.000000      1.000000
  0.125000  0.000000  0.000000      2.000000
  0.250000  0.000000  0.000000      2.000000
  0.375000  0.000000  0.000000      2.000000
  0.500000  0.000000  0.000000      1.000000
  0.000000  0.125000  0.000000      2.000000
  0.125000  0.125000  0.000000      2.000000
  0.250000  0.125000  0.000000      2.000000
  0.375000  0.125000  0.000000      2.000000
  0.500000  0.125000  0.000000      2.000000
 -0.375000  0.125000  0.000000      2.000000
 -0.250000  0.125000  0.000000      2.000000
 -0.125000  0.125000  0.000000      2.000000
  0.000000  0.250000  0.000000      2.000000
  0.125000  0.250000  0.000000      2.000000
  0.250000  0.250000  0.000000      2.000000
  0.375000  0.250000  0.000000      2.000000
  0.500000  0.250000  0.000000      2.000000
 -0.375000  0.250000  0.000000      2.000000
 -0.250000  0.250000  0.000000      2.000000
 -0.125000  0.250000  0.000000      2.000000
 -0.000000  0.375000  0.000000      2.000000
  0.125000  0.375000  0.000000      2.000000
  0.250000  0.375000  0.000000      2.000000
  0.375000  0.375000  0.000000      2.000000
  0.500000  0.375000  0.000000      2.000000
 -0.375000  0.375000  0.000000      2.000000
 -0.250000  0.375000  0.000000      2.000000
 -0.125000  0.375000  0.000000      2.000000
  0.000000  0.500000  0.000000      1.000000
  0.125000  0.500000  0.000000      2.000000
  0.250000  0.500000  0.000000      2.000000
  0.375000  0.500000  0.000000      2.000000
  0.500000  0.500000  0.000000      1.000000
 
 Following cartesian coordinates:
            Coordinates               Weight
  0.000000  0.000000  0.000000      1.000000
  0.007209  0.012401  0.000000      2.000000
  0.014418  0.024802  0.000000      2.000000
  0.021626  0.037202  0.000000      2.000000
  0.028835  0.049603  0.000000      1.000000
 -0.007209  0.012401  0.000000      2.000000
  0.000000  0.024802  0.000000      2.000000
  0.007209  0.037202  0.000000      2.000000
  0.014418  0.049603  0.000000      2.000000
  0.021626  0.062004  0.000000      2.000000
 -0.028835 -0.024802  0.000000      2.000000
 -0.021626 -0.012401  0.000000      2.000000
 -0.014418  0.000000  0.000000      2.000000
 -0.014418  0.024802  0.000000      2.000000
 -0.007209  0.037202  0.000000      2.000000
  0.000000  0.049603  0.000000      2.000000
  0.007209  0.062004  0.000000      2.000000
  0.014418  0.074405  0.000000      2.000000
 -0.036044 -0.012401  0.000000      2.000000
 -0.028835  0.000000  0.000000      2.000000
 -0.021626  0.012401  0.000000      2.000000
 -0.021626  0.037202  0.000000      2.000000
 -0.014418  0.049603  0.000000      2.000000
 -0.007209  0.062004  0.000000      2.000000
  0.000000  0.074405  0.000000      2.000000
  0.007209  0.086806  0.000000      2.000000
 -0.043253  0.000000  0.000000      2.000000
 -0.036044  0.012401  0.000000      2.000000
 -0.028835  0.024802  0.000000      2.000000
 -0.028835  0.049603  0.000000      1.000000
 -0.021626  0.062004  0.000000      2.000000
 -0.014418  0.074405  0.000000      2.000000
 -0.007209  0.086806  0.000000      2.000000
  0.000000  0.099206  0.000000      1.000000
 


--------------------------------------------------------------------------------------------------------




 Dimension of arrays:
   k-points           NKPTS =     34   k-points in BZ     NKDIM =     34   number of bands    NBANDS=    120
   number of dos      NEDOS =    301   number of ions     NIONS =     27
   non local maximal  LDIM  =      6   non local SUM 2l+1 LMDIM =     18
   total plane-waves  NPLWV = 222264
   max r-space proj   IRMAX =      1   max aug-charges    IRDMAX=   5642
   dimension x,y,z NGX =    42 NGY =   42 NGZ =  126
   dimension x,y,z NGXF=    84 NGYF=   84 NGZF=  252
   support grid    NGXF=    84 NGYF=   84 NGZF=  252
   ions per type =               3   3   3  18
 NGX,Y,Z   is equivalent  to a cutoff of   6.96,  6.96,  6.98 a.u.
 NGXF,Y,Z  is equivalent  to a cutoff of  13.92, 13.92, 13.96 a.u.


 I would recommend the setting:
   dimension x,y,z NGX =    41 NGY =   41 NGZ =  123
 SYSTEM =  unknown system                          
 POSCAR =  crystal structure from VMoWS2 with Hexag

 Startparameter for this run:
   NWRITE =      2    write-flag & timer
   PREC   = normal    normal or accurate (medium, high low for compatibility)
   ISTART =      0    job   : 0-new  1-cont  2-samecut
   ICHARG =      2    charge: 1-file 2-atom 10-const
   ISPIN  =      1    spin polarized calculation?
   LNONCOLLINEAR =      F non collinear calculations
   LSORBIT =      F    spin-orbit coupling
   INIWAV =      1    electr: 0-lowe 1-rand  2-diag
   LASPH  =      F    aspherical Exc in radial PAW
   METAGGA=      F    non-selfconsistent MetaGGA calc.

 Electronic Relaxation 1
   ENCUT  =  280.0 eV  20.58 Ry    4.54 a.u.  13.68 13.68 40.93*2*pi/ulx,y,z
   ENINI  =  280.0     initial cutoff
   ENAUG  =  373.4 eV  augmentation charge cutoff
   NELM   =     60;   NELMIN=  2; NELMDL= -5     # of ELM steps 
   EDIFF  = 0.1E-03   stopping-criterion for ELM
   LREAL  =      F    real-space projection
   NLSPLINE    = F    spline interpolate recip. space projectors
   LCOMPAT=      F    compatible to vasp.4.4
   GGA_COMPAT  = T    GGA compatible to vasp.4.4-vasp.4.6
   LMAXPAW     = -100 max onsite density
   LMAXMIX     =    2 max onsite mixed and CHGCAR
   VOSKOWN=      0    Vosko Wilk Nusair interpolation
   ROPT   =    0.00000   0.00000   0.00000   0.00000
 Ionic relaxation
   EDIFFG = 0.1E-02   stopping-criterion for IOM
   NSW    =    100    number of steps for IOM
   NBLOCK =      1;   KBLOCK =    100    inner block; outer block 
   IBRION =      1    ionic relax: 0-MD 1-quasi-New 2-CG
   NFREE  =      0    steps in history (QN), initial steepest desc. (CG)
   ISIF   =      3    stress and relaxation
   IWAVPR =     11    prediction:  0-non 1-charg 2-wave 3-comb
   ISYM   =      0    0-nonsym 1-usesym 2-fastsym
   LCORR  =      T    Harris-Foulkes like correction to forces

   POTIM  = 0.5000    time-step for ionic-motion
   TEIN   =    0.0    initial temperature
   TEBEG  =    0.0;   TEEND  =   0.0 temperature during run
   SMASS  =  -3.00    Nose mass-parameter (am)
   estimated Nose-frequenzy (Omega)   =  0.10E-29 period in steps =****** mass=  -0.230E-26a.u.
   SCALEE = 1.0000    scale energy and forces
   NPACO  =    256;   APACO  = 16.0  distance and # of slots for P.C.
   PSTRESS=    0.0 pullay stress

  Mass of Ions in am
   POMASS =  50.94 95.94183.85 32.07
  Ionic Valenz
   ZVAL   =   5.00  6.00  6.00  6.00
  Atomic Wigner-Seitz radii
   RWIGS  =  -1.00 -1.00 -1.00 -1.00
  virtual crystal weights 
   VCA    =   1.00  1.00  1.00  1.00
   NELECT =     159.0000    total number of electrons
   NUPDOWN=      -1.0000    fix difference up-down

 DOS related values:
   EMIN   =  10.00;   EMAX   =-10.00  energy-range for DOS
   EFERMI =   0.00
   ISMEAR =     0;   SIGMA  =   0.20  broadening in eV -4-tet -1-fermi 0-gaus

 Electronic relaxation 2 (details)
   IALGO  =     38    algorithm
   LDIAG  =      T    sub-space diagonalisation (order eigenvalues)
   LSUBROT=      F    optimize rotation matrix (better conditioning)
   TURBO    =      0    0=normal 1=particle mesh
   IRESTART =      0    0=no restart 2=restart with 2 vectors
   NREBOOT  =      0    no. of reboots
   NMIN     =      0    reboot dimension
   EREF     =   0.00    reference energy to select bands
   IMIX   =      4    mixing-type and parameters
     AMIX     =   0.40;   BMIX     =  1.00
     AMIX_MAG =   1.60;   BMIX_MAG =  1.00
     AMIN     =   0.10
     WC   =   100.;   INIMIX=   1;  MIXPRE=   1;  MAXMIX= -45

 Intra band minimization:
   WEIMIN = 0.0010     energy-eigenvalue tresh-hold
   EBREAK =  0.21E-06  absolut break condition
   DEPER  =   0.30     relativ break condition  

   TIME   =   0.40     timestep for ELM

  volume/ion in A,a.u.               =      97.10       655.29
  Fermi-wavevector in a.u.,A,eV,Ry     =   0.643191  1.215456  5.628665  0.413695
  Thomas-Fermi vector in A             =   1.710110
 
 Write flags
   LWAVE  =      F    write WAVECAR
   LCHARG =      F    write CHGCAR
   LVTOT  =      F    write LOCPOT, total local potential
   LVHAR  =      F    write LOCPOT, Hartree potential only
   LELF   =      F    write electronic localiz. function (ELF)
   LORBIT =      0    0 simple, 1 ext, 2 COOP (PROOUT)


 Dipole corrections
   LMONO  =      F    monopole corrections only (constant potential shift)
   LDIPOL =      F    correct potential (dipole corrections)
   IDIPOL =      0    1-x, 2-y, 3-z, 4-all directions 
   EPSILON=  1.0000000 bulk dielectric constant

 Exchange correlation treatment:
   GGA     =    --    GGA type
   LEXCH   =     8    internal setting for exchange type
   VOSKOWN=      0    Vosko Wilk Nusair interpolation
   LHFCALC =     F    Hartree Fock is set to
   LHFONE  =     F    Hartree Fock one center treatment
   AEXX    =    0.0000 exact exchange contribution

 Linear response parameters
   LEPSILON=     F    determine dielectric tensor
   LRPA    =     F    only Hartree local field effects (RPA)
   LNABLA  =     F    use nabla operator in PAW spheres
   LVEL    =     F    velocity operator in full k-point grid
   LINTERFAST=   F  fast interpolation
   KINTER  =     0    interpolate to denser k-point grid
   CSHIFT  =0.1000    complex shift for real part using Kramers Kronig
   OMEGAMAX=  -1.0    maximum frequency
   DEG_THRESHOLD= 0.2000000E-02 threshold for treating states as degnerate
   RTIME   =    0.100 relaxation time in fs

 Orbital magnetization related:
   ORBITALMAG=     F  switch on orbital magnetization
   LCHIMAG   =     F  perturbation theory with respect to B field
   DQ        =  0.001000  dq finite difference perturbation B field



--------------------------------------------------------------------------------------------------------


 quasi-Newton-method for relaxation of ions
 charge density and potential will be updated during run
 non-spin polarized calculation
 Variant of blocked Davidson
 Davidson routine will perform the subspace rotation
 perform sub-space diagonalisation
    after iterative eigenvector-optimisation
 modified Broyden-mixing scheme, WC =      100.0
 initial mixing is a Kerker type mixing with AMIX =  0.4000 and BMIX =      1.0000
 Hartree-type preconditioning will be used
 using additional bands           40
 reciprocal scheme for non local part
 use partial core corrections
 calculate Harris-corrections to forces 
   (improved forces if not selfconsistent)
 use gradient corrections 
 use of overlap-Matrix (Vanderbilt PP)
 Gauss-broadening in eV      SIGMA  =   0.20


--------------------------------------------------------------------------------------------------------


  energy-cutoff  :      280.00
  volume of cell :     2621.81
      direct lattice vectors                 reciprocal lattice vectors
     8.669999960  5.039999894  0.000000000     0.057670129  0.099206348  0.000000000
    -8.669999821  5.040000133  0.000000000    -0.057670126  0.099206350  0.000000000
     0.000000000  0.000000000 30.000000000     0.000000000  0.000000000  0.033333333

  length of vectors
    10.028484344 10.028484344 30.000000000     0.114750788  0.114750788  0.033333333


 
 k-points in units of 2pi/SCALE and weight: K-POINTS 	#supercell of CrS2 in hexagona
   0.00000000  0.00000000  0.00000000       0.016
   0.00720877  0.01240079  0.00000000       0.031
   0.01441753  0.02480159  0.00000000       0.031
   0.02162630  0.03720238  0.00000000       0.031
   0.02883506  0.04960317  0.00000000       0.016
  -0.00720877  0.01240079  0.00000000       0.031
   0.00000000  0.02480159  0.00000000       0.031
   0.00720877  0.03720238  0.00000000       0.031
   0.01441753  0.04960317  0.00000000       0.031
   0.02162630  0.06200397  0.00000000       0.031
  -0.02883506 -0.02480159  0.00000000       0.031
  -0.02162630 -0.01240079  0.00000000       0.031
  -0.01441753  0.00000000  0.00000000       0.031
  -0.01441753  0.02480159  0.00000000       0.031
  -0.00720877  0.03720238  0.00000000       0.031
   0.00000000  0.04960317  0.00000000       0.031
   0.00720877  0.06200397  0.00000000       0.031
   0.01441753  0.07440476  0.00000000       0.031
  -0.03604383 -0.01240079  0.00000000       0.031
  -0.02883506  0.00000000  0.00000000       0.031
  -0.02162630  0.01240079  0.00000000       0.031
  -0.02162630  0.03720238  0.00000000       0.031
  -0.01441753  0.04960317  0.00000000       0.031
  -0.00720877  0.06200397  0.00000000       0.031
   0.00000000  0.07440476  0.00000000       0.031
   0.00720877  0.08680556  0.00000000       0.031
  -0.04325260  0.00000000  0.00000000       0.031
  -0.03604383  0.01240079  0.00000000       0.031
  -0.02883506  0.02480159  0.00000000       0.031
  -0.02883506  0.04960317  0.00000000       0.016
  -0.02162630  0.06200397  0.00000000       0.031
  -0.01441753  0.07440476  0.00000000       0.031
  -0.00720876  0.08680556  0.00000000       0.031
   0.00000000  0.09920635  0.00000000       0.016
 
 k-points in reciprocal lattice and weights: K-POINTS 	#supercell of CrS2 in hexagona
   0.00000000  0.00000000  0.00000000       0.016
   0.12500000  0.00000000  0.00000000       0.031
   0.25000000  0.00000000  0.00000000       0.031
   0.37500000  0.00000000  0.00000000       0.031
   0.50000000  0.00000000  0.00000000       0.016
   0.00000000  0.12500000  0.00000000       0.031
   0.12500000  0.12500000  0.00000000       0.031
   0.25000000  0.12500000  0.00000000       0.031
   0.37500000  0.12500000  0.00000000       0.031
   0.50000000  0.12500000  0.00000000       0.031
  -0.37500000  0.12500000  0.00000000       0.031
  -0.25000000  0.12500000  0.00000000       0.031
  -0.12500000  0.12500000  0.00000000       0.031
   0.00000000  0.25000000  0.00000000       0.031
   0.12500000  0.25000000  0.00000000       0.031
   0.25000000  0.25000000  0.00000000       0.031
   0.37500000  0.25000000  0.00000000       0.031
   0.50000000  0.25000000  0.00000000       0.031
  -0.37500000  0.25000000  0.00000000       0.031
  -0.25000000  0.25000000  0.00000000       0.031
  -0.12500000  0.25000000  0.00000000       0.031
  -0.00000000  0.37500000  0.00000000       0.031
   0.12500000  0.37500000  0.00000000       0.031
   0.25000000  0.37500000  0.00000000       0.031
   0.37500000  0.37500000  0.00000000       0.031
   0.50000000  0.37500000  0.00000000       0.031
  -0.37500000  0.37500000  0.00000000       0.031
  -0.25000000  0.37500000  0.00000000       0.031
  -0.12500000  0.37500000  0.00000000       0.031
   0.00000000  0.50000000  0.00000000       0.016
   0.12500000  0.50000000  0.00000000       0.031
   0.25000000  0.50000000  0.00000000       0.031
   0.37500000  0.50000000  0.00000000       0.031
   0.50000000  0.50000000  0.00000000       0.016
 
 position of ions in fractional coordinates (direct lattice) 
   0.33333334  0.00000000  0.00000000
   0.66666669  0.66666669  0.00000000
   1.00000000  0.33333334  0.00000000
   0.33333334  0.33333334  0.00000000
   0.00000000  0.66666669  0.00000000
   0.66666669  0.00000000  0.00000000
   0.00000000  0.00000000  0.00000000
   0.33333334  0.66666669  0.00000000
   0.66666669  0.33333334  0.00000000
   0.11068511  0.22244981  0.95539999
   0.22244981  0.11068511  0.04460000
   0.11068511  0.55578315  0.95539999
   0.22244981  0.44401845  0.04460000
   0.11068511  0.88911647  0.95539999
   0.22244981  0.77735180  0.04460000
   0.44401845  0.22244981  0.95539999
   0.55578315  0.11068511  0.04460000
   0.44401845  0.55578315  0.95539999
   0.55578315  0.44401845  0.04460000
   0.44401845  0.88911647  0.95539999
   0.55578315  0.77735180  0.04460000
   0.77735180  0.22244981  0.95539999
   0.88911647  0.11068511  0.04460000
   0.77735180  0.55578315  0.95539999
   0.88911647  0.44401845  0.04460000
   0.77735180  0.88911647  0.95539999
   0.88911647  0.77735180  0.04460000
 
 position of ions in cartesian coordinates  (Angst):
   2.89000007  1.68000002  0.00000000
   0.00000009  6.72000022  0.00000000
   5.77999993  6.71999999  0.00000000
   0.00000005  3.36000011  0.00000000
  -5.78000005  3.36000019  0.00000000
   5.78000015  3.36000003  0.00000000
   0.00000000  0.00000000  0.00000000
  -2.88999998  5.04000020  0.00000000
   2.89000012  5.04000012  0.00000000
  -0.96899991  1.67900001 28.66199970
   0.96899995  1.67899998  1.33799996
  -3.85899993  3.35900011 28.66199970
  -1.92100007  3.35900008  1.33799996
  -6.74899970  5.03900005 28.66199970
  -4.81100010  5.03900017  1.33799996
   1.92100017  3.35900003 28.66199970
   3.85900003  3.35900000  1.33799996
  -0.96899986  5.03900012 28.66199970
   0.96900000  5.03900009  1.33799996
  -3.85899963  6.71900006 28.66199970
  -1.92100003  6.71900019  1.33799996
   4.81100024  5.03900004 28.66199970
   6.74899984  5.03899987  1.33799996
   1.92100021  6.71900014 28.66199970
   3.85899981  6.71899996  1.33799996
  -0.96899956  8.39900008 28.66199970
   0.96899979  8.39900005  1.33799996
 


--------------------------------------------------------------------------------------------------------


 k-point  1 :   0.0000 0.0000 0.0000  plane waves:   27959
 k-point  2 :   0.1250 0.0000 0.0000  plane waves:   27889
 k-point  3 :   0.2500 0.0000 0.0000  plane waves:   27875
 k-point  4 :   0.3750 0.0000 0.0000  plane waves:   27893
 k-point  5 :   0.5000 0.0000 0.0000  plane waves:   27932
 k-point  6 :   0.0000 0.1250 0.0000  plane waves:   27889
 k-point  7 :   0.1250 0.1250 0.0000  plane waves:   27906
 k-point  8 :   0.2500 0.1250 0.0000  plane waves:   27898
 k-point  9 :   0.3750 0.1250 0.0000  plane waves:   27888
 k-point 10 :   0.5000 0.1250 0.0000  plane waves:   27873
 k-point 11 :  -0.3750 0.1250 0.0000  plane waves:   27874
 k-point 12 :  -0.2500 0.1250 0.0000  plane waves:   27895
 k-point 13 :  -0.1250 0.1250 0.0000  plane waves:   27879
 k-point 14 :   0.0000 0.2500 0.0000  plane waves:   27875
 k-point 15 :   0.1250 0.2500 0.0000  plane waves:   27898
 k-point 16 :   0.2500 0.2500 0.0000  plane waves:   27920
 k-point 17 :   0.3750 0.2500 0.0000  plane waves:   27901
 k-point 18 :   0.5000 0.2500 0.0000  plane waves:   27875
 k-point 19 :  -0.3750 0.2500 0.0000  plane waves:   27894
 k-point 20 :  -0.2500 0.2500 0.0000  plane waves:   27870
 k-point 21 :  -0.1250 0.2500 0.0000  plane waves:   27895
 k-point 22 :  -0.0000 0.3750 0.0000  plane waves:   27893
 k-point 23 :   0.1250 0.3750 0.0000  plane waves:   27888
 k-point 24 :   0.2500 0.3750 0.0000  plane waves:   27901
 k-point 25 :   0.3750 0.3750 0.0000  plane waves:   27860
 k-point 26 :   0.5000 0.3750 0.0000  plane waves:   27895
 k-point 27 :  -0.3750 0.3750 0.0000  plane waves:   27858
 k-point 28 :  -0.2500 0.3750 0.0000  plane waves:   27894
 k-point 29 :  -0.1250 0.3750 0.0000  plane waves:   27874
 k-point 30 :   0.0000 0.5000 0.0000  plane waves:   27932
 k-point 31 :   0.1250 0.5000 0.0000  plane waves:   27873
 k-point 32 :   0.2500 0.5000 0.0000  plane waves:   27875
 k-point 33 :   0.3750 0.5000 0.0000  plane waves:   27895
 k-point 34 :   0.5000 0.5000 0.0000  plane waves:   27910

 maximum and minimum number of plane-waves per node :     27959    27858

 maximum number of plane-waves:     27959
 maximum index in each direction: 
   IXMAX=   14   IYMAX=   13   IZMAX=   40
   IXMIN=  -14   IYMIN=  -14   IZMIN=  -40

 WARNING: aliasing errors must be expected set NGX to  58 to avoid them
 WARNING: aliasing errors must be expected set NGY to  56 to avoid them
 WARNING: aliasing errors must be expected set NGZ to 162 to avoid them
 aliasing errors are usually negligible using standard VASP settings
 and one can safely disregard these warnings

 serial   3D FFT for wavefunctions

 total amount of memory used by VASP on root node   650782. kBytes
========================================================================

   base      :      30000. kBytes
   nonl-proj :     559647. kBytes
   fftplans  :       2414. kBytes
   grid      :      12150. kBytes
   one-center:        419. kBytes
   wavefun   :      46152. kBytes
 
     INWAV:  cpu time    0.0000: real time    0.0000
 Broyden mixing: mesh for mixing (old mesh)
   NGX = 27   NGY = 27   NGZ = 81
  (NGX  = 84   NGY  = 84   NGZ  =252)
  gives a total of  59049 points

 initial charge density was supplied:
 charge density of overlapping atoms calculated
 number of electron     159.0000000 magnetization 
 keeping initial charge density in first step


--------------------------------------------------------------------------------------------------------


 Maximum index for augmentation-charges          139 (set IRDMAX)


--------------------------------------------------------------------------------------------------------


 First call to EWALD:  gamma=   0.129
 Maximum number of real-space cells 4x 4x 2
 Maximum number of reciprocal cells 2x 2x 5

 FEWALD executed in parallel
    FEWALD:  cpu time    0.0016: real time    0.0016


----------------------------------------- Iteration    1(   1)  ---------------------------------------


    POTLOK:  cpu time    0.0385: real time    0.0386
    SETDIJ:  cpu time    0.0040: real time    0.0041
     EDDAV:  cpu time   22.7666: real time   22.8237
       DOS:  cpu time    0.0017: real time    0.0019
    --------------------------------------------
      LOOP:  cpu time   22.8161: real time   22.8755

 eigenvalue-minimisations  :  8160
 total energy-change (2. order) : 0.1124301E+04  (-0.3586111E+04)
 number of electron     159.0000000 magnetization 
 augmentation part      159.0000000 magnetization 

 Free energy of the ion-electron system (eV)
  ---------------------------------------------------
  alpha Z        PSCENC =        81.65567618
  Ewald energy   TEWEN  =     41888.36874791
  -Hartree energ DENC   =    -47720.98308885
  -exchange      EXHF   =         0.00000000
  -V(xc)+E(xc)   XCENC  =      -242.93656870
  PAW double counting   =      3467.42045192    -2871.19716117
  entropy T*S    EENTRO =        -0.53053397
  eigenvalues    EBANDS =      -238.93873887
  atomic energy  EATOM  =      6761.44252427
  Solvation  Ediel_sol  =         0.00000000
  ---------------------------------------------------
  free energy    TOTEN  =      1124.30130871 eV

  energy without entropy =     1124.83184268  energy(sigma->0) =     1124.56657569


--------------------------------------------------------------------------------------------------------




----------------------------------------- Iteration    1(   2)  ---------------------------------------


     EDDAV:  cpu time   30.0416: real time   30.1143
       DOS:  cpu time    0.0010: real time    0.0010
    --------------------------------------------
      LOOP:  cpu time   30.0437: real time   30.1224

 eigenvalue-minimisations  : 11480
 total energy-change (2. order) :-0.1125967E+04  (-0.1082901E+04)
 number of electron     159.0000000 magnetization 
 augmentation part      159.0000000 magnetization 

 Free energy of the ion-electron system (eV)
  ---------------------------------------------------
  alpha Z        PSCENC =        81.65567618
  Ewald energy   TEWEN  =     41888.36874791
  -Hartree energ DENC   =    -47720.98308885
  -exchange      EXHF   =         0.00000000
  -V(xc)+E(xc)   XCENC  =      -242.93656870
  PAW double counting   =      3467.42045192    -2871.19716117
  entropy T*S    EENTRO =        -0.20685874
  eigenvalues    EBANDS =     -1365.22937519
  atomic energy  EATOM  =      6761.44252427
  Solvation  Ediel_sol  =         0.00000000
  ---------------------------------------------------
  free energy    TOTEN  =        -1.66565237 eV

  energy without entropy =       -1.45879364  energy(sigma->0) =       -1.56222301


--------------------------------------------------------------------------------------------------------




----------------------------------------- Iteration    1(   3)  ---------------------------------------


     EDDAV:  cpu time   28.7297: real time   28.7984
       DOS:  cpu time    0.0010: real time    0.0010
    --------------------------------------------
      LOOP:  cpu time   28.7315: real time   28.8065

 eigenvalue-minimisations  : 10880
 total energy-change (2. order) :-0.1982681E+03  (-0.1901527E+03)
 number of electron     159.0000000 magnetization 
 augmentation part      159.0000000 magnetization 

 Free energy of the ion-electron system (eV)
  ---------------------------------------------------
  alpha Z        PSCENC =        81.65567618
  Ewald energy   TEWEN  =     41888.36874791
  -Hartree energ DENC   =    -47720.98308885
  -exchange      EXHF   =         0.00000000
  -V(xc)+E(xc)   XCENC  =      -242.93656870
  PAW double counting   =      3467.42045192    -2871.19716117
  entropy T*S    EENTRO =        -0.25746436
  eigenvalues    EBANDS =     -1563.44684757
  atomic energy  EATOM  =      6761.44252427
  Solvation  Ediel_sol  =         0.00000000
  ---------------------------------------------------
  free energy    TOTEN  =      -199.93373039 eV

  energy without entropy =     -199.67626602  energy(sigma->0) =     -199.80499820


--------------------------------------------------------------------------------------------------------




----------------------------------------- Iteration    1(   4)  ---------------------------------------


     EDDAV:  cpu time   31.6270: real time   31.7055
       DOS:  cpu time    0.0012: real time    0.0012
    --------------------------------------------
      LOOP:  cpu time   31.6313: real time   31.7131

 eigenvalue-minimisations  : 12240
 total energy-change (2. order) :-0.9170801E+01  (-0.8928481E+01)
 number of electron     159.0000000 magnetization 
 augmentation part      159.0000000 magnetization 

 Free energy of the ion-electron system (eV)
  ---------------------------------------------------
  alpha Z        PSCENC =        81.65567618
  Ewald energy   TEWEN  =     41888.36874791
  -Hartree energ DENC   =    -47720.98308885
  -exchange      EXHF   =         0.00000000
  -V(xc)+E(xc)   XCENC  =      -242.93656870
  PAW double counting   =      3467.42045192    -2871.19716117
  entropy T*S    EENTRO =        -0.28673710
  eigenvalues    EBANDS =     -1572.58837610
  atomic energy  EATOM  =      6761.44252427
  Solvation  Ediel_sol  =         0.00000000
  ---------------------------------------------------
  free energy    TOTEN  =      -209.10453164 eV

  energy without entropy =     -208.81779455  energy(sigma->0) =     -208.96116310


--------------------------------------------------------------------------------------------------------




----------------------------------------- Iteration    1(   5)  ---------------------------------------


     EDDAV:  cpu time   29.3427: real time   29.4131
       DOS:  cpu time    0.0010: real time    0.0010
    CHARGE:  cpu time    0.4596: real time    0.4608
    MIXING:  cpu time    0.0020: real time    0.0022
    --------------------------------------------
      LOOP:  cpu time   29.8066: real time   29.8843

 eigenvalue-minimisations  : 11200
 total energy-change (2. order) :-0.3102566E+00  (-0.3095322E+00)
 number of electron     159.0000113 magnetization 
 augmentation part       -9.7734839 magnetization 

 Broyden mixing:
  rms(total) = 0.27488E+01    rms(broyden)= 0.27484E+01
  rms(prec ) = 0.29319E+01
  weight for this iteration     100.00

 Free energy of the ion-electron system (eV)
  ---------------------------------------------------
  alpha Z        PSCENC =        81.65567618
  Ewald energy   TEWEN  =     41888.36874791
  -Hartree energ DENC   =    -47720.98308885
  -exchange      EXHF   =         0.00000000
  -V(xc)+E(xc)   XCENC  =      -242.93656870
  PAW double counting   =      3467.42045192    -2871.19716117
  entropy T*S    EENTRO =        -0.28436222
  eigenvalues    EBANDS =     -1572.90100755
  atomic energy  EATOM  =      6761.44252427
  Solvation  Ediel_sol  =         0.00000000
  ---------------------------------------------------
  free energy    TOTEN  =      -209.41478822 eV

  energy without entropy =     -209.13042600  energy(sigma->0) =     -209.27260711


--------------------------------------------------------------------------------------------------------




----------------------------------------- Iteration    1(   6)  ---------------------------------------


    POTLOK:  cpu time    0.0356: real time    0.0357
    SETDIJ:  cpu time    0.0037: real time    0.0037
     EDDAV:  cpu time   32.4760: real time   32.5543
       DOS:  cpu time    0.0010: real time    0.0009
    CHARGE:  cpu time    0.4555: real time    0.4567
    MIXING:  cpu time    0.0020: real time    0.0019
    --------------------------------------------
      LOOP:  cpu time   32.9747: real time   33.0624

 eigenvalue-minimisations  : 12680
 total energy-change (2. order) :-0.2771719E+02  (-0.1049018E+02)
 number of electron     159.0000106 magnetization 
 augmentation part        7.0509266 magnetization 

 Broyden mixing:
  rms(total) = 0.59607E+01    rms(broyden)= 0.59600E+01
  rms(prec ) = 0.64788E+01
  weight for this iteration     100.00

 eigenvalues of (default mixing * dielectric matrix)
  average eigenvalue GAMMA=   0.2920
  0.2920

 Free energy of the ion-electron system (eV)
  ---------------------------------------------------
  alpha Z        PSCENC =        81.65567618
  Ewald energy   TEWEN  =     41888.36874791
  -Hartree energ DENC   =    -47699.30191766
  -exchange      EXHF   =         0.00000000
  -V(xc)+E(xc)   XCENC  =      -233.66337981
  PAW double counting   =      3677.28560648    -3083.33610657
  entropy T*S    EENTRO =        -0.29168932
  eigenvalues    EBANDS =     -1629.29143708
  atomic energy  EATOM  =      6761.44252427
  Solvation  Ediel_sol  =         0.00000000
  ---------------------------------------------------
  free energy    TOTEN  =      -237.13197560 eV

  energy without entropy =     -236.84028628  energy(sigma->0) =     -236.98613094


--------------------------------------------------------------------------------------------------------




----------------------------------------- Iteration    1(   7)  ---------------------------------------


    POTLOK:  cpu time    0.0374: real time    0.0375
    SETDIJ:  cpu time    0.0034: real time    0.0034
     EDDAV:  cpu time   31.9413: real time   32.0177
       DOS:  cpu time    0.0010: real time    0.0010
    CHARGE:  cpu time    0.5531: real time    0.5544
    MIXING:  cpu time    0.0013: real time    0.0013
    --------------------------------------------
      LOOP:  cpu time   32.5384: real time   32.6244

 eigenvalue-minimisations  : 12440
 total energy-change (2. order) : 0.4109465E+02  (-0.1701328E+02)
 number of electron     159.0000093 magnetization 
 augmentation part       -6.2478148 magnetization 

 Broyden mixing:
  rms(total) = 0.19812E+01    rms(broyden)= 0.19791E+01
  rms(prec ) = 0.21610E+01
  weight for this iteration     100.00

 eigenvalues of (default mixing * dielectric matrix)
  average eigenvalue GAMMA=   0.5597
  0.9049  0.2145

 Free energy of the ion-electron system (eV)
  ---------------------------------------------------
  alpha Z        PSCENC =        81.65567618
  Ewald energy   TEWEN  =     41888.36874791
  -Hartree energ DENC   =    -47737.08892582
  -exchange      EXHF   =         0.00000000
  -V(xc)+E(xc)   XCENC  =      -235.04218698
  PAW double counting   =      3764.86459263    -3178.92661882
  entropy T*S    EENTRO =        -0.23351194
  eigenvalues    EBANDS =     -1541.07761842
  atomic energy  EATOM  =      6761.44252427
  Solvation  Ediel_sol  =         0.00000000
  ---------------------------------------------------
  free energy    TOTEN  =      -196.03732099 eV

  energy without entropy =     -195.80380905  energy(sigma->0) =     -195.92056502


--------------------------------------------------------------------------------------------------------




----------------------------------------- Iteration    1(   8)  ---------------------------------------


    POTLOK:  cpu time    0.0318: real time    0.0322
    SETDIJ:  cpu time    0.0033: real time    0.0033
     EDDAV:  cpu time   31.4658: real time   31.5415
       DOS:  cpu time    0.0002: real time    0.0011
    CHARGE:  cpu time    0.5596: real time    0.5609
    MIXING:  cpu time    0.0012: real time    0.0012
    --------------------------------------------
      LOOP:  cpu time   32.0640: real time   32.1492

 eigenvalue-minimisations  : 12160
 total energy-change (2. order) : 0.6715307E+01  (-0.1651775E+01)
 number of electron     159.0000097 magnetization 
 augmentation part       -6.2552190 magnetization 

 Broyden mixing:
  rms(total) = 0.11956E+01    rms(broyden)= 0.11952E+01
  rms(prec ) = 0.12787E+01
  weight for this iteration     100.00

 eigenvalues of (default mixing * dielectric matrix)
  average eigenvalue GAMMA=   0.5789
  1.1242  0.2347  0.3779

 Free energy of the ion-electron system (eV)
  ---------------------------------------------------
  alpha Z        PSCENC =        81.65567618
  Ewald energy   TEWEN  =     41888.36874791
  -Hartree energ DENC   =    -47759.28408888
  -exchange      EXHF   =         0.00000000
  -V(xc)+E(xc)   XCENC  =      -234.97782684
  PAW double counting   =      3909.12503841    -3324.80230924
  entropy T*S    EENTRO =        -0.28480884
  eigenvalues    EBANDS =     -1510.56496651
  atomic energy  EATOM  =      6761.44252427
  Solvation  Ediel_sol  =         0.00000000
  ---------------------------------------------------
  free energy    TOTEN  =      -189.32201354 eV

  energy without entropy =     -189.03720470  energy(sigma->0) =     -189.17960912


--------------------------------------------------------------------------------------------------------




----------------------------------------- Iteration    1(   9)  ---------------------------------------


    POTLOK:  cpu time    0.0324: real time    0.0325
    SETDIJ:  cpu time    0.0033: real time    0.0033
     EDDAV:  cpu time   31.7660: real time   31.8419
       DOS:  cpu time    0.0010: real time    0.0010
    CHARGE:  cpu time    0.5593: real time    0.5606
    MIXING:  cpu time    0.0014: real time    0.0014
    --------------------------------------------
      LOOP:  cpu time   32.3653: real time   32.4506

 eigenvalue-minimisations  : 12320
 total energy-change (2. order) : 0.1111049E+01  (-0.3583729E+00)
 number of electron     159.0000097 magnetization 
 augmentation part       -5.4710712 magnetization 

 Broyden mixing:
  rms(total) = 0.91418E+00    rms(broyden)= 0.91381E+00
  rms(prec ) = 0.98132E+00
  weight for this iteration     100.00

 eigenvalues of (default mixing * dielectric matrix)
  average eigenvalue GAMMA=   0.7488
  1.8498  0.6323  0.2213  0.2919

 Free energy of the ion-electron system (eV)
  ---------------------------------------------------
  alpha Z        PSCENC =        81.65567618
  Ewald energy   TEWEN  =     41888.36874791
  -Hartree energ DENC   =    -47763.73421183
  -exchange      EXHF   =         0.00000000
  -V(xc)+E(xc)   XCENC  =      -234.10443200
  PAW double counting   =      3977.44377068    -3393.95243136
  entropy T*S    EENTRO =        -0.28032298
  eigenvalues    EBANDS =     -1505.05028571
  atomic energy  EATOM  =      6761.44252427
  Solvation  Ediel_sol  =         0.00000000
  ---------------------------------------------------
  free energy    TOTEN  =      -188.21096484 eV

  energy without entropy =     -187.93064186  energy(sigma->0) =     -188.07080335


--------------------------------------------------------------------------------------------------------




----------------------------------------- Iteration    1(  10)  ---------------------------------------


    POTLOK:  cpu time    0.0324: real time    0.0327
    SETDIJ:  cpu time    0.0034: real time    0.0034
     EDDAV:  cpu time   32.7450: real time   32.8240
       DOS:  cpu time    0.0010: real time    0.0010
    CHARGE:  cpu time    0.5768: real time    0.5782
    MIXING:  cpu time    0.0015: real time    0.0015
    --------------------------------------------
      LOOP:  cpu time   33.3603: real time   33.4500

 eigenvalue-minimisations  : 12800
 total energy-change (2. order) : 0.1131734E+01  (-0.1683428E+00)
 number of electron     159.0000095 magnetization 
 augmentation part       -4.1127717 magnetization 

 Broyden mixing:
  rms(total) = 0.21365E+00    rms(broyden)= 0.21252E+00
  rms(prec ) = 0.22823E+00
  weight for this iteration     100.00

 eigenvalues of (default mixing * dielectric matrix)
  average eigenvalue GAMMA=   0.9376
  1.7649  1.7649  0.6603  0.2207  0.2772

 Free energy of the ion-electron system (eV)
  ---------------------------------------------------
  alpha Z        PSCENC =        81.65567618
  Ewald energy   TEWEN  =     41888.36874791
  -Hartree energ DENC   =    -47777.77830489
  -exchange      EXHF   =         0.00000000
  -V(xc)+E(xc)   XCENC  =      -232.53332491
  PAW double counting   =      4109.78331888    -3527.98567421
  entropy T*S    EENTRO =        -0.35332338
  eigenvalues    EBANDS =     -1489.67887055
  atomic energy  EATOM  =      6761.44252427
  Solvation  Ediel_sol  =         0.00000000
  ---------------------------------------------------
  free energy    TOTEN  =      -187.07923070 eV

  energy without entropy =     -186.72590731  energy(sigma->0) =     -186.90256901


--------------------------------------------------------------------------------------------------------




----------------------------------------- Iteration    1(  11)  ---------------------------------------


    POTLOK:  cpu time    0.0323: real time    0.0327
    SETDIJ:  cpu time    0.0033: real time    0.0033
     EDDAV:  cpu time   34.2754: real time   34.3573
       DOS:  cpu time    0.0010: real time    0.0010
    CHARGE:  cpu time    0.5731: real time    0.5745
    MIXING:  cpu time    0.0014: real time    0.0014
    --------------------------------------------
      LOOP:  cpu time   34.8877: real time   34.9791

 eigenvalue-minimisations  : 13480
 total energy-change (2. order) :-0.1252355E+00  (-0.6442249E-01)
 number of electron     159.0000091 magnetization 
 augmentation part       -4.8057767 magnetization 

 Broyden mixing:
  rms(total) = 0.45270E+00    rms(broyden)= 0.45253E+00
  rms(prec ) = 0.49480E+00
  weight for this iteration     100.00

 eigenvalues of (default mixing * dielectric matrix)
  average eigenvalue GAMMA=   0.9624
  2.2263  1.6734  0.6875  0.6875  0.2200  0.2798

 Free energy of the ion-electron system (eV)
  ---------------------------------------------------
  alpha Z        PSCENC =        81.65567618
  Ewald energy   TEWEN  =     41888.36874791
  -Hartree energ DENC   =    -47792.62601824
  -exchange      EXHF   =         0.00000000
  -V(xc)+E(xc)   XCENC  =      -232.07681644
  PAW double counting   =      4172.61702190    -3591.00745035
  entropy T*S    EENTRO =        -0.31752922
  eigenvalues    EBANDS =     -1475.26062223
  atomic energy  EATOM  =      6761.44252427
  Solvation  Ediel_sol  =         0.00000000
  ---------------------------------------------------
  free energy    TOTEN  =      -187.20446623 eV

  energy without entropy =     -186.88693701  energy(sigma->0) =     -187.04570162


--------------------------------------------------------------------------------------------------------




----------------------------------------- Iteration    1(  12)  ---------------------------------------


    POTLOK:  cpu time    0.0338: real time    0.0361
    SETDIJ:  cpu time    0.0034: real time    0.0034
     EDDAV:  cpu time   33.5414: real time   33.6223
       DOS:  cpu time    0.0001: real time    0.0010
    CHARGE:  cpu time    0.5764: real time    0.5778
    MIXING:  cpu time    0.0015: real time    0.0015
    --------------------------------------------
      LOOP:  cpu time   34.1607: real time   34.2512

 eigenvalue-minimisations  : 13160
 total energy-change (2. order) : 0.2123136E+00  (-0.3798403E-01)
 number of electron     159.0000092 magnetization 
 augmentation part       -4.0070210 magnetization 

 Broyden mixing:
  rms(total) = 0.13815E+00    rms(broyden)= 0.13756E+00
  rms(prec ) = 0.15102E+00
  weight for this iteration     100.00

 eigenvalues of (default mixing * dielectric matrix)
  average eigenvalue GAMMA=   0.9469
  2.2306  1.7655  0.9688  0.2199  0.2797  0.5818  0.5818

 Free energy of the ion-electron system (eV)
  ---------------------------------------------------
  alpha Z        PSCENC =        81.65567618
  Ewald energy   TEWEN  =     41888.36874791
  -Hartree energ DENC   =    -47799.45602211
  -exchange      EXHF   =         0.00000000
  -V(xc)+E(xc)   XCENC  =      -231.89983056
  PAW double counting   =      4190.73734287    -3608.99002585
  entropy T*S    EENTRO =        -0.34850971
  eigenvalues    EBANDS =     -1468.50205564
  atomic energy  EATOM  =      6761.44252427
  Solvation  Ediel_sol  =         0.00000000
  ---------------------------------------------------
  free energy    TOTEN  =      -186.99215264 eV

  energy without entropy =     -186.64364293  energy(sigma->0) =     -186.81789778


--------------------------------------------------------------------------------------------------------




----------------------------------------- Iteration    1(  13)  ---------------------------------------


    POTLOK:  cpu time    0.0321: real time    0.0321
    SETDIJ:  cpu time    0.0032: real time    0.0032
     EDDAV:  cpu time   32.6023: real time   32.6808
       DOS:  cpu time    0.0010: real time    0.0010
    CHARGE:  cpu time    0.5758: real time    0.5772
    MIXING:  cpu time    0.0015: real time    0.0015
    --------------------------------------------
      LOOP:  cpu time   33.2168: real time   33.3046

 eigenvalue-minimisations  : 12720
 total energy-change (2. order) : 0.1593352E-01  (-0.2196535E-02)
 number of electron     159.0000092 magnetization 
 augmentation part       -4.1375411 magnetization 

 Broyden mixing:
  rms(total) = 0.41281E-01    rms(broyden)= 0.41268E-01
  rms(prec ) = 0.46420E-01
  weight for this iteration     100.00

 eigenvalues of (default mixing * dielectric matrix)
  average eigenvalue GAMMA=   0.9474
  2.2628  1.8640  1.0032  0.2199  0.2797  0.6298  0.6298  0.6898

 Free energy of the ion-electron system (eV)
  ---------------------------------------------------
  alpha Z        PSCENC =        81.65567618
  Ewald energy   TEWEN  =     41888.36874791
  -Hartree energ DENC   =    -47803.98580477
  -exchange      EXHF   =         0.00000000
  -V(xc)+E(xc)   XCENC  =      -231.83091593
  PAW double counting   =      4192.72391214    -3610.91126276
  entropy T*S    EENTRO =        -0.34617751
  eigenvalues    EBANDS =     -1464.09291865
  atomic energy  EATOM  =      6761.44252427
  Solvation  Ediel_sol  =         0.00000000
  ---------------------------------------------------
  free energy    TOTEN  =      -186.97621912 eV

  energy without entropy =     -186.63004161  energy(sigma->0) =     -186.80313036


--------------------------------------------------------------------------------------------------------




----------------------------------------- Iteration    1(  14)  ---------------------------------------


    POTLOK:  cpu time    0.0329: real time    0.0330
    SETDIJ:  cpu time    0.0033: real time    0.0034
     EDDAV:  cpu time   34.0927: real time   34.1748
       DOS:  cpu time    0.0011: real time    0.0011
    CHARGE:  cpu time    0.5770: real time    0.5784
    MIXING:  cpu time    0.0017: real time    0.0017
    --------------------------------------------
      LOOP:  cpu time   34.7096: real time   34.8010

 eigenvalue-minimisations  : 13400
 total energy-change (2. order) :-0.2227632E-02  (-0.1103148E-02)
 number of electron     159.0000092 magnetization 
 augmentation part       -4.1551295 magnetization 

 Broyden mixing:
  rms(total) = 0.74755E-01    rms(broyden)= 0.74732E-01
  rms(prec ) = 0.83450E-01
  weight for this iteration     100.00

 eigenvalues of (default mixing * dielectric matrix)
  average eigenvalue GAMMA=   0.9781
  2.4941  2.0959  1.3056  1.0451  0.6168  0.6168  0.2797  0.2199  0.1291

 Free energy of the ion-electron system (eV)
  ---------------------------------------------------
  alpha Z        PSCENC =        81.65567618
  Ewald energy   TEWEN  =     41888.36874791
  -Hartree energ DENC   =    -47807.41561543
  -exchange      EXHF   =         0.00000000
  -V(xc)+E(xc)   XCENC  =      -231.78111518
  PAW double counting   =      4194.03283457    -3612.18005765
  entropy T*S    EENTRO =        -0.34542247
  eigenvalues    EBANDS =     -1460.75601895
  atomic energy  EATOM  =      6761.44252427
  Solvation  Ediel_sol  =         0.00000000
  ---------------------------------------------------
  free energy    TOTEN  =      -186.97844675 eV

  energy without entropy =     -186.63302428  energy(sigma->0) =     -186.80573552


--------------------------------------------------------------------------------------------------------




----------------------------------------- Iteration    1(  15)  ---------------------------------------


    POTLOK:  cpu time    0.0326: real time    0.0327
    SETDIJ:  cpu time    0.0034: real time    0.0034
     EDDAV:  cpu time   32.8356: real time   32.9148
       DOS:  cpu time    0.0010: real time    0.0010
    CHARGE:  cpu time    0.5765: real time    0.5779
    MIXING:  cpu time    0.0017: real time    0.0017
    --------------------------------------------
      LOOP:  cpu time   33.4518: real time   33.5399

 eigenvalue-minimisations  : 12840
 total energy-change (2. order) : 0.5471034E-02  (-0.8933660E-03)
 number of electron     159.0000092 magnetization 
 augmentation part       -4.1817033 magnetization 

 Broyden mixing:
  rms(total) = 0.11493E-01    rms(broyden)= 0.11387E-01
  rms(prec ) = 0.14479E-01
  weight for this iteration     100.00

 eigenvalues of (default mixing * dielectric matrix)
  average eigenvalue GAMMA=   0.9796
  2.3527  2.3527  1.3959  1.1014  0.7301  0.6186  0.6186  0.2199  0.2797  0.1268

 Free energy of the ion-electron system (eV)
  ---------------------------------------------------
  alpha Z        PSCENC =        81.65567618
  Ewald energy   TEWEN  =     41888.36874791
  -Hartree energ DENC   =    -47812.56851931
  -exchange      EXHF   =         0.00000000
  -V(xc)+E(xc)   XCENC  =      -231.70945507
  PAW double counting   =      4195.63732015    -3613.72770254
  entropy T*S    EENTRO =        -0.34456741
  eigenvalues    EBANDS =     -1455.72699991
  atomic energy  EATOM  =      6761.44252427
  Solvation  Ediel_sol  =         0.00000000
  ---------------------------------------------------
  free energy    TOTEN  =      -186.97297572 eV

  energy without entropy =     -186.62840831  energy(sigma->0) =     -186.80069201


--------------------------------------------------------------------------------------------------------




----------------------------------------- Iteration    1(  16)  ---------------------------------------


    POTLOK:  cpu time    0.0323: real time    0.0327
    SETDIJ:  cpu time    0.0032: real time    0.0032
     EDDAV:  cpu time   30.6158: real time   30.6896
       DOS:  cpu time    0.0010: real time    0.0010
    CHARGE:  cpu time    0.5792: real time    0.5806
    MIXING:  cpu time    0.0018: real time    0.0018
    --------------------------------------------
      LOOP:  cpu time   31.2344: real time   31.3174

 eigenvalue-minimisations  : 11800
 total energy-change (2. order) :-0.3356378E-03  (-0.1405803E-03)
 number of electron     159.0000092 magnetization 
 augmentation part       -4.1775384 magnetization 

 Broyden mixing:
  rms(total) = 0.13422E-01    rms(broyden)= 0.13410E-01
  rms(prec ) = 0.16515E-01
  weight for this iteration     100.00

 eigenvalues of (default mixing * dielectric matrix)
  average eigenvalue GAMMA=   0.9725
  2.4642  2.4642  1.5262  1.2177  0.9171  0.6160  0.6160  0.2199  0.2797  0.2503
  0.1265

 Free energy of the ion-electron system (eV)
  ---------------------------------------------------
  alpha Z        PSCENC =        81.65567618
  Ewald energy   TEWEN  =     41888.36874791
  -Hartree energ DENC   =    -47815.26950182
  -exchange      EXHF   =         0.00000000
  -V(xc)+E(xc)   XCENC  =      -231.69029194
  PAW double counting   =      4194.73125181    -3612.80185644
  entropy T*S    EENTRO =        -0.34468554
  eigenvalues    EBANDS =     -1453.06517578
  atomic energy  EATOM  =      6761.44252427
  Solvation  Ediel_sol  =         0.00000000
  ---------------------------------------------------
  free energy    TOTEN  =      -186.97331136 eV

  energy without entropy =     -186.62862582  energy(sigma->0) =     -186.80096859


--------------------------------------------------------------------------------------------------------




----------------------------------------- Iteration    1(  17)  ---------------------------------------


    POTLOK:  cpu time    0.0330: real time    0.0331
    SETDIJ:  cpu time    0.0034: real time    0.0035
     EDDAV:  cpu time   29.7295: real time   29.8011
       DOS:  cpu time    0.0011: real time    0.0011
    --------------------------------------------
      LOOP:  cpu time   29.7679: real time   29.8482

 eigenvalue-minimisations  : 11400
 total energy-change (2. order) : 0.1077064E-04  (-0.9186459E-04)
 number of electron     159.0000092 magnetization 
 augmentation part       -4.1775384 magnetization 

 Free energy of the ion-electron system (eV)
  ---------------------------------------------------
  alpha Z        PSCENC =        81.65567618
  Ewald energy   TEWEN  =     41888.36874791
  -Hartree energ DENC   =    -47818.15076461
  -exchange      EXHF   =         0.00000000
  -V(xc)+E(xc)   XCENC  =      -231.67138471
  PAW double counting   =      4193.72221296    -3611.77641078
  entropy T*S    EENTRO =        -0.34473833
  eigenvalues    EBANDS =     -1450.21916348
  atomic energy  EATOM  =      6761.44252427
  Solvation  Ediel_sol  =         0.00000000
  ---------------------------------------------------
  free energy    TOTEN  =      -186.97330058 eV

  energy without entropy =     -186.62856226  energy(sigma->0) =     -186.80093142


--------------------------------------------------------------------------------------------------------




 average (electrostatic) potential at core
  the test charge radii are     1.2064  1.2296  1.1823  0.9698
  (the norm of the test charge is              1.0000)
       1 -50.0826       2 -50.0866       3 -50.0953       4 -47.4991       5 -47.4976
       6 -47.4986       7 -50.0055       8 -50.0013       9 -50.0027      10 -95.2303
      11 -95.2297      12 -95.2331      13 -95.2334      14 -95.2340      15 -95.2336
      16 -95.2328      17 -95.2327      18 -95.2343      19 -95.2343      20 -95.2292
      21 -95.2297      22 -95.2345      23 -95.2350      24 -95.2301      25 -95.2300
      26 -95.2337      27 -95.2335
 
 
 
 E-fermi :  -3.4128     XC(G=0):  -2.4953     alpha+bet : -2.1596


 k-point     1 :       0.0000    0.0000    0.0000
  band No.  band energies     occupation 
      1     -18.2348      2.00000
      2     -17.1396      2.00000
      3     -17.1392      2.00000
      4     -16.9281      2.00000
      5     -16.9279      2.00000
      6     -16.9122      2.00000
      7     -16.9116      2.00000
      8     -16.4230      2.00000
      9     -16.4111      2.00000
     10     -16.4107      2.00000
     11     -16.3557      2.00000
     12     -16.3301      2.00000
     13     -16.2987      2.00000
     14     -16.2986      2.00000
     15     -16.2755      2.00000
     16     -16.2752      2.00000
     17     -16.1095      2.00000
     18     -16.0961      2.00000
     19      -9.4108      2.00000
     20      -9.4107      2.00000
     21      -9.3505      2.00000
     22      -9.2760      2.00000
     23      -9.2759      2.00000
     24      -9.1082      2.00000
     25      -9.1082      2.00000
     26      -9.1052      2.00000
     27      -9.0924      2.00000
     28      -8.9123      2.00000
     29      -8.6345      2.00000
     30      -8.6193      2.00000
     31      -8.4430      2.00000
     32      -8.4429      2.00000
     33      -8.4323      2.00000
     34      -8.4322      2.00000
     35      -8.3403      2.00000
     36      -8.3403      2.00000
     37      -8.3319      2.00000
     38      -8.1114      2.00000
     39      -8.0868      2.00000
     40      -7.9673      2.00000
     41      -7.9672      2.00000
     42      -7.9455      2.00000
     43      -7.9450      2.00000
     44      -7.8683      2.00000
     45      -7.8680      2.00000
     46      -7.3534      2.00000
     47      -7.3524      2.00000
     48      -7.2186      2.00000
     49      -7.2178      2.00000
     50      -7.2039      2.00000
     51      -7.2032      2.00000
     52      -6.9572      2.00000
     53      -6.9191      2.00000
     54      -6.6544      2.00000
     55      -6.5246      2.00000
     56      -6.4893      2.00000
     57      -6.4627      2.00000
     58      -5.7864      2.00000
     59      -5.7864      2.00000
     60      -5.7169      2.00000
     61      -5.7169      2.00000
     62      -5.6737      2.00000
     63      -5.6736      2.00000
     64      -5.4344      2.00000
     65      -5.4339      2.00000
     66      -5.3826      2.00000
     67      -5.3824      2.00000
     68      -5.3729      2.00000
     69      -5.2951      2.00000
     70      -5.2950      2.00000
     71      -4.2038      2.00000
     72      -4.2034      2.00000
     73      -4.1964      2.00000
     74      -4.1704      2.00000
     75      -4.0890      2.00000
     76      -4.0875      2.00000
     77      -4.0709      2.00000
     78      -4.0708      2.00000
     79      -3.9762      1.99993
     80      -3.9414      1.99981
     81      -3.4467      1.18964
     82      -3.2460      0.23808
     83      -2.8389      0.00005
     84      -2.7559      0.00000
     85      -2.7556      0.00000
     86      -2.6905      0.00000
     87      -2.6902      0.00000
     88      -2.5684      0.00000
     89      -2.5578      0.00000
     90      -2.5537      0.00000
     91      -2.5533      0.00000
     92      -2.2167      0.00000
     93      -2.1984      0.00000
     94      -2.1973      0.00000
     95      -2.1935      0.00000
     96      -1.9861      0.00000
     97      -1.9856      0.00000
     98      -1.9286      0.00000
     99      -1.9277      0.00000
    100      -0.7616      0.00000
    101      -0.7241      0.00000
    102      -0.6426      0.00000
    103      -0.6386      0.00000
    104      -0.5982      0.00000
    105      -0.5942      0.00000
    106       0.3247      0.00000
    107       0.3698      0.00000
    108       0.4419      0.00000
    109       0.4422      0.00000
    110       0.5054      0.00000
    111       0.5055      0.00000
    112       0.9205      0.00000
    113       0.9780      0.00000
    114       0.9829      0.00000
    115       0.9838      0.00000
    116       1.0492      0.00000
    117       1.0500      0.00000
    118       1.2911      0.00000
    119       1.3635      0.00000
    120       1.9218      0.00000

 k-point     2 :       0.1250    0.0000    0.0000
  band No.  band energies     occupation 
      1     -18.2106      2.00000
      2     -17.2572      2.00000
      3     -17.1917      2.00000
      4     -16.9839      2.00000
      5     -16.8941      2.00000
      6     -16.8295      2.00000
      7     -16.8096      2.00000
      8     -16.4249      2.00000
      9     -16.4243      2.00000
     10     -16.4143      2.00000
     11     -16.3718      2.00000
     12     -16.3342      2.00000
     13     -16.2945      2.00000
     14     -16.2830      2.00000
     15     -16.2602      2.00000
     16     -16.2600      2.00000
     17     -16.1282      2.00000
     18     -16.0964      2.00000
     19      -9.5834      2.00000
     20      -9.4767      2.00000
     21      -9.3419      2.00000
     22      -9.3414      2.00000
     23      -9.2465      2.00000
     24      -9.2194      2.00000
     25      -9.0877      2.00000
     26      -9.0201      2.00000
     27      -8.9952      2.00000
     28      -8.9898      2.00000
     29      -8.6224      2.00000
     30      -8.5239      2.00000
     31      -8.4667      2.00000
     32      -8.4621      2.00000
     33      -8.4384      2.00000
     34      -8.4267      2.00000
     35      -8.2600      2.00000
     36      -8.2424      2.00000
     37      -8.1880      2.00000
     38      -8.1415      2.00000
     39      -8.0721      2.00000
     40      -8.0494      2.00000
     41      -7.9746      2.00000
     42      -7.9326      2.00000
     43      -7.9214      2.00000
     44      -7.8059      2.00000
     45      -7.7749      2.00000
     46      -7.3908      2.00000
     47      -7.3306      2.00000
     48      -7.2709      2.00000
     49      -7.2049      2.00000
     50      -7.1778      2.00000
     51      -7.1569      2.00000
     52      -7.0216      2.00000
     53      -6.9561      2.00000
     54      -6.7220      2.00000
     55      -6.5211      2.00000
     56      -6.4509      2.00000
     57      -6.3479      2.00000
     58      -5.9183      2.00000
     59      -5.9174      2.00000
     60      -5.8126      2.00000
     61      -5.7518      2.00000
     62      -5.7030      2.00000
     63      -5.6410      2.00000
     64      -5.6104      2.00000
     65      -5.5495      2.00000
     66      -5.4395      2.00000
     67      -5.3130      2.00000
     68      -5.2550      2.00000
     69      -5.1811      2.00000
     70      -5.0878      2.00000
     71      -4.5005      2.00000
     72      -4.4220      2.00000
     73      -4.1945      2.00000
     74      -4.1644      2.00000
     75      -4.0678      2.00000
     76      -4.0225      1.99998
     77      -4.0027      1.99997
     78      -3.9445      1.99983
     79      -3.8198      1.99600
     80      -3.7040      1.96054
     81      -3.4205      1.04363
     82      -3.2406      0.22323
     83      -2.7905      0.00001
     84      -2.7879      0.00001
     85      -2.7790      0.00001
     86      -2.6843      0.00000
     87      -2.6783      0.00000
     88      -2.5817      0.00000
     89      -2.5709      0.00000
     90      -2.5666      0.00000
     91      -2.5642      0.00000
     92      -2.2423      0.00000
     93      -2.2212      0.00000
     94      -2.2110      0.00000
     95      -2.2068      0.00000
     96      -2.0210      0.00000
     97      -2.0103      0.00000
     98      -1.9402      0.00000
     99      -1.9155      0.00000
    100      -0.7744      0.00000
    101      -0.7389      0.00000
    102      -0.7170      0.00000
    103      -0.7127      0.00000
    104      -0.6177      0.00000
    105      -0.6138      0.00000
    106       0.3193      0.00000
    107       0.3310      0.00000
    108       0.3747      0.00000
    109       0.3779      0.00000
    110       0.4837      0.00000
    111       0.5196      0.00000
    112       0.8962      0.00000
    113       0.9696      0.00000
    114       0.9916      0.00000
    115       1.0075      0.00000
    116       1.1041      0.00000
    117       1.1306      0.00000
    118       1.3289      0.00000
    119       1.3996      0.00000
    120       1.9535      0.00000

 k-point     3 :       0.2500    0.0000    0.0000
  band No.  band energies     occupation 
      1     -18.1388      2.00000
      2     -17.4649      2.00000
      3     -17.2632      2.00000
      4     -17.0337      2.00000
      5     -16.7903      2.00000
      6     -16.7183      2.00000
      7     -16.7112      2.00000
      8     -16.4539      2.00000
      9     -16.4411      2.00000
     10     -16.4180      2.00000
     11     -16.4079      2.00000
     12     -16.3406      2.00000
     13     -16.2965      2.00000
[...]
    104      -0.4925      0.00000
    105      -0.3040      0.00000
    106      -0.2170      0.00000
    107      -0.1332      0.00000
    108      -0.1308      0.00000
    109       0.2387      0.00000
    110       0.2682      0.00000
    111       0.4992      0.00000
    112       1.1971      0.00000
    113       1.2437      0.00000
    114       1.2842      0.00000
    115       1.4342      0.00000
    116       1.4711      0.00000
    117       1.5168      0.00000
    118       2.1564      0.00000
    119       2.2697      0.00000
    120       2.4193      0.00000

 k-point    34 :       0.5000    0.5000    0.0000
  band No.  band energies     occupation 
      1     -17.4168      2.00000
      2     -17.4159      2.00000
      3     -16.7665      2.00000
      4     -16.6123      2.00000
      5     -16.4659      2.00000
      6     -16.4647      2.00000
      7     -16.2914      2.00000
      8     -16.0329      2.00000
      9     -16.0299      2.00000
     10     -15.9898      2.00000
     11     -15.9893      2.00000
     12     -15.8609      2.00000
     13     -15.8600      2.00000
     14     -15.6672      2.00000
     15     -15.6663      2.00000
     16     -15.5973      2.00000
     17     -15.5972      2.00000
     18     -15.4674      2.00000
     19      -9.7909      2.00000
     20      -9.2261      2.00000
     21      -9.2259      2.00000
     22      -9.0327      2.00000
     23      -9.0324      2.00000
     24      -8.7025      2.00000
     25      -8.7018      2.00000
     26      -8.4346      2.00000
     27      -8.3386      2.00000
     28      -8.3382      2.00000
     29      -8.2580      2.00000
     30      -8.2574      2.00000
     31      -8.1492      2.00000
     32      -8.0213      2.00000
     33      -7.8632      2.00000
     34      -7.6894      2.00000
     35      -7.6352      2.00000
     36      -7.6329      2.00000
     37      -7.6167      2.00000
     38      -7.4939      2.00000
     39      -7.2085      2.00000
     40      -7.2074      2.00000
     41      -7.1758      2.00000
     42      -7.0762      2.00000
     43      -7.0753      2.00000
     44      -6.8466      2.00000
     45      -6.8461      2.00000
     46      -6.7215      2.00000
     47      -6.7200      2.00000
     48      -6.6811      2.00000
     49      -6.4613      2.00000
     50      -6.4607      2.00000
     51      -6.3348      2.00000
     52      -6.3341      2.00000
     53      -6.2602      2.00000
     54      -6.2139      2.00000
     55      -6.0967      2.00000
     56      -6.0952      2.00000
     57      -5.9531      2.00000
     58      -5.8117      2.00000
     59      -5.8062      2.00000
     60      -5.8060      2.00000
     61      -5.7163      2.00000
     62      -5.7155      2.00000
     63      -5.7144      2.00000
     64      -5.5956      2.00000
     65      -5.5937      2.00000
     66      -5.0058      2.00000
     67      -4.9601      2.00000
     68      -4.9592      2.00000
     69      -4.8237      2.00000
     70      -4.5671      2.00000
     71      -4.4255      2.00000
     72      -4.4150      2.00000
     73      -4.4138      2.00000
     74      -3.6243      1.99999
     75      -3.6225      1.99999
     76      -3.3984      1.99664
     77      -3.1951      1.86524
     78      -3.1917      1.85882
     79      -3.1876      1.85096
     80      -3.1722      1.81766
     81      -3.1697      1.81186
     82      -2.6406      0.01530
     83      -2.5055      0.00072
     84      -2.3360      0.00000
     85      -2.3339      0.00000
     86      -2.2250      0.00000
     87      -2.2216      0.00000
     88      -2.1412      0.00000
     89      -2.1394      0.00000
     90      -1.8321      0.00000
     91      -1.8289      0.00000
     92      -1.8139      0.00000
     93      -1.6779      0.00000
     94      -1.2436      0.00000
     95      -1.2420      0.00000
     96      -1.2179      0.00000
     97      -1.2030      0.00000
     98      -1.2015      0.00000
     99      -1.0362      0.00000
    100      -0.7653      0.00000
    101      -0.6348      0.00000
    102      -0.6326      0.00000
    103      -0.5011      0.00000
    104      -0.4994      0.00000
    105      -0.3304      0.00000
    106      -0.2301      0.00000
    107      -0.2290      0.00000
    108      -0.2099      0.00000
    109       0.2964      0.00000
    110       0.2968      0.00000
    111       0.5705      0.00000
    112       1.1752      0.00000
    113       1.2509      0.00000
    114       1.2516      0.00000
    115       1.4406      0.00000
    116       1.5330      0.00000
    117       1.5346      0.00000
    118       2.2555      0.00000
    119       2.2558      0.00000
    120       2.3757      0.00000


--------------------------------------------------------------------------------------------------------


 soft charge-density along one line, spin component           1
         0         1         2         3         4         5         6         7         8         9
 total charge-density along one line
 
 pseudopotential strength for first ion, spin component:           1
 -7.114  -0.012   0.000  -0.000  -0.000   0.640   0.003  -0.000
 -0.012  -7.020  -0.000  -0.000   0.000   0.003   0.612   0.000
  0.000  -0.000  -6.975   0.000   0.000  -0.000   0.000   0.600
 -0.000  -0.000   0.000  -7.020   0.013   0.000   0.000  -0.000
 -0.000   0.000   0.000   0.013  -7.114   0.000  -0.000  -0.000
  0.640   0.003  -0.000   0.000   0.000   0.343  -0.000   0.000
  0.003   0.612   0.000   0.000  -0.000  -0.000   0.352  -0.000
 -0.000   0.000   0.600  -0.000  -0.000   0.000  -0.000   0.355
  0.000   0.000  -0.000   0.612  -0.003  -0.000  -0.000   0.000
  0.000  -0.000  -0.000  -0.003   0.640  -0.000   0.000   0.000
  0.000   0.000  -0.021  -0.000   0.000  -0.000  -0.000   0.005
  0.000   0.000  -0.007  -0.000   0.000  -0.000  -0.000   0.002
 -0.000  -0.000  -0.000   0.000  -0.000   0.000   0.000   0.000
  0.000   0.000  -0.000  -0.000   0.000  -0.000  -0.000   0.000
 -0.000   0.000   0.000  -0.000  -0.000   0.000  -0.000  -0.000
 -0.000  -0.000   0.000   0.000  -0.000   0.000   0.000  -0.000
  0.000   0.000  -0.000  -0.000   0.000  -0.000  -0.000   0.000
 -0.000   0.000   0.000  -0.000   0.000   0.000  -0.000  -0.000
 total augmentation occupancy for first ion, spin component:           1
  0.822   0.089   0.000  -0.000  -0.000   0.429   0.235  -0.000   0.000  -0.000   0.000   0.000  -0.000   0.000  -0.003  -0.000
  0.089   1.093  -0.000   0.000   0.000   0.236   0.672  -0.000   0.000  -0.000   0.000   0.000  -0.000   0.000   0.004   0.000
  0.000  -0.000   0.850   0.001   0.001  -0.000  -0.000   0.330   0.000   0.000   0.203   0.006  -0.000   0.000   0.000  -0.000
 -0.000   0.000   0.001   1.094  -0.088   0.000   0.000   0.000   0.672  -0.236  -0.000   0.000  -0.003  -0.000  -0.000  -0.000
 -0.000   0.000   0.001  -0.088   0.823  -0.000  -0.000   0.000  -0.235   0.429   0.000  -0.000  -0.003   0.000   0.000  -0.000
  0.429   0.236  -0.000   0.000  -0.000   0.388   0.230  -0.000   0.000  -0.000   0.000   0.000  -0.000   0.000  -0.003  -0.000
  0.235   0.672  -0.000   0.000  -0.000   0.230   0.615  -0.000   0.000  -0.000   0.000   0.000  -0.000   0.000   0.001  -0.000
 -0.000  -0.000   0.330   0.000   0.000  -0.000  -0.000   0.290   0.000   0.000   0.055   0.011  -0.000   0.000  -0.000   0.000
  0.000   0.000   0.000   0.672  -0.235   0.000   0.000   0.000   0.615  -0.230  -0.000   0.000  -0.000  -0.000  -0.000   0.000
 -0.000  -0.000   0.000  -0.236   0.429  -0.000  -0.000   0.000  -0.230   0.388  -0.000  -0.000  -0.004   0.000   0.000  -0.001
  0.000   0.000   0.203  -0.000   0.000   0.000   0.000   0.055  -0.000  -0.000   1.307   0.145   0.000  -0.000  -0.000   0.000
  0.000   0.000   0.006   0.000  -0.000   0.000   0.000   0.011   0.000  -0.000   0.145   0.028   0.000  -0.000  -0.000   0.000
 -0.000  -0.000  -0.000  -0.003  -0.003  -0.000  -0.000  -0.000  -0.000  -0.004   0.000   0.000   0.340   0.000   0.000   0.028
  0.000   0.000   0.000  -0.000   0.000   0.000   0.000   0.000  -0.000   0.000  -0.000  -0.000   0.000   0.412  -0.000   0.000
 -0.003   0.004   0.000  -0.000   0.000  -0.003   0.001  -0.000  -0.000   0.000  -0.000  -0.000   0.000  -0.000   0.340   0.000
 -0.000   0.000  -0.000  -0.000  -0.000  -0.000  -0.000   0.000   0.000  -0.001   0.000   0.000   0.028   0.000   0.000   0.003
  0.000   0.000   0.000  -0.000   0.000   0.000   0.000   0.000  -0.000   0.000  -0.000  -0.000   0.000   0.031  -0.000   0.000
 -0.000   0.000  -0.000   0.000   0.000  -0.001   0.000  -0.000  -0.000   0.000  -0.000  -0.000   0.000  -0.000   0.027   0.000


------------------------ aborting loop because EDIFF is reached ----------------------------------------


    CHARGE:  cpu time    0.5533: real time    0.5546
    FORLOC:  cpu time    0.0090: real time    0.0090
    FORNL :  cpu time    6.5309: real time    6.5466
    STRESS:  cpu time   32.9743: real time   33.0532
    FORCOR:  cpu time    0.0381: real time    0.0382
    FORHAR:  cpu time    0.0150: real time    0.0150
    MIXING:  cpu time    0.0012: real time    0.0012
    OFIELD:  cpu time    0.0001: real time    0.0001

  FORCE on cell =-STRESS in cart. coord.  units (eV):
  Direction    XX          YY          ZZ          XY          YZ          ZX
  --------------------------------------------------------------------------------------
  Alpha Z    90.72516    90.72516    90.72516
  Ewald   49882.02773 49881.91326-54870.47579     0.00039     0.00001    -0.11123
  Hartree 50589.03176 50589.00658-50269.79239    -0.00007    -0.00006    -0.02215
  E(xc)    -609.21556  -609.20907  -618.61328     0.00002     0.00001     0.00294
  Local  ************************102575.73105    -0.00009     0.00022     0.14950
  n-local  1208.37572  1208.33322  1257.26624    -0.00001     0.00001    -0.00210
  augment  -212.11791  -212.09822  -215.21569    -0.00004    -0.00003     0.00651
  Kinetic  2015.69512  2015.65909  2048.65372    -0.00009     0.00016    -0.03567
  Fock        0.00000     0.00000     0.00000     0.00000     0.00000     0.00000
  -------------------------------------------------------------------------------------
  Total       0.13399     0.14330    -1.72098     0.00011     0.00033    -0.01219
  in kB       0.09098     0.09729    -1.16850     0.00008     0.00022    -0.00828
  external pressure =       -0.33 kB  Pullay stress =        0.00 kB


 VOLUME and BASIS-vectors are now :
 -----------------------------------------------------------------------------
  energy-cutoff  :      280.00
  volume of cell :     2359.71
      direct lattice vectors                 reciprocal lattice vectors
     8.253160483  4.765277586  0.000000000     0.060582838  0.104925706  0.000000000
    -8.253157994  4.765273920  0.000000000    -0.060582884  0.104925738  0.000000000
     0.000000000  0.000000000 30.000000000     0.000000000  0.000000000  0.033333333

  length of vectors
     9.530085437  9.530081448 30.000000000     0.121159746  0.121159797  0.033333333


 FORCES acting on ions
    electron-ion (+dipol)            ewald-force                    non-local-force                 convergence-correction
 -----------------------------------------------------------------------------------------------
   -.148E-01 0.734E-01 0.268E-01   0.114E-01 -.769E-01 -.249E-01   -.353E-03 0.372E-03 0.446E-03   0.329E-02 0.364E-02 -.214E-02
   0.450E-02 0.809E-01 0.179E-02   0.198E-03 -.819E-01 0.219E-03   0.354E-03 0.433E-03 -.112E-02   -.454E-02 0.134E-02 -.771E-03
   0.898E-02 0.767E-01 -.289E-01   -.103E-01 -.723E-01 0.252E-01   -.692E-04 0.853E-03 0.850E-03   0.126E-02 -.397E-02 0.274E-02
   -.101E+00 -.118E+00 -.165E-02   0.972E-01 0.222E-01 0.166E-02   0.948E-03 -.571E-02 -.302E-03   0.138E-02 0.958E-01 -.778E-04
   0.175E+00 0.373E-01 -.107E-02   -.881E-01 0.114E-01 0.128E-02   0.357E-02 0.178E-02 0.127E-03   -.835E-01 -.465E-01 -.451E-04
   -.735E-01 0.218E+00 0.456E-02   -.959E-02 -.163E+00 -.459E-02   -.452E-02 0.294E-03 0.273E-03   0.821E-01 -.492E-01 -.371E-04
   -.969E-01 0.477E-01 -.321E-02   0.986E-01 0.488E-01 0.329E-02   0.137E-02 0.484E-02 0.384E-04   -.378E-02 -.975E-01 -.829E-04
   -.762E-01 -.276E+00 0.493E-02   -.841E-02 0.214E+00 -.509E-02   -.428E-02 -.972E-03 0.172E-03   0.834E-01 0.539E-01 -.169E-04
   0.174E+00 -.944E-01 -.137E-02   -.908E-01 0.492E-01 0.164E-02   0.290E-02 -.200E-02 -.171E-03   -.796E-01 0.421E-01 -.453E-04
   -.111E+01 -.125E+01 0.579E+03   0.780E+00 0.120E+01 -.583E+03   0.304E+00 0.505E-01 0.431E+01   0.373E-01 0.600E-03 -.337E-01
   0.991E+00 -.125E+01 -.579E+03   -.656E+00 0.120E+01 0.583E+03   -.309E+00 0.497E-01 -.431E+01   -.350E-01 0.280E-02 0.317E-01
   0.168E+01 -.297E+00 0.579E+03   -.147E+01 0.405E-01 -.583E+03   -.201E+00 0.231E+00 0.430E+01   -.183E-01 0.317E-01 -.351E-01
   -.169E+01 -.319E+00 -.579E+03   0.146E+01 0.370E-01 0.583E+03   0.200E+00 0.228E+00 -.430E+01   0.390E-01 0.607E-01 0.274E-01
   -.598E+00 0.151E+01 0.579E+03   0.733E+00 -.118E+01 -.583E+03   -.104E+00 -.282E+00 0.431E+01   -.337E-01 -.587E-01 -.265E-01
   0.631E+00 0.142E+01 -.579E+03   -.751E+00 -.112E+01 0.583E+03   0.104E+00 -.284E+00 -.431E+01   0.182E-01 -.269E-01 0.321E-01
   0.167E+01 -.279E+00 0.579E+03   -.143E+01 -.621E-02 -.583E+03   -.202E+00 0.234E+00 0.430E+01   -.351E-01 0.583E-01 -.240E-01
   -.163E+01 -.187E+00 -.579E+03   0.141E+01 -.698E-01 0.583E+03   0.203E+00 0.236E+00 -.431E+01   0.258E-01 0.286E-01 0.259E-01
   -.731E+00 0.127E+01 0.579E+03   0.768E+00 -.111E+01 -.583E+03   -.103E+00 -.282E+00 0.430E+01   0.622E-01 0.106E+00 0.782E-01
   0.695E+00 0.134E+01 -.579E+03   -.732E+00 -.117E+01 0.583E+03   0.104E+00 -.282E+00 -.430E+01   -.635E-01 0.103E+00 -.779E-01
   -.109E+01 -.126E+01 0.578E+03   0.724E+00 0.120E+01 -.583E+03   0.306E+00 0.496E-01 0.431E+01   0.732E-01 0.870E-02 -.205E-01
   0.901E+00 -.126E+01 -.578E+03   -.722E+00 0.120E+01 0.583E+03   -.307E+00 0.498E-01 -.430E+01   0.118E+00 0.851E-02 -.825E-01
   -.575E+00 0.154E+01 0.579E+03   0.689E+00 -.123E+01 -.583E+03   -.102E+00 -.279E+00 0.431E+01   -.140E-01 -.402E-01 -.288E-01
   0.577E+00 0.156E+01 -.579E+03   -.706E+00 -.122E+01 0.583E+03   0.100E+00 -.277E+00 -.430E+01   0.307E-01 -.692E-01 0.227E-01
   -.818E+00 -.125E+01 0.579E+03   0.647E+00 0.120E+01 -.583E+03   0.306E+00 0.504E-01 0.430E+01   -.123E+00 0.100E-02 0.753E-01
   0.113E+01 -.125E+01 -.579E+03   -.772E+00 0.120E+01 0.583E+03   -.300E+00 0.509E-01 -.430E+01   -.699E-01 -.112E-02 0.296E-01
   0.154E+01 -.296E-01 0.579E+03   -.140E+01 -.878E-01 -.583E+03   -.202E+00 0.234E+00 0.430E+01   0.509E-01 -.108E+00 0.824E-01
   -.157E+01 -.974E-01 -.579E+03   0.144E+01 -.218E-01 0.583E+03   0.202E+00 0.235E+00 -.430E+01   -.623E-01 -.107E+00 -.769E-01
 -----------------------------------------------------------------------------------------------
   0.211E-03 -.107E-01 0.146E-02   -.626E-13 0.177E-13 -.341E-12   -.269E-03 0.134E-01 -.521E-03   -.127E-04 -.142E-02 -.868E-03
 
 
 POSITION                                       TOTAL-FORCE (eV/Angst)
 -----------------------------------------------------------------------------------
      2.75093      1.58875     -0.00011        -0.000484      0.000506      0.000192
      0.00002      6.35409      0.00001         0.000511      0.000708      0.000111
      5.50218      6.35405      0.00010        -0.000116      0.001312     -0.000111
     -0.00074      3.17648      0.00001        -0.001193     -0.005887     -0.000374
     -5.50166      3.17616     -0.00000         0.006802      0.003923      0.000294
      5.50241      3.17749     -0.00002        -0.005489      0.006224      0.000198
     -0.00069     -0.00165      0.00000        -0.000706      0.003780      0.000031
     -2.75078      4.76271     -0.00002        -0.005503     -0.008684     -0.000005
      2.75148      4.76401      0.00001         0.006170     -0.005159      0.000054
     -0.96693      1.57878     28.45156         0.007992      0.001572      0.001923
      0.96674      1.57882      1.54800        -0.008881      0.001585     -0.000354
     -3.63554      3.13712     28.45094        -0.004691      0.006477     -0.000619
     -1.86658      3.13712      1.54923         0.005040      0.007019     -0.000126
     -6.40192      4.81236     28.45205        -0.002205     -0.008490      0.000188
     -4.60231      4.81242      1.54810         0.002097     -0.008401      0.001101
      1.86643      3.13733     28.45160        -0.005480      0.007460     -0.000550
      3.63565      3.13730      1.54851         0.005252      0.007221      0.002460
     -0.89985      4.81236     28.45137        -0.002900     -0.010461      0.001005
      0.89985      4.81229      1.54830         0.002793     -0.009941     -0.001459
     -3.71773      6.34410     28.45236         0.008998      0.001643      0.001639
     -1.78447      6.34406      1.54806        -0.010438      0.001913     -0.002903
      4.60239      4.81260     28.45147        -0.001816     -0.007376     -0.000418
      6.40184      4.81262      1.54872         0.002060     -0.007982     -0.000607
      1.78439      6.34406     28.45150         0.011024      0.001809      0.002713
      3.71800      6.34405      1.54853        -0.008640      0.001631     -0.003130
     -0.88458      7.90268     28.45089        -0.006475      0.008935     -0.000377
      0.88464      7.90271      1.54882         0.006279      0.008665     -0.000876
 -----------------------------------------------------------------------------------
    total drift:                               -0.000071      0.001321      0.000068


--------------------------------------------------------------------------------------------------------



  FREE ENERGIE OF THE ION-ELECTRON SYSTEM (eV)
  ---------------------------------------------------
  free  energy   TOTEN  =      -191.04761663 eV

  energy  without entropy=     -190.89278139  energy(sigma->0) =     -190.97019901
 
 d Force = 0.2073293E-03[ 0.139E-03, 0.276E-03]  d Energy = 0.3222340E-03-0.115E-03
 d Force =-0.1802073E+01[-0.180E+01,-0.180E+01]  d Ewald  = 0.2870329E+02-0.305E+02


--------------------------------------------------------------------------------------------------------


    POTLOK:  cpu time    0.0370: real time    0.0371


--------------------------------------------------------------------------------------------------------


 Quasi-Newton relaxation of ions (Broydens 2nd method)
  g(Force)  = 0.959E-04   g(Stress)= 0.688E-04

 retain information from N=  2 steps
 eigenvalues of (default step * inverse Hessian matrix)
  average eigenvalue of G=   4.0173
 eigenvalue spectrum of G is  1.3768  6.6577


--------------------------------------------------------------------------------------------------------


  
 reached required accuracy - stopping structural energy minimisation
     LOOP+:  cpu time  140.8709: real time  141.2378
    4ORBIT:  cpu time    0.0000: real time    0.0000

 total amount of memory used by VASP on root node   650782. kBytes
========================================================================

   base      :      30000. kBytes
   nonl-proj :     559647. kBytes
   fftplans  :       2414. kBytes
   grid      :      12150. kBytes
   one-center:        419. kBytes
   wavefun   :      46152. kBytes
 
  
  
 General timing and accounting informations for this job:
 ========================================================
  
                  Total CPU time used (sec):     2572.265
                            User time (sec):     2549.230
                          System time (sec):       23.035
                         Elapsed time (sec):     2579.303
  
                   Maximum memory used (kb):      734132.
                   Average memory used (kb):           0.
  
                          Minor page faults:       428932
                          Major page faults:            2
                 Voluntary context switches:         2749
