<?xml version="1.0" encoding="ISO-8859-1"?>
<modeling>
 <generator>
  <i name="program" type="string">vasp </i>
  <i name="version" type="string">5.4.1  </i>
  <i name="subversion" type="string">05Feb16 (build Jul 05 2020 17:13:04) complex                          parallel </i>
  <i name="platform" type="string">IFC91_ompi </i>
  <i name="date" type="string">2024 04 22 </i>
  <i name="time" type="string">11:47:36 </i>
 </generator>
 <incar>
  <i type="int" name="ISTART">     0</i>
  <i type="string" name="PREC">normal</i>
  <i type="string" name="ALGO"> Normal</i>
  <i type="int" name="ISPIN">     1</i>
  <i type="int" name="ICHARG">     2</i>
  <i type="int" name="IBRION">     1</i>
  <i type="int" name="NSW">   100</i>
  <i type="int" name="ISIF">     3</i>
  <i type="int" name="ISYM">     0</i>
  <i name="SYMPREC">      0.00000001</i>
  <i name="POTIM">      0.50000000</i>
  <i type="logical" name="LREAL"> F  </i>
  <i type="logical" name="LPLANE"> F  </i>
  <i type="int" name="ISMEAR">     0</i>
  <i type="logical" name="LWAVE"> F  </i>
  <i type="logical" name="LCHARG"> F  </i>
  <v type="int" name="KPOINT_BSE">    -1     0     0     0</v>
 </incar>
 <kpoints>
  <generation param="Gamma">
   <v type="int" name="divisions">       8        8        1 </v>
   <v name="usershift">      0.00000000       0.00000000       0.00000000 </v>
   <v name="genvec1">      0.12500000       0.00000000       0.00000000 </v>
   <v name="genvec2">     -0.00000000       0.12500000       0.00000000 </v>
   <v name="genvec3">      0.00000000       0.00000000       1.00000000 </v>
   <v name="shift">      0.00000000       0.00000000       0.00000000 </v>
  </generation>
  <varray name="kpointlist" >
   <v>       0.00000000       0.00000000       0.00000000 </v>
   <v>       0.12500000       0.00000000       0.00000000 </v>
   <v>       0.25000000       0.00000000       0.00000000 </v>
   <v>       0.37500000       0.00000000       0.00000000 </v>
   <v>       0.50000000       0.00000000       0.00000000 </v>
   <v>       0.00000000       0.12500000       0.00000000 </v>
   <v>       0.12500000       0.12500000       0.00000000 </v>
   <v>       0.25000000       0.12500000       0.00000000 </v>
   <v>       0.37500000       0.12500000       0.00000000 </v>
   <v>       0.50000000       0.12500000       0.00000000 </v>
   <v>      -0.37500000       0.12500000       0.00000000 </v>
   <v>      -0.25000000       0.12500000       0.00000000 </v>
   <v>      -0.12500000       0.12500000       0.00000000 </v>
   <v>       0.00000000       0.25000000       0.00000000 </v>
   <v>       0.12500000       0.25000000       0.00000000 </v>
   <v>       0.25000000       0.25000000       0.00000000 </v>
   <v>       0.37500000       0.25000000       0.00000000 </v>
   <v>       0.50000000       0.25000000       0.00000000 </v>
   <v>      -0.37500000       0.25000000       0.00000000 </v>
   <v>      -0.25000000       0.25000000       0.00000000 </v>
   <v>      -0.12500000       0.25000000       0.00000000 </v>
   <v>      -0.00000000       0.37500000       0.00000000 </v>
   <v>       0.12500000       0.37500000       0.00000000 </v>
   <v>       0.25000000       0.37500000       0.00000000 </v>
   <v>       0.37500000       0.37500000       0.00000000 </v>
   <v>       0.50000000       0.37500000       0.00000000 </v>
   <v>      -0.37500000       0.37500000       0.00000000 </v>
   <v>      -0.25000000       0.37500000       0.00000000 </v>
   <v>      -0.12500000       0.37500000       0.00000000 </v>
   <v>       0.00000000       0.50000000       0.00000000 </v>
   <v>       0.12500000       0.50000000       0.00000000 </v>
   <v>       0.25000000       0.50000000       0.00000000 </v>
   <v>       0.37500000       0.50000000       0.00000000 </v>
   <v>       0.50000000       0.50000000       0.00000000 </v>
  </varray>
  <varray name="weights" >
   <v>       0.01562500 </v>
   <v>       0.03125000 </v>
   <v>       0.03125000 </v>
   <v>       0.03125000 </v>
   <v>       0.01562500 </v>
   <v>       0.03125000 </v>
   <v>       0.03125000 </v>
   <v>       0.03125000 </v>
   <v>       0.03125000 </v>
   <v>       0.03125000 </v>
   <v>       0.03125000 </v>
   <v>       0.03125000 </v>
   <v>       0.03125000 </v>
   <v>       0.03125000 </v>
   <v>       0.03125000 </v>
   <v>       0.03125000 </v>
   <v>       0.03125000 </v>
   <v>       0.03125000 </v>
   <v>       0.03125000 </v>
   <v>       0.03125000 </v>
   <v>       0.03125000 </v>
   <v>       0.03125000 </v>
   <v>       0.03125000 </v>
   <v>       0.03125000 </v>
   <v>       0.03125000 </v>
   <v>       0.03125000 </v>
   <v>       0.03125000 </v>
   <v>       0.03125000 </v>
   <v>       0.03125000 </v>
   <v>       0.01562500 </v>
   <v>       0.03125000 </v>
   <v>       0.03125000 </v>
   <v>       0.03125000 </v>
   <v>       0.01562500 </v>
  </varray>
 </kpoints>
 <parameters>
  <separator name="general" >
   <i type="string" name="SYSTEM">unknown system</i>
   <i type="logical" name="LCOMPAT"> F  </i>
  </separator>
  <separator name="electronic" >
   <i type="string" name="PREC">normal</i>
   <i name="ENMAX">    280.00000000</i>
   <i name="ENAUG">    373.43800000</i>
   <i name="EDIFF">      0.00010000</i>
   <i type="int" name="IALGO">    38</i>
   <i type="int" name="IWAVPR">    11</i>
   <i type="int" name="NBANDS">   120</i>
   <i name="NELECT">    159.00000000</i>
   <i type="int" name="TURBO">     0</i>
   <i type="int" name="IRESTART">     0</i>
   <i type="int" name="NREBOOT">     0</i>
   <i type="int" name="NMIN">     0</i>
   <i name="EREF">      0.00000000</i>
   <separator name="electronic smearing" >
    <i type="int" name="ISMEAR">     0</i>
    <i name="SIGMA">      0.20000000</i>
    <i name="KSPACING">      0.50000000</i>
    <i type="logical" name="KGAMMA"> T  </i>
   </separator>
   <separator name="electronic projectors" >
    <i type="logical" name="LREAL"> F  </i>
    <v name="ROPT">      0.00000000      0.00000000      0.00000000      0.00000000</v>
    <i type="int" name="LMAXPAW">  -100</i>
    <i type="int" name="LMAXMIX">     2</i>
    <i type="logical" name="NLSPLINE"> F  </i>
   </separator>
   <separator name="electronic startup" >
    <i type="int" name="ISTART">     0</i>
    <i type="int" name="ICHARG">     2</i>
    <i type="int" name="INIWAV">     1</i>
   </separator>
   <separator name="electronic spin" >
    <i type="int" name="ISPIN">     1</i>
    <i type="logical" name="LNONCOLLINEAR"> F  </i>
    <v name="MAGMOM">      1.00000000      1.00000000      1.00000000      1.00000000      1.00000000      1.00000000      1.00000000      1.00000000      1.00000000      1.00000000      1.00000000      1.00000000      1.00000000      1.00000000      1.00000000      1.00000000      1.00000000      1.00000000      1.00000000      1.00000000
      1.00000000      1.00000000      1.00000000      1.00000000      1.00000000      1.00000000      1.00000000</v>
    <i name="NUPDOWN">     -1.00000000</i>
    <i type="logical" name="LSORBIT"> F  </i>
    <v name="SAXIS">      0.00000000      0.00000000      1.00000000</v>
    <i type="logical" name="LSPIRAL"> F  </i>
    <v name="QSPIRAL">      0.00000000      0.00000000      0.00000000</v>
    <i type="logical" name="LZEROZ"> F  </i>
   </separator>
   <separator name="electronic exchange-correlation" >
    <i type="logical" name="LASPH"> F  </i>
    <i type="logical" name="LMETAGGA"> F  </i>
   </separator>
   <separator name="electronic convergence" >
    <i type="int" name="NELM">    60</i>
    <i type="int" name="NELMDL">    -5</i>
    <i type="int" name="NELMIN">     2</i>
    <i name="ENINI">    280.00000000</i>
    <separator name="electronic convergence detail" >
     <i type="logical" name="LDIAG"> T  </i>
     <i type="logical" name="LSUBROT"> F  </i>
     <i name="WEIMIN">      0.00100000</i>
     <i name="EBREAK">      0.00000021</i>
     <i name="DEPER">      0.30000000</i>
     <i type="int" name="NRMM">     4</i>
     <i name="TIME">      0.40000000</i>
    </separator>
   </separator>
   <separator name="electronic mixer" >
    <i name="AMIX">      0.40000000</i>
    <i name="BMIX">      1.00000000</i>
    <i name="AMIN">      0.10000000</i>
    <i name="AMIX_MAG">      1.60000000</i>
    <i name="BMIX_MAG">      1.00000000</i>
    <separator name="electronic mixer details" >
     <i type="int" name="IMIX">     4</i>
     <i type="logical" name="MIXFIRST"> F  </i>
     <i type="int" name="MAXMIX">   -45</i>
     <i name="WC">    100.00000000</i>
     <i type="int" name="INIMIX">     1</i>
     <i type="int" name="MIXPRE">     1</i>
     <i type="int" name="MREMOVE">     5</i>
    </separator>
   </separator>
   <separator name="electronic dipolcorrection" >
    <i type="logical" name="LDIPOL"> F  </i>
    <i type="logical" name="LMONO"> F  </i>
    <i type="int" name="IDIPOL">     0</i>
    <i name="EPSILON">      1.00000000</i>
    <v name="DIPOL">   -100.00000000   -100.00000000   -100.00000000</v>
    <i name="EFIELD">      0.00000000</i>
   </separator>
  </separator>
  <separator name="grids" >
   <i type="int" name="NGX">    42</i>
   <i type="int" name="NGY">    42</i>
   <i type="int" name="NGZ">   126</i>
   <i type="int" name="NGXF">    84</i>
   <i type="int" name="NGYF">    84</i>
   <i type="int" name="NGZF">   252</i>
   <i type="logical" name="ADDGRID"> F  </i>
  </separator>
  <separator name="ionic" >
   <i type="int" name="NSW">   100</i>
   <i type="int" name="IBRION">     1</i>
   <i type="int" name="ISIF">     3</i>
   <i name="PSTRESS">      0.00000000</i>
   <i name="EDIFFG">      0.00100000</i>
   <i type="int" name="NFREE">     0</i>
   <i name="POTIM">      0.50000000</i>
   <i name="SMASS">     -3.00000000</i>
   <i name="SCALEE">      1.00000000</i>
  </separator>
  <separator name="ionic md" >
   <i name="TEBEG">      0.00010000</i>
   <i name="TEEND">      0.00010000</i>
   <i type="int" name="NBLOCK">     1</i>
   <i type="int" name="KBLOCK">   100</i>
   <i type="int" name="NPACO">   256</i>
   <i name="APACO">     16.00000000</i>
  </separator>
  <separator name="symmetry" >
   <i type="int" name="ISYM">     0</i>
   <i name="SYMPREC">      0.00000001</i>
  </separator>
  <separator name="dos" >
   <i type="logical" name="LORBIT"> F  </i>
   <v name="RWIGS">     -1.00000000     -1.00000000     -1.00000000     -1.00000000</v>
   <i type="int" name="NEDOS">   301</i>
   <i name="EMIN">     10.00000000</i>
   <i name="EMAX">    -10.00000000</i>
   <i name="EFERMI">      0.00000000</i>
  </separator>
  <separator name="writing" >
   <i type="int" name="NWRITE">     2</i>
   <i type="logical" name="LWAVE"> F  </i>
   <i type="logical" name="LCHARG"> F  </i>
   <i type="logical" name="LPARD"> F  </i>
   <i type="logical" name="LVTOT"> F  </i>
   <i type="logical" name="LVHAR"> F  </i>
   <i type="logical" name="LELF"> F  </i>
   <i type="logical" name="LOPTICS"> F  </i>
   <v name="STM">      0.00000000      0.00000000      0.00000000      0.00000000      0.00000000      0.00000000      0.00000000</v>
  </separator>
  <separator name="performance" >
   <i type="int" name="NPAR">    40</i>
   <i type="int" name="NSIM">     4</i>
   <i type="int" name="NBLK">    -1</i>
   <i type="logical" name="LPLANE"> F  </i>
   <i type="logical" name="LSCALAPACK"> T  </i>
   <i type="logical" name="LSCAAWARE"> F  </i>
   <i type="logical" name="LSCALU"> F  </i>
   <i type="logical" name="LASYNC"> F  </i>
   <i type="logical" name="LORBITALREAL"> F  </i>
  </separator>
  <separator name="miscellaneous" >
   <i type="int" name="IDIOT">     3</i>
   <i type="logical" name="LMUSIC"> F  </i>
   <v name="POMASS">     50.94100000     95.94000000    183.85000000     32.06600000</v>
   <v name="DARWINR">      0.00000000      0.00000000      0.00000000      0.00000000</v>
   <v name="DARWINV">      1.00000000      1.00000000      1.00000000      1.00000000</v>
   <i type="logical" name="LCORR"> T  </i>
  </separator>
  <i type="logical" name="GGA_COMPAT"> T  </i>
  <i type="logical" name="LBERRY"> F  </i>
  <i type="int" name="ICORELEVEL">     0</i>
  <i type="logical" name="LDAU"> F  </i>
  <i type="int" name="I_CONSTRAINED_M">     0</i>
  <separator name="electronic exchange-correlation" >
   <i type="string" name="GGA">--</i>
   <i type="int" name="VOSKOWN">     0</i>
   <i type="logical" name="LHFCALC"> F  </i>
   <i type="string" name="PRECFOCK"></i>
   <i type="logical" name="LSYMGRAD"> F  </i>
   <i type="logical" name="LHFONE"> F  </i>
   <i type="logical" name="LRHFCALC"> F  </i>
   <i type="logical" name="LTHOMAS"> F  </i>
   <i type="logical" name="LMODELHF"> F  </i>
   <i name="ENCUT4O">     -1.00000000</i>
   <i type="int" name="EXXOEP">     0</i>
   <i type="int" name="FOURORBIT">     0</i>
   <i name="AEXX">      0.00000000</i>
   <i name="HFALPHA">      0.00000000</i>
   <i name="MCALPHA">      0.00000000</i>
   <i name="ALDAX">      1.00000000</i>
   <i name="AGGAX">      1.00000000</i>
   <i name="ALDAC">      1.00000000</i>
   <i name="AGGAC">      1.00000000</i>
   <i type="int" name="NKREDX">     1</i>
   <i type="int" name="NKREDY">     1</i>
   <i type="int" name="NKREDZ">     1</i>
   <i type="logical" name="SHIFTRED"> F  </i>
   <i type="logical" name="ODDONLY"> F  </i>
   <i type="logical" name="EVENONLY"> F  </i>
   <i type="int" name="LMAXFOCK">     0</i>
   <i type="int" name="NMAXFOCKAE">     0</i>
   <i type="logical" name="LFOCKAEDFT"> F  </i>
   <i name="HFSCREEN">      0.00000000</i>
   <i name="HFSCREENC">      0.00000000</i>
   <i type="int" name="NBANDSGWLOW">     0</i>
  </separator>
  <separator name="vdW DFT" >
   <i type="logical" name="LUSE_VDW"> F  </i>
   <i name="Zab_VDW">     -0.84910000</i>
   <i name="PARAM1">      0.12340000</i>
   <i name="PARAM2">      1.00000000</i>
   <i name="PARAM3">      0.00000000</i>
  </separator>
  <separator name="model GW" >
   <i type="int" name="MODEL_GW">     0</i>
   <i name="MODEL_EPS0">     58.26239943</i>
   <i name="MODEL_ALPHA">      1.00000000</i>
  </separator>
  <separator name="linear response parameters" >
   <i type="logical" name="LEPSILON"> F  </i>
   <i type="logical" name="LRPA"> F  </i>
   <i type="logical" name="LNABLA"> F  </i>
   <i type="logical" name="LVEL"> F  </i>
   <i type="int" name="KINTER">     0</i>
   <i name="CSHIFT">      0.10000000</i>
   <i name="OMEGAMAX">     -1.00000000</i>
   <i name="DEG_THRESHOLD">      0.00200000</i>
  </separator>
  <separator name="orbital magnetization" >
   <i type="logical" name="NUCIND"> F  </i>
   <v name="MAGPOS">      0.00000000      0.00000000      0.00000000</v>
   <i type="logical" name="LNICSALL"> T  </i>
   <i type="logical" name="ORBITALMAG"> F  </i>
   <i type="logical" name="LMAGBLOCH"> F  </i>
   <i type="logical" name="LCHIMAG"> F  </i>
   <i type="logical" name="LGAUGE"> T  </i>
   <i type="int" name="MAGATOM">     0</i>
   <v name="MAGDIPOL">      0.00000000      0.00000000      0.00000000</v>
   <v name="AVECCONST">      0.00000000      0.00000000      0.00000000</v>
  </separator>
  <separator name="response functions" >
   <i type="logical" name="LADDER"> F  </i>
   <i type="logical" name="LFXC"> F  </i>
   <i type="logical" name="LHARTREE"> T  </i>
   <i type="int" name="IBSE">     0</i>
   <v type="int" name="KPOINT">    -1     0     0     0</v>
   <i type="logical" name="LTCTE"> F  </i>
   <i type="logical" name="LTETE"> F  </i>
   <i type="logical" name="LTRIPLET"> F  </i>
   <i type="logical" name="LFXCEPS"> F  </i>
   <i type="logical" name="LFXHEG"> F  </i>
   <i type="int" name="NATURALO">     0</i>
   <i type="logical" name="L2ORDER"> F  </i>
   <i type="logical" name="LUSEW"> F  </i>
   <i name="ENCUTGW">     -2.00000000</i>
   <i name="ENCUTGWSOFT">     -2.00000000</i>
   <i name="ENCUTLF">     -1.00000000</i>
   <i type="int" name="LMAXMP2">    -1</i>
   <i name="SCISSOR">      0.00000000</i>
   <i type="int" name="NOMEGA">     0</i>
   <i type="int" name="NOMEGAR">     0</i>
   <i type="int" name="NBANDSGW">    -1</i>
   <i type="int" name="NBANDSO">    -1</i>
   <i type="int" name="NBANDSV">    -1</i>
   <i type="int" name="NELM">     1</i>
   <i type="int" name="NELMHF">     1</i>
   <i type="int" name="DIM">     3</i>
   <i type="int" name="ANTIRES">     0</i>
   <i name="OMEGAMAX">    -30.00000000</i>
   <i name="OMEGAMIN">    -30.00000000</i>
   <i name="OMEGATL">   -200.00000000</i>
   <i type="int" name="OMEGAGRID">     0</i>
   <i name="CSHIFT">     -0.10000000</i>
   <i type="logical" name="SELFENERGY"> F  </i>
   <i type="logical" name="LSPECTRAL"> F  </i>
   <i type="logical" name="LSPECTRALGW"> F  </i>
   <i type="logical" name="LSINGLES"> F  </i>
   <i type="logical" name="LFERMIGW"> F  </i>
   <i type="logical" name="ODDONLYGW"> F  </i>
   <i type="logical" name="EVENONLYGW"> F  </i>
   <i type="int" name="NKREDLFX">     1</i>
   <i type="int" name="NKREDLFY">     1</i>
   <i type="int" name="NKREDLFZ">     1</i>
   <i type="int" name="MAXMEM">  1800</i>
   <i type="int" name="TELESCOPE">     0</i>
   <i type="int" name="TAUPAR">     1</i>
   <i type="int" name="OMEGAPAR">    -1</i>
   <i name="LAMBDA">      1.00000000</i>
  </separator>
  <separator name="External order field" >
   <i name="OFIELD_KAPPA">      0.00000000</i>
   <v name="OFIELD_K">      0.00000000      0.00000000      0.00000000</v>
   <i name="OFIELD_Q6_NEAR">      0.00000000</i>
   <i name="OFIELD_Q6_FAR">      0.00000000</i>
   <i name="OFIELD_A">      0.00000000</i>
  </separator>
 </parameters>
 <atominfo>
  <atoms>      27 </atoms>
  <types>       4 </types>
  <array name="atoms" >
   <dimension dim="1">ion</dimension>
   <field type="string">element</field>
   <field type="int">atomtype</field>
   <set>
    <rc><c>V </c><c>   1</c></rc>
    <rc><c>V </c><c>   1</c></rc>
    <rc><c>V </c><c>   1</c></rc>
    <rc><c>Mo</c><c>   2</c></rc>
    <rc><c>Mo</c><c>   2</c></rc>
    <rc><c>Mo</c><c>   2</c></rc>
    <rc><c>W </c><c>   3</c></rc>
    <rc><c>W </c><c>   3</c></rc>
    <rc><c>W </c><c>   3</c></rc>
    <rc><c>S </c><c>   4</c></rc>
    <rc><c>S </c><c>   4</c></rc>
    <rc><c>S </c><c>   4</c></rc>
    <rc><c>S </c><c>   4</c></rc>
    <rc><c>S </c><c>   4</c></rc>
    <rc><c>S </c><c>   4</c></rc>
    <rc><c>S </c><c>   4</c></rc>
    <rc><c>S </c><c>   4</c></rc>
    <rc><c>S </c><c>   4</c></rc>
    <rc><c>S </c><c>   4</c></rc>
    <rc><c>S </c><c>   4</c></rc>
    <rc><c>S </c><c>   4</c></rc>
    <rc><c>S </c><c>   4</c></rc>
    <rc><c>S </c><c>   4</c></rc>
    <rc><c>S </c><c>   4</c></rc>
    <rc><c>S </c><c>   4</c></rc>
    <rc><c>S </c><c>   4</c></rc>
    <rc><c>S </c><c>   4</c></rc>
   </set>
  </array>
  <array name="atomtypes" >
   <dimension dim="1">type</dimension>
   <field type="int">atomspertype</field>
   <field type="string">element</field>
   <field>mass</field>
   <field>valence</field>
   <field type="string">pseudopotential</field>
   <set>
    <rc><c>   3</c><c>V </c><c>     50.94100000</c><c>      5.00000000</c><c> PAW_PBE V 08Apr2002                    </c></rc>
    <rc><c>   3</c><c>Mo</c><c>     95.94000000</c><c>      6.00000000</c><c> PAW_PBE Mo 08Apr2002                   </c></rc>
    <rc><c>   3</c><c>W </c><c>    183.85000000</c><c>      6.00000000</c><c> PAW_PBE W 08Apr2002                    </c></rc>
    <rc><c>  18</c><c>S </c><c>     32.06600000</c><c>      6.00000000</c><c>  PAW_PBE S 17Jan2003                   </c></rc>
   </set>
  </array>
 </atominfo>
 <structure name="initialpos" >
  <crystal>
   <varray name="basis" >
    <v>       8.66999996       5.03999989       0.00000000 </v>
    <v>      -8.66999982       5.04000013       0.00000000 </v>
    <v>       0.00000000       0.00000000      30.00000000 </v>
   </varray>
   <i name="volume">   2621.80797419 </i>
   <varray name="rec_basis" >
    <v>       0.05767013       0.09920635       0.00000000 </v>
    <v>      -0.05767013       0.09920635       0.00000000 </v>
    <v>       0.00000000       0.00000000       0.03333333 </v>
   </varray>
  </crystal>
  <varray name="positions" >
   <v>       0.33333334       0.00000000       0.00000000 </v>
   <v>       0.66666669       0.66666669       0.00000000 </v>
   <v>       1.00000000       0.33333334       0.00000000 </v>
   <v>       0.33333334       0.33333334       0.00000000 </v>
   <v>       0.00000000       0.66666669       0.00000000 </v>
   <v>       0.66666669       0.00000000       0.00000000 </v>
   <v>       0.00000000       0.00000000       0.00000000 </v>
   <v>       0.33333334       0.66666669       0.00000000 </v>
   <v>       0.66666669       0.33333334       0.00000000 </v>
   <v>       0.11068511       0.22244981       0.95539999 </v>
   <v>       0.22244981       0.11068511       0.04460000 </v>
   <v>       0.11068511       0.55578315       0.95539999 </v>
   <v>       0.22244981       0.44401845       0.04460000 </v>
   <v>       0.11068511       0.88911647       0.95539999 </v>
   <v>       0.22244981       0.77735180       0.04460000 </v>
   <v>       0.44401845       0.22244981       0.95539999 </v>
   <v>       0.55578315       0.11068511       0.04460000 </v>
   <v>       0.44401845       0.55578315       0.95539999 </v>
   <v>       0.55578315       0.44401845       0.04460000 </v>
   <v>       0.44401845       0.88911647       0.95539999 </v>
   <v>       0.55578315       0.77735180       0.04460000 </v>
   <v>       0.77735180       0.22244981       0.95539999 </v>
   <v>       0.88911647       0.11068511       0.04460000 </v>
   <v>       0.77735180       0.55578315       0.95539999 </v>
   <v>       0.88911647       0.44401845       0.04460000 </v>
   <v>       0.77735180       0.88911647       0.95539999 </v>
   <v>       0.88911647       0.77735180       0.04460000 </v>
  </varray>
 </structure>
 <calculation>
  <scstep>
   <time name="dav">   22.77   22.82</time>
   <time name="total">   22.82   22.88</time>
   <energy>
    <i name="alphaZ">     81.65567618 </i>
    <i name="ewald">  41888.36874791 </i>
    <i name="hartreedc"> -47720.98308885 </i>
    <i name="XCdc">   -242.93656870 </i>
    <i name="pawpsdc">   3467.42045192 </i>
    <i name="pawaedc">  -2871.19716117 </i>
    <i name="eentropy">     -0.53053397 </i>
    <i name="bandstr">   -238.93873887 </i>
    <i name="atom">   6761.44252427 </i>
    <i name="e_fr_energy">   1124.30130871 </i>
    <i name="e_wo_entrp">   1124.83184268 </i>
    <i name="e_0_energy">   1124.56657569 </i>
   </energy>
  </scstep>
  <scstep>
   <time name="dav">   30.04   30.11</time>
   <time name="total">   30.04   30.12</time>
   <energy>
    <i name="e_fr_energy">     -1.66565237 </i>
    <i name="e_wo_entrp">     -1.45879364 </i>
    <i name="e_0_energy">     -1.56222301 </i>
   </energy>
  </scstep>
  <scstep>
   <time name="dav">   28.73   28.80</time>
   <time name="total">   28.73   28.81</time>
   <energy>
    <i name="e_fr_energy">   -199.93373039 </i>
    <i name="e_wo_entrp">   -199.67626602 </i>
    <i name="e_0_energy">   -199.80499820 </i>
   </energy>
  </scstep>
  <scstep>
   <time name="dav">   31.63   31.71</time>
   <time name="total">   31.63   31.71</time>
   <energy>
    <i name="e_fr_energy">   -209.10453164 </i>
    <i name="e_wo_entrp">   -208.81779455 </i>
    <i name="e_0_energy">   -208.96116310 </i>
   </energy>
  </scstep>
  <scstep>
   <time name="dav">   29.34   29.41</time>
   <time name="total">   29.81   29.88</time>
   <energy>
    <i name="e_fr_energy">   -209.41478822 </i>
    <i name="e_wo_entrp">   -209.13042600 </i>
    <i name="e_0_energy">   -209.27260711 </i>
   </energy>
  </scstep>
  <scstep>
   <time name="dav">   32.48   32.55</time>
   <time name="total">   32.97   33.06</time>
   <energy>
    <i name="e_fr_energy">   -237.13197560 </i>
    <i name="e_wo_entrp">   -236.84028628 </i>
    <i name="e_0_energy">   -236.98613094 </i>
   </energy>
  </scstep>
  <scstep>
   <time name="dav">   31.94   32.02</time>
   <time name="total">   32.54   32.62</time>
   <energy>
    <i name="e_fr_energy">   -196.03732099 </i>
    <i name="e_wo_entrp">   -195.80380905 </i>
    <i name="e_0_energy">   -195.92056502 </i>
   </energy>
  </scstep>
  <scstep>
   <time name="dav">   31.47   31.54</time>
   <time name="total">   32.06   32.15</time>
   <energy>
    <i name="e_fr_energy">   -189.32201354 </i>
    <i name="e_wo_entrp">   -189.03720470 </i>
    <i name="e_0_energy">   -189.17960912 </i>
   </energy>
  </scstep>
  <scstep>
   <time name="dav">   31.77   31.84</time>
   <time name="total">   32.37   32.45</time>
   <energy>
    <i name="e_fr_energy">   -188.21096484 </i>
    <i name="e_wo_entrp">   -187.93064186 </i>
    <i name="e_0_energy">   -188.07080335 </i>
   </energy>
  </scstep>
  <scstep>
   <time name="dav">   32.75   32.82</time>
   <time name="total">   33.36   33.45</time>
   <energy>
    <i name="e_fr_energy">   -187.07923070 </i>
    <i name="e_wo_entrp">   -186.72590731 </i>
    <i name="e_0_energy">   -186.90256901 </i>
   </energy>
  </scstep>
  <scstep>
   <time name="dav">   34.28   34.36</time>
   <time name="total">   34.89   34.98</time>
   <energy>
    <i name="e_fr_energy">   -187.20446623 </i>
    <i name="e_wo_entrp">   -186.88693701 </i>
    <i name="e_0_energy">   -187.04570162 </i>
   </energy>
  </scstep>
  <scstep>
   <time name="dav">   33.54   33.62</time>
   <time name="total">   34.16   34.25</time>
   <energy>
    <i name="e_fr_energy">   -186.99215264 </i>
    <i name="e_wo_entrp">   -186.64364293 </i>
    <i name="e_0_energy">   -186.81789778 </i>
   </energy>
  </scstep>
  <scstep>
   <time name="dav">   32.60   32.68</time>
   <time name="total">   33.22   33.30</time>
   <energy>
    <i name="e_fr_energy">   -186.97621912 </i>
    <i name="e_wo_entrp">   -186.63004161 </i>
    <i name="e_0_energy">   -186.80313036 </i>
   </energy>
  </scstep>
  <scstep>
   <time name="dav">   34.09   34.17</time>
   <time name="total">   34.71   34.80</time>
   <energy>
    <i name="e_fr_energy">   -186.97844675 </i>
    <i name="e_wo_entrp">   -186.63302428 </i>
    <i name="e_0_energy">   -186.80573552 </i>
   </energy>
  </scstep>
  <scstep>
   <time name="dav">   32.84   32.91</time>
   <time name="total">   33.45   33.54</time>
   <energy>
    <i name="e_fr_energy">   -186.97297572 </i>
    <i name="e_wo_entrp">   -186.62840831 </i>
    <i name="e_0_energy">   -186.80069201 </i>
   </energy>
  </scstep>
  <scstep>
   <time name="dav">   30.62   30.69</time>
   <time name="total">   31.23   31.32</time>
   <energy>
    <i name="e_fr_energy">   -186.97331136 </i>
    <i name="e_wo_entrp">   -186.62862582 </i>
    <i name="e_0_energy">   -186.80096859 </i>
   </energy>
  </scstep>
  <scstep>
   <time name="dav">   29.73   29.80</time>
   <time name="total">   29.77   29.85</time>
   <energy>
    <i name="alphaZ">     81.65567618 </i>
    <i name="ewald">  41888.36874791 </i>
    <i name="hartreedc"> -47818.15076461 </i>
    <i name="XCdc">   -231.67138471 </i>
    <i name="pawpsdc">   4193.72221296 </i>
    <i name="pawaedc">  -3611.77641078 </i>
    <i name="eentropy">     -0.34473833 </i>
    <i name="bandstr">  -1450.21916348 </i>
    <i name="atom">   6761.44252427 </i>
    <i name="e_fr_energy">   -186.97330058 </i>
    <i name="e_wo_entrp">   -186.62856226 </i>
    <i name="e_0_energy">   -186.80093142 </i>
   </energy>
  </scstep>
  <structure>
   <crystal>
    <varray name="basis" >
     <v>       8.66999996       5.03999989       0.00000000 </v>
     <v>      -8.66999982       5.04000013       0.00000000 </v>
     <v>       0.00000000       0.00000000      30.00000000 </v>
    </varray>
    <i name="volume">   2621.80797419 </i>
    <varray name="rec_basis" >
     <v>       0.05767013       0.09920635       0.00000000 </v>
     <v>      -0.05767013       0.09920635       0.00000000 </v>
     <v>       0.00000000       0.00000000       0.03333333 </v>
    </varray>
   </crystal>
   <varray name="positions" >
    <v>       0.33333334       0.00000000       0.00000000 </v>
    <v>       0.66666669       0.66666669       0.00000000 </v>
    <v>       1.00000000       0.33333334       0.00000000 </v>
    <v>       0.33333334       0.33333334       0.00000000 </v>
    <v>       0.00000000       0.66666669       0.00000000 </v>
    <v>       0.66666669       0.00000000       0.00000000 </v>
    <v>       0.00000000       0.00000000       0.00000000 </v>
    <v>       0.33333334       0.66666669       0.00000000 </v>
    <v>       0.66666669       0.33333334       0.00000000 </v>
    <v>       0.11068511       0.22244981       0.95539999 </v>
    <v>       0.22244981       0.11068511       0.04460000 </v>
    <v>       0.11068511       0.55578315       0.95539999 </v>
    <v>       0.22244981       0.44401845       0.04460000 </v>
    <v>       0.11068511       0.88911647       0.95539999 </v>
    <v>       0.22244981       0.77735180       0.04460000 </v>
    <v>       0.44401845       0.22244981       0.95539999 </v>
    <v>       0.55578315       0.11068511       0.04460000 </v>
    <v>       0.44401845       0.55578315       0.95539999 </v>
    <v>       0.55578315       0.44401845       0.04460000 </v>
    <v>       0.44401845       0.88911647       0.95539999 </v>
    <v>       0.55578315       0.77735180       0.04460000 </v>
    <v>       0.77735180       0.22244981       0.95539999 </v>
    <v>       0.88911647       0.11068511       0.04460000 </v>
    <v>       0.77735180       0.55578315       0.95539999 </v>
    <v>       0.88911647       0.44401845       0.04460000 </v>
    <v>       0.77735180       0.88911647       0.95539999 </v>
    <v>       0.88911647       0.77735180       0.04460000 </v>
   </varray>
  </structure>
  <varray name="forces" >
   <v>      -0.00130600       0.01174249      -0.00010328 </v>
   <v>      -0.00025935       0.01151653       0.00007082 </v>
   <v>       0.00130719       0.01049116       0.00002047 </v>
   <v>      -0.00665857      -0.01111556       0.00006486 </v>
   <v>       0.00350717      -0.01399368      -0.00005317 </v>
   <v>       0.00309297      -0.00179269      -0.00012786 </v>
   <v>      -0.00707323      -0.00672051      -0.00009329 </v>
   <v>       0.00307909      -0.01434470      -0.00008692 </v>
   <v>       0.00402903      -0.00427975       0.00008245 </v>
   <v>      -0.69015239      -0.14501360      -2.11580085 </v>
   <v>       0.68362905      -0.14484817       2.11903923 </v>
   <v>       0.62276415      -0.57788346      -2.15353218 </v>
   <v>      -0.62316986      -0.57777591       2.15440886 </v>
   <v>       0.37920990       0.71867917      -2.16581471 </v>
   <v>      -0.38076046       0.71863925       2.16741788 </v>
   <v>       0.61988702      -0.57184253      -2.15593349 </v>
   <v>      -0.61959436      -0.57175925       2.15684918 </v>
   <v>       0.38149491       0.71995090      -2.16806643 </v>
   <v>      -0.38068917       0.71992743       2.16608707 </v>
   <v>      -0.68384978      -0.14334313      -2.11840368 </v>
   <v>       0.68515569      -0.14310169       2.11828277 </v>
   <v>       0.38328702       0.72438452      -2.16448311 </v>
   <v>      -0.38267155       0.72426960       2.16498910 </v>
   <v>      -0.68512390      -0.14392235      -2.11935341 </v>
   <v>       0.69077812      -0.14418435       2.11608111 </v>
   <v>       0.62103237      -0.57201446      -2.15604175 </v>
   <v>      -0.62094505      -0.57166527       2.15450032 </v>
  </varray>
  <varray name="stress" >
   <v>       7.38975890       0.00045779      -1.54758881 </v>
   <v>       0.00045783       4.49556488       0.00000811 </v>
   <v>      -1.54758887       0.00000803      30.85667721 </v>
  </varray>
  <energy>
   <i name="e_fr_energy">   -186.97330058 </i>
   <i name="e_wo_entrp">   -186.80093142 </i>
   <i name="e_0_energy">     -0.34473833 </i>
  </energy>
  <time name="totalsc">  581.42  582.95</time>
 </calculation>
 <calculation>
  <scstep>
   <time name="dav">   22.70   22.76</time>
   <time name="total">   23.32   23.38</time>
   <energy>
    <i name="alphaZ">     78.89169591 </i>
    <i name="ewald">  39367.72397352 </i>
    <i name="hartreedc"> -45313.22423677 </i>
    <i name="XCdc">   -239.13139599 </i>
    <i name="pawpsdc">   4193.52637862 </i>
    <i name="pawaedc">  -3611.57790035 </i>
    <i name="eentropy">     -0.29512897 </i>
    <i name="bandstr">  -1424.85818859 </i>
    <i name="atom">   6761.44252427 </i>
    <i name="e_fr_energy">   -187.50227835 </i>
    <i name="e_wo_entrp">   -187.20714939 </i>
    <i name="e_0_energy">   -187.35471387 </i>
   </energy>
  </scstep>
  <scstep>
   <time name="dav">   32.38   32.47</time>
   <time name="total">   33.00   33.09</time>
   <energy>
    <i name="e_fr_energy">   -189.35562052 </i>
    <i name="e_wo_entrp">   -189.03268325 </i>
    <i name="e_0_energy">   -189.19415189 </i>
   </energy>
  </scstep>
  <scstep>
   <time name="dav">   31.74   31.82</time>
   <time name="total">   32.37   32.45</time>
   <energy>
    <i name="e_fr_energy">   -189.41098600 </i>
    <i name="e_wo_entrp">   -189.11917161 </i>
    <i name="e_0_energy">   -189.26507881 </i>
   </energy>
  </scstep>
  <scstep>
   <time name="dav">   30.90   30.97</time>
   <time name="total">   31.53   31.61</time>
   <energy>
    <i name="e_fr_energy">   -188.79459442 </i>
    <i name="e_wo_entrp">   -188.50559647 </i>
    <i name="e_0_energy">   -188.65009544 </i>
   </energy>
  </scstep>
  <scstep>
   <time name="dav">   27.46   27.53</time>
   <time name="total">   28.09   28.16</time>
   <energy>
    <i name="e_fr_energy">   -188.75652382 </i>
    <i name="e_wo_entrp">   -188.45894924 </i>
    <i name="e_0_energy">   -188.60773653 </i>
   </energy>
  </scstep>
  <scstep>
   <time name="dav">   31.56   31.63</time>
   <time name="total">   32.18   32.26</time>
   <energy>
    <i name="e_fr_energy">   -188.81632283 </i>
    <i name="e_wo_entrp">   -188.51919412 </i>
    <i name="e_0_energy">   -188.66775848 </i>
   </energy>
  </scstep>
  <scstep>
   <time name="dav">   31.69   31.76</time>
   <time name="total">   32.31   32.40</time>
   <energy>
    <i name="e_fr_energy">   -188.68548587 </i>
    <i name="e_wo_entrp">   -188.39286279 </i>
    <i name="e_0_energy">   -188.53917433 </i>
   </energy>
  </scstep>
  <scstep>
   <time name="dav">   30.30   30.38</time>
   <time name="total">   30.93   31.01</time>
   <energy>
    <i name="e_fr_energy">   -188.67978468 </i>
    <i name="e_wo_entrp">   -188.38659407 </i>
    <i name="e_0_energy">   -188.53318938 </i>
   </energy>
  </scstep>
  <scstep>
   <time name="dav">   31.21   31.28</time>
   <time name="total">   31.83   31.92</time>
   <energy>
    <i name="e_fr_energy">   -188.67002829 </i>
    <i name="e_wo_entrp">   -188.37702235 </i>
    <i name="e_0_energy">   -188.52352532 </i>
   </energy>
  </scstep>
  <scstep>
   <time name="dav">   28.92   28.99</time>
   <time name="total">   29.54   29.62</time>
   <energy>
    <i name="e_fr_energy">   -188.67032016 </i>
    <i name="e_wo_entrp">   -188.37764754 </i>
    <i name="e_0_energy">   -188.52398385 </i>
   </energy>
  </scstep>
  <scstep>
   <time name="dav">   28.40   28.46</time>
   <time name="total">   29.02   29.10</time>
   <energy>
    <i name="e_fr_energy">   -188.66953029 </i>
    <i name="e_wo_entrp">   -188.37715269 </i>
    <i name="e_0_energy">   -188.52334149 </i>
   </energy>
  </scstep>
  <scstep>
   <time name="dav">   23.22   23.28</time>
   <time name="total">   23.85   23.91</time>
   <energy>
    <i name="e_fr_energy">   -188.66989941 </i>
    <i name="e_wo_entrp">   -188.37751881 </i>
    <i name="e_0_energy">   -188.52370911 </i>
   </energy>
  </scstep>
  <scstep>
   <time name="dav">   19.79   19.83</time>
   <time name="total">   20.41   20.47</time>
   <energy>
    <i name="e_fr_energy">   -188.67014387 </i>
    <i name="e_wo_entrp">   -188.37773064 </i>
    <i name="e_0_energy">   -188.52393726 </i>
   </energy>
  </scstep>
  <scstep>
   <time name="dav">   18.24   18.29</time>
   <time name="total">   18.87   18.92</time>
   <energy>
    <i name="e_fr_energy">   -188.67028688 </i>
    <i name="e_wo_entrp">   -188.37785446 </i>
    <i name="e_0_energy">   -188.52407067 </i>
   </energy>
  </scstep>
  <scstep>
   <time name="dav">   19.45   19.50</time>
   <time name="total">   20.08   20.13</time>
   <energy>
    <i name="e_fr_energy">   -188.67040691 </i>
    <i name="e_wo_entrp">   -188.37796350 </i>
    <i name="e_0_energy">   -188.52418520 </i>
   </energy>
  </scstep>
  <scstep>
   <time name="dav">   17.90   17.95</time>
   <time name="total">   18.53   18.58</time>
   <energy>
    <i name="e_fr_energy">   -188.67055119 </i>
    <i name="e_wo_entrp">   -188.37810133 </i>
    <i name="e_0_energy">   -188.52432626 </i>
   </energy>
  </scstep>
  <scstep>
   <time name="dav">   17.23   17.27</time>
   <time name="total">   17.85   17.90</time>
   <energy>
    <i name="e_fr_energy">   -188.67083600 </i>
    <i name="e_wo_entrp">   -188.37839917 </i>
    <i name="e_0_energy">   -188.52461758 </i>
   </energy>
  </scstep>
  <scstep>
   <time name="dav">   19.78   19.83</time>
   <time name="total">   20.41   20.46</time>
   <energy>
    <i name="e_fr_energy">   -188.67102969 </i>
    <i name="e_wo_entrp">   -188.37859997 </i>
    <i name="e_0_energy">   -188.52481483 </i>
   </energy>
  </scstep>
  <scstep>
   <time name="dav">   18.85   18.90</time>
   <time name="total">   18.89   18.95</time>
   <energy>
    <i name="alphaZ">     78.89169591 </i>
    <i name="ewald">  39367.72397352 </i>
    <i name="hartreedc"> -45334.80261315 </i>
    <i name="XCdc">   -237.98540944 </i>
    <i name="pawpsdc">   3949.13708010 </i>
    <i name="pawaedc">  -3363.65486082 </i>
    <i name="eentropy">     -0.29243094 </i>
    <i name="bandstr">  -1409.13103329 </i>
    <i name="atom">   6761.44252427 </i>
    <i name="e_fr_energy">   -188.67107383 </i>
    <i name="e_wo_entrp">   -188.37864289 </i>
    <i name="e_0_energy">   -188.52485836 </i>
   </energy>
  </scstep>
  <structure>
   <crystal>
    <varray name="basis" >
     <v>       8.85733661       5.10625946       0.00000000 </v>
     <v>      -8.85732297       5.10623649       0.00000000 </v>
     <v>       0.00000000       0.00000000      30.00000000 </v>
    </varray>
    <i name="volume">   2713.66333902 </i>
    <varray name="rec_basis" >
     <v>       0.05645029       0.09791918       0.00000000 </v>
     <v>      -0.05645055       0.09791933       0.00000000 </v>
     <v>       0.00000000       0.00000000       0.03333333 </v>
    </varray>
   </crystal>
   <varray name="positions" >
    <v>       0.33338591       0.00005983      -0.00000017 </v>
    <v>       0.66672108       0.66672253       0.00000011 </v>
    <v>       1.00005385       0.33337992       0.00000003 </v>
    <v>       0.33326162       0.33329867       0.00000010 </v>
    <v>      -0.00005722       0.66658996      -0.00000009 </v>
    <v>       0.66666671      -0.00001718      -0.00000021 </v>
    <v>      -0.00005184      -0.00001249      -0.00000015 </v>
    <v>       0.33327326       0.66658947      -0.00000014 </v>
    <v>       0.66665741       0.33330165       0.00000013 </v>
    <v>       0.10807096       0.22367589       0.95199760 </v>
    <v>       0.22365853       0.10808990       0.04800760 </v>
    <v>       0.10965200       0.55128479       0.95193692 </v>
    <v>       0.21795083       0.44298699       0.04806448 </v>
    <v>       0.11517972       0.89150103       0.95191717 </v>
    <v>       0.22482986       0.78185052       0.04808540 </v>
    <v>       0.44300625       0.21798836       0.95193306 </v>
    <v>       0.55132291       0.10967249       0.04806840 </v>
    <v>       0.44852550       0.55816744       0.95191355 </v>
    <v>       0.55816957       0.44852315       0.04808326 </v>
    <v>       0.44142984       0.89033301       0.95199341 </v>
    <v>       0.55700448       0.77476070       0.04800638 </v>
    <v>       0.78188505       0.22485033       0.95191931 </v>
    <v>       0.89151815       0.11521610       0.04808149 </v>
    <v>       0.77475686       0.55700047       0.95199188 </v>
    <v>       0.89034826       0.44140654       0.04800284 </v>
    <v>       0.77634196       0.88465101       0.95193288 </v>
    <v>       0.88465292       0.77634339       0.04806463 </v>
   </varray>
  </structure>
  <varray name="forces" >
   <v>       0.00005873      -0.00039152      -0.00072096 </v>
   <v>      -0.00007721      -0.00045674       0.00120005 </v>
   <v>       0.00001885      -0.00047257      -0.00042307 </v>
   <v>       0.00000896       0.00666159       0.00013808 </v>
   <v>      -0.00002992       0.00643262       0.00004611 </v>
   <v>       0.00000256       0.00632776      -0.00008245 </v>
   <v>       0.00008026      -0.00516737       0.00011261 </v>
   <v>       0.00008593      -0.00486580      -0.00022517 </v>
   <v>      -0.00015565      -0.00516254       0.00020527 </v>
   <v>       0.01573593      -0.11518927      -0.00012164 </v>
   <v>      -0.01373559      -0.11522507      -0.00358935 </v>
   <v>       0.09254896       0.05263292       0.01392908 </v>
   <v>      -0.09227434       0.05254614      -0.01326135 </v>
   <v>      -0.11191402       0.06475411       0.02615508 </v>
   <v>       0.11268172       0.06473802      -0.02624004 </v>
   <v>       0.09322960       0.05057817       0.01767617 </v>
   <v>      -0.09336137       0.05050665      -0.01719097 </v>
   <v>      -0.11266810       0.06445316       0.02492614 </v>
   <v>       0.11237187       0.06442431      -0.02592476 </v>
   <v>       0.01403451      -0.11599861       0.00528912 </v>
   <v>      -0.01414143      -0.11613536      -0.00413657 </v>
   <v>      -0.11335022       0.06303105       0.02240645 </v>
   <v>       0.11297757       0.06311156      -0.02149103 </v>
   <v>       0.01400364      -0.11582657       0.00284692 </v>
   <v>      -0.01608470      -0.11574713      -0.00022061 </v>
   <v>       0.09300528       0.05026782       0.01514074 </v>
   <v>      -0.09305184       0.05017268      -0.01644385 </v>
  </varray>
  <varray name="stress" >
   <v>     -19.85599605      -0.00041142       0.02600570 </v>
   <v>      -0.00041149     -19.45315711      -0.00029404 </v>
   <v>       0.02600558      -0.00029400      -1.59796415 </v>
  </varray>
  <energy>
   <i name="e_fr_energy">   -188.67107383 </i>
   <i name="e_wo_entrp">   -188.52485836 </i>
   <i name="e_0_energy">     -0.29243094 </i>
  </energy>
  <time name="totalsc">  536.71  538.15</time>
 </calculation>
 <calculation>
  <scstep>
   <time name="dav">   24.62   24.68</time>
   <time name="total">   25.24   25.30</time>
   <energy>
    <i name="alphaZ">     82.30838668 </i>
    <i name="ewald">  41286.18261538 </i>
    <i name="hartreedc"> -47283.96576364 </i>
    <i name="XCdc">   -233.86938066 </i>
    <i name="pawpsdc">   3949.09683966 </i>
    <i name="pawaedc">  -3363.61368457 </i>
    <i name="eentropy">     -0.24195635 </i>
    <i name="bandstr">  -1387.90630678 </i>
    <i name="atom">   6761.44252427 </i>
    <i name="e_fr_energy">   -190.56672601 </i>
    <i name="e_wo_entrp">   -190.32476966 </i>
    <i name="e_0_energy">   -190.44574784 </i>
   </energy>
  </scstep>
  <scstep>
   <time name="dav">   31.86   31.94</time>
   <time name="total">   32.47   32.55</time>
   <energy>
    <i name="e_fr_energy">   -190.71515467 </i>
    <i name="e_wo_entrp">   -190.46033085 </i>
    <i name="e_0_energy">   -190.58774276 </i>
   </energy>
  </scstep>
  <scstep>
   <time name="dav">   31.49   31.56</time>
   <time name="total">   32.09   32.18</time>
   <energy>
    <i name="e_fr_energy">   -190.02181483 </i>
    <i name="e_wo_entrp">   -189.77174471 </i>
    <i name="e_0_energy">   -189.89677977 </i>
   </energy>
  </scstep>
  <scstep>
   <time name="dav">   33.13   33.21</time>
   <time name="total">   33.75   33.84</time>
   <energy>
    <i name="e_fr_energy">   -189.83303505 </i>
    <i name="e_wo_entrp">   -189.57894155 </i>
    <i name="e_0_energy">   -189.70598830 </i>
   </energy>
  </scstep>
  <scstep>
   <time name="dav">   29.84   29.91</time>
   <time name="total">   30.45   30.53</time>
   <energy>
    <i name="e_fr_energy">   -189.74917987 </i>
    <i name="e_wo_entrp">   -189.50329673 </i>
    <i name="e_0_energy">   -189.62623830 </i>
   </energy>
  </scstep>
  <scstep>
   <time name="dav">   28.44   28.51</time>
   <time name="total">   29.06   29.13</time>
   <energy>
    <i name="e_fr_energy">   -189.72903314 </i>
    <i name="e_wo_entrp">   -189.48042771 </i>
    <i name="e_0_energy">   -189.60473042 </i>
   </energy>
  </scstep>
  <scstep>
   <time name="dav">   31.63   31.71</time>
   <time name="total">   32.25   32.33</time>
   <energy>
    <i name="e_fr_energy">   -189.73093123 </i>
    <i name="e_wo_entrp">   -189.48243203 </i>
    <i name="e_0_energy">   -189.60668163 </i>
   </energy>
  </scstep>
  <scstep>
   <time name="dav">   30.68   30.75</time>
   <time name="total">   31.29   31.37</time>
   <energy>
    <i name="e_fr_energy">   -189.72962946 </i>
    <i name="e_wo_entrp">   -189.48125175 </i>
    <i name="e_0_energy">   -189.60544061 </i>
   </energy>
  </scstep>
  <scstep>
   <time name="dav">   23.94   24.00</time>
   <time name="total">   24.56   24.62</time>
   <energy>
    <i name="e_fr_energy">   -189.72977838 </i>
    <i name="e_wo_entrp">   -189.48147092 </i>
    <i name="e_0_energy">   -189.60562465 </i>
   </energy>
  </scstep>
  <scstep>
   <time name="dav">   25.52   25.58</time>
   <time name="total">   25.56   25.63</time>
   <energy>
    <i name="alphaZ">     82.30838668 </i>
    <i name="ewald">  41286.18261538 </i>
    <i name="hartreedc"> -47257.82419623 </i>
    <i name="XCdc">   -235.25698965 </i>
    <i name="pawpsdc">   4036.53995604 </i>
    <i name="pawaedc">  -3452.23686608 </i>
    <i name="eentropy">     -0.24830849 </i>
    <i name="bandstr">  -1410.63695530 </i>
    <i name="atom">   6761.44252427 </i>
    <i name="e_fr_energy">   -189.72983338 </i>
    <i name="e_wo_entrp">   -189.48152489 </i>
    <i name="e_0_energy">   -189.60567914 </i>
   </energy>
  </scstep>
  <structure>
   <crystal>
    <varray name="basis" >
     <v>       8.66964440       5.00024744       0.00000000 </v>
     <v>      -8.66963554       5.00023273       0.00000000 </v>
     <v>       0.00000000       0.00000000      30.00000000 </v>
    </varray>
    <i name="volume">   2601.01687787 </i>
    <varray name="rec_basis" >
     <v>       0.05767244       0.09999515       0.00000000 </v>
     <v>      -0.05767261       0.09999525       0.00000000 </v>
     <v>       0.00000000       0.00000000       0.03333333 </v>
    </varray>
   </crystal>
   <varray name="positions" >
    <v>       0.33338531       0.00005912      -0.00000057 </v>
    <v>       0.66672025       0.66672184       0.00000079 </v>
    <v>       1.00005308       0.33337911      -0.00000021 </v>
    <v>       0.33327272       0.33330976       0.00000018 </v>
    <v>      -0.00004653       0.66660070      -0.00000006 </v>
    <v>       0.66667726      -0.00000665      -0.00000025 </v>
    <v>      -0.00006037      -0.00002117      -0.00000009 </v>
    <v>       0.33326523       0.66658128      -0.00000027 </v>
    <v>       0.66664866       0.33329320       0.00000025 </v>
    <v>       0.10789419       0.22346889       0.95199753 </v>
    <v>       0.22345340       0.10791115       0.04800557 </v>
    <v>       0.10982856       0.55128358       0.95194482 </v>
    <v>       0.21794975       0.44316314       0.04805696 </v>
    <v>       0.11518011       0.89171637       0.95193200 </v>
    <v>       0.22504592       0.78185015       0.04807052 </v>
    <v>       0.44318004       0.21798308       0.95194308 </v>
    <v>       0.55131739       0.10984629       0.04805865 </v>
    <v>       0.44852467       0.55838301       0.95192768 </v>
    <v>       0.55838481       0.44852255       0.04806856 </v>
    <v>       0.44125008       0.89012630       0.95199641 </v>
    <v>       0.55679744       0.77458082       0.04800404 </v>
    <v>       0.78188119       0.22506419       0.95193202 </v>
    <v>       0.89173178       0.11521274       0.04806931 </v>
    <v>       0.77457736       0.55679407       0.95199350 </v>
    <v>       0.89014000       0.44122917       0.04800272 </v>
    <v>       0.77651502       0.88464543       0.95194147 </v>
    <v>       0.88464714       0.77651633       0.04805530 </v>
   </varray>
  </structure>
  <varray name="forces" >
   <v>       0.00010375      -0.00144115       0.00058101 </v>
   <v>      -0.00017032      -0.00143553       0.00071339 </v>
   <v>       0.00011374      -0.00167337      -0.00128665 </v>
   <v>      -0.00054171       0.01313490       0.00009764 </v>
   <v>      -0.00726359      -0.00042336       0.00001583 </v>
   <v>       0.00775305       0.00045612      -0.00006692 </v>
   <v>      -0.00053144      -0.01380455       0.00009690 </v>
   <v>       0.00711833      -0.00200686      -0.00015285 </v>
   <v>      -0.00658050      -0.00157777       0.00009589 </v>
   <v>      -0.09027776      -0.04897021      -0.49693740 </v>
   <v>       0.09223754      -0.04918132       0.49345007 </v>
   <v>       0.08942337      -0.07032200      -0.48362271 </v>
   <v>      -0.08952035      -0.07078293       0.48611448 </v>
   <v>      -0.00040346       0.12350742      -0.47398999 </v>
   <v>       0.00118413       0.12340196       0.47223303 </v>
   <v>       0.09016517      -0.07238320      -0.48197068 </v>
   <v>      -0.09023360      -0.07238449       0.48072064 </v>
   <v>       0.00159808       0.12804689      -0.47195728 </v>
   <v>      -0.00176875       0.12775913       0.47091314 </v>
   <v>      -0.09212000      -0.04982981      -0.49379416 </v>
   <v>       0.09726278      -0.05004957       0.49142131 </v>
   <v>      -0.00174303       0.12167726      -0.47586956 </v>
   <v>       0.00121935       0.12216798       0.47855715 </v>
   <v>      -0.09769887      -0.04981886      -0.49259984 </v>
   <v>       0.09047563      -0.04951894       0.49857539 </v>
   <v>       0.09300407      -0.07734760      -0.48094997 </v>
   <v>      -0.09280561      -0.07720015       0.47961214 </v>
  </varray>
  <varray name="stress" >
   <v>     -10.19396160      -0.00036529       0.01426594 </v>
   <v>      -0.00036529      -9.87429298      -0.00027024 </v>
   <v>       0.01426596      -0.00027013       6.60219338 </v>
  </varray>
  <energy>
   <i name="e_fr_energy">   -189.72983338 </i>
   <i name="e_wo_entrp">   -189.60567914 </i>
   <i name="e_0_energy">     -0.24830849 </i>
  </energy>
  <time name="totalsc">  340.58  341.46</time>
 </calculation>
 <calculation>
  <scstep>
   <time name="dav">   25.64   25.71</time>
   <time name="total">   26.25   26.32</time>
   <energy>
    <i name="alphaZ">     85.81499349 </i>
    <i name="ewald">  42830.78419626 </i>
    <i name="hartreedc"> -48847.57452955 </i>
    <i name="XCdc">   -232.94209902 </i>
    <i name="pawpsdc">   4038.15591814 </i>
    <i name="pawaedc">  -3453.86505184 </i>
    <i name="eentropy">     -0.19542158 </i>
    <i name="bandstr">  -1372.83474350 </i>
    <i name="atom">   6761.44252427 </i>
    <i name="e_fr_energy">   -191.21421332 </i>
    <i name="e_wo_entrp">   -191.01879175 </i>
    <i name="e_0_energy">   -191.11650253 </i>
   </energy>
  </scstep>
  <scstep>
   <time name="dav">   34.57   34.65</time>
   <time name="total">   35.17   35.26</time>
   <energy>
    <i name="e_fr_energy">   -191.32641120 </i>
    <i name="e_wo_entrp">   -191.10719610 </i>
    <i name="e_0_energy">   -191.21680365 </i>
   </energy>
  </scstep>
  <scstep>
   <time name="dav">   31.47   31.54</time>
   <time name="total">   32.07   32.15</time>
   <energy>
    <i name="e_fr_energy">   -190.97038624 </i>
    <i name="e_wo_entrp">   -190.76183744 </i>
    <i name="e_0_energy">   -190.86611184 </i>
   </energy>
  </scstep>
  <scstep>
   <time name="dav">   33.95   34.03</time>
   <time name="total">   34.55   34.64</time>
   <energy>
    <i name="e_fr_energy">   -190.68435165 </i>
    <i name="e_wo_entrp">   -190.47709093 </i>
    <i name="e_0_energy">   -190.58072129 </i>
   </energy>
  </scstep>
  <scstep>
   <time name="dav">   28.83   28.90</time>
   <time name="total">   29.44   29.51</time>
   <energy>
    <i name="e_fr_energy">   -190.59199739 </i>
    <i name="e_wo_entrp">   -190.38818847 </i>
    <i name="e_0_energy">   -190.49009293 </i>
   </energy>
  </scstep>
  <scstep>
   <time name="dav">   31.39   31.46</time>
   <time name="total">   31.99   32.08</time>
   <energy>
    <i name="e_fr_energy">   -190.59136425 </i>
    <i name="e_wo_entrp">   -190.38561072 </i>
    <i name="e_0_energy">   -190.48848748 </i>
   </energy>
  </scstep>
  <scstep>
   <time name="dav">   28.74   28.81</time>
   <time name="total">   29.35   29.43</time>
   <energy>
    <i name="e_fr_energy">   -190.58919078 </i>
    <i name="e_wo_entrp">   -190.38441786 </i>
    <i name="e_0_energy">   -190.48680432 </i>
   </energy>
  </scstep>
  <scstep>
   <time name="dav">   28.59   28.66</time>
   <time name="total">   29.19   29.27</time>
   <energy>
    <i name="e_fr_energy">   -190.58626378 </i>
    <i name="e_wo_entrp">   -190.38168195 </i>
    <i name="e_0_energy">   -190.48397287 </i>
   </energy>
  </scstep>
  <scstep>
   <time name="dav">   29.59   29.66</time>
   <time name="total">   30.20   30.28</time>
   <energy>
    <i name="e_fr_energy">   -190.58659624 </i>
    <i name="e_wo_entrp">   -190.38236018 </i>
    <i name="e_0_energy">   -190.48447821 </i>
   </energy>
  </scstep>
  <scstep>
   <time name="dav">   25.21   25.27</time>
   <time name="total">   25.25   25.31</time>
   <energy>
    <i name="alphaZ">     85.81499349 </i>
    <i name="ewald">  42830.78419626 </i>
    <i name="hartreedc"> -48819.08378419 </i>
    <i name="XCdc">   -234.29542704 </i>
    <i name="pawpsdc">   4061.45880312 </i>
    <i name="pawaedc">  -3477.32404890 </i>
    <i name="eentropy">     -0.20423767 </i>
    <i name="bandstr">  -1399.17956353 </i>
    <i name="atom">   6761.44252427 </i>
    <i name="e_fr_energy">   -190.58654419 </i>
    <i name="e_wo_entrp">   -190.38230652 </i>
    <i name="e_0_energy">   -190.48442535 </i>
   </energy>
  </scstep>
  <structure>
   <crystal>
    <varray name="basis" >
     <v>       8.48626852       4.89954393       0.00000000 </v>
     <v>      -8.48627225       4.89955102       0.00000000 </v>
     <v>       0.00000000       0.00000000      30.00000000 </v>
    </varray>
    <i name="volume">   2494.73307893 </i>
    <varray name="rec_basis" >
     <v>       0.05891874       0.10205026       0.00000000 </v>
     <v>      -0.05891866       0.10205022       0.00000000 </v>
     <v>       0.00000000       0.00000000       0.03333333 </v>
    </varray>
   </crystal>
   <varray name="positions" >
    <v>       0.33337404       0.00004697       0.00000175 </v>
    <v>       0.66670799       0.66671109       0.00000186 </v>
    <v>       1.00004007       0.33336500      -0.00000362 </v>
    <v>       0.33336890       0.33341147       0.00000035 </v>
    <v>      -0.00010343       0.66661758      -0.00000005 </v>
    <v>       0.66670468      -0.00005806      -0.00000038 </v>
    <v>      -0.00017182      -0.00012698       0.00000010 </v>
    <v>       0.33329592       0.66653983      -0.00000052 </v>
    <v>       0.66661459       0.33332559       0.00000035 </v>
    <v>       0.10727197       0.22381068       0.95053718 </v>
    <v>       0.22380046       0.10728011       0.04945886 </v>
    <v>       0.10939505       0.55021073       0.95051150 </v>
    <v>       0.21687216       0.44272668       0.04949703 </v>
    <v>       0.11626634       0.89248014       0.95051646 </v>
    <v>       0.22581165       0.78293264       0.04948097 </v>
    <v>       0.44273634       0.21689447       0.95051139 </v>
    <v>       0.55022880       0.10940292       0.04948626 </v>
    <v>       0.44966296       0.55917629       0.95051917 </v>
    <v>       0.55917518       0.44965881       0.04947486 </v>
    <v>       0.44061544       0.89046944       0.95054064 </v>
    <v>       0.55716530       0.77391828       0.04945184 </v>
    <v>       0.78295093       0.22582090       0.95051418 </v>
    <v>       0.89249050       0.11628872       0.04949425 </v>
    <v>       0.77391406       0.55716520       0.95054334 </v>
    <v>       0.89047987       0.44060200       0.04946817 </v>
    <v>       0.77604310       0.88349908       0.95051496 </v>
    <v>       0.88350341       0.77604488       0.04947900 </v>
   </varray>
  </structure>
  <varray name="forces" >
   <v>      -0.00151938      -0.00192011      -0.00059841 </v>
   <v>       0.00193956      -0.00016999       0.00063266 </v>
   <v>      -0.00057824       0.00181017      -0.00002936 </v>
   <v>      -0.00640407      -0.01037999      -0.00054899 </v>
   <v>       0.01151694      -0.00084338       0.00025505 </v>
   <v>      -0.00495743       0.01025228       0.00022934 </v>
   <v>      -0.00379570       0.00388257      -0.00000815 </v>
   <v>      -0.00563165      -0.01726815       0.00000330 </v>
   <v>       0.00944300      -0.00306197      -0.00007460 </v>
   <v>      -0.02691812      -0.00885725      -0.32934031 </v>
   <v>       0.02442844      -0.00800189       0.33122873 </v>
   <v>       0.02825804      -0.02851849      -0.32674832 </v>
   <v>      -0.02827549      -0.02873977       0.32747815 </v>
   <v>       0.01177978       0.03787358      -0.32570938 </v>
   <v>      -0.01147352       0.03787860       0.32557310 </v>
   <v>       0.02723168      -0.02660485      -0.32600941 </v>
   <v>      -0.02665511      -0.02610476       0.32588586 </v>
   <v>       0.00887493       0.03365714      -0.33649846 </v>
   <v>      -0.00924811       0.03312529       0.33593718 </v>
   <v>      -0.02429923      -0.00831926      -0.32933512 </v>
   <v>       0.01879712      -0.00834677       0.33946123 </v>
   <v>       0.01270394       0.03958348      -0.32376404 </v>
   <v>      -0.01271303       0.04008512       0.32453769 </v>
   <v>      -0.01947157      -0.00817386      -0.34286637 </v>
   <v>       0.02744716      -0.00885502       0.33083625 </v>
   <v>       0.02394540      -0.02187773      -0.33814828 </v>
   <v>      -0.02442533      -0.02210497       0.33762065 </v>
  </varray>
  <varray name="stress" >
   <v>      -5.87330493       0.00013397      -0.07860036 </v>
   <v>       0.00013418      -5.89667475       0.00012712 </v>
   <v>      -0.07860033       0.00012726       4.47921581 </v>
  </varray>
  <energy>
   <i name="e_fr_energy">   -190.58654419 </i>
   <i name="e_wo_entrp">   -190.48442535 </i>
   <i name="e_0_energy">     -0.20423767 </i>
  </energy>
  <time name="totalsc">  347.20  348.11</time>
 </calculation>
 <calculation>
  <scstep>
   <time name="dav">   24.90   24.96</time>
   <time name="total">   25.50   25.56</time>
   <energy>
    <i name="alphaZ">     90.42115460 </i>
    <i name="ewald">  44775.97444472 </i>
    <i name="hartreedc"> -50822.80499667 </i>
    <i name="XCdc">   -231.64722243 </i>
    <i name="pawpsdc">   4061.77107127 </i>
    <i name="pawaedc">  -3477.63563283 </i>
    <i name="eentropy">     -0.14659089 </i>
    <i name="bandstr">  -1349.32206673 </i>
    <i name="atom">   6761.44252427 </i>
    <i name="e_fr_energy">   -191.94731469 </i>
    <i name="e_wo_entrp">   -191.80072380 </i>
    <i name="e_0_energy">   -191.87401924 </i>
   </energy>
  </scstep>
  <scstep>
   <time name="dav">   34.32   34.40</time>
   <time name="total">   34.90   34.99</time>
   <energy>
    <i name="e_fr_energy">   -191.92918573 </i>
    <i name="e_wo_entrp">   -191.74898717 </i>
    <i name="e_0_energy">   -191.83908645 </i>
   </energy>
  </scstep>
  <scstep>
   <time name="dav">   30.61   30.69</time>
   <time name="total">   31.21   31.29</time>
   <energy>
    <i name="e_fr_energy">   -191.72664337 </i>
    <i name="e_wo_entrp">   -191.56170247 </i>
    <i name="e_0_energy">   -191.64417292 </i>
   </energy>
  </scstep>
  <scstep>
   <time name="dav">   32.20   32.27</time>
   <time name="total">   32.79   32.88</time>
   <energy>
    <i name="e_fr_energy">   -191.20185793 </i>
    <i name="e_wo_entrp">   -191.04256414 </i>
    <i name="e_0_energy">   -191.12221104 </i>
   </energy>
  </scstep>
  <scstep>
   <time name="dav">   29.17   29.24</time>
   <time name="total">   29.77   29.85</time>
   <energy>
    <i name="e_fr_energy">   -191.05256135 </i>
    <i name="e_wo_entrp">   -190.89526294 </i>
    <i name="e_0_energy">   -190.97391215 </i>
   </energy>
  </scstep>
  <scstep>
   <time name="dav">   33.02   33.10</time>
   <time name="total">   33.62   33.71</time>
   <energy>
    <i name="e_fr_energy">   -191.05683918 </i>
    <i name="e_wo_entrp">   -190.89811170 </i>
    <i name="e_0_energy">   -190.97747544 </i>
   </energy>
  </scstep>
  <scstep>
   <time name="dav">   30.03   30.10</time>
   <time name="total">   30.62   30.70</time>
   <energy>
    <i name="e_fr_energy">   -191.05161659 </i>
    <i name="e_wo_entrp">   -190.89336092 </i>
    <i name="e_0_energy">   -190.97248876 </i>
   </energy>
  </scstep>
  <scstep>
   <time name="dav">   30.40   30.47</time>
   <time name="total">   30.99   31.08</time>
   <energy>
    <i name="e_fr_energy">   -191.04338500 </i>
    <i name="e_wo_entrp">   -190.88574483 </i>
    <i name="e_0_energy">   -190.96456491 </i>
   </energy>
  </scstep>
  <scstep>
   <time name="dav">   26.70   26.77</time>
   <time name="total">   27.30   27.37</time>
   <energy>
    <i name="e_fr_energy">   -191.04412375 </i>
    <i name="e_wo_entrp">   -190.88694943 </i>
    <i name="e_0_energy">   -190.96553659 </i>
   </energy>
  </scstep>
  <scstep>
   <time name="dav">   28.59   28.66</time>
   <time name="total">   29.19   29.26</time>
   <energy>
    <i name="e_fr_energy">   -191.04381093 </i>
    <i name="e_wo_entrp">   -190.88672068 </i>
    <i name="e_0_energy">   -190.96526581 </i>
   </energy>
  </scstep>
  <scstep>
   <time name="dav">   23.86   23.92</time>
   <time name="total">   23.90   23.97</time>
   <energy>
    <i name="alphaZ">     90.42115460 </i>
    <i name="ewald">  44775.97444472 </i>
    <i name="hartreedc"> -50786.79301804 </i>
    <i name="XCdc">   -233.33847562 </i>
    <i name="pawpsdc">   4079.78440924 </i>
    <i name="pawaedc">  -3495.64878303 </i>
    <i name="eentropy">     -0.15716842 </i>
    <i name="bandstr">  -1382.72896403 </i>
    <i name="atom">   6761.44252427 </i>
    <i name="e_fr_energy">   -191.04387632 </i>
    <i name="e_wo_entrp">   -190.88670789 </i>
    <i name="e_0_energy">   -190.96529210 </i>
   </energy>
  </scstep>
  <structure>
   <crystal>
    <varray name="basis" >
     <v>       8.26750045       4.77300575       0.00000000 </v>
     <v>      -8.26749804       4.77300222       0.00000000 </v>
     <v>       0.00000000       0.00000000      30.00000000 </v>
    </varray>
    <i name="volume">   2367.64841028 </i>
    <varray name="rec_basis" >
     <v>       0.06047776       0.10475582       0.00000000 </v>
     <v>      -0.06047780       0.10475585       0.00000000 </v>
     <v>       0.00000000       0.00000000       0.03333333 </v>
    </varray>
   </crystal>
   <varray name="positions" >
    <v>       0.33333785       0.00002958       0.00000132 </v>
    <v>       0.66671245       0.66669176       0.00000401 </v>
    <v>       1.00004980       0.33338146      -0.00000537 </v>
    <v>       0.33325693       0.33338337      -0.00000160 </v>
    <v>      -0.00008225       0.66653413       0.00000084 </v>
    <v>       0.66678989       0.00004617       0.00000042 </v>
    <v>      -0.00020624      -0.00011023       0.00000011 </v>
    <v>       0.33309679       0.66637208      -0.00000052 </v>
    <v>       0.66663075       0.33325901       0.00000003 </v>
    <v>       0.10684096       0.22428231       0.94855531 </v>
    <v>       0.22426675       0.10687129       0.05144570 </v>
    <v>       0.10884332       0.54912958       0.94854573 </v>
    <v>       0.21578574       0.44217142       0.05146874 </v>
    <v>       0.11735396       0.89302315       0.94855719 </v>
    <v>       0.22635700       0.78401710       0.05143699 </v>
    <v>       0.44219622       0.21583615       0.94854700 </v>
    <v>       0.54917983       0.10886479       0.05144766 </v>
    <v>       0.45071617       0.55970761       0.94852598 </v>
    <v>       0.55969708       0.45070721       0.05146540 </v>
    <v>       0.44020300       0.89093088       0.94855821 </v>
    <v>       0.55760571       0.77352497       0.05146535 </v>
    <v>       0.78405827       0.22637437       0.94856274 </v>
    <v>       0.89305073       0.11740454       0.05145185 </v>
    <v>       0.77351758       0.55761291       0.94851712 </v>
    <v>       0.89095509       0.44016555       0.05145840 </v>
    <v>       0.77551905       0.88248155       0.94851157 </v>
    <v>       0.88248202       0.77552175       0.05147971 </v>
   </varray>
  </structure>
  <varray name="forces" >
   <v>       0.00180625       0.00284600      -0.00548787 </v>
   <v>      -0.00293352       0.00043795      -0.00072466 </v>
   <v>       0.00118156      -0.00279957       0.00641662 </v>
   <v>       0.00715918      -0.00698689       0.00095882 </v>
   <v>       0.00172403       0.00794076      -0.00024800 </v>
   <v>      -0.00891063      -0.00396482      -0.00040554 </v>
   <v>       0.00322341       0.00192058       0.00022599 </v>
   <v>      -0.00604432       0.00329372      -0.00005875 </v>
   <v>       0.00288496      -0.01340367       0.00028353 </v>
   <v>       0.03878094       0.01169967      -0.03836090 </v>
   <v>      -0.03551112       0.01117406       0.02875738 </v>
   <v>      -0.02832174       0.02996857      -0.04331678 </v>
   <v>       0.02822731       0.03028017       0.03782503 </v>
   <v>      -0.00666417      -0.03805531      -0.02768764 </v>
   <v>       0.00612608      -0.03737673       0.03426203 </v>
   <v>      -0.02699035       0.02815850      -0.02906692 </v>
   <v>       0.02607287       0.02722955       0.03400483 </v>
   <v>      -0.00983974      -0.04337088      -0.02980092 </v>
   <v>       0.01009393      -0.04344043       0.02805774 </v>
   <v>       0.03587557       0.01161024      -0.02238755 </v>
   <v>      -0.04262232       0.01123690       0.02374280 </v>
   <v>      -0.00791050      -0.03946453      -0.04222828 </v>
   <v>       0.00828834      -0.04000411       0.03713008 </v>
   <v>       0.04259798       0.01139695      -0.02411697 </v>
   <v>      -0.03952262       0.01180882       0.03256078 </v>
   <v>      -0.02914604       0.03372969      -0.02926208 </v>
   <v>       0.03037464       0.03413477       0.02892724 </v>
  </varray>
  <varray name="stress" >
   <v>      -0.45943548      -0.00016420      -0.01697557 </v>
   <v>      -0.00016422      -0.42422741      -0.00026253 </v>
   <v>      -0.01697566      -0.00026258      -0.57064861 </v>
  </varray>
  <energy>
   <i name="e_fr_energy">   -191.04387632 </i>
   <i name="e_wo_entrp">   -190.96529210 </i>
   <i name="e_0_energy">     -0.15716842 </i>
  </energy>
  <time name="totalsc">  373.50  374.48</time>
 </calculation>
 <calculation>
  <scstep>
   <time name="dav">   25.91   25.97</time>
   <time name="total">   26.51   26.57</time>
   <energy>
    <i name="alphaZ">     90.78064446 </i>
    <i name="ewald">  44922.18679335 </i>
    <i name="hartreedc"> -50937.63927700 </i>
    <i name="XCdc">   -233.15607438 </i>
    <i name="pawpsdc">   4079.75948424 </i>
    <i name="pawaedc">  -3495.61936382 </i>
    <i name="eentropy">     -0.15361570 </i>
    <i name="bandstr">  -1378.65255533 </i>
    <i name="atom">   6761.44252427 </i>
    <i name="e_fr_energy">   -191.05143990 </i>
    <i name="e_wo_entrp">   -190.89782420 </i>
    <i name="e_0_energy">   -190.97463205 </i>
   </energy>
  </scstep>
  <scstep>
   <time name="dav">   32.93   33.01</time>
   <time name="total">   33.52   33.61</time>
   <energy>
    <i name="e_fr_energy">   -191.04981897 </i>
    <i name="e_wo_entrp">   -190.89479332 </i>
    <i name="e_0_energy">   -190.97230614 </i>
   </energy>
  </scstep>
  <scstep>
   <time name="dav">   28.74   28.80</time>
   <time name="total">   29.33   29.41</time>
   <energy>
    <i name="e_fr_energy">   -191.05255904 </i>
    <i name="e_wo_entrp">   -190.89936857 </i>
    <i name="e_0_energy">   -190.97596380 </i>
   </energy>
  </scstep>
  <scstep>
   <time name="dav">   28.49   28.56</time>
   <time name="total">   29.09   29.17</time>
   <energy>
    <i name="e_fr_energy">   -191.04800997 </i>
    <i name="e_wo_entrp">   -190.89378322 </i>
    <i name="e_0_energy">   -190.97089659 </i>
   </energy>
  </scstep>
  <scstep>
   <time name="dav">   29.62   29.69</time>
   <time name="total">   30.22   30.30</time>
   <energy>
    <i name="e_fr_energy">   -191.04794237 </i>
    <i name="e_wo_entrp">   -190.89344396 </i>
    <i name="e_0_energy">   -190.97069317 </i>
   </energy>
  </scstep>
  <scstep>
   <time name="dav">   29.02   29.09</time>
   <time name="total">   29.62   29.70</time>
   <energy>
    <i name="e_fr_energy">   -191.04733051 </i>
    <i name="e_wo_entrp">   -190.89308109 </i>
    <i name="e_0_energy">   -190.97020580 </i>
   </energy>
  </scstep>
  <scstep>
   <time name="dav">   18.61   18.66</time>
   <time name="total">   18.65   18.70</time>
   <energy>
    <i name="alphaZ">     90.78064446 </i>
    <i name="ewald">  44922.18679335 </i>
    <i name="hartreedc"> -50935.57271212 </i>
    <i name="XCdc">   -233.27802884 </i>
    <i name="pawpsdc">   4078.82455540 </i>
    <i name="pawaedc">  -3494.64970513 </i>
    <i name="eentropy">     -0.15441323 </i>
    <i name="bandstr">  -1380.62695257 </i>
    <i name="atom">   6761.44252427 </i>
    <i name="e_fr_energy">   -191.04729439 </i>
    <i name="e_wo_entrp">   -190.89288116 </i>
    <i name="e_0_energy">   -190.97008778 </i>
   </energy>
  </scstep>
  <structure>
   <crystal>
    <varray name="basis" >
     <v>       8.25069410       4.76378373       0.00000000 </v>
     <v>      -8.25069597       4.76378759       0.00000000 </v>
     <v>       0.00000000       0.00000000      30.00000000 </v>
    </varray>
    <i name="volume">   2358.27256127 </i>
    <varray name="rec_basis" >
     <v>       0.06060098       0.10495855       0.00000000 </v>
     <v>      -0.06060093       0.10495853       0.00000000 </v>
     <v>       0.00000000       0.00000000       0.03333333 </v>
    </varray>
   </crystal>
   <varray name="positions" >
    <v>       0.33335730       0.00003845      -0.00000813 </v>
    <v>       0.66670561       0.66670237       0.00000284 </v>
    <v>       1.00003848       0.33336298       0.00000559 </v>
    <v>       0.33323821       0.33332331      -0.00000002 </v>
    <v>      -0.00003425       0.66656837       0.00000044 </v>
    <v>       0.66674407       0.00005556      -0.00000025 </v>
    <v>      -0.00018890      -0.00011090       0.00000050 </v>
    <v>       0.33308835       0.66640151      -0.00000062 </v>
    <v>       0.66656730       0.33317528       0.00000050 </v>
    <v>       0.10700281       0.22425721       0.94837983 </v>
    <v>       0.22424887       0.10702085       0.05160473 </v>
    <v>       0.10888036       0.54931658       0.94836257 </v>
    <v>       0.21597383       0.44221026       0.05164276 </v>
    <v>       0.11719150       0.89286659       0.94840141 </v>
    <v>       0.22620256       0.78385984       0.05160391 </v>
    <v>       0.44222798       0.21600993       0.94838850 </v>
    <v>       0.54934608       0.10889447       0.05161450 </v>
    <v>       0.45051446       0.55953220       0.94836531 </v>
    <v>       0.55952165       0.45050408       0.05162293 </v>
    <v>       0.44035589       0.89091400       0.94841030 </v>
    <v>       0.55756524       0.77369727       0.05161672 </v>
    <v>       0.78388489       0.22621442       0.94838218 </v>
    <v>       0.89288935       0.11722750       0.05162397 </v>
    <v>       0.77369051       0.55757372       0.94836456 </v>
    <v>       0.89092841       0.44033003       0.05162430 </v>
    <v>       0.77557449       0.88269298       0.94835126 </v>
    <v>       0.88269940       0.77557558       0.05163930 </v>
   </varray>
  </structure>
  <varray name="forces" >
   <v>      -0.00007234       0.00068375       0.00292611 </v>
   <v>      -0.00013209       0.00072054      -0.00178426 </v>
   <v>       0.00009451       0.00047443      -0.00141690 </v>
   <v>      -0.00080995       0.00288329       0.00030658 </v>
   <v>      -0.00173402      -0.00131981      -0.00035371 </v>
   <v>       0.00271535       0.00022909      -0.00022686 </v>
   <v>      -0.00101737      -0.00501112      -0.00023069 </v>
   <v>       0.00237189      -0.00313279       0.00004249 </v>
   <v>      -0.00138948      -0.00094647      -0.00014905 </v>
   <v>       0.01746543       0.00556733      -0.00363667 </v>
   <v>      -0.01678520       0.00531409       0.00412662 </v>
   <v>      -0.01242249       0.01355519      -0.00609863 </v>
   <v>       0.01319008       0.01497990       0.00619130 </v>
   <v>      -0.00292630      -0.01866447      -0.00706592 </v>
   <v>       0.00230873      -0.01778825       0.00687559 </v>
   <v>      -0.01309790       0.01401169      -0.00860338 </v>
   <v>       0.01191529       0.01285319       0.00915193 </v>
   <v>      -0.00193707      -0.01740196       0.00195425 </v>
   <v>       0.00201568      -0.01677126      -0.00154643 </v>
   <v>       0.01756128       0.00543166      -0.00609848 </v>
   <v>      -0.01536676       0.00550396      -0.00258855 </v>
   <v>      -0.00286138      -0.01764097      -0.00732867 </v>
   <v>       0.00347685      -0.01926844       0.00731487 </v>
   <v>       0.01626104       0.00529943       0.00551839 </v>
   <v>      -0.01910463       0.00570192       0.00288297 </v>
   <v>      -0.01153895       0.01244429       0.00069493 </v>
   <v>       0.01181978       0.01229181      -0.00085783 </v>
  </varray>
  <varray name="stress" >
   <v>       0.09251932       0.00019143      -0.01273680 </v>
   <v>       0.00019154       0.09879751       0.00028869 </v>
   <v>      -0.01273676       0.00028887      -1.07533693 </v>
  </varray>
  <energy>
   <i name="e_fr_energy">   -191.04729439 </i>
   <i name="e_wo_entrp">   -190.97008778 </i>
   <i name="e_0_energy">     -0.15441323 </i>
  </energy>
  <time name="totalsc">  240.63  241.26</time>
 </calculation>
 <calculation>
  <scstep>
   <time name="dav">   23.80   23.85</time>
   <time name="total">   24.39   24.45</time>
   <energy>
    <i name="alphaZ">     90.72516097 </i>
    <i name="ewald">  44893.48350691 </i>
    <i name="hartreedc"> -50906.49379143 </i>
    <i name="XCdc">   -233.32864290 </i>
    <i name="pawpsdc">   4079.05656558 </i>
    <i name="pawaedc">  -3494.88512698 </i>
    <i name="eentropy">     -0.15501945 </i>
    <i name="bandstr">  -1380.89277440 </i>
    <i name="atom">   6761.44252427 </i>
    <i name="e_fr_energy">   -191.04759743 </i>
    <i name="e_wo_entrp">   -190.89257798 </i>
    <i name="e_0_energy">   -190.97008771 </i>
   </energy>
  </scstep>
  <scstep>
   <time name="dav">   30.67   30.75</time>
   <time name="total">   31.27   31.35</time>
   <energy>
    <i name="e_fr_energy">   -191.04813582 </i>
    <i name="e_wo_entrp">   -190.89377771 </i>
    <i name="e_0_energy">   -190.97095677 </i>
   </energy>
  </scstep>
  <scstep>
   <time name="dav">   25.96   26.02</time>
   <time name="total">   26.56   26.63</time>
   <energy>
    <i name="e_fr_energy">   -191.04758516 </i>
    <i name="e_wo_entrp">   -190.89279290 </i>
    <i name="e_0_energy">   -190.97018903 </i>
   </energy>
  </scstep>
  <scstep>
   <time name="dav">   18.43   18.48</time>
   <time name="total">   18.47   18.52</time>
   <energy>
    <i name="alphaZ">     90.72516097 </i>
    <i name="ewald">  44893.48350691 </i>
    <i name="hartreedc"> -50907.18997249 </i>
    <i name="XCdc">   -233.31194990 </i>
    <i name="pawpsdc">   4079.05340453 </i>
    <i name="pawaedc">  -3494.87985258 </i>
    <i name="eentropy">     -0.15483523 </i>
    <i name="bandstr">  -1380.21560311 </i>
    <i name="atom">   6761.44252427 </i>
    <i name="e_fr_energy">   -191.04761663 </i>
    <i name="e_wo_entrp">   -190.89278139 </i>
    <i name="e_0_energy">   -190.97019901 </i>
   </energy>
  </scstep>
  <structure>
   <crystal>
    <varray name="basis" >
     <v>       8.25316048       4.76527759       0.00000000 </v>
     <v>      -8.25315799       4.76527392       0.00000000 </v>
     <v>       0.00000000       0.00000000      30.00000000 </v>
    </varray>
    <i name="volume">   2359.71477637 </i>
    <varray name="rec_basis" >
     <v>       0.06058284       0.10492571       0.00000000 </v>
     <v>      -0.06058288       0.10492574       0.00000000 </v>
     <v>       0.00000000       0.00000000       0.03333333 </v>
    </varray>
   </crystal>
   <varray name="positions" >
    <v>       0.33336026       0.00004180      -0.00000382 </v>
    <v>       0.66670861       0.66670603       0.00000025 </v>
    <v>       1.00004096       0.33336499       0.00000347 </v>
    <v>       0.33324968       0.33333902       0.00000042 </v>
    <v>      -0.00004515       0.66656700      -0.00000007 </v>
    <v>       0.66675227       0.00004910      -0.00000058 </v>
    <v>      -0.00021437      -0.00013106       0.00000017 </v>
    <v>       0.33308099       0.66638136      -0.00000056 </v>
    <v>       0.66655969       0.33317534       0.00000028 </v>
    <v>       0.10707547       0.22423376       0.94838544 </v>
    <v>       0.22422602       0.10709056       0.05159993 </v>
    <v>       0.10891262       0.54941600       0.94836458 </v>
    <v>       0.21608182       0.44224703       0.05164092 </v>
    <v>       0.11709358       0.89278731       0.94840180 </v>
    <v>       0.22612563       0.78376755       0.05160319 </v>
    <v>       0.44226056       0.21611323       0.94838669 </v>
    <v>       0.54944097       0.10892488       0.05161706 </v>
    <v>       0.45042524       0.55945620       0.94837895 </v>
    <v>       0.55944879       0.45041757       0.05160991 </v>
    <v>       0.44042819       0.89088966       0.94841215 </v>
    <v>       0.55754722       0.77376394       0.05160211 </v>
    <v>       0.78379185       0.22613964       0.94838231 </v>
    <v>       0.89280873       0.11712536       0.05162384 </v>
    <v>       0.77375862       0.55755237       0.94838348 </v>
    <v>       0.89090123       0.44040765       0.05161762 </v>
    <v>       0.77560383       0.88278468       0.94836312 </v>
    <v>       0.88279112       0.77560349       0.05162722 </v>
   </varray>
  </structure>
  <varray name="forces" >
   <v>      -0.00048404       0.00050599       0.00019161 </v>
   <v>       0.00051100       0.00070802       0.00011127 </v>
   <v>      -0.00011601       0.00131166      -0.00011128 </v>
   <v>      -0.00119282      -0.00588735      -0.00037421 </v>
   <v>       0.00680187       0.00392348       0.00029427 </v>
   <v>      -0.00548897       0.00622360       0.00019807 </v>
   <v>      -0.00070615       0.00377966       0.00003137 </v>
   <v>      -0.00550274      -0.00868400      -0.00000521 </v>
   <v>       0.00616982      -0.00515948       0.00005403 </v>
   <v>       0.00799199       0.00157206       0.00192350 </v>
   <v>      -0.00888133       0.00158471      -0.00035351 </v>
   <v>      -0.00469143       0.00647737      -0.00061882 </v>
   <v>       0.00504027       0.00701898      -0.00012621 </v>
   <v>      -0.00220526      -0.00849039       0.00018776 </v>
   <v>       0.00209733      -0.00840093       0.00110105 </v>
   <v>      -0.00548023       0.00746010      -0.00055023 </v>
   <v>       0.00525153       0.00722080       0.00245978 </v>
   <v>      -0.00289966      -0.01046114       0.00100473 </v>
[...]
      <set comment="kpoint 31">
       <r>  -17.4915    1.0000 </r>
       <r>  -17.2942    1.0000 </r>
       <r>  -16.9319    1.0000 </r>
       <r>  -16.4922    1.0000 </r>
       <r>  -16.4363    1.0000 </r>
       <r>  -16.4229    1.0000 </r>
       <r>  -16.3149    1.0000 </r>
       <r>  -16.0686    1.0000 </r>
       <r>  -16.0226    1.0000 </r>
       <r>  -15.9982    1.0000 </r>
       <r>  -15.9372    1.0000 </r>
       <r>  -15.9215    1.0000 </r>
       <r>  -15.8155    1.0000 </r>
       <r>  -15.7966    1.0000 </r>
       <r>  -15.7008    1.0000 </r>
       <r>  -15.5645    1.0000 </r>
       <r>  -15.5018    1.0000 </r>
       <r>  -15.4799    1.0000 </r>
       <r>   -9.7434    1.0000 </r>
       <r>   -9.4005    1.0000 </r>
       <r>   -9.3601    1.0000 </r>
       <r>   -8.8960    1.0000 </r>
       <r>   -8.8078    1.0000 </r>
       <r>   -8.7435    1.0000 </r>
       <r>   -8.5652    1.0000 </r>
       <r>   -8.4413    1.0000 </r>
       <r>   -8.3671    1.0000 </r>
       <r>   -8.3434    1.0000 </r>
       <r>   -8.2710    1.0000 </r>
       <r>   -8.2047    1.0000 </r>
       <r>   -8.1866    1.0000 </r>
       <r>   -8.1660    1.0000 </r>
       <r>   -7.8982    1.0000 </r>
       <r>   -7.8349    1.0000 </r>
       <r>   -7.7189    1.0000 </r>
       <r>   -7.5333    1.0000 </r>
       <r>   -7.5313    1.0000 </r>
       <r>   -7.4086    1.0000 </r>
       <r>   -7.2562    1.0000 </r>
       <r>   -7.2553    1.0000 </r>
       <r>   -7.0687    1.0000 </r>
       <r>   -7.0533    1.0000 </r>
       <r>   -6.9481    1.0000 </r>
       <r>   -6.9436    1.0000 </r>
       <r>   -6.8314    1.0000 </r>
       <r>   -6.8203    1.0000 </r>
       <r>   -6.7357    1.0000 </r>
       <r>   -6.6776    1.0000 </r>
       <r>   -6.6641    1.0000 </r>
       <r>   -6.3930    1.0000 </r>
       <r>   -6.3836    1.0000 </r>
       <r>   -6.3760    1.0000 </r>
       <r>   -6.2380    1.0000 </r>
       <r>   -6.2282    1.0000 </r>
       <r>   -6.1205    1.0000 </r>
       <r>   -5.8942    1.0000 </r>
       <r>   -5.8769    1.0000 </r>
       <r>   -5.8395    1.0000 </r>
       <r>   -5.8100    1.0000 </r>
       <r>   -5.7714    1.0000 </r>
       <r>   -5.7307    1.0000 </r>
       <r>   -5.7173    1.0000 </r>
       <r>   -5.6579    1.0000 </r>
       <r>   -5.6008    1.0000 </r>
       <r>   -5.3109    1.0000 </r>
       <r>   -5.1532    1.0000 </r>
       <r>   -5.0224    1.0000 </r>
       <r>   -4.9779    1.0000 </r>
       <r>   -4.9110    1.0000 </r>
       <r>   -4.7502    1.0000 </r>
       <r>   -4.5655    1.0000 </r>
       <r>   -4.3957    1.0000 </r>
       <r>   -4.1302    1.0000 </r>
       <r>   -3.6354    1.0000 </r>
       <r>   -3.5206    0.9999 </r>
       <r>   -3.4799    0.9998 </r>
       <r>   -3.4453    0.9995 </r>
       <r>   -3.2272    0.9575 </r>
       <r>   -3.1624    0.8970 </r>
       <r>   -3.1407    0.8667 </r>
       <r>   -2.8806    0.2333 </r>
       <r>   -2.5932    0.0029 </r>
       <r>   -2.4630    0.0001 </r>
       <r>   -2.3851    0.0000 </r>
       <r>   -2.3358    0.0000 </r>
       <r>   -2.3166    0.0000 </r>
       <r>   -2.2812    0.0000 </r>
       <r>   -2.2268    0.0000 </r>
       <r>   -2.0860    0.0000 </r>
       <r>   -1.8679    0.0000 </r>
       <r>   -1.7715    0.0000 </r>
       <r>   -1.7633    0.0000 </r>
       <r>   -1.6832    0.0000 </r>
       <r>   -1.2785    0.0000 </r>
       <r>   -1.2435    0.0000 </r>
       <r>   -1.2186    0.0000 </r>
       <r>   -1.2093    0.0000 </r>
       <r>   -1.1704    0.0000 </r>
       <r>   -1.0638    0.0000 </r>
       <r>   -0.7527    0.0000 </r>
       <r>   -0.6508    0.0000 </r>
       <r>   -0.6448    0.0000 </r>
       <r>   -0.5222    0.0000 </r>
       <r>   -0.4931    0.0000 </r>
       <r>   -0.3035    0.0000 </r>
       <r>   -0.2165    0.0000 </r>
       <r>   -0.1323    0.0000 </r>
       <r>   -0.1298    0.0000 </r>
       <r>    0.2384    0.0000 </r>
       <r>    0.2682    0.0000 </r>
       <r>    0.4982    0.0000 </r>
       <r>    1.1970    0.0000 </r>
       <r>    1.2455    0.0000 </r>
       <r>    1.2863    0.0000 </r>
       <r>    1.4335    0.0000 </r>
       <r>    1.4690    0.0000 </r>
       <r>    1.5151    0.0000 </r>
       <r>    2.1564    0.0000 </r>
       <r>    2.2696    0.0000 </r>
       <r>    2.4192    0.0000 </r>
      </set>
      <set comment="kpoint 32">
       <r>  -17.5168    1.0000 </r>
       <r>  -17.1300    1.0000 </r>
       <r>  -17.1290    1.0000 </r>
       <r>  -16.5014    1.0000 </r>
       <r>  -16.3720    1.0000 </r>
       <r>  -16.3707    1.0000 </r>
       <r>  -16.2149    1.0000 </r>
       <r>  -16.2139    1.0000 </r>
       <r>  -15.9863    1.0000 </r>
       <r>  -15.9854    1.0000 </r>
       <r>  -15.9215    1.0000 </r>
       <r>  -15.9209    1.0000 </r>
       <r>  -15.9135    1.0000 </r>
       <r>  -15.7938    1.0000 </r>
       <r>  -15.7338    1.0000 </r>
       <r>  -15.5144    1.0000 </r>
       <r>  -15.5141    1.0000 </r>
       <r>  -15.4582    1.0000 </r>
       <r>   -9.6070    1.0000 </r>
       <r>   -9.6068    1.0000 </r>
       <r>   -9.4281    1.0000 </r>
       <r>   -8.8721    1.0000 </r>
       <r>   -8.6699    1.0000 </r>
       <r>   -8.5054    1.0000 </r>
       <r>   -8.5041    1.0000 </r>
       <r>   -8.4072    1.0000 </r>
       <r>   -8.4065    1.0000 </r>
       <r>   -8.3930    1.0000 </r>
       <r>   -8.2966    1.0000 </r>
       <r>   -8.2956    1.0000 </r>
       <r>   -8.2476    1.0000 </r>
       <r>   -8.1445    1.0000 </r>
       <r>   -8.1432    1.0000 </r>
       <r>   -7.7878    1.0000 </r>
       <r>   -7.7859    1.0000 </r>
       <r>   -7.4482    1.0000 </r>
       <r>   -7.3713    1.0000 </r>
       <r>   -7.3708    1.0000 </r>
       <r>   -7.3166    1.0000 </r>
       <r>   -7.2105    1.0000 </r>
       <r>   -7.2099    1.0000 </r>
       <r>   -7.0592    1.0000 </r>
       <r>   -6.9859    1.0000 </r>
       <r>   -6.8907    1.0000 </r>
       <r>   -6.8902    1.0000 </r>
       <r>   -6.8118    1.0000 </r>
       <r>   -6.6995    1.0000 </r>
       <r>   -6.6441    1.0000 </r>
       <r>   -6.6429    1.0000 </r>
       <r>   -6.4572    1.0000 </r>
       <r>   -6.4555    1.0000 </r>
       <r>   -6.4017    1.0000 </r>
       <r>   -6.2651    1.0000 </r>
       <r>   -6.2643    1.0000 </r>
       <r>   -6.1195    1.0000 </r>
       <r>   -5.9121    1.0000 </r>
       <r>   -5.9114    1.0000 </r>
       <r>   -5.8422    1.0000 </r>
       <r>   -5.7923    1.0000 </r>
       <r>   -5.7154    1.0000 </r>
       <r>   -5.7150    1.0000 </r>
       <r>   -5.4037    1.0000 </r>
       <r>   -5.4034    1.0000 </r>
       <r>   -5.3581    1.0000 </r>
       <r>   -5.3574    1.0000 </r>
       <r>   -5.2875    1.0000 </r>
       <r>   -5.2858    1.0000 </r>
       <r>   -5.1794    1.0000 </r>
       <r>   -4.9881    1.0000 </r>
       <r>   -4.6763    1.0000 </r>
       <r>   -4.6751    1.0000 </r>
       <r>   -4.4345    1.0000 </r>
       <r>   -3.8104    1.0000 </r>
       <r>   -3.8091    1.0000 </r>
       <r>   -3.5383    1.0000 </r>
       <r>   -3.5368    1.0000 </r>
       <r>   -3.4559    0.9996 </r>
       <r>   -3.2449    0.9677 </r>
       <r>   -3.1327    0.8542 </r>
       <r>   -3.1314    0.8521 </r>
       <r>   -2.6501    0.0092 </r>
       <r>   -2.5247    0.0006 </r>
       <r>   -2.4779    0.0002 </r>
       <r>   -2.4768    0.0002 </r>
       <r>   -2.3598    0.0000 </r>
       <r>   -2.3583    0.0000 </r>
       <r>   -2.3405    0.0000 </r>
       <r>   -2.3074    0.0000 </r>
       <r>   -1.9836    0.0000 </r>
       <r>   -1.9820    0.0000 </r>
       <r>   -1.7091    0.0000 </r>
       <r>   -1.7077    0.0000 </r>
       <r>   -1.7024    0.0000 </r>
       <r>   -1.3111    0.0000 </r>
       <r>   -1.2565    0.0000 </r>
       <r>   -1.2101    0.0000 </r>
       <r>   -1.2077    0.0000 </r>
       <r>   -1.1228    0.0000 </r>
       <r>   -1.1218    0.0000 </r>
       <r>   -0.7006    0.0000 </r>
       <r>   -0.6989    0.0000 </r>
       <r>   -0.6826    0.0000 </r>
       <r>   -0.5054    0.0000 </r>
       <r>   -0.4092    0.0000 </r>
       <r>   -0.4079    0.0000 </r>
       <r>   -0.1018    0.0000 </r>
       <r>   -0.1010    0.0000 </r>
       <r>   -0.0050    0.0000 </r>
       <r>    0.1369    0.0000 </r>
       <r>    0.3296    0.0000 </r>
       <r>    0.3308    0.0000 </r>
       <r>    1.2332    0.0000 </r>
       <r>    1.2343    0.0000 </r>
       <r>    1.3430    0.0000 </r>
       <r>    1.3888    0.0000 </r>
       <r>    1.4556    0.0000 </r>
       <r>    1.4562    0.0000 </r>
       <r>    2.1233    0.0000 </r>
       <r>    2.2339    0.0000 </r>
       <r>    2.6423    0.0000 </r>
      </set>
      <set comment="kpoint 33">
       <r>  -17.4914    1.0000 </r>
       <r>  -17.2941    1.0000 </r>
       <r>  -16.9320    1.0000 </r>
       <r>  -16.4922    1.0000 </r>
       <r>  -16.4368    1.0000 </r>
       <r>  -16.4231    1.0000 </r>
       <r>  -16.3148    1.0000 </r>
       <r>  -16.0675    1.0000 </r>
       <r>  -16.0220    1.0000 </r>
       <r>  -15.9986    1.0000 </r>
       <r>  -15.9365    1.0000 </r>
       <r>  -15.9225    1.0000 </r>
       <r>  -15.8164    1.0000 </r>
       <r>  -15.7966    1.0000 </r>
       <r>  -15.7006    1.0000 </r>
       <r>  -15.5646    1.0000 </r>
       <r>  -15.5018    1.0000 </r>
       <r>  -15.4796    1.0000 </r>
       <r>   -9.7435    1.0000 </r>
       <r>   -9.4005    1.0000 </r>
       <r>   -9.3601    1.0000 </r>
       <r>   -8.8960    1.0000 </r>
       <r>   -8.8082    1.0000 </r>
       <r>   -8.7431    1.0000 </r>
       <r>   -8.5648    1.0000 </r>
       <r>   -8.4395    1.0000 </r>
       <r>   -8.3675    1.0000 </r>
       <r>   -8.3440    1.0000 </r>
       <r>   -8.2713    1.0000 </r>
       <r>   -8.2057    1.0000 </r>
       <r>   -8.1870    1.0000 </r>
       <r>   -8.1662    1.0000 </r>
       <r>   -7.8976    1.0000 </r>
       <r>   -7.8370    1.0000 </r>
       <r>   -7.7174    1.0000 </r>
       <r>   -7.5323    1.0000 </r>
       <r>   -7.5318    1.0000 </r>
       <r>   -7.4078    1.0000 </r>
       <r>   -7.2563    1.0000 </r>
       <r>   -7.2555    1.0000 </r>
       <r>   -7.0687    1.0000 </r>
       <r>   -7.0531    1.0000 </r>
       <r>   -6.9488    1.0000 </r>
       <r>   -6.9437    1.0000 </r>
       <r>   -6.8314    1.0000 </r>
       <r>   -6.8207    1.0000 </r>
       <r>   -6.7364    1.0000 </r>
       <r>   -6.6776    1.0000 </r>
       <r>   -6.6646    1.0000 </r>
       <r>   -6.3931    1.0000 </r>
       <r>   -6.3829    1.0000 </r>
       <r>   -6.3758    1.0000 </r>
       <r>   -6.2385    1.0000 </r>
       <r>   -6.2281    1.0000 </r>
       <r>   -6.1205    1.0000 </r>
       <r>   -5.8946    1.0000 </r>
       <r>   -5.8771    1.0000 </r>
       <r>   -5.8392    1.0000 </r>
       <r>   -5.8097    1.0000 </r>
       <r>   -5.7714    1.0000 </r>
       <r>   -5.7298    1.0000 </r>
       <r>   -5.7176    1.0000 </r>
       <r>   -5.6575    1.0000 </r>
       <r>   -5.6011    1.0000 </r>
       <r>   -5.3106    1.0000 </r>
       <r>   -5.1523    1.0000 </r>
       <r>   -5.0221    1.0000 </r>
       <r>   -4.9776    1.0000 </r>
       <r>   -4.9109    1.0000 </r>
       <r>   -4.7511    1.0000 </r>
       <r>   -4.5657    1.0000 </r>
       <r>   -4.3963    1.0000 </r>
       <r>   -4.1297    1.0000 </r>
       <r>   -3.6346    1.0000 </r>
       <r>   -3.5199    0.9999 </r>
       <r>   -3.4802    0.9998 </r>
       <r>   -3.4469    0.9995 </r>
       <r>   -3.2272    0.9575 </r>
       <r>   -3.1612    0.8955 </r>
       <r>   -3.1410    0.8671 </r>
       <r>   -2.8815    0.2351 </r>
       <r>   -2.5945    0.0030 </r>
       <r>   -2.4622    0.0001 </r>
       <r>   -2.3842    0.0000 </r>
       <r>   -2.3348    0.0000 </r>
       <r>   -2.3161    0.0000 </r>
       <r>   -2.2813    0.0000 </r>
       <r>   -2.2269    0.0000 </r>
       <r>   -2.0863    0.0000 </r>
       <r>   -1.8662    0.0000 </r>
       <r>   -1.7736    0.0000 </r>
       <r>   -1.7655    0.0000 </r>
       <r>   -1.6826    0.0000 </r>
       <r>   -1.2776    0.0000 </r>
       <r>   -1.2430    0.0000 </r>
       <r>   -1.2172    0.0000 </r>
       <r>   -1.2122    0.0000 </r>
       <r>   -1.1699    0.0000 </r>
       <r>   -1.0633    0.0000 </r>
       <r>   -0.7530    0.0000 </r>
       <r>   -0.6512    0.0000 </r>
       <r>   -0.6445    0.0000 </r>
       <r>   -0.5215    0.0000 </r>
       <r>   -0.4925    0.0000 </r>
       <r>   -0.3040    0.0000 </r>
       <r>   -0.2170    0.0000 </r>
       <r>   -0.1332    0.0000 </r>
       <r>   -0.1308    0.0000 </r>
       <r>    0.2387    0.0000 </r>
       <r>    0.2682    0.0000 </r>
       <r>    0.4992    0.0000 </r>
       <r>    1.1971    0.0000 </r>
       <r>    1.2437    0.0000 </r>
       <r>    1.2842    0.0000 </r>
       <r>    1.4342    0.0000 </r>
       <r>    1.4711    0.0000 </r>
       <r>    1.5168    0.0000 </r>
       <r>    2.1564    0.0000 </r>
       <r>    2.2697    0.0000 </r>
       <r>    2.4193    0.0000 </r>
      </set>
      <set comment="kpoint 34">
       <r>  -17.4168    1.0000 </r>
       <r>  -17.4159    1.0000 </r>
       <r>  -16.7665    1.0000 </r>
       <r>  -16.6123    1.0000 </r>
       <r>  -16.4659    1.0000 </r>
       <r>  -16.4647    1.0000 </r>
       <r>  -16.2914    1.0000 </r>
       <r>  -16.0329    1.0000 </r>
       <r>  -16.0299    1.0000 </r>
       <r>  -15.9898    1.0000 </r>
       <r>  -15.9893    1.0000 </r>
       <r>  -15.8609    1.0000 </r>
       <r>  -15.8600    1.0000 </r>
       <r>  -15.6672    1.0000 </r>
       <r>  -15.6663    1.0000 </r>
       <r>  -15.5973    1.0000 </r>
       <r>  -15.5972    1.0000 </r>
       <r>  -15.4674    1.0000 </r>
       <r>   -9.7909    1.0000 </r>
       <r>   -9.2261    1.0000 </r>
       <r>   -9.2259    1.0000 </r>
       <r>   -9.0327    1.0000 </r>
       <r>   -9.0324    1.0000 </r>
       <r>   -8.7025    1.0000 </r>
       <r>   -8.7018    1.0000 </r>
       <r>   -8.4346    1.0000 </r>
       <r>   -8.3386    1.0000 </r>
       <r>   -8.3382    1.0000 </r>
       <r>   -8.2580    1.0000 </r>
       <r>   -8.2574    1.0000 </r>
       <r>   -8.1492    1.0000 </r>
       <r>   -8.0213    1.0000 </r>
       <r>   -7.8632    1.0000 </r>
       <r>   -7.6894    1.0000 </r>
       <r>   -7.6352    1.0000 </r>
       <r>   -7.6329    1.0000 </r>
       <r>   -7.6167    1.0000 </r>
       <r>   -7.4939    1.0000 </r>
       <r>   -7.2085    1.0000 </r>
       <r>   -7.2074    1.0000 </r>
       <r>   -7.1758    1.0000 </r>
       <r>   -7.0762    1.0000 </r>
       <r>   -7.0753    1.0000 </r>
       <r>   -6.8466    1.0000 </r>
       <r>   -6.8461    1.0000 </r>
       <r>   -6.7215    1.0000 </r>
       <r>   -6.7200    1.0000 </r>
       <r>   -6.6811    1.0000 </r>
       <r>   -6.4613    1.0000 </r>
       <r>   -6.4607    1.0000 </r>
       <r>   -6.3348    1.0000 </r>
       <r>   -6.3341    1.0000 </r>
       <r>   -6.2602    1.0000 </r>
       <r>   -6.2139    1.0000 </r>
       <r>   -6.0967    1.0000 </r>
       <r>   -6.0952    1.0000 </r>
       <r>   -5.9531    1.0000 </r>
       <r>   -5.8117    1.0000 </r>
       <r>   -5.8062    1.0000 </r>
       <r>   -5.8060    1.0000 </r>
       <r>   -5.7163    1.0000 </r>
       <r>   -5.7155    1.0000 </r>
       <r>   -5.7144    1.0000 </r>
       <r>   -5.5956    1.0000 </r>
       <r>   -5.5937    1.0000 </r>
       <r>   -5.0058    1.0000 </r>
       <r>   -4.9601    1.0000 </r>
       <r>   -4.9592    1.0000 </r>
       <r>   -4.8237    1.0000 </r>
       <r>   -4.5671    1.0000 </r>
       <r>   -4.4255    1.0000 </r>
       <r>   -4.4150    1.0000 </r>
       <r>   -4.4138    1.0000 </r>
       <r>   -3.6243    1.0000 </r>
       <r>   -3.6225    1.0000 </r>
       <r>   -3.3984    0.9983 </r>
       <r>   -3.1951    0.9326 </r>
       <r>   -3.1917    0.9294 </r>
       <r>   -3.1876    0.9255 </r>
       <r>   -3.1722    0.9088 </r>
       <r>   -3.1697    0.9059 </r>
       <r>   -2.6406    0.0077 </r>
       <r>   -2.5055    0.0004 </r>
       <r>   -2.3360    0.0000 </r>
       <r>   -2.3339    0.0000 </r>
       <r>   -2.2250    0.0000 </r>
       <r>   -2.2216    0.0000 </r>
       <r>   -2.1412    0.0000 </r>
       <r>   -2.1394    0.0000 </r>
       <r>   -1.8321    0.0000 </r>
       <r>   -1.8289    0.0000 </r>
       <r>   -1.8139    0.0000 </r>
       <r>   -1.6779    0.0000 </r>
       <r>   -1.2436    0.0000 </r>
       <r>   -1.2420    0.0000 </r>
       <r>   -1.2179    0.0000 </r>
       <r>   -1.2030    0.0000 </r>
       <r>   -1.2015    0.0000 </r>
       <r>   -1.0362    0.0000 </r>
       <r>   -0.7653    0.0000 </r>
       <r>   -0.6348    0.0000 </r>
       <r>   -0.6326    0.0000 </r>
       <r>   -0.5011    0.0000 </r>
       <r>   -0.4994    0.0000 </r>
       <r>   -0.3304    0.0000 </r>
       <r>   -0.2301    0.0000 </r>
       <r>   -0.2290    0.0000 </r>
       <r>   -0.2099    0.0000 </r>
       <r>    0.2964    0.0000 </r>
       <r>    0.2968    0.0000 </r>
       <r>    0.5705    0.0000 </r>
       <r>    1.1752    0.0000 </r>
       <r>    1.2509    0.0000 </r>
       <r>    1.2516    0.0000 </r>
       <r>    1.4406    0.0000 </r>
       <r>    1.5330    0.0000 </r>
       <r>    1.5346    0.0000 </r>
       <r>    2.2555    0.0000 </r>
       <r>    2.2558    0.0000 </r>
       <r>    2.3757    0.0000 </r>
      </set>
     </set>
    </set>
   </array>
  </eigenvalues>
  <separator name="orbital magnetization" >
   <v name="MAGDIPOLOUT">      0.00000000      0.00000000      0.00000000</v>
  </separator>
 </calculation>
 <structure name="finalpos" >
  <crystal>
   <varray name="basis" >
    <v>       8.25316048       4.76527759       0.00000000 </v>
    <v>      -8.25315799       4.76527392       0.00000000 </v>
    <v>       0.00000000       0.00000000      30.00000000 </v>
   </varray>
   <i name="volume">   2359.71477637 </i>
   <varray name="rec_basis" >
    <v>       0.06058284       0.10492571       0.00000000 </v>
    <v>      -0.06058288       0.10492574       0.00000000 </v>
    <v>       0.00000000       0.00000000       0.03333333 </v>
   </varray>
  </crystal>
  <varray name="positions" >
   <v>       0.33336026       0.00004180      -0.00000382 </v>
   <v>       0.66670861       0.66670603       0.00000025 </v>
   <v>       1.00004096       0.33336499       0.00000347 </v>
   <v>       0.33324968       0.33333902       0.00000042 </v>
   <v>      -0.00004515       0.66656700      -0.00000007 </v>
   <v>       0.66675227       0.00004910      -0.00000058 </v>
   <v>      -0.00021437      -0.00013106       0.00000017 </v>
   <v>       0.33308099       0.66638136      -0.00000056 </v>
   <v>       0.66655969       0.33317534       0.00000028 </v>
   <v>       0.10707547       0.22423376       0.94838544 </v>
   <v>       0.22422602       0.10709056       0.05159993 </v>
   <v>       0.10891262       0.54941600       0.94836458 </v>
   <v>       0.21608182       0.44224703       0.05164092 </v>
   <v>       0.11709358       0.89278731       0.94840180 </v>
   <v>       0.22612563       0.78376755       0.05160319 </v>
   <v>       0.44226056       0.21611323       0.94838669 </v>
   <v>       0.54944097       0.10892488       0.05161706 </v>
   <v>       0.45042524       0.55945620       0.94837895 </v>
   <v>       0.55944879       0.45041757       0.05160991 </v>
   <v>       0.44042819       0.89088966       0.94841215 </v>
   <v>       0.55754722       0.77376394       0.05160211 </v>
   <v>       0.78379185       0.22613964       0.94838231 </v>
   <v>       0.89280873       0.11712536       0.05162384 </v>
   <v>       0.77375862       0.55755237       0.94838348 </v>
   <v>       0.89090123       0.44040765       0.05161762 </v>
   <v>       0.77560383       0.88278468       0.94836312 </v>
   <v>       0.88279112       0.77560349       0.05162722 </v>
  </varray>
 </structure>
</modeling>
