unknown system                          
           1
     8.857337    5.106259    0.000000
    -8.857323    5.106236    0.000000
     0.000000    0.000000   30.000000
   V    Mo   W    S 
   3   3   3  18
Direct configuration=     1
   0.33333334  0.00000000  0.00000000
   0.66666669  0.66666669  0.00000000
   1.00000000  0.33333334  0.00000000
   0.33333334  0.33333334  0.00000000
   0.00000000  0.66666669  0.00000000
   0.66666669  0.00000000  0.00000000
   0.00000000  0.00000000  0.00000000
   0.33333334  0.66666669  0.00000000
   0.66666669  0.33333334  0.00000000
   0.11068511  0.22244981  0.95539999
   0.22244981  0.11068511  0.04460000
   0.11068511  0.55578315  0.95539999
   0.22244981  0.44401845  0.04460000
   0.11068511  0.88911647  0.95539999
   0.22244981  0.77735180  0.04460000
   0.44401845  0.22244981  0.95539999
   0.55578315  0.11068511  0.04460000
   0.44401845  0.55578315  0.95539999
   0.55578315  0.44401845  0.04460000
   0.44401845  0.88911647  0.95539999
   0.55578315  0.77735180  0.04460000
   0.77735180  0.22244981  0.95539999
   0.88911647  0.11068511  0.04460000
   0.77735180  0.55578315  0.95539999
   0.88911647  0.44401845  0.04460000
   0.77735180  0.88911647  0.95539999
   0.88911647  0.77735180  0.04460000
unknown system                          
           1
     8.669644    5.000247    0.000000
    -8.669636    5.000233    0.000000
     0.000000    0.000000   30.000000
   V    Mo   W    S 
   3   3   3  18
Direct configuration=     2
   0.33338591  0.00005983 -0.00000017
   0.66672108  0.66672253  0.00000011
   1.00005385  0.33337992  0.00000003
   0.33326162  0.33329867  0.00000010
  -0.00005722  0.66658996 -0.00000009
   0.66666671 -0.00001718 -0.00000021
  -0.00005184 -0.00001249 -0.00000015
   0.33327326  0.66658947 -0.00000014
   0.66665741  0.33330165  0.00000013
   0.10807096  0.22367589  0.95199760
   0.22365853  0.10808990  0.04800760
   0.10965200  0.55128479  0.95193692
   0.21795083  0.44298699  0.04806448
   0.11517972  0.89150103  0.95191717
   0.22482986  0.78185052  0.04808540
   0.44300625  0.21798836  0.95193306
   0.55132291  0.10967249  0.04806840
   0.44852550  0.55816744  0.95191355
   0.55816957  0.44852315  0.04808326
   0.44142984  0.89033301  0.95199341
   0.55700448  0.77476070  0.04800638
   0.78188505  0.22485033  0.95191931
   0.89151815  0.11521610  0.04808149
   0.77475686  0.55700047  0.95199188
   0.89034826  0.44140654  0.04800284
   0.77634196  0.88465101  0.95193288
   0.88465292  0.77634339  0.04806463
unknown system                          
           1
     8.486269    4.899544    0.000000
    -8.486272    4.899551    0.000000
     0.000000    0.000000   30.000000
   V    Mo   W    S 
   3   3   3  18
Direct configuration=     3
   0.33338531  0.00005912 -0.00000057
   0.66672025  0.66672184  0.00000079
   1.00005308  0.33337911 -0.00000021
   0.33327272  0.33330976  0.00000018
  -0.00004653  0.66660070 -0.00000006
   0.66667726 -0.00000665 -0.00000025
  -0.00006037 -0.00002117 -0.00000009
   0.33326523  0.66658128 -0.00000027
   0.66664866  0.33329320  0.00000025
   0.10789419  0.22346889  0.95199753
   0.22345340  0.10791115  0.04800557
   0.10982856  0.55128358  0.95194482
   0.21794975  0.44316314  0.04805696
   0.11518011  0.89171637  0.95193200
   0.22504592  0.78185015  0.04807052
   0.44318004  0.21798308  0.95194308
   0.55131739  0.10984629  0.04805865
   0.44852467  0.55838301  0.95192768
   0.55838481  0.44852255  0.04806856
   0.44125008  0.89012630  0.95199641
   0.55679744  0.77458082  0.04800404
   0.78188119  0.22506419  0.95193202
   0.89173178  0.11521274  0.04806931
   0.77457736  0.55679407  0.95199350
   0.89014000  0.44122917  0.04800272
   0.77651502  0.88464543  0.95194147
   0.88464714  0.77651633  0.04805530
unknown system                          
           1
     8.267500    4.773006    0.000000
    -8.267498    4.773002    0.000000
     0.000000    0.000000   30.000000
   V    Mo   W    S 
   3   3   3  18
Direct configuration=     4
   0.33337404  0.00004697  0.00000175
   0.66670799  0.66671109  0.00000186
   1.00004007  0.33336500 -0.00000362
   0.33336890  0.33341147  0.00000035
  -0.00010343  0.66661758 -0.00000005
   0.66670468 -0.00005806 -0.00000038
  -0.00017182 -0.00012698  0.00000010
   0.33329592  0.66653983 -0.00000052
   0.66661459  0.33332559  0.00000035
   0.10727197  0.22381068  0.95053718
   0.22380046  0.10728011  0.04945886
   0.10939505  0.55021073  0.95051150
   0.21687216  0.44272668  0.04949703
   0.11626634  0.89248014  0.95051646
   0.22581165  0.78293264  0.04948097
   0.44273634  0.21689447  0.95051139
   0.55022880  0.10940292  0.04948626
   0.44966296  0.55917629  0.95051917
   0.55917518  0.44965881  0.04947486
   0.44061544  0.89046944  0.95054064
   0.55716530  0.77391828  0.04945184
   0.78295093  0.22582090  0.95051418
   0.89249050  0.11628872  0.04949425
   0.77391406  0.55716520  0.95054334
   0.89047987  0.44060200  0.04946817
   0.77604310  0.88349908  0.95051496
   0.88350341  0.77604488  0.04947900
unknown system                          
           1
     8.250694    4.763784    0.000000
    -8.250696    4.763788    0.000000
     0.000000    0.000000   30.000000
   V    Mo   W    S 
   3   3   3  18
Direct configuration=     5
   0.33333785  0.00002958  0.00000132
   0.66671245  0.66669176  0.00000401
   1.00004980  0.33338146 -0.00000537
   0.33325693  0.33338337 -0.00000160
  -0.00008225  0.66653413  0.00000084
   0.66678989  0.00004617  0.00000042
  -0.00020624 -0.00011023  0.00000011
   0.33309679  0.66637208 -0.00000052
   0.66663075  0.33325901  0.00000003
   0.10684096  0.22428231  0.94855531
   0.22426675  0.10687129  0.05144570
   0.10884332  0.54912958  0.94854573
   0.21578574  0.44217142  0.05146874
   0.11735396  0.89302315  0.94855719
   0.22635700  0.78401710  0.05143699
   0.44219622  0.21583615  0.94854700
   0.54917983  0.10886479  0.05144766
   0.45071617  0.55970761  0.94852598
   0.55969708  0.45070721  0.05146540
   0.44020300  0.89093088  0.94855821
   0.55760571  0.77352497  0.05146535
   0.78405827  0.22637437  0.94856274
   0.89305073  0.11740454  0.05145185
   0.77351758  0.55761291  0.94851712
   0.89095509  0.44016555  0.05145840
   0.77551905  0.88248155  0.94851157
   0.88248202  0.77552175  0.05147971
unknown system                          
           1
     8.253160    4.765278    0.000000
    -8.253158    4.765274    0.000000
     0.000000    0.000000   30.000000
   V    Mo   W    S 
   3   3   3  18
Direct configuration=     6
   0.33335730  0.00003845 -0.00000813
   0.66670561  0.66670237  0.00000284
   1.00003848  0.33336298  0.00000559
   0.33323821  0.33332331 -0.00000002
  -0.00003425  0.66656837  0.00000044
   0.66674407  0.00005556 -0.00000025
  -0.00018890 -0.00011090  0.00000050
   0.33308835  0.66640151 -0.00000062
   0.66656730  0.33317528  0.00000050
   0.10700281  0.22425721  0.94837983
   0.22424887  0.10702085  0.05160473
   0.10888036  0.54931658  0.94836257
   0.21597383  0.44221026  0.05164276
   0.11719150  0.89286659  0.94840141
   0.22620256  0.78385984  0.05160391
   0.44222798  0.21600993  0.94838850
   0.54934608  0.10889447  0.05161450
   0.45051446  0.55953220  0.94836531
   0.55952165  0.45050408  0.05162293
   0.44035589  0.89091400  0.94841030
   0.55756524  0.77369727  0.05161672
   0.78388489  0.22621442  0.94838218
   0.89288935  0.11722750  0.05162397
   0.77369051  0.55757372  0.94836456
   0.89092841  0.44033003  0.05162430
   0.77557449  0.88269298  0.94835126
   0.88269940  0.77557558  0.05163930
unknown system                          
           1
     8.253160    4.765278    0.000000
    -8.253158    4.765274    0.000000
     0.000000    0.000000   30.000000
   V    Mo   W    S 
   3   3   3  18
Direct configuration=     7
   0.33336026  0.00004180 -0.00000382
   0.66670861  0.66670603  0.00000025
   1.00004096  0.33336499  0.00000347
   0.33324968  0.33333902  0.00000042
  -0.00004515  0.66656700 -0.00000007
   0.66675227  0.00004910 -0.00000058
  -0.00021437 -0.00013106  0.00000017
   0.33308099  0.66638136 -0.00000056
   0.66655969  0.33317534  0.00000028
   0.10707547  0.22423376  0.94838544
   0.22422602  0.10709056  0.05159993
   0.10891262  0.54941600  0.94836458
   0.21608182  0.44224703  0.05164092
   0.11709358  0.89278731  0.94840180
   0.22612563  0.78376755  0.05160319
   0.44226056  0.21611323  0.94838669
   0.54944097  0.10892488  0.05161706
   0.45042524  0.55945620  0.94837895
   0.55944879  0.45041757  0.05160991
   0.44042819  0.89088966  0.94841215
   0.55754722  0.77376394  0.05160211
   0.78379185  0.22613964  0.94838231
   0.89280873  0.11712536  0.05162384
   0.77375862  0.55755237  0.94838348
   0.89090123  0.44040765  0.05161762
   0.77560383  0.88278468  0.94836312
   0.88279112  0.77560349  0.05162722
