   27   27  100    1
  0.9710400E+02  0.1002848E-08  0.1002848E-08  0.3000000E-08  0.5000000E-15
  1.000000000000000E-004
  CAR 
 unknown system                          
    159     34    120
 
  0.0000000E+00  0.0000000E+00  0.0000000E+00  0.1562500E-01
    1      -17.827317   1.000000
    2      -16.766841   1.000000
    3      -16.575057   1.000000
    4      -16.574913   1.000000
    5      -16.496831   1.000000
    6      -16.416197   1.000000
    7      -16.416139   1.000000
    8      -16.407236   1.000000
    9      -16.203248   1.000000
   10      -16.203198   1.000000
   11      -16.058610   1.000000
   12      -15.908037   1.000000
   13      -15.907733   1.000000
   14      -15.604978   1.000000
   15      -15.547478   1.000000
   16      -15.547366   1.000000
   17      -15.245948   1.000000
   18      -15.245638   1.000000
   19       -9.362384   1.000000
   20       -9.151382   1.000000
   21       -8.899339   1.000000
   22       -8.899100   1.000000
   23       -8.755004   1.000000
   24       -8.754771   1.000000
   25       -8.584022   1.000000
   26       -8.583357   1.000000
   27       -8.553707   1.000000
   28       -8.431457   1.000000
   29       -8.431158   1.000000
   30       -8.263436   1.000000
   31       -8.245532   1.000000
   32       -8.245144   1.000000
   33       -8.093784   1.000000
   34       -8.093623   1.000000
   35       -7.723133   1.000000
   36       -7.719713   1.000000
   37       -7.719595   1.000000
   38       -7.526897   1.000000
   39       -7.526460   1.000000
   40       -7.391352   1.000000
   41       -7.226180   1.000000
   42       -7.225946   1.000000
   43       -7.036882   1.000000
   44       -6.897125   1.000000
   45       -6.896627   1.000000
   46       -6.887237   1.000000
   47       -6.718338   1.000000
   48       -6.678838   1.000000
   49       -6.678612   1.000000
   50       -6.528161   1.000000
   51       -6.527797   1.000000
   52       -6.194706   1.000000
   53       -6.182432   1.000000
   54       -6.182026   1.000000
   55       -6.142769   1.000000
   56       -6.026038   1.000000
   57       -5.945017   1.000000
   58       -5.944331   1.000000
   59       -5.818119   1.000000
   60       -5.817977   1.000000
   61       -5.669970   1.000000
   62       -5.319106   1.000000
   63       -5.318735   1.000000
   64       -5.012494   1.000000
   65       -5.012304   1.000000
   66       -4.961125   1.000000
   67       -4.748121   1.000000
   68       -4.747879   1.000000
   69       -4.696431   1.000000
   70       -4.676768   1.000000
   71       -4.651480   1.000000
   72       -4.650617   1.000000
   73       -4.597968   1.000000
   74       -4.387775   1.000000
   75       -4.387019   1.000000
   76       -4.090912   1.000000
   77       -3.805448   0.999967
   78       -3.721384   0.999655
   79       -3.439006   0.918761
   80       -3.150393   0.259782
   81       -3.142706   0.242473
   82       -2.830607   0.001835
   83       -2.829659   0.001796
   84       -2.474969   0.000000
   85       -2.474523   0.000000
   86       -2.407968   0.000000
   87       -2.404564   0.000000
   88       -2.289965   0.000000
   89       -2.205006   0.000000
   90       -2.043642   0.000000
   91       -2.040758   0.000000
   92       -1.538544   0.000000
   93       -1.537538   0.000000
   94       -1.070565   0.000000
   95       -1.037317   0.000000
   96       -1.036452   0.000000
   97       -0.980057   0.000000
   98       -0.868949   0.000000
   99       -0.868205   0.000000
  100       -0.622596   0.000000
  101       -0.619620   0.000000
  102       -0.545569   0.000000
  103       -0.326733   0.000000
  104       -0.323556   0.000000
  105       -0.092979   0.000000
  106       -0.039131   0.000000
  107        0.042310   0.000000
  108        0.042333   0.000000
  109        0.080963   0.000000
  110        0.099359   0.000000
  111        0.101406   0.000000
  112        0.797542   0.000000
  113        0.801064   0.000000
  114        0.801849   0.000000
  115        0.891447   0.000000
  116        1.033385   0.000000
  117        1.034156   0.000000
  118        1.661853   0.000000
  119        1.857517   0.000000
  120        2.186889   0.000000
 
  0.1250000E+00  0.2775558E-16  0.0000000E+00  0.3125000E-01
    1      -17.803713   1.000000
    2      -16.803316   1.000000
    3      -16.621250   1.000000
    4      -16.608261   1.000000
    5      -16.608113   1.000000
    6      -16.387365   1.000000
    7      -16.387214   1.000000
    8      -16.331267   1.000000
    9      -16.190260   1.000000
   10      -16.190172   1.000000
   11      -15.990541   1.000000
   12      -15.896195   1.000000
   13      -15.895889   1.000000
   14      -15.601281   1.000000
   15      -15.564817   1.000000
   16      -15.564695   1.000000
   17      -15.249079   1.000000
   18      -15.248775   1.000000
   19       -9.412127   1.000000
   20       -9.166599   1.000000
   21       -8.992394   1.000000
   22       -8.992160   1.000000
   23       -8.806572   1.000000
   24       -8.806408   1.000000
   25       -8.672432   1.000000
   26       -8.538075   1.000000
   27       -8.537648   1.000000
   28       -8.410603   1.000000
   29       -8.410509   1.000000
   30       -8.203400   1.000000
   31       -8.202993   1.000000
   32       -8.050654   1.000000
   33       -8.014034   1.000000
   34       -8.013739   1.000000
   35       -7.698169   1.000000
   36       -7.673960   1.000000
   37       -7.673807   1.000000
   38       -7.539707   1.000000
   39       -7.539336   1.000000
   40       -7.473507   1.000000
   41       -7.210627   1.000000
   42       -7.210409   1.000000
   43       -7.038431   1.000000
   44       -6.994932   1.000000
   45       -6.994549   1.000000
   46       -6.893978   1.000000
   47       -6.709941   1.000000
   48       -6.615299   1.000000
   49       -6.614941   1.000000
   50       -6.484427   1.000000
   51       -6.484141   1.000000
   52       -6.317872   1.000000
   53       -6.208494   1.000000
   54       -6.208031   1.000000
   55       -6.028466   1.000000
   56       -6.027867   1.000000
   57       -6.017463   1.000000
   58       -5.963431   1.000000
   59       -5.734954   1.000000
   60       -5.734907   1.000000
   61       -5.665592   1.000000
   62       -5.421938   1.000000
   63       -5.421728   1.000000
   64       -5.104466   1.000000
   65       -5.103956   1.000000
   66       -4.974567   1.000000
   67       -4.743499   1.000000
   68       -4.743028   1.000000
   69       -4.732701   1.000000
   70       -4.585263   1.000000
   71       -4.569428   1.000000
   72       -4.568984   1.000000
   73       -4.562372   1.000000
   74       -4.367909   1.000000
   75       -4.367380   1.000000
   76       -4.120971   1.000000
   77       -3.868990   0.999995
   78       -3.787509   0.999944
   79       -3.471858   0.948353
   80       -3.117234   0.189841
   81       -3.113411   0.182596
   82       -2.795653   0.000810
   83       -2.794739   0.000792
   84       -2.479751   0.000000
   85       -2.478814   0.000000
   86       -2.388018   0.000000
   87       -2.384981   0.000000
   88       -2.239117   0.000000
   89       -2.186509   0.000000
   90       -2.044987   0.000000
   91       -2.042310   0.000000
   92       -1.532920   0.000000
   93       -1.531966   0.000000
   94       -1.094671   0.000000
   95       -1.042607   0.000000
   96       -1.041814   0.000000
   97       -0.990804   0.000000
   98       -0.854650   0.000000
   99       -0.854012   0.000000
  100       -0.707619   0.000000
  101       -0.705133   0.000000
  102       -0.668872   0.000000
  103       -0.419687   0.000000
  104       -0.417811   0.000000
  105       -0.063791   0.000000
  106       -0.025998   0.000000
  107        0.022977   0.000000
  108        0.024021   0.000000
  109        0.088508   0.000000
  110        0.145539   0.000000
  111        0.147254   0.000000
  112        0.796385   0.000000
  113        0.863598   0.000000
  114        0.864120   0.000000
  115        0.867144   0.000000
  116        1.013438   0.000000
  117        1.014100   0.000000
  118        1.704276   0.000000
  119        1.898666   0.000000
  120        2.221684   0.000000
 
  0.2500000E+00  0.5551115E-16  0.0000000E+00  0.3125000E-01
    1      -17.735472   1.000000
    2      -16.964914   1.000000
    3      -16.676780   1.000000
    4      -16.661323   1.000000
    5      -16.661208   1.000000
    6      -16.354209   1.000000
    7      -16.354036   1.000000
    8      -16.309735   1.000000
    9      -16.145594   1.000000
   10      -16.145432   1.000000
   11      -15.865118   1.000000
   12      -15.864816   1.000000
   13      -15.846523   1.000000
   14      -15.611900   1.000000
   15      -15.611755   1.000000
   16      -15.592373   1.000000
   17      -15.257790   1.000000
   18      -15.257497   1.000000
   19       -9.588263   1.000000
   20       -9.145030   1.000000
   21       -9.144846   1.000000
   22       -9.139697   1.000000
   23       -8.897065   1.000000
   24       -8.896965   1.000000
   25       -8.674213   1.000000
   26       -8.464948   1.000000
   27       -8.464817   1.000000
   28       -8.351330   1.000000
   29       -8.350699   1.000000
   30       -8.189042   1.000000
   31       -8.188579   1.000000
   32       -7.999311   1.000000
   33       -7.815531   1.000000
   34       -7.815156   1.000000
   35       -7.651893   1.000000
   36       -7.651596   1.000000
   37       -7.641655   1.000000
   38       -7.533095   1.000000
   39       -7.455269   1.000000
   40       -7.455083   1.000000
   41       -7.231128   1.000000
   42       -7.230957   1.000000
   43       -7.058549   1.000000
   44       -7.058415   1.000000
   45       -6.987609   1.000000
   46       -6.909390   1.000000
   47       -6.689591   1.000000
   48       -6.609422   1.000000
   49       -6.609047   1.000000
   50       -6.383358   1.000000
   51       -6.382916   1.000000
   52       -6.351749   1.000000
   53       -6.237601   1.000000
   54       -6.236965   1.000000
   55       -6.094095   1.000000
   56       -6.093901   1.000000
   57       -5.999314   1.000000
   58       -5.869526   1.000000
   59       -5.711041   1.000000
   60       -5.710657   1.000000
   61       -5.601224   1.000000
   62       -5.600700   1.000000
   63       -5.544292   1.000000
   64       -5.321648   1.000000
   65       -5.320887   1.000000
   66       -4.983067   1.000000
   67       -4.777098   1.000000
   68       -4.678558   1.000000
   69       -4.677936   1.000000
   70       -4.513558   1.000000
   71       -4.487670   1.000000
   72       -4.487466   1.000000
   73       -4.479349   1.000000
   74       -4.304471   1.000000
   75       -4.304014   1.000000
   76       -4.258399   1.000000
   77       -3.945290   1.000000
   78       -3.930732   0.999999
   79       -3.490661   0.960969
   80       -3.074461   0.118815
   81       -3.053059   0.091386
   82       -2.730076   0.000150
   83       -2.729271   0.000146
   84       -2.487994   0.000000
   85       -2.486499   0.000000
   86       -2.327135   0.000000
   87       -2.324334   0.000000
   88       -2.126599   0.000000
   89       -2.116649   0.000000
   90       -2.036898   0.000000
   91       -2.034629   0.000000
   92       -1.530467   0.000000
   93       -1.529576   0.000000
   94       -1.209991   0.000000
   95       -1.053964   0.000000
   96       -1.053278   0.000000
   97       -1.022875   0.000000
   98       -0.882142   0.000000
   99       -0.880269   0.000000
  100       -0.830775   0.000000
  101       -0.830096   0.000000
  102       -0.829225   0.000000
  103       -0.583311   0.000000
  104       -0.582787   0.000000
  105       -0.114779   0.000000
  106       -0.056919   0.000000
  107       -0.054960   0.000000
  108        0.009098   0.000000
  109        0.098939   0.000000
  110        0.216712   0.000000
  111        0.218246   0.000000
  112        0.793389   0.000000
  113        0.840203   0.000000
  114        0.904257   0.000000
  115        0.904574   0.000000
  116        1.071343   0.000000
  117        1.071596   0.000000
  118        1.822731   0.000000
  119        2.014951   0.000000
  120        2.324206   0.000000
 
  0.3750000E+00  0.0000000E+00  0.0000000E+00  0.3125000E-01
    1      -17.635255   1.000000
    2      -17.157754   1.000000
    3      -16.699442   1.000000
    4      -16.699375   1.000000
    5      -16.678962   1.000000
    6      -16.343166   1.000000
    7      -16.342991   1.000000
    8      -16.316364   1.000000
    9      -16.086668   1.000000
   10      -16.086474   1.000000
   11      -15.823770   1.000000
   12      -15.823464   1.000000
   13      -15.728338   1.000000
   14      -15.674713   1.000000
   15      -15.674565   1.000000
   16      -15.582911   1.000000
   17      -15.268137   1.000000
   18      -15.267859   1.000000
   19       -9.762620   1.000000
   20       -9.255551   1.000000
   21       -9.255400   1.000000
   22       -9.071646   1.000000
   23       -8.967333   1.000000
   24       -8.967139   1.000000
   25       -8.575928   1.000000
   26       -8.404905   1.000000
   27       -8.404838   1.000000
   28       -8.271507   1.000000
   29       -8.270551   1.000000
   30       -8.184953   1.000000
   31       -8.184451   1.000000
   32       -8.130177   1.000000
   33       -7.835413   1.000000
   34       -7.835206   1.000000
   35       -7.775508   1.000000
   36       -7.519140   1.000000
   37       -7.518960   1.000000
   38       -7.497067   1.000000
   39       -7.343967   1.000000
   40       -7.343536   1.000000
   41       -7.235033   1.000000
   42       -7.234742   1.000000
   43       -7.030618   1.000000
   44       -7.030470   1.000000
   45       -6.923589   1.000000
   46       -6.738309   1.000000
   47       -6.668576   1.000000
   48       -6.601443   1.000000
   49       -6.601199   1.000000
   50       -6.386831   1.000000
   51       -6.372959   1.000000
   52       -6.371920   1.000000
   53       -6.267315   1.000000
   54       -6.267135   1.000000
   55       -6.079633   1.000000
   56       -6.079503   1.000000
   57       -5.984598   1.000000
   58       -5.825136   1.000000
   59       -5.824877   1.000000
   60       -5.732409   1.000000
   61       -5.714884   1.000000
   62       -5.714564   1.000000
   63       -5.494427   1.000000
   64       -5.493328   1.000000
   65       -5.404628   1.000000
   66       -4.996050   1.000000
   67       -4.795305   1.000000
   68       -4.772866   1.000000
   69       -4.636053   1.000000
   70       -4.635349   1.000000
   71       -4.478767   1.000000
   72       -4.431786   1.000000
   73       -4.431682   1.000000
   74       -4.235064   1.000000
   75       -4.234394   1.000000
   76       -4.201984   1.000000
   77       -4.066332   1.000000
   78       -3.944788   1.000000
   79       -3.469852   0.946834
   80       -3.055308   0.094025
   81       -3.000181   0.043988
   82       -2.687550   0.000045
   83       -2.686833   0.000044
   84       -2.500273   0.000000
   85       -2.498557   0.000000
   86       -2.230560   0.000000
   87       -2.227741   0.000000
   88       -2.025583   0.000000
   89       -2.020330   0.000000
   90       -2.018353   0.000000
   91       -1.989887   0.000000
   92       -1.546998   0.000000
   93       -1.546106   0.000000
   94       -1.418673   0.000000
   95       -1.078018   0.000000
   96       -1.077058   0.000000
   97       -1.066575   0.000000
   98       -1.021152   0.000000
   99       -1.020613   0.000000
  100       -0.890273   0.000000
  101       -0.856201   0.000000
  102       -0.855520   0.000000
  103       -0.652718   0.000000
  104       -0.652376   0.000000
  105       -0.164269   0.000000
  106       -0.161639   0.000000
  107       -0.158913   0.000000
  108       -0.036491   0.000000
  109        0.104514   0.000000
  110        0.253417   0.000000
  111        0.254681   0.000000
  112        0.790275   0.000000
  113        0.840292   0.000000
  114        0.877946   0.000000
  115        0.878131   0.000000
  116        1.196211   0.000000
  117        1.196341   0.000000
  118        2.000104   0.000000
  119        2.189602   0.000000
  120        2.369438   0.000000
 
  0.5000000E+00  0.1110223E-15  0.0000000E+00  0.1562500E-01
    1      -17.566388   1.000000
    2      -17.260477   1.000000
    3      -16.712901   1.000000
    4      -16.712873   1.000000
    5      -16.677009   1.000000
    6      -16.341523   1.000000
    7      -16.341349   1.000000
    8      -16.321339   1.000000
    9      -16.058759   1.000000
   10      -16.058561   1.000000
   11      -15.792797   1.000000
   12      -15.792445   1.000000
   13      -15.716967   1.000000
   14      -15.716868   1.000000
   15      -15.685021   1.000000
   16      -15.578320   1.000000
   17      -15.272920   1.000000
   18      -15.272650   1.000000
   19       -9.829628   1.000000
   20       -9.294585   1.000000
   21       -9.294451   1.000000
   22       -9.033942   1.000000
   23       -8.993009   1.000000
   24       -8.992786   1.000000
   25       -8.511081   1.000000
   26       -8.381871   1.000000
   27       -8.381790   1.000000
   28       -8.223730   1.000000
   29       -8.222611   1.000000
   30       -8.194824   1.000000
   31       -8.182335   1.000000
   32       -8.181867   1.000000
   33       -7.885976   1.000000
   34       -7.885695   1.000000
   35       -7.877014   1.000000
   36       -7.490170   1.000000
   37       -7.489807   1.000000
   38       -7.474672   1.000000
   39       -7.296962   1.000000
   40       -7.296782   1.000000
   41       -7.156234   1.000000
   42       -7.156008   1.000000
   43       -7.038141   1.000000
   44       -7.038024   1.000000
   45       -6.929263   1.000000
   46       -6.659628   1.000000
   47       -6.632605   1.000000
   48       -6.544894   1.000000
   49       -6.544261   1.000000
   50       -6.434066   1.000000
   51       -6.433906   1.000000
   52       -6.376265   1.000000
   53       -6.243026   1.000000
   54       -6.242511   1.000000
   55       -6.142812   1.000000
   56       -6.142521   1.000000
   57       -5.979687   1.000000
   58       -5.851178   1.000000
   59       -5.850809   1.000000
   60       -5.748676   1.000000
   61       -5.748486   1.000000
   62       -5.587838   1.000000
   63       -5.565529   1.000000
   64       -5.564152   1.000000
   65       -5.316816   1.000000
   66       -5.150843   1.000000
   67       -4.911009   1.000000
   68       -4.796822   1.000000
   69       -4.625672   1.000000
   70       -4.624955   1.000000
   71       -4.465043   1.000000
   72       -4.406570   1.000000
   73       -4.406497   1.000000
   74       -4.207500   1.000000
   75       -4.206758   1.000000
   76       -4.160234   1.000000
   77       -4.123866   1.000000
   78       -3.934782   1.000000
   79       -3.451631   0.931368
   80       -3.051394   0.089467
   81       -2.980187   0.032334
   82       -2.674575   0.000031
   83       -2.673853   0.000030
   84       -2.505941   0.000000
   85       -2.504162   0.000000
   86       -2.178069   0.000000
   87       -2.175165   0.000000
   88       -2.012773   0.000000
   89       -2.010805   0.000000
   90       -1.950758   0.000000
   91       -1.934612   0.000000
   92       -1.563102   0.000000
   93       -1.562207   0.000000
   94       -1.544529   0.000000
   95       -1.100249   0.000000
   96       -1.099105   0.000000
   97       -1.089697   0.000000
   98       -1.067398   0.000000
   99       -1.067228   0.000000
  100       -0.902323   0.000000
  101       -0.882239   0.000000
  102       -0.881057   0.000000
  103       -0.649291   0.000000
  104       -0.648961   0.000000
  105       -0.215499   0.000000
  106       -0.213112   0.000000
  107       -0.176644   0.000000
  108       -0.067893   0.000000
  109        0.106014   0.000000
  110        0.261186   0.000000
  111        0.262310   0.000000
  112        0.788891   0.000000
  113        0.842772   0.000000
  114        0.869001   0.000000
  115        0.869133   0.000000
  116        1.246913   0.000000
  117        1.247006   0.000000
  118        2.193899   0.000000
  119        2.239586   0.000000
  120        2.370632   0.000000
 
  0.0000000E+00  0.1250000E+00  0.0000000E+00  0.3125000E-01
    1      -17.801083   1.000000
    2      -16.768269   1.000000
    3      -16.762336   1.000000
    4      -16.537499   1.000000
    5      -16.512333   1.000000
    6      -16.423804   1.000000
    7      -16.358773   1.000000
    8      -16.350387   1.000000
    9      -16.332901   1.000000
   10      -16.035193   1.000000
   11      -16.026640   1.000000
   12      -15.977089   1.000000
   13      -15.830512   1.000000
   14      -15.597666   1.000000
   15      -15.564262   1.000000
   16      -15.544317   1.000000
   17      -15.290044   1.000000
   18      -15.227641   1.000000
   19       -9.344063   1.000000
   20       -9.205330   1.000000
   21       -9.131662   1.000000
   22       -8.979637   1.000000
   23       -8.810390   1.000000
   24       -8.659204   1.000000
   25       -8.596977   1.000000
   26       -8.591031   1.000000
   27       -8.515745   1.000000
   28       -8.505762   1.000000
   29       -8.419529   1.000000
   30       -8.281564   1.000000
   31       -8.171830   1.000000
   32       -8.076569   1.000000
   33       -7.975195   1.000000
   34       -7.865542   1.000000
   35       -7.858354   1.000000
   36       -7.735514   1.000000
   37       -7.692340   1.000000
   38       -7.494134   1.000000
   39       -7.428589   1.000000
   40       -7.422146   1.000000
   41       -7.293828   1.000000
   42       -7.205532   1.000000
   43       -7.096712   1.000000
   44       -6.942365   1.000000
   45       -6.879296   1.000000
   46       -6.873293   1.000000
   47       -6.795233   1.000000
   48       -6.748652   1.000000
   49       -6.601985   1.000000
   50       -6.516066   1.000000
   51       -6.483965   1.000000
   52       -6.236386   1.000000
   53       -6.215627   1.000000
   54       -6.163136   1.000000
   55       -6.075580   1.000000
   56       -6.059241   1.000000
   57       -5.985719   1.000000
   58       -5.878309   1.000000
   59       -5.851704   1.000000
   60       -5.646941   1.000000
   61       -5.643850   1.000000
   62       -5.351623   1.000000
   63       -5.324553   1.000000
   64       -5.192034   1.000000
   65       -5.087528   1.000000
   66       -4.970018   1.000000
   67       -4.958029   1.000000
   68       -4.884887   1.000000
   69       -4.702174   1.000000
   70       -4.630435   1.000000
   71       -4.562076   1.000000
   72       -4.468279   1.000000
   73       -4.419710   1.000000
   74       -4.400474   1.000000
   75       -4.340452   1.000000
   76       -4.042435   1.000000
   77       -3.864240   0.999995
   78       -3.761755   0.999883
   79       -3.432807   0.911964
   80       -3.385023   0.844963
   81       -2.919120   0.011323
   82       -2.863099   0.003731
   83       -2.760540   0.000336
   84       -2.708575   0.000082
   85       -2.462969   0.000000
   86       -2.461741   0.000000
   87       -2.292306   0.000000
   88       -2.169312   0.000000
   89       -2.159773   0.000000
   90       -2.074165   0.000000
   91       -1.980729   0.000000
   92       -1.716546   0.000000
   93       -1.376885   0.000000
   94       -1.067643   0.000000
   95       -1.010595   0.000000
   96       -1.003905   0.000000
   97       -0.995829   0.000000
   98       -0.910671   0.000000
   99       -0.881327   0.000000
  100       -0.683380   0.000000
  101       -0.620748   0.000000
  102       -0.602313   0.000000
  103       -0.474671   0.000000
  104       -0.290409   0.000000
  105       -0.186004   0.000000
  106       -0.156580   0.000000
  107       -0.023888   0.000000
  108        0.027581   0.000000
  109        0.058270   0.000000
  110        0.120028   0.000000
  111        0.333065   0.000000
  112        0.673429   0.000000
  113        0.731257   0.000000
  114        0.796743   0.000000
  115        0.908843   0.000000
  116        0.986110   0.000000
  117        1.295171   0.000000
  118        1.707026   0.000000
  119        1.895815   0.000000
  120        2.222616   0.000000
 
  0.1250000E+00  0.1250000E+00  0.0000000E+00  0.3125000E-01
    1      -17.754632   1.000000
    2      -16.854930   1.000000
    3      -16.836826   1.000000
    4      -16.654903   1.000000
    5      -16.451745   1.000000
    6      -16.435613   1.000000
    7      -16.321571   1.000000
    8      -16.308956   1.000000
    9      -16.303888   1.000000
   10      -16.034229   1.000000
   11      -15.961391   1.000000
   12      -15.914212   1.000000
   13      -15.798131   1.000000
   14      -15.610148   1.000000
   15      -15.590898   1.000000
   16      -15.561432   1.000000
   17      -15.300738   1.000000
   18      -15.228290   1.000000
   19       -9.461839   1.000000
   20       -9.333473   1.000000
   21       -9.136621   1.000000
   22       -9.052023   1.000000
   23       -8.904417   1.000000
   24       -8.681950   1.000000
   25       -8.636982   1.000000
   26       -8.554623   1.000000
   27       -8.488521   1.000000
   28       -8.430379   1.000000
   29       -8.376391   1.000000
   30       -8.222389   1.000000
   31       -8.128811   1.000000
   32       -7.970802   1.000000
   33       -7.934393   1.000000
   34       -7.858860   1.000000
   35       -7.673451   1.000000
   36       -7.669079   1.000000
   37       -7.665869   1.000000
   38       -7.538055   1.000000
   39       -7.464560   1.000000
   40       -7.427790   1.000000
   41       -7.214283   1.000000
   42       -7.195758   1.000000
   43       -7.119947   1.000000
   44       -7.006492   1.000000
   45       -6.978465   1.000000
   46       -6.902092   1.000000
   47       -6.728163   1.000000
   48       -6.725885   1.000000
   49       -6.556573   1.000000
   50       -6.432926   1.000000
   51       -6.393827   1.000000
   52       -6.295467   1.000000
   53       -6.261821   1.000000
   54       -6.240529   1.000000
   55       -6.050481   1.000000
   56       -6.038575   1.000000
   57       -6.023571   1.000000
   58       -5.865873   1.000000
   59       -5.815114   1.000000
   60       -5.605701   1.000000
   61       -5.569627   1.000000
   62       -5.542759   1.000000
   63       -5.487688   1.000000
   64       -5.248493   1.000000
   65       -5.181612   1.000000
   66       -5.094557   1.000000
   67       -4.888995   1.000000
   68       -4.851367   1.000000
   69       -4.642599   1.000000
   70       -4.542122   1.000000
   71       -4.540631   1.000000
   72       -4.398909   1.000000
   73       -4.379930   1.000000
   74       -4.362097   1.000000
   75       -4.282740   1.000000
   76       -4.141499   1.000000
   77       -4.008807   1.000000
   78       -3.837358   0.999987
   79       -3.457001   0.936249
   80       -3.287740   0.628232
   81       -2.903503   0.008429
   82       -2.808078   0.001090
   83       -2.710802   0.000088
   84       -2.702608   0.000069
   85       -2.445260   0.000000
   86       -2.438075   0.000000
   87       -2.200008   0.000000
   88       -2.156062   0.000000
   89       -2.125350   0.000000
   90       -2.073207   0.000000
   91       -1.976263   0.000000
   92       -1.702349   0.000000
   93       -1.370900   0.000000
   94       -1.135205   0.000000
   95       -1.046355   0.000000
   96       -1.016690   0.000000
   97       -0.997126   0.000000
   98       -0.901628   0.000000
   99       -0.897970   0.000000
  100       -0.791581   0.000000
  101       -0.759160   0.000000
  102       -0.752198   0.000000
  103       -0.571889   0.000000
  104       -0.456572   0.000000
  105       -0.155991   0.000000
  106       -0.143203   0.000000
  107       -0.022614   0.000000
  108        0.064386   0.000000
  109        0.083021   0.000000
  110        0.092803   0.000000
  111        0.311231   0.000000
  112        0.729072   0.000000
  113        0.781118   0.000000
  114        0.859422   0.000000
  115        0.880500   0.000000
  116        0.990496   0.000000
  117        1.294455   0.000000
  118        1.787677   0.000000
  119        1.975014   0.000000
  120        2.291746   0.000000
 
  0.2500000E+00  0.1250000E+00  0.0000000E+00  0.3125000E-01
    1      -17.667810   1.000000
    2      -17.047656   1.000000
    3      -16.898765   1.000000
    4      -16.672800   1.000000
    5      -16.478780   1.000000
    6      -16.408982   1.000000
    7      -16.302788   1.000000
    8      -16.290194   1.000000
    9      -16.217973   1.000000
   10      -16.034683   1.000000
   11      -15.935917   1.000000
   12      -15.773555   1.000000
   13      -15.759427   1.000000
   14      -15.693783   1.000000
   15      -15.584571   1.000000
   16      -15.581281   1.000000
   17      -15.316366   1.000000
   18      -15.230795   1.000000
   19       -9.658004   1.000000
   20       -9.451863   1.000000
   21       -9.172686   1.000000
   22       -9.081036   1.000000
   23       -8.981773   1.000000
   24       -8.683528   1.000000
   25       -8.616079   1.000000
   26       -8.463989   1.000000
   27       -8.387369   1.000000
   28       -8.348943   1.000000
   29       -8.331700   1.000000
   30       -8.185671   1.000000
   31       -8.181103   1.000000
   32       -8.061222   1.000000
   33       -7.936790   1.000000
   34       -7.822053   1.000000
   35       -7.708813   1.000000
   36       -7.620184   1.000000
   37       -7.521643   1.000000
   38       -7.490957   1.000000
   39       -7.430115   1.000000
   40       -7.380481   1.000000
   41       -7.252869   1.000000
   42       -7.091206   1.000000
   43       -7.067524   1.000000
   44       -7.025595   1.000000
   45       -6.932016   1.000000
   46       -6.861457   1.000000
   47       -6.726189   1.000000