       N       E                     dE             d eps       ncg     rms          rms(c)
DAV:   1     0.112412255651E+04    0.11241E+04   -0.35868E+04  8160   0.577E+02
DAV:   2    -0.381381198954E+01   -0.11279E+04   -0.10875E+04 11240   0.173E+02
DAV:   3    -0.200141516795E+03   -0.19633E+03   -0.18871E+03 11000   0.818E+01
DAV:   4    -0.209076222269E+03   -0.89347E+01   -0.86254E+01 12040   0.255E+01
DAV:   5    -0.209404755652E+03   -0.32853E+00   -0.32758E+00 11600   0.368E+00    0.278E+01
DAV:   6    -0.241875622444E+03   -0.32471E+02   -0.11277E+02 12440   0.599E+01    0.609E+01
DAV:   7    -0.196046162883E+03    0.45829E+02   -0.17999E+02 13280   0.150E+02    0.197E+01
DAV:   8    -0.189232028768E+03    0.68141E+01   -0.18892E+01 12120   0.125E+01    0.121E+01
DAV:   9    -0.188027196635E+03    0.12048E+01   -0.28631E+00 13320   0.618E+00    0.871E+00
DAV:  10    -0.186930832146E+03    0.10964E+01   -0.15365E+00 13520   0.694E+00    0.204E+00
DAV:  11    -0.186914544511E+03    0.16288E-01   -0.37834E-01 13360   0.187E+00    0.267E+00
DAV:  12    -0.186841356880E+03    0.73188E-01   -0.21938E-01 13520   0.284E+00    0.111E+00
DAV:  13    -0.186836214274E+03    0.51426E-02   -0.27742E-02 13440   0.831E-01    0.968E-01
DAV:  14    -0.186828003545E+03    0.82107E-02   -0.19396E-02 13040   0.723E-01    0.217E-01
DAV:  15    -0.186827068024E+03    0.93552E-03   -0.26821E-03 12480   0.175E-01    0.143E-01
DAV:  16    -0.186827078373E+03   -0.10348E-04   -0.15521E-03 11920   0.196E-01    0.196E-01
DAV:  17    -0.186827100636E+03   -0.22263E-04   -0.16300E-03 11080   0.201E-01    0.161E-01
DAV:  18    -0.186827036549E+03    0.64087E-04   -0.89145E-04 10920   0.106E-01
   1 F= -.18682704E+03 E0= -.18665442E+03  d E =-.186827E+03
       N       E                     dE             d eps       ncg     rms          rms(c)
DAV:   1    -0.187513755811E+03   -0.68666E+00   -0.27420E+02  8160   0.351E+01    0.468E+00
DAV:   2    -0.189605213326E+03   -0.20915E+01   -0.20352E+01 11960   0.157E+01    0.102E+01
DAV:   3    -0.189297068499E+03    0.30814E+00   -0.42793E+00 12520   0.124E+01    0.629E+00
DAV:   4    -0.188758972860E+03    0.53810E+00   -0.59377E-01 12680   0.417E+00    0.171E+00
DAV:   5    -0.188727223231E+03    0.31750E-01   -0.26151E-01 10680   0.137E+00    0.162E+00
DAV:   6    -0.188693010585E+03    0.34213E-01   -0.18605E-01 11800   0.152E+00    0.106E+00
DAV:   7    -0.188697998855E+03   -0.49883E-02   -0.99206E-02 12360   0.164E+00    0.190E+00
DAV:   8    -0.188672985288E+03    0.25014E-01   -0.55212E-02 11840   0.122E+00    0.279E-01
DAV:   9    -0.188672367673E+03    0.61761E-03   -0.33081E-03 12000   0.214E-01    0.156E-01
DAV:  10    -0.188672753343E+03   -0.38567E-03   -0.23736E-03 12760   0.247E-01    0.274E-01
DAV:  11    -0.188672545900E+03    0.20744E-03   -0.20642E-03 10080   0.241E-01    0.149E-01
DAV:  12    -0.188672460690E+03    0.85209E-04   -0.62652E-04  8880   0.995E-02
   2 F= -.18867246E+03 E0= -.18853121E+03  d E =-.184542E+01
       N       E                     dE             d eps       ncg     rms          rms(c)
DAV:   1    -0.190614098568E+03   -0.19416E+01   -0.31412E+01  9200   0.143E+01    0.444E+00
DAV:   2    -0.190543341096E+03    0.70757E-01   -0.27484E+00 12440   0.906E+00    0.722E+00
DAV:   3    -0.190110922422E+03    0.43242E+00   -0.14463E+00 12320   0.836E+00    0.437E+00
DAV:   4    -0.189879287642E+03    0.23163E+00   -0.68405E-01 12960   0.429E+00    0.242E+00
DAV:   5    -0.189788729058E+03    0.90559E-01   -0.27981E-01 11960   0.184E+00    0.717E-01
DAV:   6    -0.189777397559E+03    0.11331E-01   -0.32626E-02 10680   0.605E-01    0.213E-01
DAV:   7    -0.189777559204E+03   -0.16164E-03   -0.48800E-03 10280   0.221E-01    0.177E-01
DAV:   8    -0.189778165613E+03   -0.60641E-03   -0.21412E-03 11360   0.284E-01    0.296E-01
DAV:   9    -0.189777839903E+03    0.32571E-03   -0.17652E-03  9840   0.246E-01    0.126E-01
DAV:  10    -0.189777646264E+03    0.19364E-03   -0.49021E-04  7960   0.861E-02    0.341E-02
DAV:  11    -0.189777699594E+03   -0.53330E-04   -0.11353E-04  6480   0.516E-02
   3 F= -.18977770E+03 E0= -.18965843E+03  d E =-.110524E+01
       N       E                     dE             d eps       ncg     rms          rms(c)
DAV:   1    -0.191409023027E+03   -0.16314E+01   -0.79934E+01  8160   0.203E+01    0.463E+00
DAV:   2    -0.191129707462E+03    0.27932E+00   -0.53785E+00 13400   0.657E+00    0.358E+00
DAV:   3    -0.191369650167E+03   -0.23994E+00   -0.13691E+00 12360   0.836E+00    0.688E+00
DAV:   4    -0.190967709726E+03    0.40194E+00   -0.13919E+00 12200   0.820E+00    0.296E+00
DAV:   5    -0.190835791541E+03    0.13192E+00   -0.27915E-01 12520   0.232E+00    0.893E-01
DAV:   6    -0.190831607605E+03    0.41839E-02   -0.78525E-02 12240   0.143E+00    0.112E+00
DAV:   7    -0.190827315247E+03    0.42924E-02   -0.52946E-02 11680   0.142E+00    0.796E-01
DAV:   8    -0.190819681166E+03    0.76341E-02   -0.10391E-02 12360   0.605E-01    0.153E-01
DAV:   9    -0.190819933561E+03   -0.25239E-03   -0.27278E-03 10440   0.165E-01    0.976E-02
DAV:  10    -0.190820123424E+03   -0.18986E-03   -0.95203E-04 10840   0.193E-01    0.159E-01
DAV:  11    -0.190819898145E+03    0.22528E-03   -0.40677E-04  8000   0.129E-01    0.291E-02
DAV:  12    -0.190819913513E+03   -0.15369E-04   -0.56092E-05  5840   0.291E-02
   4 F= -.19081991E+03 E0= -.19072071E+03  d E =-.104221E+01
       N       E                     dE             d eps       ncg     rms          rms(c)
DAV:   1    -0.192339456779E+03   -0.15196E+01   -0.18665E+02  8160   0.303E+01    0.594E+00
DAV:   2    -0.192115088993E+03    0.22437E+00   -0.10428E+01 11400   0.784E+00    0.392E+00
DAV:   3    -0.192436562104E+03   -0.32147E+00   -0.25947E+00 12720   0.998E+00    0.684E+00
DAV:   4    -0.191735566628E+03    0.70100E+00   -0.84578E-01 12320   0.791E+00    0.197E+00
DAV:   5    -0.191639433272E+03    0.96133E-01   -0.28847E-01 12360   0.230E+00    0.862E-01
DAV:   6    -0.191635136644E+03    0.42966E-02   -0.75851E-02 12920   0.119E+00    0.530E-01
DAV:   7    -0.191629840259E+03    0.52964E-02   -0.17775E-02 11360   0.691E-01    0.432E-01
DAV:   8    -0.191628643583E+03    0.11967E-02   -0.66802E-03 12400   0.534E-01    0.242E-01
DAV:   9    -0.191628364464E+03    0.27912E-03   -0.28260E-03 11760   0.209E-01    0.579E-02
DAV:  10    -0.191628499443E+03   -0.13498E-03   -0.45971E-04  9440   0.130E-01    0.117E-01
DAV:  11    -0.191628365540E+03    0.13390E-03   -0.26712E-04  7400   0.118E-01    0.261E-02
DAV:  12    -0.191628378527E+03   -0.12987E-04   -0.52085E-05  6560   0.279E-02
   5 F= -.19162838E+03 E0= -.19154448E+03  d E =-.808465E+00
       N       E                     dE             d eps       ncg     rms          rms(c)
DAV:   1    -0.191746844240E+03   -0.11848E+00   -0.94298E+00  8160   0.656E+00    0.836E-01
DAV:   2    -0.191825110754E+03   -0.78267E-01   -0.41633E-01 12600   0.315E+00    0.229E+00
DAV:   3    -0.191768452235E+03    0.56659E-01   -0.11924E-01 12440   0.264E+00    0.527E-01
DAV:   4    -0.191764172510E+03    0.42797E-02   -0.75478E-03 11800   0.473E-01    0.207E-01
DAV:   5    -0.191764308880E+03   -0.13637E-03   -0.42413E-03 11680   0.238E-01    0.199E-01
DAV:   6    -0.191763677567E+03    0.63131E-03   -0.29587E-03 12080   0.286E-01    0.193E-01
DAV:   7    -0.191763379033E+03    0.29853E-03   -0.11026E-03 10320   0.216E-01    0.642E-02
DAV:   8    -0.191763345124E+03    0.33909E-04   -0.10977E-04  6320   0.583E-02
   6 F= -.19176335E+03 E0= -.19168052E+03  d E =-.134967E+00
       N       E                     dE             d eps       ncg     rms          rms(c)
DAV:   1    -0.191859912469E+03   -0.96533E-01   -0.55574E+00  8160   0.504E+00    0.549E-01
DAV:   2    -0.191881792201E+03   -0.21880E-01   -0.17862E-01 12600   0.170E+00    0.106E+00
DAV:   3    -0.191870581541E+03    0.11211E-01   -0.32900E-02 12440   0.145E+00    0.463E-01
DAV:   4    -0.191867495324E+03    0.30862E-02   -0.42181E-03 11480   0.433E-01    0.162E-01
DAV:   5    -0.191868776910E+03   -0.12816E-02   -0.40522E-03 12840   0.419E-01    0.387E-01
DAV:   6    -0.191867540860E+03    0.12360E-02   -0.41715E-03 11600   0.472E-01    0.177E-01
DAV:   7    -0.191867089916E+03    0.45094E-03   -0.75236E-04 10040   0.161E-01    0.263E-02
DAV:   8    -0.191867102802E+03   -0.12886E-04   -0.11088E-04  6720   0.507E-02
   7 F= -.19186710E+03 E0= -.19178740E+03  d E =-.103758E+00
       N       E                     dE             d eps       ncg     rms          rms(c)
DAV:   1    -0.191936370866E+03   -0.69281E-01   -0.27181E+00  8160   0.354E+00    0.381E-01
DAV:   2    -0.191944577932E+03   -0.82071E-02   -0.91156E-02 12520   0.105E+00    0.550E-01
DAV:   3    -0.191942688868E+03    0.18891E-02   -0.12190E-02 12560   0.903E-01    0.387E-01
DAV:   4    -0.191940512677E+03    0.21762E-02   -0.26391E-03 11720   0.396E-01    0.117E-01
DAV:   5    -0.191941488810E+03   -0.97613E-03   -0.25932E-03 11920   0.356E-01    0.327E-01
DAV:   6    -0.191940400837E+03    0.10880E-02   -0.20109E-03 11680   0.342E-01    0.676E-02
DAV:   7    -0.191940340323E+03    0.60513E-04   -0.13260E-04  6200   0.663E-02
   8 F= -.19194034E+03 E0= -.19186246E+03  d E =-.732375E-01
       N       E                     dE             d eps       ncg     rms          rms(c)
DAV:   1    -0.192132426375E+03   -0.19203E+00   -0.47811E+01  8160   0.149E+01    0.152E+00
DAV:   2    -0.192239556647E+03   -0.10713E+00   -0.15939E+00 10920   0.348E+00    0.112E+00
DAV:   3    -0.192266599649E+03   -0.27043E-01   -0.14059E-01 12800   0.290E+00    0.188E+00
DAV:   4    -0.192216004549E+03    0.50595E-01   -0.59947E-02 12240   0.214E+00    0.451E-01
DAV:   5    -0.192221387896E+03   -0.53833E-02   -0.28490E-02 12360   0.977E-01    0.822E-01
DAV:   6    -0.192214283258E+03    0.71046E-02   -0.17095E-02 12440   0.108E+00    0.348E-01
DAV:   7    -0.192212656376E+03    0.16269E-02   -0.30351E-03 11720   0.361E-01    0.792E-02
DAV:   8    -0.192212516833E+03    0.13954E-03   -0.93959E-04 10720   0.108E-01    0.622E-02
DAV:   9    -0.192212549763E+03   -0.32930E-04   -0.28718E-04  9040   0.133E-01
   9 F= -.19221255E+03 E0= -.19213843E+03  d E =-.272209E+00
       N       E                     dE             d eps       ncg     rms          rms(c)
DAV:   1    -0.192265244411E+03   -0.52728E-01   -0.58489E+01  8160   0.166E+01    0.175E+00
DAV:   2    -0.192407482740E+03   -0.14224E+00   -0.21793E+00 11680   0.396E+00    0.118E+00
DAV:   3    -0.192430588006E+03   -0.23105E-01   -0.15435E-01 12880   0.292E+00    0.192E+00
DAV:   4    -0.192378119349E+03    0.52469E-01   -0.78261E-02 12280   0.243E+00    0.625E-01
DAV:   5    -0.192375709756E+03    0.24096E-02   -0.36101E-02 12120   0.865E-01    0.435E-01
DAV:   6    -0.192372410573E+03    0.32992E-02   -0.10537E-02 12320   0.659E-01    0.327E-01
DAV:   7    -0.192371457570E+03    0.95300E-03   -0.30369E-03 12520   0.448E-01    0.138E-01
DAV:   8    -0.192371111051E+03    0.34652E-03   -0.86227E-04 11480   0.145E-01    0.505E-02
DAV:   9    -0.192371089563E+03    0.21488E-04   -0.40234E-04  9560   0.712E-02
  10 F= -.19237109E+03 E0= -.19229721E+03  d E =-.158540E+00
       N       E                     dE             d eps       ncg     rms          rms(c)
DAV:   1    -0.192356806453E+03    0.14305E-01   -0.73884E+00  8160   0.588E+00    0.625E-01
DAV:   2    -0.192362285601E+03   -0.54791E-02   -0.16502E-01 12000   0.103E+00    0.387E-01
DAV:   3    -0.192365432968E+03   -0.31474E-02   -0.16501E-02 12840   0.965E-01    0.776E-01
DAV:   4    -0.192358806125E+03    0.66268E-02   -0.12018E-02 12280   0.989E-01    0.274E-01
DAV:   5    -0.192358327648E+03    0.47848E-03   -0.36244E-03 10960   0.359E-01    0.175E-01
DAV:   6    -0.192357865674E+03    0.46197E-03   -0.16289E-03 12680   0.290E-01    0.135E-01
DAV:   7    -0.192357698066E+03    0.16761E-03   -0.51367E-04  9160   0.186E-01    0.566E-02
DAV:   8    -0.192357705854E+03   -0.77886E-05   -0.12169E-04  6480   0.951E-02
  11 F= -.19235771E+03 E0= -.19228426E+03  d E =0.133837E-01
       N       E                     dE             d eps       ncg     rms          rms(c)
DAV:   1    -0.192382754515E+03   -0.25056E-01   -0.34681E+00  8160   0.397E+00    0.454E-01
DAV:   2    -0.192389206705E+03   -0.64522E-02   -0.12450E-01 11720   0.890E-01    0.238E-01
DAV:   3    -0.192387997333E+03    0.12094E-02   -0.47634E-03 11320   0.281E-01    0.190E-01
DAV:   4    -0.192388476209E+03   -0.47888E-03   -0.32070E-03 12440   0.445E-01    0.308E-01
DAV:   5    -0.192387523877E+03    0.95233E-03   -0.29242E-03 11560   0.430E-01    0.131E-01
DAV:   6    -0.192387283309E+03    0.24057E-03   -0.66424E-04 10320   0.176E-01    0.780E-02
DAV:   7    -0.192387230023E+03    0.53286E-04   -0.19965E-04  7880   0.118E-01
  12 F= -.19238723E+03 E0= -.19231339E+03  d E =-.295242E-01
       N       E                     dE             d eps       ncg     rms          rms(c)
DAV:   1    -0.192399511647E+03   -0.12228E-01   -0.27074E+00  8160   0.339E+00    0.398E-01
DAV:   2    -0.192412059475E+03   -0.12548E-01   -0.12742E-01 11440   0.125E+00    0.600E-01
DAV:   3    -0.192409104623E+03    0.29549E-02   -0.15707E-02 12440   0.101E+00    0.367E-01
DAV:   4    -0.192407165988E+03    0.19386E-02   -0.30609E-03 12280   0.418E-01    0.118E-01
DAV:   5    -0.192407643301E+03   -0.47731E-03   -0.15375E-03 12600   0.298E-01    0.228E-01
DAV:   6    -0.192407198240E+03    0.44506E-03   -0.13576E-03 11360   0.312E-01    0.101E-01
DAV:   7    -0.192407041816E+03    0.15642E-03   -0.28186E-04  8480   0.103E-01    0.187E-02
DAV:   8    -0.192407041015E+03    0.80121E-06   -0.59997E-05  7080   0.259E-02
  13 F= -.19240704E+03 E0= -.19233343E+03  d E =-.198110E-01
       N       E                     dE             d eps       ncg     rms          rms(c)
DAV:   1    -0.192409959606E+03   -0.29178E-02   -0.11751E-01  8160   0.779E-01    0.159E-01
DAV:   2    -0.192409957371E+03    0.22354E-05   -0.61316E-03 11640   0.349E-01    0.210E-01
DAV:   3    -0.192409689405E+03    0.26797E-03   -0.18403E-03 11560   0.362E-01    0.153E-01
DAV:   4    -0.192409356238E+03    0.33317E-03   -0.78484E-04 10480   0.213E-01    0.830E-02
DAV:   5    -0.192409391441E+03   -0.35203E-04   -0.47483E-04  9920   0.174E-01
  14 F= -.19240939E+03 E0= -.19233542E+03  d E =-.235043E-02
       N       E                     dE             d eps       ncg     rms          rms(c)
DAV:   1    -0.192414026465E+03   -0.46702E-02   -0.34997E-01  8160   0.123E+00    0.156E-01
DAV:   2    -0.192415920229E+03   -0.18938E-02   -0.18763E-02 10920   0.519E-01    0.250E-01
DAV:   3    -0.192415356425E+03    0.56380E-03   -0.25150E-03 12560   0.405E-01    0.140E-01
DAV:   4    -0.192415094808E+03    0.26162E-03   -0.45354E-04  8800   0.162E-01    0.554E-02
DAV:   5    -0.192415135043E+03   -0.40235E-04   -0.20637E-04  8120   0.117E-01
  15 F= -.19241514E+03 E0= -.19234150E+03  d E =-.574360E-02
       N       E                     dE             d eps       ncg     rms          rms(c)
DAV:   1    -0.192420135813E+03   -0.50410E-02   -0.65193E-01  8160   0.169E+00    0.211E-01
DAV:   2    -0.192423281683E+03   -0.31459E-02   -0.30730E-02 11000   0.651E-01    0.345E-01
DAV:   3    -0.192422146530E+03    0.11352E-02   -0.41669E-03 12880   0.534E-01    0.183E-01
DAV:   4    -0.192421724343E+03    0.42219E-03   -0.84399E-04 10280   0.225E-01    0.879E-02
DAV:   5    -0.192421823716E+03   -0.99373E-04   -0.52684E-04 10520   0.195E-01
  16 F= -.19242182E+03 E0= -.19234893E+03  d E =-.668867E-02
       N       E                     dE             d eps       ncg     rms          rms(c)
DAV:   1    -0.192425728529E+03   -0.40042E-02   -0.98550E-01  8160   0.209E+00    0.262E-01
DAV:   2    -0.192430441911E+03   -0.47134E-02   -0.51386E-02 11080   0.777E-01    0.355E-01
DAV:   3    -0.192429640298E+03    0.80161E-03   -0.64103E-03 13120   0.652E-01    0.273E-01
DAV:   4    -0.192428722868E+03    0.91743E-03   -0.16380E-03 11920   0.320E-01    0.105E-01
DAV:   5    -0.192428750075E+03   -0.27208E-04   -0.65330E-04 11000   0.202E-01
  17 F= -.19242875E+03 E0= -.19235662E+03  d E =-.692636E-02
       N       E                     dE             d eps       ncg     rms          rms(c)
DAV:   1    -0.192431129811E+03   -0.24069E-02   -0.22061E-01  8160   0.103E+00    0.159E-01
DAV:   2    -0.192433028001E+03   -0.18982E-02   -0.11966E-02 13400   0.500E-01    0.349E-01
DAV:   3    -0.192431539871E+03    0.14881E-02   -0.30227E-03 12240   0.469E-01    0.126E-01
DAV:   4    -0.192431419830E+03    0.12004E-03   -0.52529E-04  9280   0.156E-01    0.773E-02
DAV:   5    -0.192431399532E+03    0.20298E-04   -0.31206E-04  9480   0.146E-01
  18 F= -.19243140E+03 E0= -.19235941E+03  d E =-.264946E-02
       N       E                     dE             d eps       ncg     rms          rms(c)
DAV:   1    -0.192433253188E+03   -0.18334E-02   -0.10661E+00  8160   0.217E+00    0.267E-01
DAV:   2    -0.192438253799E+03   -0.50006E-02   -0.55885E-02 11320   0.769E-01    0.339E-01
DAV:   3    -0.192437730288E+03    0.52351E-03   -0.65784E-03 12880   0.655E-01    0.292E-01
DAV:   4    -0.192436586896E+03    0.11434E-02   -0.16612E-03 11880   0.324E-01    0.884E-02
DAV:   5    -0.192436745830E+03   -0.15893E-03   -0.70409E-04 11360   0.204E-01    0.146E-01
DAV:   6    -0.192436620200E+03    0.12563E-03   -0.71452E-04 10640   0.222E-01    0.853E-02
DAV:   7    -0.192436507033E+03    0.11317E-03   -0.16018E-04  6560   0.889E-02    0.130E-02
DAV:   8    -0.192436512350E+03   -0.53169E-05   -0.56787E-05  7000   0.277E-02
  19 F= -.19243651E+03 E0= -.19236505E+03  d E =-.511282E-02
       N       E                     dE             d eps       ncg     rms          rms(c)
DAV:   1    -0.192436183232E+03    0.32380E-03   -0.14197E+00  8160   0.250E+00    0.290E-01
DAV:   2    -0.192442755822E+03   -0.65726E-02   -0.70622E-02 11360   0.902E-01    0.393E-01
DAV:   3    -0.192441752762E+03    0.10031E-02   -0.78173E-03 12960   0.715E-01    0.294E-01
DAV:   4    -0.192440490282E+03    0.12625E-02   -0.17304E-03 12440   0.326E-01    0.808E-02
DAV:   5    -0.192440741612E+03   -0.25133E-03   -0.94134E-04 12400   0.198E-01    0.157E-01
DAV:   6    -0.192440521394E+03    0.22022E-03   -0.71027E-04 10400   0.225E-01    0.742E-02
DAV:   7    -0.192440441727E+03    0.79667E-04   -0.10672E-04  6200   0.777E-02
  20 F= -.19244044E+03 E0= -.19236964E+03  d E =-.392938E-02
       N       E                     dE             d eps       ncg     rms          rms(c)
DAV:   1    -0.192440859803E+03   -0.33841E-03   -0.10810E-01  8160   0.694E-01    0.853E-02
DAV:   2    -0.192441379473E+03   -0.51967E-03   -0.64445E-03 10640   0.243E-01    0.799E-02
DAV:   3    -0.192441445023E+03   -0.65550E-04   -0.57640E-04 11880   0.194E-01
  21 F= -.19244145E+03 E0= -.19237081E+03  d E =-.100330E-02
       N       E                     dE             d eps       ncg     rms          rms(c)
DAV:   1    -0.192441695067E+03   -0.31559E-03   -0.19869E-01  8160   0.944E-01    0.116E-01
DAV:   2    -0.192442336646E+03   -0.64158E-03   -0.85847E-03 12120   0.297E-01    0.122E-01
DAV:   3    -0.192442346873E+03   -0.10227E-04   -0.10443E-03 12000   0.259E-01    0.137E-01
DAV:   4    -0.192442093380E+03    0.25349E-03   -0.33792E-04  8560   0.153E-01    0.374E-02
DAV:   5    -0.192442151829E+03   -0.58450E-04   -0.16038E-04  6760   0.986E-02
  22 F= -.19244215E+03 E0= -.19237188E+03  d E =-.706806E-03
