 vasp.5.4.1 05Feb16 (build Jul 05 2020 17:13:04) complex                        
  
 executed on           IFC91_ompi date 2024.04.26  21:26:46
 running on   40 total cores
 distrk:  each k-point on   40 cores,    1 groups
 distr:  one band on NCORES_PER_BAND=   1 cores,   40 groups


--------------------------------------------------------------------------------------------------------


 INCAR:
 POTCAR:   PAW_PBE V 08Apr2002                    
 POTCAR:   PAW_PBE Mo 08Apr2002                   
 POTCAR:   PAW_PBE W 08Apr2002                    
 POTCAR:    PAW_PBE S 17Jan2003                   

 ----------------------------------------------------------------------------- 
|                                                                             |
|           W    W    AA    RRRRR   N    N  II  N    N   GGGG   !!!           |
|           W    W   A  A   R    R  NN   N  II  NN   N  G    G  !!!           |
|           W    W  A    A  R    R  N N  N  II  N N  N  G       !!!           |
|           W WW W  AAAAAA  RRRRR   N  N N  II  N  N N  G  GGG   !            |
|           WW  WW  A    A  R   R   N   NN  II  N   NN  G    G                |
|           W    W  A    A  R    R  N    N  II  N    N   GGGG   !!!           |
|                                                                             |
|      For optimal performance we recommend to set                            |
|        NCORE= 4 - approx SQRT( number of cores)                             |
|      NCORE specifies how many cores store one orbital (NPAR=cpu/NCORE).     |
|      This setting can  greatly improve the performance of VASP for DFT.     |
|      The default, NPAR=number of cores might be grossly inefficient         |
|      on modern multi-core architectures or massively parallel machines.     |
|      Do your own testing !!!!                                               |
|      Unfortunately you need to use the default for GW and RPA calculations. |
|      (for HF NCORE is supported but not extensively tested yet)             |
|                                                                             |
 ----------------------------------------------------------------------------- 

 POTCAR:   PAW_PBE V 08Apr2002                    
   VRHFIN =V: p6 d4 s1                                                          
   LEXCH  = PE                                                                  
   EATOM  =   170.8679 eV,   12.5584 Ry                                         
                                                                                
   TITEL  = PAW_PBE V 08Apr2002                                                 
   LULTRA =        F    use ultrasoft PP ?                                      
   IUNSCR =        1    unscreen: 0-lin 1-nonlin 2-no                           
   RPACOR =    2.000    partial core radius                                     
   POMASS =   50.941; ZVAL   =    5.000    mass and valenz                      
   RCORE  =    2.700    outmost cutoff radius                                   
   RWIGS  =    2.500; RWIGS  =    1.323    wigner-seitz radius (au A)           
   ENMAX  =  192.543; ENMIN  =  144.408 eV                                      
   RCLOC  =    1.779    cutoff for local pot                                    
   LCOR   =        T    correct aug charges                                     
   LPAW   =        T    paw PP                                                  
   EAUG   =  358.662                                                            
   DEXC   =    -.034                                                            
   RMAX   =    3.323    core radius for proj-oper                               
   RAUG   =    1.300    factor for augmentation sphere                          
   RDEP   =    2.762    radius for radial grids                                 
   QCUT   =   -3.762; QGAM   =    7.524    optimization parameters              
                                                                                
   Description                                                                  
     l     E      TYP  RCUT    TYP  RCUT                                        
     2   .000     23  2.700                                                     
     2   .000     23  2.700                                                     
     0   .000     23  2.700                                                     
     0  2.000     23  2.700                                                     
     1   .000     23  2.700                                                     
     1  2.000     23  2.700                                                     
     3   .000      7   .000                                                     
  local pseudopotential read in
  partial core-charges read in
  atomic valenz-charges read in
  non local Contribution for L=           2  read in
    real space projection operators read in
  non local Contribution for L=           2  read in
    real space projection operators read in
  non local Contribution for L=           0  read in
    real space projection operators read in
  non local Contribution for L=           0  read in
    real space projection operators read in
  non local Contribution for L=           1  read in
    real space projection operators read in
  non local Contribution for L=           1  read in
    real space projection operators read in
    PAW grid and wavefunctions read in
 
   number of l-projection  operators is LMAX  =           6
   number of lm-projection operators is LMMAX =          18
 
 POTCAR:   PAW_PBE Mo 08Apr2002                   
   VRHFIN =Mo: 4p5s4d                                                           
   LEXCH  = PE                                                                  
   EATOM  =   217.5180 eV,   15.9871 Ry                                         
                                                                                
   TITEL  = PAW_PBE Mo 08Apr2002                                                
   LULTRA =        F    use ultrasoft PP ?                                      
   IUNSCR =        1    unscreen: 0-lin 1-nonlin 2-no                           
   RPACOR =    2.200    partial core radius                                     
   POMASS =   95.940; ZVAL   =    6.000    mass and valenz                      
   RCORE  =    2.750    outmost cutoff radius                                   
   RWIGS  =    2.750; RWIGS  =    1.455    wigner-seitz radius (au A)           
   ENMAX  =  224.584; ENMIN  =  168.438 eV                                      
   RCLOC  =    2.111    cutoff for local pot                                    
   LCOR   =        T    correct aug charges                                     
   LPAW   =        T    paw PP                                                  
   EAUG   =  345.278                                                            
   DEXC   =    -.088                                                            
   RMAX   =    3.077    core radius for proj-oper                               
   RAUG   =    1.300    factor for augmentation sphere                          
   RDEP   =    2.815    radius for radial grids                                 
   QCUT   =   -4.063; QGAM   =    8.126    optimization parameters              
                                                                                
   Description                                                                  
     l     E      TYP  RCUT    TYP  RCUT                                        
     2   .000     23  2.500                                                     
     2   .000     23  2.500                                                     
     0   .000     23  2.600                                                     
     0  1.000     23  2.600                                                     
     1   .400     23  2.750                                                     
     1  2.000     23  2.750                                                     
     3   .000      7   .000                                                     
  local pseudopotential read in
  partial core-charges read in
  atomic valenz-charges read in
  non local Contribution for L=           2  read in
    real space projection operators read in
  non local Contribution for L=           2  read in
    real space projection operators read in
  non local Contribution for L=           0  read in
    real space projection operators read in
  non local Contribution for L=           0  read in
    real space projection operators read in
  non local Contribution for L=           1  read in
    real space projection operators read in
  non local Contribution for L=           1  read in
    real space projection operators read in
    PAW grid and wavefunctions read in
 
   number of l-projection  operators is LMAX  =           6
   number of lm-projection operators is LMMAX =          18
 
 POTCAR:   PAW_PBE W 08Apr2002                    
   VRHFIN =W : 6s5d                                                             
   LEXCH  = PE                                                                  
   EATOM  =   204.6100 eV,   15.0384 Ry                                         
                                                                                
   TITEL  = PAW_PBE W 08Apr2002                                                 
   LULTRA =        F    use ultrasoft PP ?                                      
   IUNSCR =        1    unscreen: 0-lin 1-nonlin 2-no                           
   RPACOR =    2.330    partial core radius                                     
   POMASS =  183.850; ZVAL   =    6.000    mass and valenz                      
   RCORE  =    2.750    outmost cutoff radius                                   
   RWIGS  =    2.750; RWIGS  =    1.455    wigner-seitz radius (au A)           
   ENMAX  =  223.057; ENMIN  =  167.293 eV                                      
   RCLOC  =    2.147    cutoff for local pot                                    
   LCOR   =        T    correct aug charges                                     
   LPAW   =        T    paw PP                                                  
   EAUG   =  373.438                                                            
   DEXC   =    -.060                                                            
   RMAX   =    3.087    core radius for proj-oper                               
   RAUG   =    1.300    factor for augmentation sphere                          
   RDEP   =    2.886    radius for radial grids                                 
   QCUT   =   -4.049; QGAM   =    8.098    optimization parameters              
                                                                                
   Description                                                                  
     l     E      TYP  RCUT    TYP  RCUT                                        
     2   .000     23  2.500                                                     
     2   .000     23  2.500                                                     
     0   .000     23  2.500                                                     
     0   .000     23  2.500                                                     
     1   .200     23  2.750                                                     
     1  2.000     23  2.750                                                     
     3   .000      7   .000                                                     
  local pseudopotential read in
  partial core-charges read in
  atomic valenz-charges read in
  non local Contribution for L=           2  read in
    real space projection operators read in
  non local Contribution for L=           2  read in
    real space projection operators read in
  non local Contribution for L=           0  read in
    real space projection operators read in
  non local Contribution for L=           0  read in
    real space projection operators read in
  non local Contribution for L=           1  read in
    real space projection operators read in
  non local Contribution for L=           1  read in
    real space projection operators read in
    PAW grid and wavefunctions read in
 
   number of l-projection  operators is LMAX  =           6
   number of lm-projection operators is LMMAX =          18
 
 POTCAR:    PAW_PBE S 17Jan2003                   
   VRHFIN =S : s2p4                                                             
   LEXCH  = PE                                                                  
   EATOM  =   276.8230 eV,   20.3459 Ry                                         
                                                                                
   TITEL  = PAW_PBE S 17Jan2003                                                 
   LULTRA =        F    use ultrasoft PP ?                                      
   IUNSCR =        1    unscreen: 0-lin 1-nonlin 2-no                           
   RPACOR =    1.500    partial core radius                                     
   POMASS =   32.066; ZVAL   =    6.000    mass and valenz                      
   RCORE  =    1.900    outmost cutoff radius                                   
   RWIGS  =    2.200; RWIGS  =    1.164    wigner-seitz radius (au A)           
   ENMAX  =  280.000; ENMIN  =  194.016 eV                                      
   ICORE  =        2    local potential                                         
   LCOR   =        T    correct aug charges                                     
   LPAW   =        T    paw PP                                                  
   EAUG   =  335.092                                                            
   DEXC   =     .000                                                            
   RMAX   =    2.867    core radius for proj-oper                               
   RAUG   =    1.300    factor for augmentation sphere                          
   RDEP   =    1.954    radius for radial grids                                 
   QCUT   =   -4.360; QGAM   =    8.721    optimization parameters              
                                                                                
   Description                                                                  
     l     E      TYP  RCUT    TYP  RCUT                                        
     0   .000     23  1.900                                                     
     0   .000     23  1.900                                                     
     1   .000     23  1.900                                                     
     1   .000     23  1.900                                                     
     2   .000     23  1.900                                                     
  local pseudopotential read in
  partial core-charges read in
  atomic valenz-charges read in
  non local Contribution for L=           0  read in
    real space projection operators read in
  non local Contribution for L=           0  read in
    real space projection operators read in
  non local Contribution for L=           1  read in
    real space projection operators read in
  non local Contribution for L=           1  read in
    real space projection operators read in
    PAW grid and wavefunctions read in
 
   number of l-projection  operators is LMAX  =           4
   number of lm-projection operators is LMMAX =           8
 

 ----------------------------------------------------------------------------- 
|                                                                             |
|  ADVICE TO THIS USER RUNNING 'VASP/VAMP'   (HEAR YOUR MASTER'S VOICE ...):  |
|                                                                             |
|      You have a (more or less) 'large supercell' and for larger cells       |
|      it might be more efficient to use real space projection operators      |
|      So try LREAL= Auto  in the INCAR   file.                               |
|      Mind: If you want to do a very accurate calculations keep the          |
|      reciprocal projection scheme          (i.e. LREAL=.FALSE.)             |
|                                                                             |
 ----------------------------------------------------------------------------- 

 PAW_PBE V 08Apr2002                    :
 energy of atom  1       EATOM= -170.8679
 kinetic energy error for atom=    0.0047 (will be added to EATOM!!)
 PAW_PBE Mo 08Apr2002                   :
 energy of atom  2       EATOM= -217.5180
 kinetic energy error for atom=    0.0215 (will be added to EATOM!!)
 PAW_PBE W 08Apr2002                    :
 energy of atom  3       EATOM= -204.6100
 kinetic energy error for atom=    0.0205 (will be added to EATOM!!)
  PAW_PBE S 17Jan2003                   :
 energy of atom  4       EATOM= -276.8230
 kinetic energy error for atom=    0.0122 (will be added to EATOM!!)
 
 
 POSCAR: crystal structure from VMoWS2 with Hexag
  positions in cartesian coordinates
  No initial velocities read in
 exchange correlation table for  LEXCH =        8
   RHO(1)=    0.500       N(1)  =     2000
   RHO(2)=  100.500       N(2)  =     4000
 


--------------------------------------------------------------------------------------------------------


 ion  position               nearest neighbor table
   1  0.333  0.333  0.000-  13 2.34  16 2.34  19 2.36  18 2.36  11 2.36  10 2.36
   2  0.333  0.000  0.000-  11 2.34  20 2.34  17 2.36  16 2.36  15 2.36  14 2.36
   3  0.333  0.667  0.000-  15 2.34  18 2.34  20 2.36  21 2.36  13 2.36  12 2.36
   4  0.667  0.667  0.000-  21 2.34  24 2.34  27 2.36  26 2.36  19 2.36  18 2.36   9 3.34   6 3.34
                             5 3.34   7 3.36
   5  0.667  0.333  0.000-  19 2.34  22 2.34  25 2.36  24 2.36  17 2.36  16 2.36   8 3.34   4 3.34
                             6 3.34   9 3.36
   6  0.667  0.000  0.000-  17 2.34  26 2.34  23 2.36  22 2.36  21 2.36  20 2.36   7 3.34   4 3.34
                             5 3.34   8 3.36
   7  0.000  0.000  0.000-  23 2.34  14 2.34  11 2.36  10 2.36  27 2.36  26 2.36   6 3.34   9 3.34
                             8 3.34   4 3.36
   8  1.000  0.333  0.000-  25 2.34  10 2.34  13 2.36  12 2.36  22 2.36  23 2.36   5 3.34   9 3.34
                             7 3.34   6 3.36
   9  0.000  0.667  0.000-  27 2.34  12 2.34  14 2.36  15 2.36  24 2.36  25 2.36   4 3.34   7 3.34
                             8 3.34   5 3.36
  10  0.111  0.222  0.955-   8 2.34   7 2.36   1 2.36
  11  0.222  0.111  0.045-   2 2.34   7 2.36   1 2.36
  12  0.111  0.556  0.955-   9 2.34   8 2.36   3 2.36
  13  0.222  0.444  0.045-   1 2.34   8 2.36   3 2.36
  14  0.111  0.889  0.955-   7 2.34   9 2.36   2 2.36
  15  0.222  0.777  0.045-   3 2.34   9 2.36   2 2.36
  16  0.444  0.222  0.955-   1 2.34   2 2.36   5 2.36
  17  0.556  0.111  0.045-   6 2.34   2 2.36   5 2.36
  18  0.444  0.556  0.955-   3 2.34   1 2.36   4 2.36
  19  0.556  0.444  0.045-   5 2.34   1 2.36   4 2.36
  20  0.444  0.889  0.955-   2 2.34   3 2.36   6 2.36
  21  0.556  0.777  0.045-   4 2.34   3 2.36   6 2.36
  22  0.777  0.222  0.955-   5 2.34   6 2.36   8 2.36
  23  0.889  0.111  0.045-   7 2.34   6 2.36   8 2.36
  24  0.777  0.556  0.955-   4 2.34   5 2.36   9 2.36
  25  0.889  0.444  0.045-   8 2.34   5 2.36   9 2.36
  26  0.777  0.889  0.955-   6 2.34   4 2.36   7 2.36
  27  0.889  0.777  0.045-   9 2.34   4 2.36   7 2.36
 

IMPORTANT INFORMATION: All symmetrisations will be switched off!
NOSYMM: (Re-)initialisation of all symmetry stuff for point group C_1.

 
 
 KPOINTS: K-POINTS 	#supercell of CrS2 in hexagona

Automatic generation of k-mesh.
Space group operators:
 irot       det(A)        alpha          n_x          n_y          n_z        tau_x        tau_y        tau_z
    1     1.000000     0.000000     1.000000     0.000000     0.000000     0.000000     0.000000     0.000000
 
 Subroutine IBZKPT returns following result:
 ===========================================
 
 Found     34 irreducible k-points:
 
 Following reciprocal coordinates:
            Coordinates               Weight
  0.000000  0.000000  0.000000      1.000000
  0.125000  0.000000  0.000000      2.000000
  0.250000  0.000000  0.000000      2.000000
  0.375000  0.000000  0.000000      2.000000
  0.500000  0.000000  0.000000      1.000000
  0.000000  0.125000  0.000000      2.000000
  0.125000  0.125000  0.000000      2.000000
  0.250000  0.125000  0.000000      2.000000
  0.375000  0.125000  0.000000      2.000000
  0.500000  0.125000  0.000000      2.000000
 -0.375000  0.125000  0.000000      2.000000
 -0.250000  0.125000  0.000000      2.000000
 -0.125000  0.125000  0.000000      2.000000
  0.000000  0.250000  0.000000      2.000000
  0.125000  0.250000  0.000000      2.000000
  0.250000  0.250000  0.000000      2.000000
  0.375000  0.250000  0.000000      2.000000
  0.500000  0.250000  0.000000      2.000000
 -0.375000  0.250000  0.000000      2.000000
 -0.250000  0.250000  0.000000      2.000000
 -0.125000  0.250000  0.000000      2.000000
 -0.000000  0.375000  0.000000      2.000000
  0.125000  0.375000  0.000000      2.000000
  0.250000  0.375000  0.000000      2.000000
  0.375000  0.375000  0.000000      2.000000
  0.500000  0.375000  0.000000      2.000000
 -0.375000  0.375000  0.000000      2.000000
 -0.250000  0.375000  0.000000      2.000000
 -0.125000  0.375000  0.000000      2.000000
  0.000000  0.500000  0.000000      1.000000
  0.125000  0.500000  0.000000      2.000000
  0.250000  0.500000  0.000000      2.000000
  0.375000  0.500000  0.000000      2.000000
  0.500000  0.500000  0.000000      1.000000
 
 Following cartesian coordinates:
            Coordinates               Weight
  0.000000  0.000000  0.000000      1.000000
  0.007209  0.012401  0.000000      2.000000
  0.014418  0.024802  0.000000      2.000000
  0.021626  0.037202  0.000000      2.000000
  0.028835  0.049603  0.000000      1.000000
 -0.007209  0.012401  0.000000      2.000000
  0.000000  0.024802  0.000000      2.000000
  0.007209  0.037202  0.000000      2.000000
  0.014418  0.049603  0.000000      2.000000
  0.021626  0.062004  0.000000      2.000000
 -0.028835 -0.024802  0.000000      2.000000
 -0.021626 -0.012401  0.000000      2.000000
 -0.014418  0.000000  0.000000      2.000000
 -0.014418  0.024802  0.000000      2.000000
 -0.007209  0.037202  0.000000      2.000000
  0.000000  0.049603  0.000000      2.000000
  0.007209  0.062004  0.000000      2.000000
  0.014418  0.074405  0.000000      2.000000
 -0.036044 -0.012401  0.000000      2.000000
 -0.028835  0.000000  0.000000      2.000000
 -0.021626  0.012401  0.000000      2.000000
 -0.021626  0.037202  0.000000      2.000000
 -0.014418  0.049603  0.000000      2.000000
 -0.007209  0.062004  0.000000      2.000000
  0.000000  0.074405  0.000000      2.000000
  0.007209  0.086806  0.000000      2.000000
 -0.043253  0.000000  0.000000      2.000000
 -0.036044  0.012401  0.000000      2.000000
 -0.028835  0.024802  0.000000      2.000000
 -0.028835  0.049603  0.000000      1.000000
 -0.021626  0.062004  0.000000      2.000000
 -0.014418  0.074405  0.000000      2.000000
 -0.007209  0.086806  0.000000      2.000000
  0.000000  0.099206  0.000000      1.000000
 


--------------------------------------------------------------------------------------------------------




 Dimension of arrays:
   k-points           NKPTS =     34   k-points in BZ     NKDIM =     34   number of bands    NBANDS=    120
   number of dos      NEDOS =    301   number of ions     NIONS =     27
   non local maximal  LDIM  =      6   non local SUM 2l+1 LMDIM =     18
   total plane-waves  NPLWV = 222264
   max r-space proj   IRMAX =      1   max aug-charges    IRDMAX=   5642
   dimension x,y,z NGX =    42 NGY =   42 NGZ =  126
   dimension x,y,z NGXF=    84 NGYF=   84 NGZF=  252
   support grid    NGXF=    84 NGYF=   84 NGZF=  252
   ions per type =               3   3   3  18
 NGX,Y,Z   is equivalent  to a cutoff of   6.96,  6.96,  6.98 a.u.
 NGXF,Y,Z  is equivalent  to a cutoff of  13.92, 13.92, 13.96 a.u.


 I would recommend the setting:
   dimension x,y,z NGX =    41 NGY =   41 NGZ =  123
 SYSTEM =  unknown system                          
 POSCAR =  crystal structure from VMoWS2 with Hexag

 Startparameter for this run:
   NWRITE =      2    write-flag & timer
   PREC   = normal    normal or accurate (medium, high low for compatibility)
   ISTART =      0    job   : 0-new  1-cont  2-samecut
   ICHARG =      2    charge: 1-file 2-atom 10-const
   ISPIN  =      1    spin polarized calculation?
   LNONCOLLINEAR =      F non collinear calculations
   LSORBIT =      F    spin-orbit coupling
   INIWAV =      1    electr: 0-lowe 1-rand  2-diag
   LASPH  =      F    aspherical Exc in radial PAW
   METAGGA=      F    non-selfconsistent MetaGGA calc.

 Electronic Relaxation 1
   ENCUT  =  280.0 eV  20.58 Ry    4.54 a.u.  13.68 13.68 40.93*2*pi/ulx,y,z
   ENINI  =  280.0     initial cutoff
   ENAUG  =  373.4 eV  augmentation charge cutoff
   NELM   =     60;   NELMIN=  2; NELMDL= -5     # of ELM steps 
   EDIFF  = 0.1E-03   stopping-criterion for ELM
   LREAL  =      F    real-space projection
   NLSPLINE    = F    spline interpolate recip. space projectors
   LCOMPAT=      F    compatible to vasp.4.4
   GGA_COMPAT  = T    GGA compatible to vasp.4.4-vasp.4.6
   LMAXPAW     = -100 max onsite density
   LMAXMIX     =    2 max onsite mixed and CHGCAR
   VOSKOWN=      0    Vosko Wilk Nusair interpolation
   ROPT   =    0.00000   0.00000   0.00000   0.00000
 Ionic relaxation
   EDIFFG = 0.1E-02   stopping-criterion for IOM
   NSW    =    100    number of steps for IOM
   NBLOCK =      1;   KBLOCK =    100    inner block; outer block 
   IBRION =      1    ionic relax: 0-MD 1-quasi-New 2-CG
   NFREE  =      0    steps in history (QN), initial steepest desc. (CG)
   ISIF   =      3    stress and relaxation
   IWAVPR =     11    prediction:  0-non 1-charg 2-wave 3-comb
   ISYM   =      0    0-nonsym 1-usesym 2-fastsym
   LCORR  =      T    Harris-Foulkes like correction to forces

   POTIM  = 0.5000    time-step for ionic-motion
   TEIN   =    0.0    initial temperature
   TEBEG  =    0.0;   TEEND  =   0.0 temperature during run
   SMASS  =  -3.00    Nose mass-parameter (am)
   estimated Nose-frequenzy (Omega)   =  0.10E-29 period in steps =****** mass=  -0.230E-26a.u.
   SCALEE = 1.0000    scale energy and forces
   NPACO  =    256;   APACO  = 16.0  distance and # of slots for P.C.
   PSTRESS=    0.0 pullay stress

  Mass of Ions in am
   POMASS =  50.94 95.94183.85 32.07
  Ionic Valenz
   ZVAL   =   5.00  6.00  6.00  6.00
  Atomic Wigner-Seitz radii
   RWIGS  =  -1.00 -1.00 -1.00 -1.00
  virtual crystal weights 
   VCA    =   1.00  1.00  1.00  1.00
   NELECT =     159.0000    total number of electrons
   NUPDOWN=      -1.0000    fix difference up-down

 DOS related values:
   EMIN   =  10.00;   EMAX   =-10.00  energy-range for DOS
   EFERMI =   0.00
   ISMEAR =     0;   SIGMA  =   0.20  broadening in eV -4-tet -1-fermi 0-gaus

 Electronic relaxation 2 (details)
   IALGO  =     38    algorithm
   LDIAG  =      T    sub-space diagonalisation (order eigenvalues)
   LSUBROT=      F    optimize rotation matrix (better conditioning)
   TURBO    =      0    0=normal 1=particle mesh
   IRESTART =      0    0=no restart 2=restart with 2 vectors
   NREBOOT  =      0    no. of reboots
   NMIN     =      0    reboot dimension
   EREF     =   0.00    reference energy to select bands
   IMIX   =      4    mixing-type and parameters
     AMIX     =   0.40;   BMIX     =  1.00
     AMIX_MAG =   1.60;   BMIX_MAG =  1.00
     AMIN     =   0.10
     WC   =   100.;   INIMIX=   1;  MIXPRE=   1;  MAXMIX= -45

 Intra band minimization:
   WEIMIN = 0.0010     energy-eigenvalue tresh-hold
   EBREAK =  0.21E-06  absolut break condition
   DEPER  =   0.30     relativ break condition  

   TIME   =   0.40     timestep for ELM

  volume/ion in A,a.u.               =      97.10       655.29
  Fermi-wavevector in a.u.,A,eV,Ry     =   0.643191  1.215456  5.628665  0.413695
  Thomas-Fermi vector in A             =   1.710110
 
 Write flags
   LWAVE  =      F    write WAVECAR
   LCHARG =      F    write CHGCAR
   LVTOT  =      F    write LOCPOT, total local potential
   LVHAR  =      F    write LOCPOT, Hartree potential only
   LELF   =      F    write electronic localiz. function (ELF)
   LORBIT =      0    0 simple, 1 ext, 2 COOP (PROOUT)


 Dipole corrections
   LMONO  =      F    monopole corrections only (constant potential shift)
   LDIPOL =      F    correct potential (dipole corrections)
   IDIPOL =      0    1-x, 2-y, 3-z, 4-all directions 
   EPSILON=  1.0000000 bulk dielectric constant

 Exchange correlation treatment:
   GGA     =    --    GGA type
   LEXCH   =     8    internal setting for exchange type
   VOSKOWN=      0    Vosko Wilk Nusair interpolation
   LHFCALC =     F    Hartree Fock is set to
   LHFONE  =     F    Hartree Fock one center treatment
   AEXX    =    0.0000 exact exchange contribution

 Linear response parameters
   LEPSILON=     F    determine dielectric tensor
   LRPA    =     F    only Hartree local field effects (RPA)
   LNABLA  =     F    use nabla operator in PAW spheres
   LVEL    =     F    velocity operator in full k-point grid
   LINTERFAST=   F  fast interpolation
   KINTER  =     0    interpolate to denser k-point grid
   CSHIFT  =0.1000    complex shift for real part using Kramers Kronig
   OMEGAMAX=  -1.0    maximum frequency
   DEG_THRESHOLD= 0.2000000E-02 threshold for treating states as degnerate
   RTIME   =    0.100 relaxation time in fs

 Orbital magnetization related:
   ORBITALMAG=     F  switch on orbital magnetization
   LCHIMAG   =     F  perturbation theory with respect to B field
   DQ        =  0.001000  dq finite difference perturbation B field



--------------------------------------------------------------------------------------------------------


 quasi-Newton-method for relaxation of ions
 charge density and potential will be updated during run
 non-spin polarized calculation
 Variant of blocked Davidson
 Davidson routine will perform the subspace rotation
 perform sub-space diagonalisation
    after iterative eigenvector-optimisation
 modified Broyden-mixing scheme, WC =      100.0
 initial mixing is a Kerker type mixing with AMIX =  0.4000 and BMIX =      1.0000
 Hartree-type preconditioning will be used
 using additional bands           40
 reciprocal scheme for non local part
 use partial core corrections
 calculate Harris-corrections to forces 
   (improved forces if not selfconsistent)
 use gradient corrections 
 use of overlap-Matrix (Vanderbilt PP)
 Gauss-broadening in eV      SIGMA  =   0.20


--------------------------------------------------------------------------------------------------------


  energy-cutoff  :      280.00
  volume of cell :     2621.81
      direct lattice vectors                 reciprocal lattice vectors
     8.669999960  5.039999894  0.000000000     0.057670129  0.099206348  0.000000000
    -8.669999821  5.040000133  0.000000000    -0.057670126  0.099206350  0.000000000
     0.000000000  0.000000000 30.000000000     0.000000000  0.000000000  0.033333333

  length of vectors
    10.028484344 10.028484344 30.000000000     0.114750788  0.114750788  0.033333333


 
 k-points in units of 2pi/SCALE and weight: K-POINTS 	#supercell of CrS2 in hexagona
   0.00000000  0.00000000  0.00000000       0.016
   0.00720877  0.01240079  0.00000000       0.031
   0.01441753  0.02480159  0.00000000       0.031
   0.02162630  0.03720238  0.00000000       0.031
   0.02883506  0.04960317  0.00000000       0.016
  -0.00720877  0.01240079  0.00000000       0.031
   0.00000000  0.02480159  0.00000000       0.031
   0.00720877  0.03720238  0.00000000       0.031
   0.01441753  0.04960317  0.00000000       0.031
   0.02162630  0.06200397  0.00000000       0.031
  -0.02883506 -0.02480159  0.00000000       0.031
  -0.02162630 -0.01240079  0.00000000       0.031
  -0.01441753  0.00000000  0.00000000       0.031
  -0.01441753  0.02480159  0.00000000       0.031
  -0.00720877  0.03720238  0.00000000       0.031
   0.00000000  0.04960317  0.00000000       0.031
   0.00720877  0.06200397  0.00000000       0.031
   0.01441753  0.07440476  0.00000000       0.031
  -0.03604383 -0.01240079  0.00000000       0.031
  -0.02883506  0.00000000  0.00000000       0.031
  -0.02162630  0.01240079  0.00000000       0.031
  -0.02162630  0.03720238  0.00000000       0.031
  -0.01441753  0.04960317  0.00000000       0.031
  -0.00720877  0.06200397  0.00000000       0.031
   0.00000000  0.07440476  0.00000000       0.031
   0.00720877  0.08680556  0.00000000       0.031
  -0.04325260  0.00000000  0.00000000       0.031
  -0.03604383  0.01240079  0.00000000       0.031
  -0.02883506  0.02480159  0.00000000       0.031
  -0.02883506  0.04960317  0.00000000       0.016
  -0.02162630  0.06200397  0.00000000       0.031
  -0.01441753  0.07440476  0.00000000       0.031
  -0.00720876  0.08680556  0.00000000       0.031
   0.00000000  0.09920635  0.00000000       0.016
 
 k-points in reciprocal lattice and weights: K-POINTS 	#supercell of CrS2 in hexagona
   0.00000000  0.00000000  0.00000000       0.016
   0.12500000  0.00000000  0.00000000       0.031
   0.25000000  0.00000000  0.00000000       0.031
   0.37500000  0.00000000  0.00000000       0.031
   0.50000000  0.00000000  0.00000000       0.016
   0.00000000  0.12500000  0.00000000       0.031
   0.12500000  0.12500000  0.00000000       0.031
   0.25000000  0.12500000  0.00000000       0.031
   0.37500000  0.12500000  0.00000000       0.031
   0.50000000  0.12500000  0.00000000       0.031
  -0.37500000  0.12500000  0.00000000       0.031
  -0.25000000  0.12500000  0.00000000       0.031
  -0.12500000  0.12500000  0.00000000       0.031
   0.00000000  0.25000000  0.00000000       0.031
   0.12500000  0.25000000  0.00000000       0.031
   0.25000000  0.25000000  0.00000000       0.031
   0.37500000  0.25000000  0.00000000       0.031
   0.50000000  0.25000000  0.00000000       0.031
  -0.37500000  0.25000000  0.00000000       0.031
  -0.25000000  0.25000000  0.00000000       0.031
  -0.12500000  0.25000000  0.00000000       0.031
  -0.00000000  0.37500000  0.00000000       0.031
   0.12500000  0.37500000  0.00000000       0.031
   0.25000000  0.37500000  0.00000000       0.031
   0.37500000  0.37500000  0.00000000       0.031
   0.50000000  0.37500000  0.00000000       0.031
  -0.37500000  0.37500000  0.00000000       0.031
  -0.25000000  0.37500000  0.00000000       0.031
  -0.12500000  0.37500000  0.00000000       0.031
   0.00000000  0.50000000  0.00000000       0.016
   0.12500000  0.50000000  0.00000000       0.031
   0.25000000  0.50000000  0.00000000       0.031
   0.37500000  0.50000000  0.00000000       0.031
   0.50000000  0.50000000  0.00000000       0.016
 
 position of ions in fractional coordinates (direct lattice) 
   0.33333334  0.33333334  0.00000000
   0.33333334  0.00000000  0.00000000
   0.33333334  0.66666669  0.00000000
   0.66666669  0.66666669  0.00000000
   0.66666669  0.33333334  0.00000000
   0.66666669  0.00000000  0.00000000
   0.00000000  0.00000000  0.00000000
   1.00000000  0.33333334  0.00000000
   0.00000000  0.66666669  0.00000000
   0.11068511  0.22244981  0.95539999
   0.22244981  0.11068511  0.04460000
   0.11068511  0.55578315  0.95539999
   0.22244981  0.44401845  0.04460000
   0.11068511  0.88911647  0.95539999
   0.22244981  0.77735180  0.04460000
   0.44401845  0.22244981  0.95539999
   0.55578315  0.11068511  0.04460000
   0.44401845  0.55578315  0.95539999
   0.55578315  0.44401845  0.04460000
   0.44401845  0.88911647  0.95539999
   0.55578315  0.77735180  0.04460000
   0.77735180  0.22244981  0.95539999
   0.88911647  0.11068511  0.04460000
   0.77735180  0.55578315  0.95539999
   0.88911647  0.44401845  0.04460000
   0.77735180  0.88911647  0.95539999
   0.88911647  0.77735180  0.04460000
 
 position of ions in cartesian coordinates  (Angst):
   0.00000005  3.36000011  0.00000000
   2.89000007  1.68000002  0.00000000
  -2.88999998  5.04000020  0.00000000
   0.00000009  6.72000022  0.00000000
   2.89000012  5.04000012  0.00000000
   5.78000015  3.36000003  0.00000000
   0.00000000  0.00000000  0.00000000
   5.77999993  6.71999999  0.00000000
  -5.78000005  3.36000019  0.00000000
  -0.96899991  1.67900001 28.66199970
   0.96899995  1.67899998  1.33799996
  -3.85899993  3.35900011 28.66199970
  -1.92100007  3.35900008  1.33799996
  -6.74899970  5.03900005 28.66199970
  -4.81100010  5.03900017  1.33799996
   1.92100017  3.35900003 28.66199970
   3.85900003  3.35900000  1.33799996
  -0.96899986  5.03900012 28.66199970
   0.96900000  5.03900009  1.33799996
  -3.85899963  6.71900006 28.66199970
  -1.92100003  6.71900019  1.33799996
   4.81100024  5.03900004 28.66199970
   6.74899984  5.03899987  1.33799996
   1.92100021  6.71900014 28.66199970
   3.85899981  6.71899996  1.33799996
  -0.96899956  8.39900008 28.66199970
   0.96899979  8.39900005  1.33799996
 


--------------------------------------------------------------------------------------------------------


 k-point  1 :   0.0000 0.0000 0.0000  plane waves:   27959
 k-point  2 :   0.1250 0.0000 0.0000  plane waves:   27889
 k-point  3 :   0.2500 0.0000 0.0000  plane waves:   27875
 k-point  4 :   0.3750 0.0000 0.0000  plane waves:   27893
 k-point  5 :   0.5000 0.0000 0.0000  plane waves:   27932
 k-point  6 :   0.0000 0.1250 0.0000  plane waves:   27889
 k-point  7 :   0.1250 0.1250 0.0000  plane waves:   27906
 k-point  8 :   0.2500 0.1250 0.0000  plane waves:   27898
 k-point  9 :   0.3750 0.1250 0.0000  plane waves:   27888
 k-point 10 :   0.5000 0.1250 0.0000  plane waves:   27873
 k-point 11 :  -0.3750 0.1250 0.0000  plane waves:   27874
 k-point 12 :  -0.2500 0.1250 0.0000  plane waves:   27895
 k-point 13 :  -0.1250 0.1250 0.0000  plane waves:   27879
 k-point 14 :   0.0000 0.2500 0.0000  plane waves:   27875
 k-point 15 :   0.1250 0.2500 0.0000  plane waves:   27898
 k-point 16 :   0.2500 0.2500 0.0000  plane waves:   27920
 k-point 17 :   0.3750 0.2500 0.0000  plane waves:   27901
 k-point 18 :   0.5000 0.2500 0.0000  plane waves:   27875
 k-point 19 :  -0.3750 0.2500 0.0000  plane waves:   27894
 k-point 20 :  -0.2500 0.2500 0.0000  plane waves:   27870
 k-point 21 :  -0.1250 0.2500 0.0000  plane waves:   27895
 k-point 22 :  -0.0000 0.3750 0.0000  plane waves:   27893
 k-point 23 :   0.1250 0.3750 0.0000  plane waves:   27888
 k-point 24 :   0.2500 0.3750 0.0000  plane waves:   27901
 k-point 25 :   0.3750 0.3750 0.0000  plane waves:   27860
 k-point 26 :   0.5000 0.3750 0.0000  plane waves:   27895
 k-point 27 :  -0.3750 0.3750 0.0000  plane waves:   27858
 k-point 28 :  -0.2500 0.3750 0.0000  plane waves:   27894
 k-point 29 :  -0.1250 0.3750 0.0000  plane waves:   27874
 k-point 30 :   0.0000 0.5000 0.0000  plane waves:   27932
 k-point 31 :   0.1250 0.5000 0.0000  plane waves:   27873
 k-point 32 :   0.2500 0.5000 0.0000  plane waves:   27875
 k-point 33 :   0.3750 0.5000 0.0000  plane waves:   27895
 k-point 34 :   0.5000 0.5000 0.0000  plane waves:   27910

 maximum and minimum number of plane-waves per node :     27959    27858

 maximum number of plane-waves:     27959
 maximum index in each direction: 
   IXMAX=   14   IYMAX=   13   IZMAX=   40
   IXMIN=  -14   IYMIN=  -14   IZMIN=  -40

 WARNING: aliasing errors must be expected set NGX to  58 to avoid them
 WARNING: aliasing errors must be expected set NGY to  56 to avoid them
 WARNING: aliasing errors must be expected set NGZ to 162 to avoid them
 aliasing errors are usually negligible using standard VASP settings
 and one can safely disregard these warnings

 serial   3D FFT for wavefunctions

 total amount of memory used by VASP on root node   650782. kBytes
========================================================================

   base      :      30000. kBytes
   nonl-proj :     559647. kBytes
   fftplans  :       2414. kBytes
   grid      :      12150. kBytes
   one-center:        419. kBytes
   wavefun   :      46152. kBytes
 
     INWAV:  cpu time    0.0000: real time    0.0000
 Broyden mixing: mesh for mixing (old mesh)
   NGX = 27   NGY = 27   NGZ = 81
  (NGX  = 84   NGY  = 84   NGZ  =252)
  gives a total of  59049 points

 initial charge density was supplied:
 charge density of overlapping atoms calculated
 number of electron     159.0000000 magnetization 
 keeping initial charge density in first step


--------------------------------------------------------------------------------------------------------


 Maximum index for augmentation-charges          139 (set IRDMAX)


--------------------------------------------------------------------------------------------------------


 First call to EWALD:  gamma=   0.129
 Maximum number of real-space cells 4x 4x 2
 Maximum number of reciprocal cells 2x 2x 5

 FEWALD executed in parallel
    FEWALD:  cpu time    0.0015: real time    0.0015


----------------------------------------- Iteration    1(   1)  ---------------------------------------


    POTLOK:  cpu time    0.0378: real time    0.0379
    SETDIJ:  cpu time    0.0034: real time    0.0035
     EDDAV:  cpu time   22.7962: real time   22.8705
       DOS:  cpu time    0.0016: real time    0.0016
    --------------------------------------------
      LOOP:  cpu time   22.8421: real time   22.9205

 eigenvalue-minimisations  :  8160
 total energy-change (2. order) : 0.1124123E+04  (-0.3586823E+04)
 number of electron     159.0000000 magnetization 
 augmentation part      159.0000000 magnetization 

 Free energy of the ion-electron system (eV)
  ---------------------------------------------------
  alpha Z        PSCENC =        81.65567618
  Ewald energy   TEWEN  =     41891.19379416
  -Hartree energ DENC   =    -47723.83905759
  -exchange      EXHF   =         0.00000000
  -V(xc)+E(xc)   XCENC  =      -242.92449815
  PAW double counting   =      3467.42045192    -2871.19716117
  entropy T*S    EENTRO =        -0.52894593
  eigenvalues    EBANDS =      -239.10022717
  atomic energy  EATOM  =      6761.44252427
  Solvation  Ediel_sol  =         0.00000000
  ---------------------------------------------------
  free energy    TOTEN  =      1124.12255651 eV

  energy without entropy =     1124.65150244  energy(sigma->0) =     1124.38702948


--------------------------------------------------------------------------------------------------------




----------------------------------------- Iteration    1(   2)  ---------------------------------------


     EDDAV:  cpu time   29.5766: real time   29.6477
       DOS:  cpu time    0.0010: real time    0.0010
    --------------------------------------------
      LOOP:  cpu time   29.5786: real time   29.6570

 eigenvalue-minimisations  : 11240
 total energy-change (2. order) :-0.1127936E+04  (-0.1087517E+04)
 number of electron     159.0000000 magnetization 
 augmentation part      159.0000000 magnetization 

 Free energy of the ion-electron system (eV)
  ---------------------------------------------------
  alpha Z        PSCENC =        81.65567618
  Ewald energy   TEWEN  =     41891.19379416
  -Hartree energ DENC   =    -47723.83905759
  -exchange      EXHF   =         0.00000000
  -V(xc)+E(xc)   XCENC  =      -242.92449815
  PAW double counting   =      3467.42045192    -2871.19716117
  entropy T*S    EENTRO =        -0.20092442
  eigenvalues    EBANDS =     -1367.36461718
  atomic energy  EATOM  =      6761.44252427
  Solvation  Ediel_sol  =         0.00000000
  ---------------------------------------------------
  free energy    TOTEN  =        -3.81381199 eV

  energy without entropy =       -3.61288757  energy(sigma->0) =       -3.71334978


--------------------------------------------------------------------------------------------------------




----------------------------------------- Iteration    1(   3)  ---------------------------------------


     EDDAV:  cpu time   29.0443: real time   29.1138
       DOS:  cpu time    0.0010: real time    0.0010
    --------------------------------------------
      LOOP:  cpu time   29.0462: real time   29.1220

 eigenvalue-minimisations  : 11000
 total energy-change (2. order) :-0.1963277E+03  (-0.1887133E+03)
 number of electron     159.0000000 magnetization 
 augmentation part      159.0000000 magnetization 

 Free energy of the ion-electron system (eV)
  ---------------------------------------------------
  alpha Z        PSCENC =        81.65567618
  Ewald energy   TEWEN  =     41891.19379416
  -Hartree energ DENC   =    -47723.83905759
  -exchange      EXHF   =         0.00000000
  -V(xc)+E(xc)   XCENC  =      -242.92449815
  PAW double counting   =      3467.42045192    -2871.19716117
  entropy T*S    EENTRO =        -0.26187019
  eigenvalues    EBANDS =     -1563.63137622
  atomic energy  EATOM  =      6761.44252427
  Solvation  Ediel_sol  =         0.00000000
  ---------------------------------------------------
  free energy    TOTEN  =      -200.14151680 eV

  energy without entropy =     -199.87964661  energy(sigma->0) =     -200.01058170


--------------------------------------------------------------------------------------------------------




----------------------------------------- Iteration    1(   4)  ---------------------------------------


     EDDAV:  cpu time   31.2838: real time   31.3592
       DOS:  cpu time    0.0010: real time    0.0010
    --------------------------------------------
      LOOP:  cpu time   31.2857: real time   31.3669

 eigenvalue-minimisations  : 12040
 total energy-change (2. order) :-0.8934705E+01  (-0.8625360E+01)
 number of electron     159.0000000 magnetization 
 augmentation part      159.0000000 magnetization 

 Free energy of the ion-electron system (eV)
  ---------------------------------------------------
  alpha Z        PSCENC =        81.65567618
  Ewald energy   TEWEN  =     41891.19379416
  -Hartree energ DENC   =    -47723.83905759
  -exchange      EXHF   =         0.00000000
  -V(xc)+E(xc)   XCENC  =      -242.92449815
  PAW double counting   =      3467.42045192    -2871.19716117
  entropy T*S    EENTRO =        -0.26051506
  eigenvalues    EBANDS =     -1572.56743682
  atomic energy  EATOM  =      6761.44252427
  Solvation  Ediel_sol  =         0.00000000
  ---------------------------------------------------
  free energy    TOTEN  =      -209.07622227 eV

  energy without entropy =     -208.81570721  energy(sigma->0) =     -208.94596474


--------------------------------------------------------------------------------------------------------




----------------------------------------- Iteration    1(   5)  ---------------------------------------


     EDDAV:  cpu time   30.2802: real time   30.3527
       DOS:  cpu time    0.0010: real time    0.0010
    CHARGE:  cpu time    0.4649: real time    0.4661
    MIXING:  cpu time    0.0017: real time    0.0020
    --------------------------------------------
      LOOP:  cpu time   30.7488: real time   30.8292

 eigenvalue-minimisations  : 11600
 total energy-change (2. order) :-0.3285334E+00  (-0.3275806E+00)
 number of electron     159.0000110 magnetization 
 augmentation part       -9.8619080 magnetization 

 Broyden mixing:
  rms(total) = 0.27778E+01    rms(broyden)= 0.27774E+01
  rms(prec ) = 0.29676E+01
  weight for this iteration     100.00

 Free energy of the ion-electron system (eV)
  ---------------------------------------------------
  alpha Z        PSCENC =        81.65567618
  Ewald energy   TEWEN  =     41891.19379416
  -Hartree energ DENC   =    -47723.83905759
  -exchange      EXHF   =         0.00000000
  -V(xc)+E(xc)   XCENC  =      -242.92449815
  PAW double counting   =      3467.42045192    -2871.19716117
  entropy T*S    EENTRO =        -0.25704141
  eigenvalues    EBANDS =     -1572.89944385
  atomic energy  EATOM  =      6761.44252427
  Solvation  Ediel_sol  =         0.00000000
  ---------------------------------------------------
  free energy    TOTEN  =      -209.40475565 eV

  energy without entropy =     -209.14771424  energy(sigma->0) =     -209.27623495


--------------------------------------------------------------------------------------------------------




----------------------------------------- Iteration    1(   6)  ---------------------------------------


    POTLOK:  cpu time    0.0352: real time    0.0352
    SETDIJ:  cpu time    0.0027: real time    0.0027
     EDDAV:  cpu time   31.9716: real time   32.0487
       DOS:  cpu time    0.0010: real time    0.0010
    CHARGE:  cpu time    0.4553: real time    0.4564
    MIXING:  cpu time    0.0023: real time    0.0025
    --------------------------------------------
      LOOP:  cpu time   32.4690: real time   32.5556

 eigenvalue-minimisations  : 12440
 total energy-change (2. order) :-0.3247087E+02  (-0.1127683E+02)
 number of electron     159.0000107 magnetization 
 augmentation part        7.2917663 magnetization 

 Broyden mixing:
  rms(total) = 0.60861E+01    rms(broyden)= 0.60855E+01
  rms(prec ) = 0.67195E+01
  weight for this iteration     100.00

 eigenvalues of (default mixing * dielectric matrix)
  average eigenvalue GAMMA=   0.2914
  0.2914

 Free energy of the ion-electron system (eV)
  ---------------------------------------------------
  alpha Z        PSCENC =        81.65567618
  Ewald energy   TEWEN  =     41891.19379416
  -Hartree energ DENC   =    -47702.16504794
  -exchange      EXHF   =         0.00000000
  -V(xc)+E(xc)   XCENC  =      -233.58007422
  PAW double counting   =      3677.14644138    -3083.14510764
  entropy T*S    EENTRO =        -0.26185455
  eigenvalues    EBANDS =     -1634.16197407
  atomic energy  EATOM  =      6761.44252427
  Solvation  Ediel_sol  =         0.00000000
  ---------------------------------------------------
  free energy    TOTEN  =      -241.87562244 eV

  energy without entropy =     -241.61376789  energy(sigma->0) =     -241.74469517


--------------------------------------------------------------------------------------------------------




----------------------------------------- Iteration    1(   7)  ---------------------------------------


    POTLOK:  cpu time    0.0324: real time    0.0325
    SETDIJ:  cpu time    0.0026: real time    0.0026
     EDDAV:  cpu time   33.9005: real time   33.9819
       DOS:  cpu time    0.0002: real time    0.0010
    CHARGE:  cpu time    0.4682: real time    0.4693
    MIXING:  cpu time    0.0013: real time    0.0013
    --------------------------------------------
      LOOP:  cpu time   34.4070: real time   34.4977

 eigenvalue-minimisations  : 13280
 total energy-change (2. order) : 0.4582946E+02  (-0.1799877E+02)
 number of electron     159.0000087 magnetization 
 augmentation part       -6.2694719 magnetization 

 Broyden mixing:
  rms(total) = 0.19712E+01    rms(broyden)= 0.19693E+01
  rms(prec ) = 0.21919E+01
  weight for this iteration     100.00

 eigenvalues of (default mixing * dielectric matrix)
  average eigenvalue GAMMA=   0.5569
  0.9023  0.2116

 Free energy of the ion-electron system (eV)
  ---------------------------------------------------
  alpha Z        PSCENC =        81.65567618
  Ewald energy   TEWEN  =     41891.19379416
  -Hartree energ DENC   =    -47739.13407106
  -exchange      EXHF   =         0.00000000
  -V(xc)+E(xc)   XCENC  =      -234.97092566
  PAW double counting   =      3763.65327935    -3177.69907019
  entropy T*S    EENTRO =        -0.34046813
  eigenvalues    EBANDS =     -1541.84690179
  atomic energy  EATOM  =      6761.44252427
  Solvation  Ediel_sol  =         0.00000000
  ---------------------------------------------------
  free energy    TOTEN  =      -196.04616288 eV

  energy without entropy =     -195.70569475  energy(sigma->0) =     -195.87592882


--------------------------------------------------------------------------------------------------------




----------------------------------------- Iteration    1(   8)  ---------------------------------------


    POTLOK:  cpu time    0.0326: real time    0.0327
    SETDIJ:  cpu time    0.0025: real time    0.0025
     EDDAV:  cpu time   31.4089: real time   31.4848
       DOS:  cpu time    0.0011: real time    0.0011
    CHARGE:  cpu time    0.4827: real time    0.4839
    MIXING:  cpu time    0.0013: real time    0.0013
    --------------------------------------------
      LOOP:  cpu time   31.9300: real time   32.0150

 eigenvalue-minimisations  : 12120
 total energy-change (2. order) : 0.6814134E+01  (-0.1889190E+01)
 number of electron     159.0000095 magnetization 
 augmentation part       -6.3048715 magnetization 

 Broyden mixing:
  rms(total) = 0.12061E+01    rms(broyden)= 0.12059E+01
  rms(prec ) = 0.12998E+01
  weight for this iteration     100.00

 eigenvalues of (default mixing * dielectric matrix)
  average eigenvalue GAMMA=   0.5959
  1.1507  0.2291  0.4078

 Free energy of the ion-electron system (eV)
  ---------------------------------------------------
  alpha Z        PSCENC =        81.65567618
  Ewald energy   TEWEN  =     41891.19379416
  -Hartree energ DENC   =    -47762.07762505
  -exchange      EXHF   =         0.00000000
  -V(xc)+E(xc)   XCENC  =      -234.95794010
  PAW double counting   =      3908.72324847    -3324.46807700
  entropy T*S    EENTRO =        -0.33047942
  eigenvalues    EBANDS =     -1510.41315027
  atomic energy  EATOM  =      6761.44252427
  Solvation  Ediel_sol  =         0.00000000
  ---------------------------------------------------
  free energy    TOTEN  =      -189.23202877 eV

  energy without entropy =     -188.90154935  energy(sigma->0) =     -189.06678906


--------------------------------------------------------------------------------------------------------




----------------------------------------- Iteration    1(   9)  ---------------------------------------


    POTLOK:  cpu time    0.0320: real time    0.0321
    SETDIJ:  cpu time    0.0026: real time    0.0026
     EDDAV:  cpu time   34.0072: real time   34.0886
       DOS:  cpu time    0.0010: real time    0.0010
    CHARGE:  cpu time    0.4890: real time    0.4902
    MIXING:  cpu time    0.0014: real time    0.0014
    --------------------------------------------
      LOOP:  cpu time   34.5342: real time   34.6248

 eigenvalue-minimisations  : 13320
 total energy-change (2. order) : 0.1204832E+01  (-0.2863086E+00)
 number of electron     159.0000091 magnetization 
 augmentation part       -5.4580952 magnetization 

 Broyden mixing:
  rms(total) = 0.87129E+00    rms(broyden)= 0.87107E+00
  rms(prec ) = 0.94537E+00
  weight for this iteration     100.00

 eigenvalues of (default mixing * dielectric matrix)
  average eigenvalue GAMMA=   0.7441
  1.8126  0.6315  0.2197  0.3128

 Free energy of the ion-electron system (eV)
  ---------------------------------------------------
  alpha Z        PSCENC =        81.65567618
  Ewald energy   TEWEN  =     41891.19379416
  -Hartree energ DENC   =    -47766.94074829
  -exchange      EXHF   =         0.00000000
  -V(xc)+E(xc)   XCENC  =      -234.03902121
  PAW double counting   =      3980.49561852    -3397.12767817
  entropy T*S    EENTRO =        -0.33179172
  eigenvalues    EBANDS =     -1504.37557036
  atomic energy  EATOM  =      6761.44252427
  Solvation  Ediel_sol  =         0.00000000
  ---------------------------------------------------
  free energy    TOTEN  =      -188.02719664 eV

  energy without entropy =     -187.69540492  energy(sigma->0) =     -187.86130078


--------------------------------------------------------------------------------------------------------




----------------------------------------- Iteration    1(  10)  ---------------------------------------


    POTLOK:  cpu time    0.0334: real time    0.0334
    SETDIJ:  cpu time    0.0027: real time    0.0027
     EDDAV:  cpu time   34.4184: real time   34.5015
       DOS:  cpu time    0.0010: real time    0.0010
    CHARGE:  cpu time    0.4954: real time    0.4966
    MIXING:  cpu time    0.0015: real time    0.0014
    --------------------------------------------
      LOOP:  cpu time   34.9533: real time   35.0459

 eigenvalue-minimisations  : 13520
 total energy-change (2. order) : 0.1096364E+01  (-0.1536493E+00)
 number of electron     159.0000092 magnetization 
 augmentation part       -4.2747226 magnetization 

 Broyden mixing:
  rms(total) = 0.20367E+00    rms(broyden)= 0.20315E+00
  rms(prec ) = 0.21218E+00
  weight for this iteration     100.00

 eigenvalues of (default mixing * dielectric matrix)
  average eigenvalue GAMMA=   0.9734
  1.8549  1.8549  0.6458  0.2202  0.2915

 Free energy of the ion-electron system (eV)
  ---------------------------------------------------
  alpha Z        PSCENC =        81.65567618
  Ewald energy   TEWEN  =     41891.19379416
  -Hartree energ DENC   =    -47780.08050675
  -exchange      EXHF   =         0.00000000
  -V(xc)+E(xc)   XCENC  =      -232.57683736
  PAW double counting   =      4104.54233157    -3522.71625826
  entropy T*S    EENTRO =        -0.35427643
  eigenvalues    EBANDS =     -1490.03727951
  atomic energy  EATOM  =      6761.44252427
  Solvation  Ediel_sol  =         0.00000000
  ---------------------------------------------------
  free energy    TOTEN  =      -186.93083215 eV

  energy without entropy =     -186.57655572  energy(sigma->0) =     -186.75369393


--------------------------------------------------------------------------------------------------------




----------------------------------------- Iteration    1(  11)  ---------------------------------------


    POTLOK:  cpu time    0.0324: real time    0.0324
    SETDIJ:  cpu time    0.0025: real time    0.0025
     EDDAV:  cpu time   34.0721: real time   34.1542
       DOS:  cpu time    0.0011: real time    0.0011
    CHARGE:  cpu time    0.5014: real time    0.5026
    MIXING:  cpu time    0.0015: real time    0.0015
    --------------------------------------------
      LOOP:  cpu time   34.6120: real time   34.7039

 eigenvalue-minimisations  : 13360
 total energy-change (2. order) : 0.1628763E-01  (-0.3783405E-01)
 number of electron     159.0000087 magnetization 
 augmentation part       -4.6016510 magnetization 

 Broyden mixing:
  rms(total) = 0.26731E+00    rms(broyden)= 0.26727E+00
  rms(prec ) = 0.29716E+00
  weight for this iteration     100.00

 eigenvalues of (default mixing * dielectric matrix)
  average eigenvalue GAMMA=   0.9810
  2.2365  1.6620  0.8215  0.6517  0.2199  0.2943

 Free energy of the ion-electron system (eV)
  ---------------------------------------------------
  alpha Z        PSCENC =        81.65567618
  Ewald energy   TEWEN  =     41891.19379416
  -Hartree energ DENC   =    -47795.97546405
  -exchange      EXHF   =         0.00000000
  -V(xc)+E(xc)   XCENC  =      -232.07775121
  PAW double counting   =      4176.39767995    -3594.66435430
  entropy T*S    EENTRO =        -0.34003226
  eigenvalues    EBANDS =     -1474.54661725
  atomic energy  EATOM  =      6761.44252427
  Solvation  Ediel_sol  =         0.00000000
  ---------------------------------------------------
  free energy    TOTEN  =      -186.91454451 eV

  energy without entropy =     -186.57451226  energy(sigma->0) =     -186.74452838


--------------------------------------------------------------------------------------------------------




----------------------------------------- Iteration    1(  12)  ---------------------------------------


    POTLOK:  cpu time    0.0329: real time    0.0329
    SETDIJ:  cpu time    0.0027: real time    0.0027
     EDDAV:  cpu time   34.4010: real time   34.4844
       DOS:  cpu time    0.0011: real time    0.0011
    CHARGE:  cpu time    0.4942: real time    0.4954
    MIXING:  cpu time    0.0015: real time    0.0015
    --------------------------------------------
      LOOP:  cpu time   34.9343: real time   35.0277

 eigenvalue-minimisations  : 13520
 total energy-change (2. order) : 0.7318763E-01  (-0.2193828E-01)
 number of electron     159.0000089 magnetization 
 augmentation part       -4.0450102 magnetization 

 Broyden mixing:
  rms(total) = 0.11137E+00    rms(broyden)= 0.11117E+00
  rms(prec ) = 0.12416E+00
  weight for this iteration     100.00

 eigenvalues of (default mixing * dielectric matrix)
  average eigenvalue GAMMA=   0.9190
  2.2281  1.7217  0.9127  0.6330  0.2198  0.2945  0.4235

 Free energy of the ion-electron system (eV)
  ---------------------------------------------------
  alpha Z        PSCENC =        81.65567618
  Ewald energy   TEWEN  =     41891.19379416
  -Hartree energ DENC   =    -47802.21419408
  -exchange      EXHF   =         0.00000000
  -V(xc)+E(xc)   XCENC  =      -231.88735001
  PAW double counting   =      4190.47636936    -3608.65595682
  entropy T*S    EENTRO =        -0.34762236
  eigenvalues    EBANDS =     -1468.50459756
  atomic energy  EATOM  =      6761.44252427
  Solvation  Ediel_sol  =         0.00000000
  ---------------------------------------------------
  free energy    TOTEN  =      -186.84135688 eV

  energy without entropy =     -186.49373452  energy(sigma->0) =     -186.66754570


--------------------------------------------------------------------------------------------------------




----------------------------------------- Iteration    1(  13)  ---------------------------------------


    POTLOK:  cpu time    0.0330: real time    0.0332
    SETDIJ:  cpu time    0.0025: real time    0.0026
     EDDAV:  cpu time   34.2422: real time   34.3248
       DOS:  cpu time    0.0010: real time    0.0010
    CHARGE:  cpu time    0.4959: real time    0.4971
    MIXING:  cpu time    0.0016: real time    0.0016
    --------------------------------------------
      LOOP:  cpu time   34.7774: real time   34.8700

 eigenvalue-minimisations  : 13440
 total energy-change (2. order) : 0.5142606E-02  (-0.2774213E-02)
 number of electron     159.0000089 magnetization 
 augmentation part       -4.1286714 magnetization 

 Broyden mixing:
  rms(total) = 0.96825E-01    rms(broyden)= 0.96793E-01
  rms(prec ) = 0.10752E+00
  weight for this iteration     100.00

 eigenvalues of (default mixing * dielectric matrix)
  average eigenvalue GAMMA=   0.8796
  2.2042  1.8538  1.0764  0.6283  0.6283  0.2944  0.2198  0.1317

 Free energy of the ion-electron system (eV)
  ---------------------------------------------------
  alpha Z        PSCENC =        81.65567618
  Ewald energy   TEWEN  =     41891.19379416
  -Hartree energ DENC   =    -47804.76586571
  -exchange      EXHF   =         0.00000000
  -V(xc)+E(xc)   XCENC  =      -231.85520018
  PAW double counting   =      4191.53695608    -3609.67867615
  entropy T*S    EENTRO =        -0.34639012
  eigenvalues    EBANDS =     -1466.01903279
  atomic energy  EATOM  =      6761.44252427
  Solvation  Ediel_sol  =         0.00000000
  ---------------------------------------------------
  free energy    TOTEN  =      -186.83621427 eV

  energy without entropy =     -186.48982415  energy(sigma->0) =     -186.66301921


--------------------------------------------------------------------------------------------------------




----------------------------------------- Iteration    1(  14)  ---------------------------------------


    POTLOK:  cpu time    0.0374: real time    0.0377
    SETDIJ:  cpu time    0.0027: real time    0.0027
     EDDAV:  cpu time   33.3806: real time   33.4622
       DOS:  cpu time    0.0011: real time    0.0011
    CHARGE:  cpu time    0.4955: real time    0.4967
    MIXING:  cpu time    0.0016: real time    0.0016
    --------------------------------------------
      LOOP:  cpu time   33.9212: real time   34.0050

 eigenvalue-minimisations  : 13040
 total energy-change (2. order) : 0.8210729E-02  (-0.1939608E-02)
 number of electron     159.0000089 magnetization 
 augmentation part       -4.1993160 magnetization 

 Broyden mixing:
  rms(total) = 0.21720E-01    rms(broyden)= 0.21607E-01
  rms(prec ) = 0.25385E-01
  weight for this iteration     100.00

 eigenvalues of (default mixing * dielectric matrix)
  average eigenvalue GAMMA=   0.9745
  2.2791  2.2791  1.3318  0.9812  0.6335  0.6335  0.2198  0.2944  0.1177

 Free energy of the ion-electron system (eV)
  ---------------------------------------------------
  alpha Z        PSCENC =        81.65567618
  Ewald energy   TEWEN  =     41891.19379416
  -Hartree energ DENC   =    -47807.62626668
  -exchange      EXHF   =         0.00000000
  -V(xc)+E(xc)   XCENC  =      -231.81984304
  PAW double counting   =      4192.60620029    -3610.70952972
  entropy T*S    EENTRO =        -0.34543836
  eigenvalues    EBANDS =     -1463.22512064
  atomic energy  EATOM  =      6761.44252427
  Solvation  Ediel_sol  =         0.00000000
  ---------------------------------------------------
  free energy    TOTEN  =      -186.82800355 eV

  energy without entropy =     -186.48256518  energy(sigma->0) =     -186.65528436


--------------------------------------------------------------------------------------------------------




----------------------------------------- Iteration    1(  15)  ---------------------------------------


    POTLOK:  cpu time    0.0331: real time    0.0334
    SETDIJ:  cpu time    0.0025: real time    0.0025
     EDDAV:  cpu time   32.0743: real time   32.1517
       DOS:  cpu time    0.0010: real time    0.0010
    CHARGE:  cpu time    0.4946: real time    0.4958
    MIXING:  cpu time    0.0018: real time    0.0018
    --------------------------------------------
      LOOP:  cpu time   32.6086: real time   32.6955

 eigenvalue-minimisations  : 12480
 total energy-change (2. order) : 0.9355207E-03  (-0.2682065E-03)
 number of electron     159.0000089 magnetization 
 augmentation part       -4.1995078 magnetization 

 Broyden mixing:
  rms(total) = 0.14306E-01    rms(broyden)= 0.14298E-01
  rms(prec ) = 0.17537E-01
  weight for this iteration     100.00

 eigenvalues of (default mixing * dielectric matrix)
  average eigenvalue GAMMA=   0.9194
  2.3024  2.3024  1.3558  0.9921  0.6335  0.6335  0.2198  0.2944  0.3425  0.1176

 Free energy of the ion-electron system (eV)
  ---------------------------------------------------
  alpha Z        PSCENC =        81.65567618
  Ewald energy   TEWEN  =     41891.19379416
  -Hartree energ DENC   =    -47814.08288160
  -exchange      EXHF   =         0.00000000
  -V(xc)+E(xc)   XCENC  =      -231.73763910
  PAW double counting   =      4194.53069418    -3612.56722781
  entropy T*S    EENTRO =        -0.34541232
  eigenvalues    EBANDS =     -1456.91659599
  atomic energy  EATOM  =      6761.44252427
  Solvation  Ediel_sol  =         0.00000000
  ---------------------------------------------------
  free energy    TOTEN  =      -186.82706802 eV

  energy without entropy =     -186.48165571  energy(sigma->0) =     -186.65436187


--------------------------------------------------------------------------------------------------------




----------------------------------------- Iteration    1(  16)  ---------------------------------------


    POTLOK:  cpu time    0.0339: real time    0.0343
    SETDIJ:  cpu time    0.0025: real time    0.0025
     EDDAV:  cpu time   30.9857: real time   31.0603
       DOS:  cpu time    0.0002: real time    0.0010
    CHARGE:  cpu time    0.4935: real time    0.4947
    MIXING:  cpu time    0.0019: real time    0.0019
    --------------------------------------------
      LOOP:  cpu time   31.5198: real time   31.6044

 eigenvalue-minimisations  : 11920
 total energy-change (2. order) :-0.1034826E-04  (-0.1552105E-03)
 number of electron     159.0000089 magnetization 
 augmentation part       -4.1977320 magnetization 

 Broyden mixing:
  rms(total) = 0.19552E-01    rms(broyden)= 0.19541E-01
  rms(prec ) = 0.22598E-01
  weight for this iteration     100.00

 eigenvalues of (default mixing * dielectric matrix)
  average eigenvalue GAMMA=   0.9056
  2.3462  2.3462  1.4126  1.0235  0.7954  0.6323  0.6323  0.2944  0.2198  0.1175
  0.1413

 Free energy of the ion-electron system (eV)
  ---------------------------------------------------
  alpha Z        PSCENC =        81.65567618
  Ewald energy   TEWEN  =     41891.19379416
  -Hartree energ DENC   =    -47815.41171315
  -exchange      EXHF   =         0.00000000
  -V(xc)+E(xc)   XCENC  =      -231.72464518
  PAW double counting   =      4194.46266328    -3612.49252630
  entropy T*S    EENTRO =        -0.34540110
  eigenvalues    EBANDS =     -1455.60745052
  atomic energy  EATOM  =      6761.44252427
  Solvation  Ediel_sol  =         0.00000000
  ---------------------------------------------------
  free energy    TOTEN  =      -186.82707837 eV

  energy without entropy =     -186.48167727  energy(sigma->0) =     -186.65437782


--------------------------------------------------------------------------------------------------------




----------------------------------------- Iteration    1(  17)  ---------------------------------------


    POTLOK:  cpu time    0.0319: real time    0.0322
    SETDIJ:  cpu time    0.0027: real time    0.0027
     EDDAV:  cpu time   29.0631: real time   29.1327
       DOS:  cpu time    0.0010: real time    0.0010
    CHARGE:  cpu time    0.4978: real time    0.4990
    MIXING:  cpu time    0.0019: real time    0.0019
    --------------------------------------------
      LOOP:  cpu time   29.5995: real time   29.6786

 eigenvalue-minimisations  : 11080
 total energy-change (2. order) :-0.2226288E-04  (-0.1630024E-03)
 number of electron     159.0000089 magnetization 
 augmentation part       -4.1957653 magnetization 

 Broyden mixing:
  rms(total) = 0.16099E-01    rms(broyden)= 0.16085E-01
  rms(prec ) = 0.18900E-01
  weight for this iteration     100.00

 eigenvalues of (default mixing * dielectric matrix)
  average eigenvalue GAMMA=   0.9135
  2.4608  2.4608  1.5852  1.2083  0.9606  0.6336  0.6336  0.2944  0.2198  0.2640
  0.1174  0.1236

 Free energy of the ion-electron system (eV)
  ---------------------------------------------------
  alpha Z        PSCENC =        81.65567618
  Ewald energy   TEWEN  =     41891.19379416
  -Hartree energ DENC   =    -47817.74138748
  -exchange      EXHF   =         0.00000000
  -V(xc)+E(xc)   XCENC  =      -231.70346078
  PAW double counting   =      4194.19496964    -3612.21538118
  entropy T*S    EENTRO =        -0.34534018
  eigenvalues    EBANDS =     -1453.30849526
  atomic energy  EATOM  =      6761.44252427
  Solvation  Ediel_sol  =         0.00000000
  ---------------------------------------------------
  free energy    TOTEN  =      -186.82710064 eV

  energy without entropy =     -186.48176045  energy(sigma->0) =     -186.65443054


--------------------------------------------------------------------------------------------------------




----------------------------------------- Iteration    1(  18)  ---------------------------------------


    POTLOK:  cpu time    0.0316: real time    0.0316
    SETDIJ:  cpu time    0.0025: real time    0.0025
     EDDAV:  cpu time   28.6777: real time   28.7468
       DOS:  cpu time    0.0011: real time    0.0011
    --------------------------------------------
      LOOP:  cpu time   28.7137: real time   28.7910

 eigenvalue-minimisations  : 10920
 total energy-change (2. order) : 0.6408692E-04  (-0.8914453E-04)
 number of electron     159.0000089 magnetization 
 augmentation part       -4.1957653 magnetization 

 Free energy of the ion-electron system (eV)
  ---------------------------------------------------
  alpha Z        PSCENC =        81.65567618
  Ewald energy   TEWEN  =     41891.19379416
  -Hartree energ DENC   =    -47821.15872921
  -exchange      EXHF   =         0.00000000
  -V(xc)+E(xc)   XCENC  =      -231.67394644
  PAW double counting   =      4193.71580610    -3611.72408262
  entropy T*S    EENTRO =        -0.34522927
  eigenvalues    EBANDS =     -1449.93284972
  atomic energy  EATOM  =      6761.44252427
  Solvation  Ediel_sol  =         0.00000000
  ---------------------------------------------------
  free energy    TOTEN  =      -186.82703655 eV

  energy without entropy =     -186.48180728  energy(sigma->0) =     -186.65442191


--------------------------------------------------------------------------------------------------------




 average (electrostatic) potential at core
  the test charge radii are     1.2064  1.2296  1.1823  0.9698
  (the norm of the test charge is              1.0000)
       1 -50.0720       2 -50.0719       3 -50.0730       4 -47.5392       5 -47.5428
       6 -47.5419       7 -49.9816       8 -49.9790       9 -49.9812      10 -95.3219
      11 -95.1010      12 -95.3219      13 -95.1004      14 -95.3225      15 -95.1009
      16 -95.0105      17 -95.1674      18 -95.0095      19 -95.1666      20 -95.0104
      21 -95.1665      22 -95.3527      23 -95.4207      24 -95.3525      25 -95.4208
      26 -95.3524      27 -95.4205
 
 
 
 E-fermi :  -3.4022     XC(G=0):  -2.4934     alpha+bet : -2.1596


 k-point     1 :       0.0000    0.0000    0.0000
  band No.  band energies     occupation 
      1     -18.3273      2.00000
      2     -17.1856      2.00000
      3     -17.1856      2.00000
      4     -17.1302      2.00000
      5     -16.9109      2.00000
      6     -16.9108      2.00000
      7     -16.8338      2.00000
      8     -16.5499      2.00000
      9     -16.5410      2.00000
     10     -16.5410      2.00000
     11     -16.4020      2.00000
     12     -16.4017      2.00000
     13     -16.2856      2.00000
     14     -16.1550      2.00000
     15     -16.0906      2.00000
     16     -16.0905      2.00000
     17     -15.9194      2.00000
     18     -15.9191      2.00000
     19      -9.7031      2.00000
     20      -9.4887      2.00000
     21      -9.4886      2.00000
     22      -9.3523      2.00000
     23      -9.3488      2.00000
     24      -9.3487      2.00000
     25      -9.0375      2.00000
     26      -8.8681      2.00000
     27      -8.8680      2.00000
     28      -8.8549      2.00000
     29      -8.8547      2.00000
     30      -8.6574      2.00000
     31      -8.6572      2.00000
     32      -8.4828      2.00000
     33      -8.3818      2.00000
     34      -8.3296      2.00000
     35      -8.3295      2.00000
     36      -8.3173      2.00000
     37      -8.3170      2.00000
     38      -8.3169      2.00000
     39      -8.0107      2.00000
     40      -7.9735      2.00000
     41      -7.9732      2.00000
     42      -7.9101      2.00000
     43      -7.7033      2.00000
     44      -7.6587      2.00000
     45      -7.6586      2.00000
     46      -7.5246      2.00000
     47      -7.5245      2.00000
     48      -7.3229      2.00000
     49      -7.3226      2.00000
     50      -7.3182      2.00000
     51      -6.8261      2.00000
     52      -6.6603      2.00000
     53      -6.6601      2.00000
     54      -6.6235      2.00000
     55      -6.6234      2.00000
     56      -6.5616      2.00000
     57      -6.5615      2.00000
     58      -5.8005      2.00000
     59      -5.8004      2.00000
     60      -5.7717      2.00000
     61      -5.6398      2.00000
     62      -5.5941      2.00000
     63      -5.5939      2.00000
     64      -5.5300      2.00000
     65      -5.4201      2.00000
     66      -5.4200      2.00000
     67      -5.3565      2.00000
     68      -5.3042      2.00000
     69      -5.3041      2.00000
     70      -5.2317      2.00000
     71      -4.3791      2.00000
     72      -4.3647      2.00000
     73      -4.1667      2.00000
     74      -4.1666      2.00000
     75      -4.1660      2.00000
     76      -4.1169      2.00000
     77      -4.1166      2.00000
     78      -3.9627      1.99993
     79      -3.9305      1.99981
     80      -3.8158      1.99655
     81      -3.3150      0.53758
     82      -3.3140      0.53318
     83      -2.8795      0.00022
     84      -2.7811      0.00001
     85      -2.7386      0.00000
     86      -2.7382      0.00000
     87      -2.6464      0.00000
     88      -2.6460      0.00000
     89      -2.4627      0.00000
     90      -2.4079      0.00000
     91      -2.4077      0.00000
     92      -2.3001      0.00000
     93      -2.2996      0.00000
     94      -2.2867      0.00000
     95      -2.1083      0.00000
     96      -2.1079      0.00000
     97      -1.9789      0.00000
     98      -1.9784      0.00000
     99      -1.8320      0.00000
    100      -0.7259      0.00000
    101      -0.7258      0.00000
    102      -0.6416      0.00000
    103      -0.6415      0.00000
    104      -0.6355      0.00000
    105      -0.2374      0.00000
    106       0.2983      0.00000
    107       0.2990      0.00000
    108       0.4043      0.00000
    109       0.4050      0.00000
    110       0.4637      0.00000
    111       0.6340      0.00000
    112       0.7990      0.00000
    113       0.7996      0.00000
    114       0.9561      0.00000
    115       0.9677      0.00000
    116       0.9682      0.00000
    117       1.0298      0.00000
    118       1.2942      0.00000
    119       1.3683      0.00000
    120       1.9251      0.00000

 k-point     2 :       0.1250    0.0000    0.0000
  band No.  band energies     occupation 
      1     -18.3095      2.00000
      2     -17.2158      2.00000
      3     -17.2079      2.00000
      4     -17.1994      2.00000
      5     -16.8908      2.00000
      6     -16.8794      2.00000
      7     -16.8108      2.00000
      8     -16.5493      2.00000
      9     -16.5414      2.00000
     10     -16.5190      2.00000
     11     -16.3982      2.00000
     12     -16.3920      2.00000
     13     -16.2714      2.00000
     14     -16.1464      2.00000
     15     -16.0946      2.00000
     16     -16.0927      2.00000
     17     -15.9277      2.00000
     18     -15.9244      2.00000
     19      -9.7813      2.00000
     20      -9.5361      2.00000
     21      -9.5268      2.00000
     22      -9.3555      2.00000
     23      -9.3543      2.00000
     24      -9.3528      2.00000
     25      -9.0409      2.00000
     26      -8.9594      2.00000
     27      -8.9554      2.00000
     28      -8.8274      2.00000
     29      -8.8264      2.00000
     30      -8.5673      2.00000
     31      -8.5604      2.00000
     32      -8.5299      2.00000
     33      -8.3775      2.00000
     34      -8.3327      2.00000
     35      -8.3297      2.00000
     36      -8.2499      2.00000
     37      -8.2379      2.00000
     38      -8.1862      2.00000
     39      -8.0140      2.00000
     40      -7.9910      2.00000
     41      -7.9883      2.00000
     42      -7.8800      2.00000
     43      -7.7484      2.00000
     44      -7.6315      2.00000
     45      -7.6301      2.00000
     46      -7.4996      2.00000
     47      -7.4942      2.00000
     48      -7.3308      2.00000
     49      -7.3289      2.00000
     50      -7.2552      2.00000
     51      -6.8346      2.00000
     52      -6.7387      2.00000
     53      -6.7250      2.00000
     54      -6.6810      2.00000
     55      -6.6720      2.00000
     56      -6.4404      2.00000
     57      -6.4075      2.00000
     58      -5.9164      2.00000
     59      -5.9127      2.00000
     60      -5.7570      2.00000
     61      -5.7130      2.00000
     62      -5.7122      2.00000
     63      -5.6667      2.00000
     64      -5.6117      2.00000
     65      -5.4958      2.00000
     66      -5.4823      2.00000
     67      -5.3296      2.00000
     68      -5.1989      2.00000
     69      -5.1944      2.00000
     70      -5.0398      2.00000
     71      -4.5707      2.00000
     72      -4.4048      2.00000
     73      -4.3770      2.00000
     74      -4.0891      2.00000
     75      -4.0839      2.00000
     76      -4.0285      1.99999
     77      -4.0266      1.99999
     78      -4.0164      1.99999
[...]
    104      -0.6092      0.00000
    105      -0.5511      0.00000
    106      -0.3933      0.00000
    107      -0.2260      0.00000
    108      -0.1079      0.00000
    109       0.0500      0.00000
    110       0.2514      0.00000
    111       0.3688      0.00000
    112       0.4185      0.00000
    113       0.5539      0.00000
    114       1.0415      0.00000
    115       1.0605      0.00000
    116       1.0826      0.00000
    117       1.8425      0.00000
    118       2.1645      0.00000
    119       2.3125      0.00000
    120       2.4230      0.00000

 k-point    34 :       0.5000    0.5000    0.0000
  band No.  band energies     occupation 
      1     -17.4264      2.00000
      2     -17.4263      2.00000
      3     -16.7124      2.00000
      4     -16.7123      2.00000
      5     -16.5698      2.00000
      6     -16.5696      2.00000
      7     -16.2142      2.00000
      8     -16.1955      2.00000
      9     -16.1705      2.00000
     10     -16.1701      2.00000
     11     -15.7969      2.00000
     12     -15.7586      2.00000
     13     -15.7583      2.00000
     14     -15.6811      2.00000
     15     -15.4909      2.00000
     16     -15.4904      2.00000
     17     -15.4583      2.00000
     18     -15.2666      2.00000
     19      -9.8261      2.00000
     20      -9.4002      2.00000
     21      -9.1914      2.00000
     22      -9.1912      2.00000
     23      -8.7678      2.00000
     24      -8.7675      2.00000
     25      -8.7449      2.00000
     26      -8.5581      2.00000
     27      -8.5576      2.00000
     28      -8.3749      2.00000
     29      -8.1526      2.00000
     30      -8.0809      2.00000
     31      -8.0773      2.00000
     32      -8.0770      2.00000
     33      -7.7864      2.00000
     34      -7.7855      2.00000
     35      -7.7266      2.00000
     36      -7.7097      2.00000
     37      -7.7092      2.00000
     38      -7.5225      2.00000
     39      -7.5221      2.00000
     40      -7.4290      2.00000
     41      -7.0414      2.00000
     42      -7.0106      2.00000
     43      -7.0105      2.00000
     44      -6.8570      2.00000
     45      -6.7465      2.00000
     46      -6.7457      2.00000
     47      -6.6402      2.00000
     48      -6.5751      2.00000
     49      -6.5747      2.00000
     50      -6.5638      2.00000
     51      -6.3574      2.00000
     52      -6.3114      2.00000
     53      -6.3108      2.00000
     54      -6.2626      2.00000
     55      -6.0802      2.00000
     56      -6.0793      2.00000
     57      -5.9856      2.00000
     58      -5.8635      2.00000
     59      -5.8634      2.00000
     60      -5.7290      2.00000
     61      -5.7284      2.00000
     62      -5.5609      2.00000
     63      -5.5607      2.00000
     64      -5.4446      2.00000
     65      -5.1988      2.00000
     66      -5.0583      2.00000
     67      -4.9984      2.00000
     68      -4.9978      2.00000
     69      -4.7490      2.00000
     70      -4.5630      2.00000
     71      -4.5620      2.00000
     72      -4.5226      2.00000
     73      -4.2429      2.00000
     74      -4.2424      2.00000
     75      -4.0571      2.00000
     76      -4.0554      2.00000
     77      -3.8694      1.99999
     78      -3.8686      1.99999
     79      -3.4444      1.84875
     80      -3.4409      1.84157
     81      -2.9824      0.06695
     82      -2.9807      0.06518
     83      -2.6391      0.00002
     84      -2.6363      0.00002
     85      -2.5668      0.00000
     86      -2.4548      0.00000
     87      -2.1672      0.00000
     88      -2.1656      0.00000
     89      -2.0424      0.00000
     90      -1.9111      0.00000
     91      -1.9089      0.00000
     92      -1.5913      0.00000
     93      -1.1803      0.00000
     94      -1.1742      0.00000
     95      -1.1733      0.00000
     96      -1.0875      0.00000
     97      -1.0856      0.00000
     98      -1.0330      0.00000
     99      -0.8239      0.00000
    100      -0.7925      0.00000
    101      -0.7915      0.00000
    102      -0.7165      0.00000
    103      -0.6651      0.00000
    104      -0.6629      0.00000
    105      -0.5398      0.00000
    106      -0.2896      0.00000
    107      -0.2883      0.00000
    108      -0.0690      0.00000
    109      -0.0674      0.00000
    110       0.2512      0.00000
    111       0.3779      0.00000
    112       0.5188      0.00000
    113       0.5194      0.00000
    114       1.0675      0.00000
    115       1.0676      0.00000
    116       1.0708      0.00000
    117       1.8384      0.00000
    118       2.2620      0.00000
    119       2.2621      0.00000
    120       2.4138      0.00000


--------------------------------------------------------------------------------------------------------


 soft charge-density along one line, spin component           1
         0         1         2         3         4         5         6         7         8         9
 total charge-density along one line
 
 pseudopotential strength for first ion, spin component:           1
 -7.252  -0.010  -0.013  -0.004   0.001   0.684   0.002   0.004
 -0.010  -7.154  -0.005   0.010   0.004   0.002   0.654   0.001
 -0.013  -0.005  -7.117  -0.003   0.007   0.004   0.001   0.645
 -0.004   0.010  -0.003  -7.166   0.005   0.001  -0.003   0.001
  0.001   0.004   0.007   0.005  -7.251  -0.000  -0.001  -0.002
  0.684   0.002   0.004   0.001  -0.000   0.330  -0.000  -0.001
  0.002   0.654   0.001  -0.003  -0.001  -0.000   0.339  -0.000
  0.004   0.001   0.645   0.001  -0.002  -0.001  -0.000   0.341
  0.001  -0.003   0.001   0.658  -0.001  -0.000   0.001  -0.000
 -0.000  -0.001  -0.002  -0.001   0.683   0.000   0.000   0.001
 -0.004   0.001  -0.020   0.001   0.002   0.001  -0.000   0.005
 -0.001   0.001  -0.007   0.000   0.001   0.000  -0.000   0.002
  0.003   0.003  -0.001   0.003  -0.005   0.000  -0.001  -0.001
  0.003   0.009   0.001   0.005  -0.002  -0.000  -0.000  -0.000
  0.005   0.003  -0.001  -0.001   0.003   0.001  -0.000  -0.001
  0.002   0.002   0.000   0.003  -0.003  -0.000  -0.000  -0.000
  0.003   0.007   0.000   0.004  -0.002  -0.001  -0.001   0.000
  0.003   0.003   0.000  -0.001   0.002  -0.000  -0.001  -0.000
 total augmentation occupancy for first ion, spin component:           1
  0.807   0.156  -0.029  -0.003   0.018   0.432   0.220  -0.005   0.006   0.007   0.012  -0.002  -0.008   0.071  -0.012  -0.001
  0.156   1.075   0.029  -0.010   0.003   0.216   0.640   0.041  -0.014  -0.006   0.009   0.003   0.054   0.077   0.071   0.001
 -0.029   0.029   0.837   0.016   0.017  -0.004   0.041   0.338   0.024   0.002   0.152   0.005   0.073  -0.002   0.042   0.002
 -0.003  -0.010   0.016   1.087  -0.160   0.006  -0.014   0.024   0.656  -0.210   0.005   0.002   0.071   0.045  -0.028   0.002
  0.018   0.003   0.017  -0.160   0.828   0.007  -0.006   0.003  -0.212   0.440  -0.007   0.001   0.012  -0.041  -0.005   0.003
  0.432   0.216  -0.004   0.006   0.007   0.368   0.221   0.005   0.005  -0.006  -0.018  -0.001   0.019   0.070   0.029  -0.000
  0.220   0.640   0.041  -0.014  -0.006   0.221   0.575   0.026  -0.006  -0.005   0.035   0.005   0.044   0.091   0.067   0.003
 -0.005   0.041   0.338   0.024   0.003   0.005   0.026   0.271   0.015  -0.003   0.043   0.010   0.017   0.006   0.010   0.004
  0.006  -0.014   0.024   0.656  -0.212   0.005  -0.006   0.015   0.581  -0.215   0.020   0.003   0.067   0.052  -0.033   0.005
  0.007  -0.006   0.002  -0.210   0.440  -0.006  -0.005  -0.003  -0.215   0.362   0.010   0.001  -0.029  -0.041   0.015   0.000
  0.012   0.009   0.152   0.005  -0.007  -0.018   0.035   0.043   0.020   0.010   1.406   0.137   0.044   0.015   0.025   0.002
 -0.002   0.003   0.005   0.002   0.001  -0.001   0.005   0.010   0.003   0.001   0.137   0.026   0.009   0.000   0.005   0.001
 -0.008   0.054   0.073   0.071   0.012   0.019   0.044   0.017   0.067  -0.029   0.044   0.009   0.357   0.006   0.002   0.026
  0.071   0.077  -0.002   0.045  -0.041   0.070   0.091   0.006   0.052  -0.041   0.015   0.000   0.006   0.425   0.004  -0.000
 -0.012   0.071   0.042  -0.028  -0.005   0.029   0.067   0.010  -0.033   0.015   0.025   0.005   0.002   0.004   0.355  -0.000
 -0.001   0.001   0.002   0.002   0.003  -0.000   0.003   0.004   0.005   0.000   0.002   0.001   0.026  -0.000  -0.000   0.003
  0.003  -0.001   0.000  -0.001  -0.002   0.005   0.005   0.000   0.003  -0.003   0.000   0.000  -0.000   0.028  -0.000   0.000
 -0.003   0.002   0.001  -0.001  -0.002  -0.000   0.005   0.002  -0.003  -0.000   0.001   0.000  -0.000  -0.000   0.027  -0.000


------------------------ aborting loop because EDIFF is reached ----------------------------------------


    CHARGE:  cpu time    0.4662: real time    0.4673
    FORLOC:  cpu time    0.0100: real time    0.0100
    FORNL :  cpu time    6.5163: real time    6.5319
    STRESS:  cpu time   33.2444: real time   33.3297
    FORCOR:  cpu time    0.0384: real time    0.0385
    FORHAR:  cpu time    0.0151: real time    0.0151
    MIXING:  cpu time    0.0013: real time    0.0013
    OFIELD:  cpu time    0.0000: real time    0.0000

  FORCE on cell =-STRESS in cart. coord.  units (eV):
  Direction    XX          YY          ZZ          XY          YZ          ZX
  --------------------------------------------------------------------------------------
  Alpha Z    89.47789    89.47789    89.47789
  Ewald   49332.22402 49280.99800-54243.28192   -44.28848    20.65408    11.85358
  Hartree 50037.48719 50005.22415-49665.63333   -27.91334    12.26369     7.06563
  E(xc)    -609.63404  -610.70628  -617.72812    -0.93047    -0.96018    -0.55352
  Local  ************************101346.73427    65.08716   -41.66296   -23.96506
  n-local  1213.87704  1216.06151  1248.34716     1.93017    -2.83153    -1.64601
  augment  -213.38534  -213.02745  -214.85279     0.29930     0.54178     0.31827
  Kinetic  2008.36657  2015.09282  2054.87897     5.83760    11.83855     6.83700
  Fock        0.00000     0.00000     0.00000     0.00000     0.00000     0.00000
  -------------------------------------------------------------------------------------
  Total      -0.17096    -0.14571    -2.05787     0.02194    -0.15656    -0.09011
  in kB      -0.11448    -0.09758    -1.37803     0.01469    -0.10484    -0.06034
  external pressure =       -0.53 kB  Pullay stress =        0.00 kB


 VOLUME and BASIS-vectors are now :
 -----------------------------------------------------------------------------
  energy-cutoff  :      280.00
  volume of cell :     2392.61
      direct lattice vectors                 reciprocal lattice vectors
     8.310440178  4.827291950  0.000000000     0.059985044  0.103888036  0.000000000
    -8.285444289  4.784022841  0.000000000    -0.060527579  0.104201450  0.000000000
     0.000000000  0.000000000 30.000000000     0.000000000  0.000000000  0.033333333

  length of vectors
     9.610731685  9.567416663 30.000000000     0.119962201  0.120505311  0.033333333


 FORCES acting on ions
    electron-ion (+dipol)            ewald-force                    non-local-force                 convergence-correction
 -----------------------------------------------------------------------------------------------
   0.119E+02 0.207E+02 0.139E+02   -.128E+02 -.221E+02 -.138E+02   0.761E+00 0.133E+01 -.162E+00   0.871E-01 -.984E-02 -.216E-01
   0.120E+02 0.207E+02 0.140E+02   -.127E+02 -.221E+02 -.138E+02   0.765E+00 0.132E+01 -.161E+00   -.397E-01 0.581E-01 -.244E-01
   0.119E+02 0.207E+02 0.140E+02   -.127E+02 -.220E+02 -.138E+02   0.775E+00 0.134E+01 -.161E+00   0.846E-03 0.354E-01 -.193E-01
   0.700E+01 0.120E+02 0.770E+01   -.691E+01 -.117E+02 -.778E+01   -.127E+00 -.207E+00 0.808E-01   0.331E-01 -.417E-01 0.427E-02
   0.689E+01 0.120E+02 0.771E+01   -.672E+01 -.117E+02 -.777E+01   -.115E+00 -.201E+00 0.827E-01   -.506E-01 -.105E+00 -.856E-02
   0.689E+01 0.120E+02 0.768E+01   -.669E+01 -.118E+02 -.776E+01   -.113E+00 -.207E+00 0.819E-01   -.720E-01 -.839E-02 0.999E-03
   -.177E+02 -.307E+02 -.235E+02   0.181E+02 0.314E+02 0.232E+02   -.421E+00 -.725E+00 0.325E+00   0.224E-01 0.181E-01 0.748E-02
   -.178E+02 -.307E+02 -.235E+02   0.182E+02 0.314E+02 0.232E+02   -.420E+00 -.728E+00 0.323E+00   -.371E-02 -.380E-01 0.159E-03
   -.177E+02 -.307E+02 -.234E+02   0.182E+02 0.315E+02 0.231E+02   -.417E+00 -.724E+00 0.326E+00   -.354E-01 -.900E-02 0.111E-02
   -.950E+01 -.164E+02 0.496E+03   0.962E+01 0.167E+02 -.501E+03   -.186E+00 -.323E+00 0.512E+01   0.707E-01 0.480E-01 -.175E-03
   0.148E+01 0.257E+01 -.488E+03   -.111E+01 -.186E+01 0.493E+03   -.452E+00 -.784E+00 -.477E+01   0.861E-01 0.816E-01 -.765E-01
   -.945E+01 -.163E+02 0.496E+03   0.966E+01 0.167E+02 -.501E+03   -.183E+00 -.319E+00 0.513E+01   -.259E-01 -.254E-01 -.638E-01
   0.142E+01 0.264E+01 -.488E+03   -.107E+01 -.182E+01 0.493E+03   -.451E+00 -.775E+00 -.478E+01   0.104E+00 -.316E-01 0.268E-01
   -.944E+01 -.164E+02 0.496E+03   0.959E+01 0.166E+02 -.501E+03   -.188E+00 -.326E+00 0.512E+01   0.309E-01 0.109E+00 0.210E-01
   0.161E+01 0.254E+01 -.488E+03   -.105E+01 -.186E+01 0.493E+03   -.448E+00 -.781E+00 -.478E+01   -.990E-01 0.107E+00 0.157E-02
   0.121E+02 0.210E+02 0.588E+03   -.127E+02 -.219E+02 -.591E+03   0.566E+00 0.984E+00 0.319E+01   0.185E-01 -.427E-01 0.132E+00
   0.954E+01 0.165E+02 -.588E+03   -.105E+02 -.182E+02 0.591E+03   0.102E+01 0.176E+01 -.304E+01   -.722E-01 -.531E-01 -.103E+00
   0.120E+02 0.209E+02 0.588E+03   -.127E+02 -.219E+02 -.591E+03   0.561E+00 0.984E+00 0.321E+01   0.120E+00 -.375E-01 -.983E-03
   0.951E+01 0.165E+02 -.588E+03   -.105E+02 -.182E+02 0.591E+03   0.102E+01 0.176E+01 -.304E+01   0.122E-01 -.553E-01 -.727E-01
   0.122E+02 0.209E+02 0.588E+03   -.126E+02 -.219E+02 -.591E+03   0.571E+00 0.979E+00 0.320E+01   -.135E+00 0.857E-01 0.263E-01
   0.943E+01 0.164E+02 -.588E+03   -.105E+02 -.182E+02 0.591E+03   0.101E+01 0.175E+01 -.305E+01   0.319E-01 0.597E-01 0.451E-01
   -.401E+01 -.695E+01 0.622E+03   0.460E+01 0.793E+01 -.625E+03   -.532E+00 -.916E+00 0.358E+01   -.478E-01 -.522E-01 0.377E-02
   -.111E+02 -.192E+02 -.629E+03   0.114E+02 0.197E+02 0.633E+03   -.261E+00 -.453E+00 -.402E+01   -.389E-02 -.225E-01 0.182E-01
   -.402E+01 -.695E+01 0.622E+03   0.457E+01 0.793E+01 -.626E+03   -.529E+00 -.916E+00 0.358E+01   -.202E-01 -.560E-01 0.784E-02
   -.111E+02 -.192E+02 -.629E+03   0.114E+02 0.197E+02 0.633E+03   -.262E+00 -.451E+00 -.402E+01   -.302E-01 -.444E-01 0.161E-01
   -.401E+01 -.694E+01 0.622E+03   0.455E+01 0.788E+01 -.625E+03   -.529E+00 -.919E+00 0.358E+01   -.259E-02 -.140E-01 -.682E-02
   -.111E+02 -.193E+02 -.629E+03   0.113E+02 0.197E+02 0.633E+03   -.262E+00 -.452E+00 -.402E+01   -.133E-01 -.152E-01 0.104E-01
 -----------------------------------------------------------------------------------------------
   -.111E+01 -.193E+01 -.879E+00   0.426E-13 -.924E-13 0.114E-12   0.115E+01 0.200E+01 0.940E+00   -.342E-01 -.590E-01 -.746E-01
 
 
 POSITION                                       TOTAL-FORCE (eV/Angst)
 -----------------------------------------------------------------------------------
      0.15700      3.46033     -0.05298        -0.012893     -0.007113     -0.014190
      2.91888      1.86620     -0.05322        -0.005056     -0.017730     -0.012291
     -2.60529      5.05535     -0.05311         0.005411      0.002659     -0.010878
      0.05661      6.47409     -0.02245        -0.003046      0.005352      0.008137
      2.81698      4.87985     -0.02248         0.008872      0.016701      0.011002
      5.57870      3.28506     -0.02242         0.009850      0.005219      0.010681
     -0.15841     -0.27532      0.07193         0.001653      0.004964      0.019353
      5.39006      6.14686      0.07191         0.001643      0.001583      0.018497
     -5.68205      2.91432      0.07168         0.002814      0.004008      0.022145
     -0.91233      1.60829     28.69520        -0.003944     -0.007914     -0.001673
      0.93448      1.61755      1.28518         0.001251      0.006410     -0.000406
     -3.67400      3.20317     28.69509        -0.002823     -0.004626     -0.000429
     -1.82767      3.21231      1.28521         0.002914      0.010145     -0.004382
     -6.43578      4.79809     28.69532        -0.006268     -0.010333     -0.004579
     -4.58945      4.80724      1.28524         0.008100      0.004968     -0.003741
      1.85116      3.20602     28.39937         0.006138      0.014675     -0.022306
      3.69127      3.20446      1.57034        -0.007861     -0.013873     -0.008141
     -0.91037      4.80051     28.39944         0.002412      0.014262     -0.016131
      0.92949      4.79885      1.57036        -0.008289     -0.015320     -0.007548
     -3.67248      6.39554     28.39897         0.012936      0.008709     -0.016459
     -1.83199      6.39382      1.57021        -0.014218     -0.023477     -0.019154
      4.60797      4.79197     28.32443         0.004917      0.011484      0.013092
      6.44396      4.78298      1.72927        -0.005812     -0.008423      0.005462
      1.84645      6.38684     28.32410         0.005953      0.008359      0.011170
      3.68217      6.37793      1.72932        -0.005952     -0.009957      0.004969
     -0.91560      7.98120     28.32471         0.005350      0.008427      0.011992
      0.92058      7.97240      1.72934        -0.004051     -0.009158      0.005808
 -----------------------------------------------------------------------------------
    total drift:                                0.004133      0.006727     -0.013580


--------------------------------------------------------------------------------------------------------



  FREE ENERGIE OF THE ION-ELECTRON SYSTEM (eV)
  ---------------------------------------------------
  free  energy   TOTEN  =      -192.44215183 eV

  energy  without entropy=     -192.30160681  energy(sigma->0) =     -192.37187932
 
 d Force = 0.1005684E-02[ 0.852E-03, 0.116E-02]  d Energy = 0.7068063E-03 0.299E-03
 d Force =-0.1293594E+00[-0.112E+00,-0.147E+00]  d Ewald  = 0.1190218E+02-0.120E+02


--------------------------------------------------------------------------------------------------------


    POTLOK:  cpu time    0.0359: real time    0.0360


--------------------------------------------------------------------------------------------------------


 Quasi-Newton relaxation of ions (Broydens 2nd method)
  g(Force)  = 0.409E-03   g(Stress)= 0.919E-04

 retain information from N=  1 steps
 eigenvalues of (default step * inverse Hessian matrix)
  average eigenvalue of G=   0.2831
 eigenvalue spectrum of G is  0.2831


--------------------------------------------------------------------------------------------------------


  
 reached required accuracy - stopping structural energy minimisation
     LOOP+:  cpu time  170.9960: real time  171.4282
    4ORBIT:  cpu time    0.0000: real time    0.0000

 total amount of memory used by VASP on root node   650782. kBytes
========================================================================

   base      :      30000. kBytes
   nonl-proj :     559647. kBytes
   fftplans  :       2414. kBytes
   grid      :      12150. kBytes
   one-center:        419. kBytes
   wavefun   :      46152. kBytes
 
  
  
 General timing and accounting informations for this job:
 ========================================================
  
                  Total CPU time used (sec):     6094.265
                            User time (sec):     6044.399
                          System time (sec):       49.866
                         Elapsed time (sec):     6110.527
  
                   Maximum memory used (kb):      738920.
                   Average memory used (kb):           0.
  
                          Minor page faults:       927722
                          Major page faults:            5
                 Voluntary context switches:         5267
