<?xml version="1.0" encoding="ISO-8859-1"?>
<modeling>
 <generator>
  <i name="program" type="string">vasp </i>
  <i name="version" type="string">5.4.1  </i>
  <i name="subversion" type="string">05Feb16 (build Jul 05 2020 17:13:04) complex                          parallel </i>
  <i name="platform" type="string">IFC91_ompi </i>
  <i name="date" type="string">2024 04 26 </i>
  <i name="time" type="string">21:26:46 </i>
 </generator>
 <incar>
  <i type="int" name="ISTART">     0</i>
  <i type="string" name="PREC">normal</i>
  <i type="string" name="ALGO"> Normal</i>
  <i type="int" name="ISPIN">     1</i>
  <i type="int" name="ICHARG">     2</i>
  <i type="int" name="IBRION">     1</i>
  <i type="int" name="NSW">   100</i>
  <i type="int" name="ISIF">     3</i>
  <i type="int" name="ISYM">     0</i>
  <i name="SYMPREC">      0.00000001</i>
  <i name="POTIM">      0.50000000</i>
  <i type="logical" name="LREAL"> F  </i>
  <i type="logical" name="LPLANE"> F  </i>
  <i type="int" name="ISMEAR">     0</i>
  <i type="logical" name="LWAVE"> F  </i>
  <i type="logical" name="LCHARG"> F  </i>
  <v type="int" name="KPOINT_BSE">    -1     0     0     0</v>
 </incar>
 <kpoints>
  <generation param="Gamma">
   <v type="int" name="divisions">       8        8        1 </v>
   <v name="usershift">      0.00000000       0.00000000       0.00000000 </v>
   <v name="genvec1">      0.12500000       0.00000000       0.00000000 </v>
   <v name="genvec2">     -0.00000000       0.12500000       0.00000000 </v>
   <v name="genvec3">      0.00000000       0.00000000       1.00000000 </v>
   <v name="shift">      0.00000000       0.00000000       0.00000000 </v>
  </generation>
  <varray name="kpointlist" >
   <v>       0.00000000       0.00000000       0.00000000 </v>
   <v>       0.12500000       0.00000000       0.00000000 </v>
   <v>       0.25000000       0.00000000       0.00000000 </v>
   <v>       0.37500000       0.00000000       0.00000000 </v>
   <v>       0.50000000       0.00000000       0.00000000 </v>
   <v>       0.00000000       0.12500000       0.00000000 </v>
   <v>       0.12500000       0.12500000       0.00000000 </v>
   <v>       0.25000000       0.12500000       0.00000000 </v>
   <v>       0.37500000       0.12500000       0.00000000 </v>
   <v>       0.50000000       0.12500000       0.00000000 </v>
   <v>      -0.37500000       0.12500000       0.00000000 </v>
   <v>      -0.25000000       0.12500000       0.00000000 </v>
   <v>      -0.12500000       0.12500000       0.00000000 </v>
   <v>       0.00000000       0.25000000       0.00000000 </v>
   <v>       0.12500000       0.25000000       0.00000000 </v>
   <v>       0.25000000       0.25000000       0.00000000 </v>
   <v>       0.37500000       0.25000000       0.00000000 </v>
   <v>       0.50000000       0.25000000       0.00000000 </v>
   <v>      -0.37500000       0.25000000       0.00000000 </v>
   <v>      -0.25000000       0.25000000       0.00000000 </v>
   <v>      -0.12500000       0.25000000       0.00000000 </v>
   <v>      -0.00000000       0.37500000       0.00000000 </v>
   <v>       0.12500000       0.37500000       0.00000000 </v>
   <v>       0.25000000       0.37500000       0.00000000 </v>
   <v>       0.37500000       0.37500000       0.00000000 </v>
   <v>       0.50000000       0.37500000       0.00000000 </v>
   <v>      -0.37500000       0.37500000       0.00000000 </v>
   <v>      -0.25000000       0.37500000       0.00000000 </v>
   <v>      -0.12500000       0.37500000       0.00000000 </v>
   <v>       0.00000000       0.50000000       0.00000000 </v>
   <v>       0.12500000       0.50000000       0.00000000 </v>
   <v>       0.25000000       0.50000000       0.00000000 </v>
   <v>       0.37500000       0.50000000       0.00000000 </v>
   <v>       0.50000000       0.50000000       0.00000000 </v>
  </varray>
  <varray name="weights" >
   <v>       0.01562500 </v>
   <v>       0.03125000 </v>
   <v>       0.03125000 </v>
   <v>       0.03125000 </v>
   <v>       0.01562500 </v>
   <v>       0.03125000 </v>
   <v>       0.03125000 </v>
   <v>       0.03125000 </v>
   <v>       0.03125000 </v>
   <v>       0.03125000 </v>
   <v>       0.03125000 </v>
   <v>       0.03125000 </v>
   <v>       0.03125000 </v>
   <v>       0.03125000 </v>
   <v>       0.03125000 </v>
   <v>       0.03125000 </v>
   <v>       0.03125000 </v>
   <v>       0.03125000 </v>
   <v>       0.03125000 </v>
   <v>       0.03125000 </v>
   <v>       0.03125000 </v>
   <v>       0.03125000 </v>
   <v>       0.03125000 </v>
   <v>       0.03125000 </v>
   <v>       0.03125000 </v>
   <v>       0.03125000 </v>
   <v>       0.03125000 </v>
   <v>       0.03125000 </v>
   <v>       0.03125000 </v>
   <v>       0.01562500 </v>
   <v>       0.03125000 </v>
   <v>       0.03125000 </v>
   <v>       0.03125000 </v>
   <v>       0.01562500 </v>
  </varray>
 </kpoints>
 <parameters>
  <separator name="general" >
   <i type="string" name="SYSTEM">unknown system</i>
   <i type="logical" name="LCOMPAT"> F  </i>
  </separator>
  <separator name="electronic" >
   <i type="string" name="PREC">normal</i>
   <i name="ENMAX">    280.00000000</i>
   <i name="ENAUG">    373.43800000</i>
   <i name="EDIFF">      0.00010000</i>
   <i type="int" name="IALGO">    38</i>
   <i type="int" name="IWAVPR">    11</i>
   <i type="int" name="NBANDS">   120</i>
   <i name="NELECT">    159.00000000</i>
   <i type="int" name="TURBO">     0</i>
   <i type="int" name="IRESTART">     0</i>
   <i type="int" name="NREBOOT">     0</i>
   <i type="int" name="NMIN">     0</i>
   <i name="EREF">      0.00000000</i>
   <separator name="electronic smearing" >
    <i type="int" name="ISMEAR">     0</i>
    <i name="SIGMA">      0.20000000</i>
    <i name="KSPACING">      0.50000000</i>
    <i type="logical" name="KGAMMA"> T  </i>
   </separator>
   <separator name="electronic projectors" >
    <i type="logical" name="LREAL"> F  </i>
    <v name="ROPT">      0.00000000      0.00000000      0.00000000      0.00000000</v>
    <i type="int" name="LMAXPAW">  -100</i>
    <i type="int" name="LMAXMIX">     2</i>
    <i type="logical" name="NLSPLINE"> F  </i>
   </separator>
   <separator name="electronic startup" >
    <i type="int" name="ISTART">     0</i>
    <i type="int" name="ICHARG">     2</i>
    <i type="int" name="INIWAV">     1</i>
   </separator>
   <separator name="electronic spin" >
    <i type="int" name="ISPIN">     1</i>
    <i type="logical" name="LNONCOLLINEAR"> F  </i>
    <v name="MAGMOM">      1.00000000      1.00000000      1.00000000      1.00000000      1.00000000      1.00000000      1.00000000      1.00000000      1.00000000      1.00000000      1.00000000      1.00000000      1.00000000      1.00000000      1.00000000      1.00000000      1.00000000      1.00000000      1.00000000      1.00000000
      1.00000000      1.00000000      1.00000000      1.00000000      1.00000000      1.00000000      1.00000000</v>
    <i name="NUPDOWN">     -1.00000000</i>
    <i type="logical" name="LSORBIT"> F  </i>
    <v name="SAXIS">      0.00000000      0.00000000      1.00000000</v>
    <i type="logical" name="LSPIRAL"> F  </i>
    <v name="QSPIRAL">      0.00000000      0.00000000      0.00000000</v>
    <i type="logical" name="LZEROZ"> F  </i>
   </separator>
   <separator name="electronic exchange-correlation" >
    <i type="logical" name="LASPH"> F  </i>
    <i type="logical" name="LMETAGGA"> F  </i>
   </separator>
   <separator name="electronic convergence" >
    <i type="int" name="NELM">    60</i>
    <i type="int" name="NELMDL">    -5</i>
    <i type="int" name="NELMIN">     2</i>
    <i name="ENINI">    280.00000000</i>
    <separator name="electronic convergence detail" >
     <i type="logical" name="LDIAG"> T  </i>
     <i type="logical" name="LSUBROT"> F  </i>
     <i name="WEIMIN">      0.00100000</i>
     <i name="EBREAK">      0.00000021</i>
     <i name="DEPER">      0.30000000</i>
     <i type="int" name="NRMM">     4</i>
     <i name="TIME">      0.40000000</i>
    </separator>
   </separator>
   <separator name="electronic mixer" >
    <i name="AMIX">      0.40000000</i>
    <i name="BMIX">      1.00000000</i>
    <i name="AMIN">      0.10000000</i>
    <i name="AMIX_MAG">      1.60000000</i>
    <i name="BMIX_MAG">      1.00000000</i>
    <separator name="electronic mixer details" >
     <i type="int" name="IMIX">     4</i>
     <i type="logical" name="MIXFIRST"> F  </i>
     <i type="int" name="MAXMIX">   -45</i>
     <i name="WC">    100.00000000</i>
     <i type="int" name="INIMIX">     1</i>
     <i type="int" name="MIXPRE">     1</i>
     <i type="int" name="MREMOVE">     5</i>
    </separator>
   </separator>
   <separator name="electronic dipolcorrection" >
    <i type="logical" name="LDIPOL"> F  </i>
    <i type="logical" name="LMONO"> F  </i>
    <i type="int" name="IDIPOL">     0</i>
    <i name="EPSILON">      1.00000000</i>
    <v name="DIPOL">   -100.00000000   -100.00000000   -100.00000000</v>
    <i name="EFIELD">      0.00000000</i>
   </separator>
  </separator>
  <separator name="grids" >
   <i type="int" name="NGX">    42</i>
   <i type="int" name="NGY">    42</i>
   <i type="int" name="NGZ">   126</i>
   <i type="int" name="NGXF">    84</i>
   <i type="int" name="NGYF">    84</i>
   <i type="int" name="NGZF">   252</i>
   <i type="logical" name="ADDGRID"> F  </i>
  </separator>
  <separator name="ionic" >
   <i type="int" name="NSW">   100</i>
   <i type="int" name="IBRION">     1</i>
   <i type="int" name="ISIF">     3</i>
   <i name="PSTRESS">      0.00000000</i>
   <i name="EDIFFG">      0.00100000</i>
   <i type="int" name="NFREE">     0</i>
   <i name="POTIM">      0.50000000</i>
   <i name="SMASS">     -3.00000000</i>
   <i name="SCALEE">      1.00000000</i>
  </separator>
  <separator name="ionic md" >
   <i name="TEBEG">      0.00010000</i>
   <i name="TEEND">      0.00010000</i>
   <i type="int" name="NBLOCK">     1</i>
   <i type="int" name="KBLOCK">   100</i>
   <i type="int" name="NPACO">   256</i>
   <i name="APACO">     16.00000000</i>
  </separator>
  <separator name="symmetry" >
   <i type="int" name="ISYM">     0</i>
   <i name="SYMPREC">      0.00000001</i>
  </separator>
  <separator name="dos" >
   <i type="logical" name="LORBIT"> F  </i>
   <v name="RWIGS">     -1.00000000     -1.00000000     -1.00000000     -1.00000000</v>
   <i type="int" name="NEDOS">   301</i>
   <i name="EMIN">     10.00000000</i>
   <i name="EMAX">    -10.00000000</i>
   <i name="EFERMI">      0.00000000</i>
  </separator>
  <separator name="writing" >
   <i type="int" name="NWRITE">     2</i>
   <i type="logical" name="LWAVE"> F  </i>
   <i type="logical" name="LCHARG"> F  </i>
   <i type="logical" name="LPARD"> F  </i>
   <i type="logical" name="LVTOT"> F  </i>
   <i type="logical" name="LVHAR"> F  </i>
   <i type="logical" name="LELF"> F  </i>
   <i type="logical" name="LOPTICS"> F  </i>
   <v name="STM">      0.00000000      0.00000000      0.00000000      0.00000000      0.00000000      0.00000000      0.00000000</v>
  </separator>
  <separator name="performance" >
   <i type="int" name="NPAR">    40</i>
   <i type="int" name="NSIM">     4</i>
   <i type="int" name="NBLK">    -1</i>
   <i type="logical" name="LPLANE"> F  </i>
   <i type="logical" name="LSCALAPACK"> T  </i>
   <i type="logical" name="LSCAAWARE"> F  </i>
   <i type="logical" name="LSCALU"> F  </i>
   <i type="logical" name="LASYNC"> F  </i>
   <i type="logical" name="LORBITALREAL"> F  </i>
  </separator>
  <separator name="miscellaneous" >
   <i type="int" name="IDIOT">     3</i>
   <i type="logical" name="LMUSIC"> F  </i>
   <v name="POMASS">     50.94100000     95.94000000    183.85000000     32.06600000</v>
   <v name="DARWINR">      0.00000000      0.00000000      0.00000000      0.00000000</v>
   <v name="DARWINV">      1.00000000      1.00000000      1.00000000      1.00000000</v>
   <i type="logical" name="LCORR"> T  </i>
  </separator>
  <i type="logical" name="GGA_COMPAT"> T  </i>
  <i type="logical" name="LBERRY"> F  </i>
  <i type="int" name="ICORELEVEL">     0</i>
  <i type="logical" name="LDAU"> F  </i>
  <i type="int" name="I_CONSTRAINED_M">     0</i>
  <separator name="electronic exchange-correlation" >
   <i type="string" name="GGA">--</i>
   <i type="int" name="VOSKOWN">     0</i>
   <i type="logical" name="LHFCALC"> F  </i>
   <i type="string" name="PRECFOCK"></i>
   <i type="logical" name="LSYMGRAD"> F  </i>
   <i type="logical" name="LHFONE"> F  </i>
   <i type="logical" name="LRHFCALC"> F  </i>
   <i type="logical" name="LTHOMAS"> F  </i>
   <i type="logical" name="LMODELHF"> F  </i>
   <i name="ENCUT4O">     -1.00000000</i>
   <i type="int" name="EXXOEP">     0</i>
   <i type="int" name="FOURORBIT">     0</i>
   <i name="AEXX">      0.00000000</i>
   <i name="HFALPHA">      0.00000000</i>
   <i name="MCALPHA">      0.00000000</i>
   <i name="ALDAX">      1.00000000</i>
   <i name="AGGAX">      1.00000000</i>
   <i name="ALDAC">      1.00000000</i>
   <i name="AGGAC">      1.00000000</i>
   <i type="int" name="NKREDX">     1</i>
   <i type="int" name="NKREDY">     1</i>
   <i type="int" name="NKREDZ">     1</i>
   <i type="logical" name="SHIFTRED"> F  </i>
   <i type="logical" name="ODDONLY"> F  </i>
   <i type="logical" name="EVENONLY"> F  </i>
   <i type="int" name="LMAXFOCK">     0</i>
   <i type="int" name="NMAXFOCKAE">     0</i>
   <i type="logical" name="LFOCKAEDFT"> F  </i>
   <i name="HFSCREEN">      0.00000000</i>
   <i name="HFSCREENC">      0.00000000</i>
   <i type="int" name="NBANDSGWLOW">     0</i>
  </separator>
  <separator name="vdW DFT" >
   <i type="logical" name="LUSE_VDW"> F  </i>
   <i name="Zab_VDW">     -0.84910000</i>
   <i name="PARAM1">      0.12340000</i>
   <i name="PARAM2">      1.00000000</i>
   <i name="PARAM3">      0.00000000</i>
  </separator>
  <separator name="model GW" >
   <i type="int" name="MODEL_GW">     0</i>
   <i name="MODEL_EPS0">     58.26239943</i>
   <i name="MODEL_ALPHA">      1.00000000</i>
  </separator>
  <separator name="linear response parameters" >
   <i type="logical" name="LEPSILON"> F  </i>
   <i type="logical" name="LRPA"> F  </i>
   <i type="logical" name="LNABLA"> F  </i>
   <i type="logical" name="LVEL"> F  </i>
   <i type="int" name="KINTER">     0</i>
   <i name="CSHIFT">      0.10000000</i>
   <i name="OMEGAMAX">     -1.00000000</i>
   <i name="DEG_THRESHOLD">      0.00200000</i>
  </separator>
  <separator name="orbital magnetization" >
   <i type="logical" name="NUCIND"> F  </i>
   <v name="MAGPOS">      0.00000000      0.00000000      0.00000000</v>
   <i type="logical" name="LNICSALL"> T  </i>
   <i type="logical" name="ORBITALMAG"> F  </i>
   <i type="logical" name="LMAGBLOCH"> F  </i>
   <i type="logical" name="LCHIMAG"> F  </i>
   <i type="logical" name="LGAUGE"> T  </i>
   <i type="int" name="MAGATOM">     0</i>
   <v name="MAGDIPOL">      0.00000000      0.00000000      0.00000000</v>
   <v name="AVECCONST">      0.00000000      0.00000000      0.00000000</v>
  </separator>
  <separator name="response functions" >
   <i type="logical" name="LADDER"> F  </i>
   <i type="logical" name="LFXC"> F  </i>
   <i type="logical" name="LHARTREE"> T  </i>
   <i type="int" name="IBSE">     0</i>
   <v type="int" name="KPOINT">    -1     0     0     0</v>
   <i type="logical" name="LTCTE"> F  </i>
   <i type="logical" name="LTETE"> F  </i>
   <i type="logical" name="LTRIPLET"> F  </i>
   <i type="logical" name="LFXCEPS"> F  </i>
   <i type="logical" name="LFXHEG"> F  </i>
   <i type="int" name="NATURALO">     0</i>
   <i type="logical" name="L2ORDER"> F  </i>
   <i type="logical" name="LUSEW"> F  </i>
   <i name="ENCUTGW">     -2.00000000</i>
   <i name="ENCUTGWSOFT">     -2.00000000</i>
   <i name="ENCUTLF">     -1.00000000</i>
   <i type="int" name="LMAXMP2">    -1</i>
   <i name="SCISSOR">      0.00000000</i>
   <i type="int" name="NOMEGA">     0</i>
   <i type="int" name="NOMEGAR">     0</i>
   <i type="int" name="NBANDSGW">    -1</i>
   <i type="int" name="NBANDSO">    -1</i>
   <i type="int" name="NBANDSV">    -1</i>
   <i type="int" name="NELM">     1</i>
   <i type="int" name="NELMHF">     1</i>
   <i type="int" name="DIM">     3</i>
   <i type="int" name="ANTIRES">     0</i>
   <i name="OMEGAMAX">    -30.00000000</i>
   <i name="OMEGAMIN">    -30.00000000</i>
   <i name="OMEGATL">   -200.00000000</i>
   <i type="int" name="OMEGAGRID">     0</i>
   <i name="CSHIFT">     -0.10000000</i>
   <i type="logical" name="SELFENERGY"> F  </i>
   <i type="logical" name="LSPECTRAL"> F  </i>
   <i type="logical" name="LSPECTRALGW"> F  </i>
   <i type="logical" name="LSINGLES"> F  </i>
   <i type="logical" name="LFERMIGW"> F  </i>
   <i type="logical" name="ODDONLYGW"> F  </i>
   <i type="logical" name="EVENONLYGW"> F  </i>
   <i type="int" name="NKREDLFX">     1</i>
   <i type="int" name="NKREDLFY">     1</i>
   <i type="int" name="NKREDLFZ">     1</i>
   <i type="int" name="MAXMEM">  1800</i>
   <i type="int" name="TELESCOPE">     0</i>
   <i type="int" name="TAUPAR">     1</i>
   <i type="int" name="OMEGAPAR">    -1</i>
   <i name="LAMBDA">      1.00000000</i>
  </separator>
  <separator name="External order field" >
   <i name="OFIELD_KAPPA">      0.00000000</i>
   <v name="OFIELD_K">      0.00000000      0.00000000      0.00000000</v>
   <i name="OFIELD_Q6_NEAR">      0.00000000</i>
   <i name="OFIELD_Q6_FAR">      0.00000000</i>
   <i name="OFIELD_A">      0.00000000</i>
  </separator>
 </parameters>
 <atominfo>
  <atoms>      27 </atoms>
  <types>       4 </types>
  <array name="atoms" >
   <dimension dim="1">ion</dimension>
   <field type="string">element</field>
   <field type="int">atomtype</field>
   <set>
    <rc><c>V </c><c>   1</c></rc>
    <rc><c>V </c><c>   1</c></rc>
    <rc><c>V </c><c>   1</c></rc>
    <rc><c>Mo</c><c>   2</c></rc>
    <rc><c>Mo</c><c>   2</c></rc>
    <rc><c>Mo</c><c>   2</c></rc>
    <rc><c>W </c><c>   3</c></rc>
    <rc><c>W </c><c>   3</c></rc>
    <rc><c>W </c><c>   3</c></rc>
    <rc><c>S </c><c>   4</c></rc>
    <rc><c>S </c><c>   4</c></rc>
    <rc><c>S </c><c>   4</c></rc>
    <rc><c>S </c><c>   4</c></rc>
    <rc><c>S </c><c>   4</c></rc>
    <rc><c>S </c><c>   4</c></rc>
    <rc><c>S </c><c>   4</c></rc>
    <rc><c>S </c><c>   4</c></rc>
    <rc><c>S </c><c>   4</c></rc>
    <rc><c>S </c><c>   4</c></rc>
    <rc><c>S </c><c>   4</c></rc>
    <rc><c>S </c><c>   4</c></rc>
    <rc><c>S </c><c>   4</c></rc>
    <rc><c>S </c><c>   4</c></rc>
    <rc><c>S </c><c>   4</c></rc>
    <rc><c>S </c><c>   4</c></rc>
    <rc><c>S </c><c>   4</c></rc>
    <rc><c>S </c><c>   4</c></rc>
   </set>
  </array>
  <array name="atomtypes" >
   <dimension dim="1">type</dimension>
   <field type="int">atomspertype</field>
   <field type="string">element</field>
   <field>mass</field>
   <field>valence</field>
   <field type="string">pseudopotential</field>
   <set>
    <rc><c>   3</c><c>V </c><c>     50.94100000</c><c>      5.00000000</c><c> PAW_PBE V 08Apr2002                    </c></rc>
    <rc><c>   3</c><c>Mo</c><c>     95.94000000</c><c>      6.00000000</c><c> PAW_PBE Mo 08Apr2002                   </c></rc>
    <rc><c>   3</c><c>W </c><c>    183.85000000</c><c>      6.00000000</c><c> PAW_PBE W 08Apr2002                    </c></rc>
    <rc><c>  18</c><c>S </c><c>     32.06600000</c><c>      6.00000000</c><c>  PAW_PBE S 17Jan2003                   </c></rc>
   </set>
  </array>
 </atominfo>
 <structure name="initialpos" >
  <crystal>
   <varray name="basis" >
    <v>       8.66999996       5.03999989       0.00000000 </v>
    <v>      -8.66999982       5.04000013       0.00000000 </v>
    <v>       0.00000000       0.00000000      30.00000000 </v>
   </varray>
   <i name="volume">   2621.80797419 </i>
   <varray name="rec_basis" >
    <v>       0.05767013       0.09920635       0.00000000 </v>
    <v>      -0.05767013       0.09920635       0.00000000 </v>
    <v>       0.00000000       0.00000000       0.03333333 </v>
   </varray>
  </crystal>
  <varray name="positions" >
   <v>       0.33333334       0.33333334       0.00000000 </v>
   <v>       0.33333334       0.00000000       0.00000000 </v>
   <v>       0.33333334       0.66666669       0.00000000 </v>
   <v>       0.66666669       0.66666669       0.00000000 </v>
   <v>       0.66666669       0.33333334       0.00000000 </v>
   <v>       0.66666669       0.00000000       0.00000000 </v>
   <v>       0.00000000       0.00000000       0.00000000 </v>
   <v>       1.00000000       0.33333334       0.00000000 </v>
   <v>       0.00000000       0.66666669       0.00000000 </v>
   <v>       0.11068511       0.22244981       0.95539999 </v>
   <v>       0.22244981       0.11068511       0.04460000 </v>
   <v>       0.11068511       0.55578315       0.95539999 </v>
   <v>       0.22244981       0.44401845       0.04460000 </v>
   <v>       0.11068511       0.88911647       0.95539999 </v>
   <v>       0.22244981       0.77735180       0.04460000 </v>
   <v>       0.44401845       0.22244981       0.95539999 </v>
   <v>       0.55578315       0.11068511       0.04460000 </v>
   <v>       0.44401845       0.55578315       0.95539999 </v>
   <v>       0.55578315       0.44401845       0.04460000 </v>
   <v>       0.44401845       0.88911647       0.95539999 </v>
   <v>       0.55578315       0.77735180       0.04460000 </v>
   <v>       0.77735180       0.22244981       0.95539999 </v>
   <v>       0.88911647       0.11068511       0.04460000 </v>
   <v>       0.77735180       0.55578315       0.95539999 </v>
   <v>       0.88911647       0.44401845       0.04460000 </v>
   <v>       0.77735180       0.88911647       0.95539999 </v>
   <v>       0.88911647       0.77735180       0.04460000 </v>
  </varray>
 </structure>
 <calculation>
  <scstep>
   <time name="dav">   22.80   22.87</time>
   <time name="total">   22.84   22.92</time>
   <energy>
    <i name="alphaZ">     81.65567618 </i>
    <i name="ewald">  41891.19379416 </i>
    <i name="hartreedc"> -47723.83905759 </i>
    <i name="XCdc">   -242.92449815 </i>
    <i name="pawpsdc">   3467.42045192 </i>
    <i name="pawaedc">  -2871.19716117 </i>
    <i name="eentropy">     -0.52894593 </i>
    <i name="bandstr">   -239.10022717 </i>
    <i name="atom">   6761.44252427 </i>
    <i name="e_fr_energy">   1124.12255651 </i>
    <i name="e_wo_entrp">   1124.65150244 </i>
    <i name="e_0_energy">   1124.38702948 </i>
   </energy>
  </scstep>
  <scstep>
   <time name="dav">   29.58   29.65</time>
   <time name="total">   29.58   29.66</time>
   <energy>
    <i name="e_fr_energy">     -3.81381199 </i>
    <i name="e_wo_entrp">     -3.61288757 </i>
    <i name="e_0_energy">     -3.71334978 </i>
   </energy>
  </scstep>
  <scstep>
   <time name="dav">   29.04   29.11</time>
   <time name="total">   29.05   29.12</time>
   <energy>
    <i name="e_fr_energy">   -200.14151680 </i>
    <i name="e_wo_entrp">   -199.87964661 </i>
    <i name="e_0_energy">   -200.01058170 </i>
   </energy>
  </scstep>
  <scstep>
   <time name="dav">   31.28   31.36</time>
   <time name="total">   31.29   31.37</time>
   <energy>
    <i name="e_fr_energy">   -209.07622227 </i>
    <i name="e_wo_entrp">   -208.81570721 </i>
    <i name="e_0_energy">   -208.94596474 </i>
   </energy>
  </scstep>
  <scstep>
   <time name="dav">   30.28   30.35</time>
   <time name="total">   30.75   30.83</time>
   <energy>
    <i name="e_fr_energy">   -209.40475565 </i>
    <i name="e_wo_entrp">   -209.14771424 </i>
    <i name="e_0_energy">   -209.27623495 </i>
   </energy>
  </scstep>
  <scstep>
   <time name="dav">   31.97   32.05</time>
   <time name="total">   32.47   32.56</time>
   <energy>
    <i name="e_fr_energy">   -241.87562244 </i>
    <i name="e_wo_entrp">   -241.61376789 </i>
    <i name="e_0_energy">   -241.74469517 </i>
   </energy>
  </scstep>
  <scstep>
   <time name="dav">   33.90   33.98</time>
   <time name="total">   34.41   34.50</time>
   <energy>
    <i name="e_fr_energy">   -196.04616288 </i>
    <i name="e_wo_entrp">   -195.70569475 </i>
    <i name="e_0_energy">   -195.87592882 </i>
   </energy>
  </scstep>
  <scstep>
   <time name="dav">   31.41   31.48</time>
   <time name="total">   31.93   32.02</time>
   <energy>
    <i name="e_fr_energy">   -189.23202877 </i>
    <i name="e_wo_entrp">   -188.90154935 </i>
    <i name="e_0_energy">   -189.06678906 </i>
   </energy>
  </scstep>
  <scstep>
   <time name="dav">   34.01   34.09</time>
   <time name="total">   34.53   34.62</time>
   <energy>
    <i name="e_fr_energy">   -188.02719664 </i>
    <i name="e_wo_entrp">   -187.69540492 </i>
    <i name="e_0_energy">   -187.86130078 </i>
   </energy>
  </scstep>
  <scstep>
   <time name="dav">   34.42   34.50</time>
   <time name="total">   34.95   35.05</time>
   <energy>
    <i name="e_fr_energy">   -186.93083215 </i>
    <i name="e_wo_entrp">   -186.57655572 </i>
    <i name="e_0_energy">   -186.75369393 </i>
   </energy>
  </scstep>
  <scstep>
   <time name="dav">   34.07   34.15</time>
   <time name="total">   34.61   34.70</time>
   <energy>
    <i name="e_fr_energy">   -186.91454451 </i>
    <i name="e_wo_entrp">   -186.57451226 </i>
    <i name="e_0_energy">   -186.74452838 </i>
   </energy>
  </scstep>
  <scstep>
   <time name="dav">   34.40   34.48</time>
   <time name="total">   34.93   35.03</time>
   <energy>
    <i name="e_fr_energy">   -186.84135688 </i>
    <i name="e_wo_entrp">   -186.49373452 </i>
    <i name="e_0_energy">   -186.66754570 </i>
   </energy>
  </scstep>
  <scstep>
   <time name="dav">   34.24   34.32</time>
   <time name="total">   34.78   34.87</time>
   <energy>
    <i name="e_fr_energy">   -186.83621427 </i>
    <i name="e_wo_entrp">   -186.48982415 </i>
    <i name="e_0_energy">   -186.66301921 </i>
   </energy>
  </scstep>
  <scstep>
   <time name="dav">   33.38   33.46</time>
   <time name="total">   33.92   34.01</time>
   <energy>
    <i name="e_fr_energy">   -186.82800355 </i>
    <i name="e_wo_entrp">   -186.48256518 </i>
    <i name="e_0_energy">   -186.65528436 </i>
   </energy>
  </scstep>
  <scstep>
   <time name="dav">   32.07   32.15</time>
   <time name="total">   32.61   32.70</time>
   <energy>
    <i name="e_fr_energy">   -186.82706802 </i>
    <i name="e_wo_entrp">   -186.48165571 </i>
    <i name="e_0_energy">   -186.65436187 </i>
   </energy>
  </scstep>
  <scstep>
   <time name="dav">   30.99   31.06</time>
   <time name="total">   31.52   31.60</time>
   <energy>
    <i name="e_fr_energy">   -186.82707837 </i>
    <i name="e_wo_entrp">   -186.48167727 </i>
    <i name="e_0_energy">   -186.65437782 </i>
   </energy>
  </scstep>
  <scstep>
   <time name="dav">   29.06   29.13</time>
   <time name="total">   29.60   29.68</time>
   <energy>
    <i name="e_fr_energy">   -186.82710064 </i>
    <i name="e_wo_entrp">   -186.48176045 </i>
    <i name="e_0_energy">   -186.65443054 </i>
   </energy>
  </scstep>
  <scstep>
   <time name="dav">   28.68   28.75</time>
   <time name="total">   28.71   28.79</time>
   <energy>
    <i name="alphaZ">     81.65567618 </i>
    <i name="ewald">  41891.19379416 </i>
    <i name="hartreedc"> -47821.15872921 </i>
    <i name="XCdc">   -231.67394644 </i>
    <i name="pawpsdc">   4193.71580610 </i>
    <i name="pawaedc">  -3611.72408262 </i>
    <i name="eentropy">     -0.34522927 </i>
    <i name="bandstr">  -1449.93284972 </i>
    <i name="atom">   6761.44252427 </i>
    <i name="e_fr_energy">   -186.82703655 </i>
    <i name="e_wo_entrp">   -186.48180728 </i>
    <i name="e_0_energy">   -186.65442191 </i>
   </energy>
  </scstep>
  <structure>
   <crystal>
    <varray name="basis" >
     <v>       8.66999996       5.03999989       0.00000000 </v>
     <v>      -8.66999982       5.04000013       0.00000000 </v>
     <v>       0.00000000       0.00000000      30.00000000 </v>
    </varray>
    <i name="volume">   2621.80797419 </i>
    <varray name="rec_basis" >
     <v>       0.05767013       0.09920635       0.00000000 </v>
     <v>      -0.05767013       0.09920635       0.00000000 </v>
     <v>       0.00000000       0.00000000       0.03333333 </v>
    </varray>
   </crystal>
   <varray name="positions" >
    <v>       0.33333334       0.33333334       0.00000000 </v>
    <v>       0.33333334       0.00000000       0.00000000 </v>
    <v>       0.33333334       0.66666669       0.00000000 </v>
    <v>       0.66666669       0.66666669       0.00000000 </v>
    <v>       0.66666669       0.33333334       0.00000000 </v>
    <v>       0.66666669       0.00000000       0.00000000 </v>
    <v>       0.00000000       0.00000000       0.00000000 </v>
    <v>       1.00000000       0.33333334       0.00000000 </v>
    <v>       0.00000000       0.66666669       0.00000000 </v>
    <v>       0.11068511       0.22244981       0.95539999 </v>
    <v>       0.22244981       0.11068511       0.04460000 </v>
    <v>       0.11068511       0.55578315       0.95539999 </v>
    <v>       0.22244981       0.44401845       0.04460000 </v>
    <v>       0.11068511       0.88911647       0.95539999 </v>
    <v>       0.22244981       0.77735180       0.04460000 </v>
    <v>       0.44401845       0.22244981       0.95539999 </v>
    <v>       0.55578315       0.11068511       0.04460000 </v>
    <v>       0.44401845       0.55578315       0.95539999 </v>
    <v>       0.55578315       0.44401845       0.04460000 </v>
    <v>       0.44401845       0.88911647       0.95539999 </v>
    <v>       0.55578315       0.77735180       0.04460000 </v>
    <v>       0.77735180       0.22244981       0.95539999 </v>
    <v>       0.88911647       0.11068511       0.04460000 </v>
    <v>       0.77735180       0.55578315       0.95539999 </v>
    <v>       0.88911647       0.44401845       0.04460000 </v>
    <v>       0.77735180       0.88911647       0.95539999 </v>
    <v>       0.88911647       0.77735180       0.04460000 </v>
   </varray>
  </structure>
  <varray name="forces" >
   <v>       0.21070316       0.35064852      -0.00132203 </v>
   <v>       0.21123432       0.35102935      -0.00153378 </v>
   <v>       0.20925286       0.35075946      -0.00126409 </v>
   <v>      -0.01651327      -0.02393766      -0.10791534 </v>
   <v>      -0.01508938      -0.02313564      -0.10776194 </v>
   <v>      -0.01635006      -0.02323912      -0.10787542 </v>
   <v>      -0.22470584      -0.39027899       0.15279576 </v>
   <v>      -0.22531582      -0.39028547       0.15310835 </v>
   <v>      -0.22421422      -0.39008187       0.15288125 </v>
   <v>       0.47712152       0.58473312      -2.13861926 </v>
   <v>       0.23924198       0.52562234       1.38247592 </v>
   <v>       0.47601177       0.58539150      -2.13901040 </v>
   <v>       0.24043272       0.52612977       1.38243748 </v>
   <v>       0.47585806       0.58433949      -2.13838554 </v>
   <v>       0.23989550       0.52524960       1.38272222 </v>
   <v>      -0.31794211      -0.65750686      -1.42782311 </v>
   <v>      -0.52757249      -0.69333693       2.13386902 </v>
   <v>      -0.31791149      -0.65895536      -1.42844626 </v>
   <v>      -0.52642352      -0.69462930       2.13362287 </v>
   <v>      -0.31734996      -0.65798600      -1.42834747 </v>
   <v>      -0.52809686      -0.69323069       2.13431055 </v>
   <v>       0.18811544       0.12582131      -2.91680858 </v>
   <v>      -0.02889352       0.17695786       2.92332115 </v>
   <v>       0.18997521       0.12599439      -2.91676891 </v>
   <v>      -0.03058331       0.17759400       2.92361902 </v>
   <v>       0.18816545       0.12744798      -2.91673366 </v>
   <v>      -0.02904612       0.17888519       2.92345219 </v>
  </varray>
  <varray name="stress" >
   <v>       7.28982073       0.12197751      -1.62669222 </v>
   <v>       0.12197726       4.50882949      -0.10647065 </v>
   <v>      -1.62669261      -0.10647043      30.86060880 </v>
  </varray>
  <energy>
   <i name="e_fr_energy">   -186.82703655 </i>
   <i name="e_wo_entrp">   -186.65442191 </i>
   <i name="e_0_energy">     -0.34522927 </i>
  </energy>
  <time name="totalsc">  616.11  617.75</time>
 </calculation>
 <calculation>
  <scstep>
   <time name="dav">   22.76   22.81</time>
   <time name="total">   23.31   23.36</time>
   <energy>
    <i name="alphaZ">     78.91125636 </i>
    <i name="ewald">  39374.18854775 </i>
    <i name="hartreedc"> -45324.10004680 </i>
    <i name="XCdc">   -239.11542421 </i>
    <i name="pawpsdc">   4192.90482381 </i>
    <i name="pawaedc">  -3610.90317037 </i>
    <i name="eentropy">     -0.28380913 </i>
    <i name="bandstr">  -1420.55845750 </i>
    <i name="atom">   6761.44252427 </i>
    <i name="e_fr_energy">   -187.51375581 </i>
    <i name="e_wo_entrp">   -187.22994668 </i>
    <i name="e_0_energy">   -187.37185125 </i>
   </energy>
  </scstep>
  <scstep>
   <time name="dav">   31.02   31.09</time>
   <time name="total">   31.55   31.64</time>
   <energy>
    <i name="e_fr_energy">   -189.60521333 </i>
    <i name="e_wo_entrp">   -189.27231184 </i>
    <i name="e_0_energy">   -189.43876258 </i>
   </energy>
  </scstep>
  <scstep>
   <time name="dav">   32.17   32.25</time>
   <time name="total">   32.76   32.85</time>
   <energy>
    <i name="e_fr_energy">   -189.29706850 </i>
    <i name="e_wo_entrp">   -189.02875206 </i>
    <i name="e_0_energy">   -189.16291028 </i>
   </energy>
  </scstep>
  <scstep>
   <time name="dav">   32.48   32.56</time>
   <time name="total">   33.03   33.11</time>
   <energy>
    <i name="e_fr_energy">   -188.75897286 </i>
    <i name="e_wo_entrp">   -188.47344089 </i>
    <i name="e_0_energy">   -188.61620687 </i>
   </energy>
  </scstep>
  <scstep>
   <time name="dav">   28.17   28.23</time>
   <time name="total">   28.71   28.79</time>
   <energy>
    <i name="e_fr_energy">   -188.72722323 </i>
    <i name="e_wo_entrp">   -188.44511757 </i>
    <i name="e_0_energy">   -188.58617040 </i>
   </energy>
  </scstep>
  <scstep>
   <time name="dav">   30.65   30.73</time>
   <time name="total">   31.20   31.28</time>
   <energy>
    <i name="e_fr_energy">   -188.69301058 </i>
    <i name="e_wo_entrp">   -188.40789006 </i>
    <i name="e_0_energy">   -188.55045032 </i>
   </energy>
  </scstep>
  <scstep>
   <time name="dav">   31.81   31.89</time>
   <time name="total">   32.36   32.44</time>
   <energy>
    <i name="e_fr_energy">   -188.69799886 </i>
    <i name="e_wo_entrp">   -188.41276550 </i>
    <i name="e_0_energy">   -188.55538218 </i>
   </energy>
  </scstep>
  <scstep>
   <time name="dav">   30.71   30.78</time>
   <time name="total">   31.25   31.34</time>
   <energy>
    <i name="e_fr_energy">   -188.67298529 </i>
    <i name="e_wo_entrp">   -188.38952624 </i>
    <i name="e_0_energy">   -188.53125576 </i>
   </energy>
  </scstep>
  <scstep>
   <time name="dav">   31.05   31.12</time>
   <time name="total">   31.60   31.68</time>
   <energy>
    <i name="e_fr_energy">   -188.67236767 </i>
    <i name="e_wo_entrp">   -188.38966288 </i>
    <i name="e_0_energy">   -188.53101528 </i>
   </energy>
  </scstep>
  <scstep>
   <time name="dav">   32.75   32.83</time>
   <time name="total">   33.30   33.39</time>
   <energy>
    <i name="e_fr_energy">   -188.67275334 </i>
    <i name="e_wo_entrp">   -188.39014458 </i>
    <i name="e_0_energy">   -188.53144896 </i>
   </energy>
  </scstep>
  <scstep>
   <time name="dav">   26.90   26.97</time>
   <time name="total">   27.45   27.53</time>
   <energy>
    <i name="e_fr_energy">   -188.67254590 </i>
    <i name="e_wo_entrp">   -188.39003071 </i>
    <i name="e_0_energy">   -188.53128830 </i>
   </energy>
  </scstep>
  <scstep>
   <time name="dav">   24.38   24.44</time>
   <time name="total">   24.41   24.48</time>
   <energy>
    <i name="alphaZ">     78.91125636 </i>
    <i name="ewald">  39374.18854775 </i>
    <i name="hartreedc"> -45339.71218244 </i>
    <i name="XCdc">   -238.00066632 </i>
    <i name="pawpsdc">   3950.82003099 </i>
    <i name="pawaedc">  -3365.32763600 </i>
    <i name="eentropy">     -0.28250794 </i>
    <i name="bandstr">  -1410.71182738 </i>
    <i name="atom">   6761.44252427 </i>
    <i name="e_fr_energy">   -188.67246069 </i>
    <i name="e_wo_entrp">   -188.38995275 </i>
    <i name="e_0_energy">   -188.53120672 </i>
   </energy>
  </scstep>
  <structure>
   <crystal>
    <varray name="basis" >
     <v>       8.85659392       5.10953545       0.00000000 </v>
     <v>      -8.85299880       5.10335145       0.00000000 </v>
     <v>       0.00000000       0.00000000      30.00000000 </v>
    </varray>
    <i name="volume">   2712.99067851 </i>
    <varray name="rec_basis" >
     <v>       0.05643239       0.09789564       0.00000000 </v>
     <v>      -0.05650077       0.09793540       0.00000000 </v>
     <v>       0.00000000       0.00000000       0.03333333 </v>
    </varray>
   </crystal>
   <varray name="positions" >
    <v>       0.33559775       0.33442533      -0.00000213 </v>
    <v>       0.33560105       0.00109233      -0.00000247 </v>
    <v>       0.33559425       0.66776324      -0.00000203 </v>
    <v>       0.66650618       0.66659806      -0.00017354 </v>
    <v>       0.66651398       0.33326460      -0.00017329 </v>
    <v>       0.66650998      -0.00006573      -0.00017347 </v>
    <v>      -0.00249303      -0.00124270       0.00024571 </v>
    <v>       0.99750524       0.33209231       0.00024621 </v>
    <v>      -0.00249072       0.66542356       0.00024585 </v>
    <v>       0.11481106       0.22392090       0.95196090 </v>
    <v>       0.22563104       0.11253512       0.04682314 </v>
    <v>       0.11481112       0.55726048       0.95196027 </v>
    <v>       0.22563678       0.44586758       0.04682308 </v>
    <v>       0.11480566       0.89058919       0.95196128 </v>
    <v>       0.22563107       0.77919820       0.04682354 </v>
    <v>       0.43998707       0.22018756       0.95310392 </v>
    <v>       0.55099707       0.10883461       0.04803145 </v>
    <v>       0.43998023       0.55351389       0.95310292 </v>
    <v>       0.55099408       0.44215857       0.04803105 </v>
    <v>       0.43998643       0.88685028       0.95310308 </v>
    <v>       0.55099612       0.77550326       0.04803216 </v>
    <v>       0.77847734       0.22252862       0.95070950 </v>
    <v>       0.88988300       0.11161241       0.04930096 </v>
    <v>       0.77848334       0.55585762       0.95070957 </v>
    <v>       0.88988134       0.44495350       0.04930144 </v>
    <v>       0.77848527       0.88920292       0.95070962 </v>
    <v>       0.88989180       0.77828875       0.04930117 </v>
   </varray>
  </structure>
  <varray name="forces" >
   <v>       0.18018466       0.31915706       0.06813057 </v>
   <v>       0.18148288       0.31646175       0.06836976 </v>
   <v>       0.18411549       0.31839722       0.06797458 </v>
   <v>       0.13363308       0.23591131      -0.01971972 </v>
   <v>       0.13302618       0.23364951      -0.02026368 </v>
   <v>       0.13644174       0.23353355      -0.01998420 </v>
   <v>      -0.27810551      -0.48592279      -0.08596252 </v>
   <v>      -0.27658456      -0.48521098      -0.08650997 </v>
   <v>      -0.27733963      -0.48505967      -0.08631765 </v>
   <v>      -0.05932801      -0.06875683       0.28223855 </v>
   <v>      -0.05742364      -0.07289410      -0.22401499 </v>
   <v>      -0.05630775      -0.07135805       0.28304343 </v>
   <v>      -0.05816725      -0.07606250      -0.22480740 </v>
   <v>      -0.05665761      -0.06913972       0.28096614 </v>
   <v>      -0.05668072      -0.07407199      -0.22341678 </v>
   <v>      -0.00803992      -0.04207949      -0.02711173 </v>
   <v>      -0.03416882      -0.07811648       0.02221978 </v>
   <v>      -0.00649989      -0.04030469      -0.02553415 </v>
   <v>      -0.03759208      -0.07653928       0.02259185 </v>
   <v>      -0.00746264      -0.04092065      -0.02662753 </v>
   <v>      -0.03385782      -0.07821449       0.02164718 </v>
   <v>       0.05877830       0.11283740      -0.16857851 </v>
   <v>       0.05932704       0.08617101       0.15445471 </v>
   <v>       0.05507234       0.11193059      -0.17045197 </v>
   <v>       0.06418532       0.08483492       0.15393356 </v>
   <v>       0.05703760       0.10943314      -0.17076528 </v>
   <v>       0.06093125       0.08233426       0.15449599 </v>
  </varray>
  <varray name="stress" >
   <v>     -19.97861449      -0.06251969      -0.06751810 </v>
   <v>      -0.06251971     -19.61069431      -0.19265099 </v>
   <v>      -0.06751788      -0.19265088      -1.71821815 </v>
  </varray>
  <energy>
   <i name="e_fr_energy">   -188.67246069 </i>
   <i name="e_wo_entrp">   -188.53120672 </i>
   <i name="e_0_energy">     -0.28250794 </i>
  </energy>
  <time name="totalsc">  404.69  405.76</time>
 </calculation>
 <calculation>
  <scstep>
   <time name="dav">   25.00   25.06</time>
   <time name="total">   25.54   25.61</time>
   <energy>
    <i name="alphaZ">     82.34488187 </i>
    <i name="ewald">  41302.98458826 </i>
    <i name="hartreedc"> -47299.27041161 </i>
    <i name="XCdc">   -233.86575188 </i>
    <i name="pawpsdc">   3950.15016240 </i>
    <i name="pawaedc">  -3364.65070196 </i>
    <i name="eentropy">     -0.23715537 </i>
    <i name="bandstr">  -1389.51223455 </i>
    <i name="atom">   6761.44252427 </i>
    <i name="e_fr_energy">   -190.61409857 </i>
    <i name="e_wo_entrp">   -190.37694319 </i>
    <i name="e_0_energy">   -190.49552088 </i>
   </energy>
  </scstep>
  <scstep>
   <time name="dav">   32.06   32.14</time>
   <time name="total">   32.59   32.67</time>
   <energy>
    <i name="e_fr_energy">   -190.54334110 </i>
    <i name="e_wo_entrp">   -190.31598044 </i>
    <i name="e_0_energy">   -190.42966077 </i>
   </energy>
  </scstep>
  <scstep>
   <time name="dav">   31.72   31.80</time>
   <time name="total">   32.25   32.33</time>
   <energy>
    <i name="e_fr_energy">   -190.11092242 </i>
    <i name="e_wo_entrp">   -189.85917093 </i>
    <i name="e_0_energy">   -189.98504668 </i>
   </energy>
  </scstep>
  <scstep>
   <time name="dav">   33.17   33.25</time>
   <time name="total">   33.71   33.80</time>
   <energy>
    <i name="e_fr_energy">   -189.87928764 </i>
    <i name="e_wo_entrp">   -189.64711293 </i>
    <i name="e_0_energy">   -189.76320028 </i>
   </energy>
  </scstep>
  <scstep>
   <time name="dav">   30.99   31.07</time>
   <time name="total">   31.53   31.61</time>
   <energy>
    <i name="e_fr_energy">   -189.78872906 </i>
    <i name="e_wo_entrp">   -189.54995179 </i>
    <i name="e_0_energy">   -189.66934042 </i>
   </energy>
  </scstep>
  <scstep>
   <time name="dav">   28.19   28.26</time>
   <time name="total">   28.72   28.80</time>
   <energy>
    <i name="e_fr_energy">   -189.77739756 </i>
    <i name="e_wo_entrp">   -189.53932097 </i>
    <i name="e_0_energy">   -189.65835926 </i>
   </energy>
  </scstep>
  <scstep>
   <time name="dav">   27.35   27.42</time>
   <time name="total">   27.89   27.96</time>
   <energy>
    <i name="e_fr_energy">   -189.77755920 </i>
    <i name="e_wo_entrp">   -189.53929868 </i>
    <i name="e_0_energy">   -189.65842894 </i>
   </energy>
  </scstep>
  <scstep>
   <time name="dav">   29.72   29.79</time>
   <time name="total">   30.25   30.33</time>
   <energy>
    <i name="e_fr_energy">   -189.77816561 </i>
    <i name="e_wo_entrp">   -189.53981618 </i>
    <i name="e_0_energy">   -189.65899090 </i>
   </energy>
  </scstep>
  <scstep>
   <time name="dav">   26.40   26.46</time>
   <time name="total">   26.94   27.01</time>
   <energy>
    <i name="e_fr_energy">   -189.77783990 </i>
    <i name="e_wo_entrp">   -189.53933043 </i>
    <i name="e_0_energy">   -189.65858517 </i>
   </energy>
  </scstep>
  <scstep>
   <time name="dav">   22.43   22.49</time>
   <time name="total">   22.97   23.03</time>
   <energy>
    <i name="e_fr_energy">   -189.77764626 </i>
    <i name="e_wo_entrp">   -189.53910098 </i>
    <i name="e_0_energy">   -189.65837362 </i>
   </energy>
  </scstep>
  <scstep>
   <time name="dav">   19.36   19.41</time>
   <time name="total">   19.40   19.45</time>
   <energy>
    <i name="alphaZ">     82.34488187 </i>
    <i name="ewald">  41302.98458826 </i>
    <i name="hartreedc"> -47274.12813815 </i>
    <i name="XCdc">   -235.25579076 </i>
    <i name="pawpsdc">   4038.60815903 </i>
    <i name="pawaedc">  -3454.30682894 </i>
    <i name="eentropy">     -0.23854340 </i>
    <i name="bandstr">  -1411.22855178 </i>
    <i name="atom">   6761.44252427 </i>
    <i name="e_fr_energy">   -189.77769959 </i>
    <i name="e_wo_entrp">   -189.53915619 </i>
    <i name="e_0_energy">   -189.65842789 </i>
   </energy>
  </scstep>
  <structure>
   <crystal>
    <varray name="basis" >
     <v>       8.66790205       5.00228345       0.00000000 </v>
     <v>      -8.66506306       4.99740713       0.00000000 </v>
     <v>       0.00000000       0.00000000      30.00000000 </v>
    </varray>
    <i name="volume">   2599.86410905 </i>
    <varray name="rec_basis" >
     <v>       0.05766540       0.09998672       0.00000000 </v>
     <v>      -0.05772167       0.10001948       0.00000000 </v>
     <v>       0.00000000       0.00000000       0.03333333 </v>
    </varray>
   </crystal>
   <varray name="positions" >
    <v>       0.33630065       0.33478306       0.00003642 </v>
    <v>       0.33630071       0.00144434       0.00003622 </v>
    <v>       0.33629965       0.66811594       0.00003643 </v>
    <v>       0.66702617       0.66686206      -0.00018469 </v>
    <v>       0.66702963       0.33352542      -0.00018476 </v>
    <v>       0.66702871       0.00019162      -0.00018478 </v>
    <v>      -0.00356682      -0.00178373       0.00019707 </v>
    <v>       0.99643409       0.33155100       0.00019727 </v>
    <v>      -0.00356235       0.66488323       0.00019701 </v>
    <v>       0.11463998       0.22386350       0.95212058 </v>
    <v>       0.22545491       0.11246902       0.04669640 </v>
    <v>       0.11463862       0.55719586       0.95212041 </v>
    <v>       0.22545468       0.44579692       0.04669589 </v>
    <v>       0.11463651       0.89052859       0.95212024 </v>
    <v>       0.22545370       0.77912943       0.04669714 </v>
    <v>       0.43990945       0.22012532       0.95308859 </v>
    <v>       0.55083454       0.10873752       0.04804402 </v>
    <v>       0.43990703       0.55345312       0.95308848 </v>
    <v>       0.55083089       0.44206739       0.04804383 </v>
    <v>       0.43991129       0.88678941       0.95308802 </v>
    <v>       0.55083372       0.77540572       0.04804441 </v>
    <v>       0.77872113       0.22265982       0.95061413 </v>
    <v>       0.89008300       0.11169876       0.04938834 </v>
    <v>       0.77872208       0.55599086       0.95061313 </v>
    <v>       0.89008378       0.44503297       0.04938853 </v>
    <v>       0.77872173       0.88933013       0.95061301 </v>
    <v>       0.89008696       0.77836718       0.04938858 </v>
   </varray>
  </structure>
  <varray name="forces" >
   <v>       0.17662487       0.30662615       0.07432319 </v>
   <v>       0.17158133       0.30759020       0.07465051 </v>
   <v>       0.17744477       0.30469037       0.07438624 </v>
   <v>       0.18627337       0.31745965       0.00773992 </v>
   <v>       0.17983303       0.31743180       0.00805910 </v>
   <v>       0.18549394       0.32053203       0.00785321 </v>
   <v>      -0.30606638      -0.53695632      -0.10516957 </v>
   <v>      -0.30331668      -0.53761494      -0.10515976 </v>
   <v>      -0.30846270      -0.53791229      -0.10491403 </v>
   <v>       0.01776087       0.05735336      -0.20098688 </v>
   <v>       0.00870224       0.04330862       0.20961380 </v>
   <v>       0.01602224       0.05492900      -0.20304473 </v>
   <v>       0.01194720       0.04123227       0.21079213 </v>
   <v>       0.01697348       0.05588198      -0.20221112 </v>
   <v>       0.00844463       0.04168957       0.21117744 </v>
   <v>      -0.04065669      -0.09606180      -0.48162852 </v>
   <v>      -0.06587748      -0.12707904       0.49944750 </v>
   <v>      -0.03695697      -0.09769500      -0.48216130 </v>
   <v>      -0.06729907      -0.12829542       0.49873488 </v>
   <v>      -0.03976387      -0.09502515      -0.48297637 </v>
   <v>      -0.06530567      -0.12602457       0.50081302 </v>
   <v>       0.01014041       0.02897217      -0.74035433 </v>
   <v>       0.01533605       0.00887179       0.73759812 </v>
   <v>       0.00999459       0.02910304      -0.74050547 </v>
   <v>       0.01544782       0.00901545       0.73665806 </v>
   <v>       0.01041015       0.02909049      -0.74026279 </v>
   <v>       0.01527451       0.00888661       0.73752775 </v>
  </varray>
  <varray name="stress" >
   <v>     -10.24296942      -0.01976540      -0.08768109 </v>
   <v>      -0.01976528      -9.92500753      -0.19659230 </v>
   <v>      -0.08768100      -0.19659224       6.54280448 </v>
  </varray>
  <energy>
   <i name="e_fr_energy">   -189.77769959 </i>
   <i name="e_wo_entrp">   -189.65842789 </i>
   <i name="e_0_energy">     -0.23854340 </i>
  </energy>
  <time name="totalsc">  355.54  356.48</time>
 </calculation>
 <calculation>
  <scstep>
   <time name="dav">   22.76   22.82</time>
   <time name="total">   23.28   23.34</time>
   <energy>
    <i name="alphaZ">     85.85983235 </i>
    <i name="ewald">  42853.64389423 </i>
    <i name="hartreedc"> -48869.47476574 </i>
    <i name="XCdc">   -232.93651198 </i>
    <i name="pawpsdc">   4038.68912044 </i>
    <i name="pawaedc">  -3454.38753034 </i>
    <i name="eentropy">     -0.19165672 </i>
    <i name="bandstr">  -1374.05392953 </i>
    <i name="atom">   6761.44252427 </i>
    <i name="e_fr_energy">   -191.40902303 </i>
    <i name="e_wo_entrp">   -191.21736630 </i>
    <i name="e_0_energy">   -191.31319467 </i>
   </energy>
  </scstep>
  <scstep>
   <time name="dav">   34.18   34.26</time>
   <time name="total">   34.69   34.78</time>
   <energy>
    <i name="e_fr_energy">   -191.12970746 </i>
    <i name="e_wo_entrp">   -190.94026013 </i>
    <i name="e_0_energy">   -191.03498380 </i>
   </energy>
  </scstep>
  <scstep>
   <time name="dav">   31.77   31.85</time>
   <time name="total">   32.28   32.36</time>
   <energy>
    <i name="e_fr_energy">   -191.36965017 </i>
    <i name="e_wo_entrp">   -191.14589816 </i>
    <i name="e_0_energy">   -191.25777416 </i>
   </energy>
  </scstep>
  <scstep>
   <time name="dav">   31.47   31.54</time>
   <time name="total">   31.99   32.07</time>
   <energy>
    <i name="e_fr_energy">   -190.96770973 </i>
    <i name="e_wo_entrp">   -190.78314337 </i>
    <i name="e_0_energy">   -190.87542655 </i>
   </energy>
  </scstep>
  <scstep>
   <time name="dav">   32.19   32.26</time>
   <time name="total">   32.70   32.78</time>
   <energy>
    <i name="e_fr_energy">   -190.83579154 </i>
    <i name="e_wo_entrp">   -190.63747227 </i>
    <i name="e_0_energy">   -190.73663190 </i>
   </energy>
  </scstep>
  <scstep>
   <time name="dav">   31.60   31.67</time>
   <time name="total">   32.12   32.20</time>
   <energy>
    <i name="e_fr_energy">   -190.83160761 </i>
    <i name="e_wo_entrp">   -190.63359689 </i>
    <i name="e_0_energy">   -190.73260225 </i>
   </energy>
  </scstep>
  <scstep>
   <time name="dav">   30.35   30.42</time>
   <time name="total">   30.86   30.95</time>
   <energy>
    <i name="e_fr_energy">   -190.82731525 </i>
    <i name="e_wo_entrp">   -190.62964495 </i>
    <i name="e_0_energy">   -190.72848010 </i>
   </energy>
  </scstep>
  <scstep>
   <time name="dav">   31.81   31.88</time>
   <time name="total">   32.33   32.41</time>
   <energy>
    <i name="e_fr_energy">   -190.81968117 </i>
    <i name="e_wo_entrp">   -190.62169122 </i>
    <i name="e_0_energy">   -190.72068619 </i>
   </energy>
  </scstep>
  <scstep>
   <time name="dav">   27.66   27.73</time>
   <time name="total">   28.18   28.26</time>
   <energy>
    <i name="e_fr_energy">   -190.81993356 </i>
    <i name="e_wo_entrp">   -190.62156274 </i>
    <i name="e_0_energy">   -190.72074815 </i>
   </energy>
  </scstep>
  <scstep>
   <time name="dav">   28.56   28.63</time>
   <time name="total">   29.09   29.16</time>
   <energy>
    <i name="e_fr_energy">   -190.82012342 </i>
    <i name="e_wo_entrp">   -190.62173272 </i>
    <i name="e_0_energy">   -190.72092807 </i>
   </energy>
  </scstep>
  <scstep>
   <time name="dav">   22.55   22.60</time>
   <time name="total">   23.06   23.12</time>
   <energy>
    <i name="e_fr_energy">   -190.81989814 </i>
    <i name="e_wo_entrp">   -190.62149464 </i>
    <i name="e_0_energy">   -190.72069639 </i>
   </energy>
  </scstep>
  <scstep>
   <time name="dav">   17.97   18.01</time>
   <time name="total">   18.01   18.06</time>
   <energy>
    <i name="alphaZ">     85.85983235 </i>
    <i name="ewald">  42853.64389423 </i>
    <i name="hartreedc"> -48841.09557937 </i>
    <i name="XCdc">   -234.28273940 </i>
    <i name="pawpsdc">   4064.58449439 </i>
    <i name="pawaedc">  -3480.46636479 </i>
    <i name="eentropy">     -0.19839895 </i>
    <i name="bandstr">  -1400.30757624 </i>
    <i name="atom">   6761.44252427 </i>
    <i name="e_fr_energy">   -190.81991351 </i>
    <i name="e_wo_entrp">   -190.62151456 </i>
    <i name="e_0_energy">   -190.72071404 </i>
   </energy>
  </scstep>
  <structure>
   <crystal>
    <varray name="basis" >
     <v>       8.48403156       4.90148079       0.00000000 </v>
     <v>      -8.48124581       4.89669066       0.00000000 </v>
     <v>       0.00000000       0.00000000      30.00000000 </v>
    </varray>
    <i name="volume">   2493.43024646 </i>
    <varray name="rec_basis" >
     <v>       0.05891511       0.10204311       0.00000000 </v>
     <v>      -0.05897274       0.10207663       0.00000000 </v>
     <v>       0.00000000       0.00000000       0.03333333 </v>
    </varray>
   </crystal>
   <varray name="positions" >
    <v>       0.33882576       0.33604065       0.00019577 </v>
    <v>       0.33881364       0.00274464       0.00019632 </v>
    <v>       0.33880812       0.66935997       0.00019609 </v>
    <v>       0.66997206       0.66830774      -0.00014515 </v>
    <v>       0.66994922       0.33500832      -0.00014381 </v>
    <v>       0.66999955       0.00167830      -0.00014467 </v>
    <v>      -0.00821005      -0.00413163      -0.00003735 </v>
    <v>       0.99179501       0.32918379      -0.00003666 </v>
    <v>      -0.00822939       0.66253802      -0.00003636 </v>
    <v>       0.11549263       0.22436427       0.95129037 </v>
    <v>       0.22614592       0.11290547       0.04750204 </v>
    <v>       0.11546332       0.55769507       0.95128348 </v>
    <v>       0.22615293       0.44620557       0.04750566 </v>
    <v>       0.11546933       0.89102527       0.95128753 </v>
    <v>       0.22613107       0.77955701       0.04750684 </v>
    <v>       0.43897701       0.21958151       0.95170126 </v>
    <v>       0.54963029       0.10810176       0.04948772 </v>
    <v>       0.43897229       0.55287396       0.95169824 </v>
    <v>       0.54960975       0.44141921       0.04948513 </v>
    <v>       0.43898872       0.88624810       0.95169633 </v>
    <v>       0.54964143       0.77477701       0.04949260 </v>
    <v>       0.77865819       0.22266450       0.94859016 </v>
    <v>       0.88993605       0.11156831       0.05141632 </v>
    <v>       0.77866720       0.55599434       0.94859033 </v>
    <v>       0.88993497       0.44491363       0.05141420 </v>
    <v>       0.77867228       0.88934052       0.94859119 </v>
    <v>       0.88994715       0.77824915       0.05141632 </v>
   </varray>
  </structure>
  <varray name="forces" >
   <v>       0.19335690       0.33486457       0.04119895 </v>
   <v>       0.19444554       0.33444104       0.04206253 </v>
   <v>       0.19125116       0.33468913       0.04235999 </v>
   <v>       0.21486221       0.36587469       0.01851697 </v>
   <v>       0.21429251       0.36861703       0.01845148 </v>
   <v>       0.20958569       0.36635655       0.01765947 </v>
   <v>      -0.32904806      -0.57296824      -0.04441120 </v>
   <v>      -0.33133388      -0.57418505      -0.04471585 </v>
   <v>      -0.32777265      -0.57457410      -0.04323862 </v>
   <v>      -0.00838509      -0.01264167      -0.05167200 </v>
   <v>      -0.03698625      -0.04759800       0.10469118 </v>
   <v>      -0.00638179      -0.01147130      -0.04895077 </v>
   <v>      -0.03952508      -0.04669301       0.10245209 </v>
   <v>      -0.00678137      -0.01124678      -0.05086843 </v>
   <v>      -0.03733412      -0.04537906       0.10012425 </v>
   <v>       0.02619818       0.02305948      -0.37614051 </v>
   <v>       0.00191973       0.00765270       0.35480520 </v>
   <v>       0.02329153       0.02539427      -0.37414846 </v>
   <v>       0.00290544       0.00934232       0.35829722 </v>
   <v>       0.02462917       0.02227230      -0.37136731 </v>
   <v>       0.00275534       0.00668018       0.35213024 </v>
   <v>      -0.04579607      -0.07947202      -0.60442830 </v>
   <v>      -0.01289016      -0.01904839       0.55720512 </v>
   <v>      -0.04629946      -0.08084352      -0.60734443 </v>
   <v>      -0.01217848      -0.02057585       0.55593654 </v>
   <v>      -0.04496083      -0.08174903      -0.60511126 </v>
   <v>      -0.01382010      -0.02079823       0.55650590 </v>
  </varray>
  <varray name="stress" >
   <v>      -5.92687000       0.18393338      -0.04511390 </v>
   <v>       0.18393319      -5.73845488       0.05072100 </v>
   <v>      -0.04511393       0.05072104       4.70689671 </v>
  </varray>
  <energy>
   <i name="e_fr_energy">   -190.81991351 </i>
   <i name="e_wo_entrp">   -190.72071404 </i>
   <i name="e_0_energy">     -0.19839895 </i>
  </energy>
  <time name="totalsc">  392.10  393.14</time>
 </calculation>
 <calculation>
  <scstep>
   <time name="dav">   22.76   22.82</time>
   <time name="total">   23.27   23.33</time>
   <energy>
    <i name="alphaZ">     90.32099556 </i>
    <i name="ewald">  44723.04782468 </i>
    <i name="hartreedc"> -50767.34742655 </i>
    <i name="XCdc">   -231.80842901 </i>
    <i name="pawpsdc">   4064.47521353 </i>
    <i name="pawaedc">  -3480.35049614 </i>
    <i name="eentropy">     -0.14814467 </i>
    <i name="bandstr">  -1351.97151845 </i>
    <i name="atom">   6761.44252427 </i>
    <i name="e_fr_energy">   -192.33945678 </i>
    <i name="e_wo_entrp">   -192.19131211 </i>
    <i name="e_0_energy">   -192.26538444 </i>
   </energy>
  </scstep>
  <scstep>
   <time name="dav">   29.79   29.86</time>
   <time name="total">   30.31   30.39</time>
   <energy>
    <i name="e_fr_energy">   -192.11508899 </i>
    <i name="e_wo_entrp">   -191.91720409 </i>
    <i name="e_0_energy">   -192.01614654 </i>
   </energy>
  </scstep>
  <scstep>
   <time name="dav">   32.58   32.66</time>
   <time name="total">   33.09   33.17</time>
   <energy>
    <i name="e_fr_energy">   -192.43656210 </i>
    <i name="e_wo_entrp">   -192.30059716 </i>
    <i name="e_0_energy">   -192.36857963 </i>
   </energy>
  </scstep>
  <scstep>
   <time name="dav">   31.72   31.80</time>
   <time name="total">   32.23   32.32</time>
   <energy>
    <i name="e_fr_energy">   -191.73556663 </i>
    <i name="e_wo_entrp">   -191.56513686 </i>
    <i name="e_0_energy">   -191.65035174 </i>
   </energy>
  </scstep>
  <scstep>
   <time name="dav">   31.78   31.85</time>
   <time name="total">   32.28   32.37</time>
   <energy>
    <i name="e_fr_energy">   -191.63943327 </i>
    <i name="e_wo_entrp">   -191.47574854 </i>
    <i name="e_0_energy">   -191.55759091 </i>
   </energy>
  </scstep>
  <scstep>
   <time name="dav">   33.09   33.17</time>
   <time name="total">   33.60   33.69</time>
   <energy>
    <i name="e_fr_energy">   -191.63513664 </i>
    <i name="e_wo_entrp">   -191.46813023 </i>
    <i name="e_0_energy">   -191.55163344 </i>
   </energy>
  </scstep>
  <scstep>
   <time name="dav">   29.63   29.70</time>
   <time name="total">   30.13   30.21</time>
   <energy>
    <i name="e_fr_energy">   -191.62984026 </i>
    <i name="e_wo_entrp">   -191.46205378 </i>
    <i name="e_0_energy">   -191.54594702 </i>
   </energy>
  </scstep>
  <scstep>
   <time name="dav">   31.98   32.05</time>
   <time name="total">   32.49   32.57</time>
   <energy>
    <i name="e_fr_energy">   -191.62864358 </i>
    <i name="e_wo_entrp">   -191.46092054 </i>
    <i name="e_0_energy">   -191.54478206 </i>
   </energy>
  </scstep>
  <scstep>
   <time name="dav">   30.50   30.57</time>
   <time name="total">   31.00   31.09</time>
   <energy>
    <i name="e_fr_energy">   -191.62836446 </i>
    <i name="e_wo_entrp">   -191.46078273 </i>
    <i name="e_0_energy">   -191.54457360 </i>
   </energy>
  </scstep>
  <scstep>
   <time name="dav">   25.61   25.67</time>
   <time name="total">   26.12   26.19</time>
   <energy>
    <i name="e_fr_energy">   -191.62849944 </i>
    <i name="e_wo_entrp">   -191.46062504 </i>
    <i name="e_0_energy">   -191.54456224 </i>
   </energy>
  </scstep>
  <scstep>
   <time name="dav">   21.28   21.33</time>
   <time name="total">   21.78   21.84</time>
   <energy>
    <i name="e_fr_energy">   -191.62836554 </i>
    <i name="e_wo_entrp">   -191.46049720 </i>
    <i name="e_0_energy">   -191.54443137 </i>
   </energy>
  </scstep>
  <scstep>
   <time name="dav">   19.52   19.57</time>
   <time name="total">   19.56   19.62</time>
   <energy>
    <i name="alphaZ">     90.32099556 </i>
    <i name="ewald">  44723.04782468 </i>
    <i name="hartreedc"> -50732.38477805 </i>
    <i name="XCdc">   -233.35574276 </i>
    <i name="pawpsdc">   4087.51654136 </i>
    <i name="pawaedc">  -3503.47282523 </i>
    <i name="eentropy">     -0.16780465 </i>
    <i name="bandstr">  -1384.57511371 </i>
    <i name="atom">   6761.44252427 </i>
    <i name="e_fr_energy">   -191.62837853 </i>
    <i name="e_wo_entrp">   -191.46057388 </i>
    <i name="e_0_energy">   -191.54447620 </i>
   </energy>
  </scstep>
  <structure>
   <crystal>
    <varray name="basis" >
     <v>       8.27216372       4.79210331       0.00000000 </v>
     <v>      -8.25787132       4.76738137       0.00000000 </v>
     <v>       0.00000000       0.00000000      30.00000000 </v>
    </varray>
    <i name="volume">   2370.27395031 </i>
    <varray name="rec_basis" >
     <v>       0.06033962       0.10451794       0.00000000 </v>
     <v>      -0.06065252       0.10469883       0.00000000 </v>
     <v>       0.00000000       0.00000000       0.03333333 </v>
    </varray>
   </crystal>
   <varray name="positions" >
    <v>       0.34425674       0.33874717       0.00038661 </v>
    <v>       0.34424351       0.00546809       0.00039045 </v>
    <v>       0.34421295       0.67207537       0.00039125 </v>
    <v>       0.67626918       0.67140432      -0.00004857 </v>
    <v>       0.67626247       0.33816060      -0.00004642 </v>
    <v>       0.67628365       0.00484089      -0.00005066 </v>
    <v>      -0.01778822      -0.00894687      -0.00026934 </v>
    <v>       0.98218931       0.32435970      -0.00026915 </v>
    <v>      -0.01783160       0.65769844      -0.00026350 </v>
    <v>       0.11592393       0.22460197       0.95051424 </v>
    <v>       0.22594560       0.11292023       0.04841841 </v>
    <v>       0.11590613       0.55793913       0.95051287 </v>
    <v>       0.22595627       0.44623543       0.04841683 </v>
    <v>       0.11591310       0.89126893       0.95051359 </v>
    <v>       0.22594634       0.77959558       0.04840907 </v>
    <v>       0.43896769       0.21943908       0.94966628 </v>
    <v>       0.54924489       0.10792986       0.05148065 </v>
    <v>       0.43896447       0.55275437       0.94966782 </v>
    <v>       0.54924023       0.44124697       0.05148879 </v>
    <v>       0.43896409       0.88610694       0.94967547 </v>
    <v>       0.54925699       0.77459372       0.05147886 </v>
    <v>       0.77725328       0.22197131       0.94549788 </v>
    <v>       0.88937952       0.11129076       0.05435340 </v>
    <v>       0.77725370       0.55528694       0.94548950 </v>
    <v>       0.88936314       0.44462791       0.05434591 </v>
    <v>       0.77726244       0.88862469       0.94549886 </v>
    <v>       0.88937465       0.77797292       0.05435080 </v>
   </varray>
  </structure>
  <varray name="forces" >
   <v>       0.25221084       0.43988927      -0.02644748 </v>
   <v>       0.25512544       0.43757356      -0.02749985 </v>
   <v>       0.25515090       0.43994518      -0.02598218 </v>
   <v>       0.05225108       0.09005406      -0.15605727 </v>
   <v>       0.05217624       0.08643684      -0.15761068 </v>
   <v>       0.05704958       0.08804411      -0.15406004 </v>
   <v>      -0.22122087      -0.37690398       0.11537049 </v>
   <v>      -0.21610757      -0.37485512       0.11689467 </v>
   <v>      -0.22067226      -0.37224949       0.11286623 </v>
   <v>      -0.08495308      -0.14837292       0.24057750 </v>
   <v>      -0.09760671      -0.16815534      -0.22184337 </v>
   <v>      -0.08363856      -0.14892571       0.24201002 </v>
   <v>      -0.09901330      -0.16899427      -0.22277951 </v>
   <v>      -0.08319675      -0.14850862       0.24188403 </v>
   <v>      -0.09829051      -0.16906247      -0.22105886 </v>
   <v>       0.07508996       0.13081684      -0.05436677 </v>
   <v>       0.10994938       0.19145571       0.10685908 </v>
   <v>       0.07473593       0.13096321      -0.05230460 </v>
   <v>       0.10906938       0.19203059       0.10644932 </v>
   <v>       0.07409726       0.13119577      -0.05394683 </v>
   <v>       0.10959453       0.19149719       0.10372615 </v>
   <v>      -0.09084931      -0.15897324      -0.25573825 </v>
   <v>      -0.00115287       0.00117046       0.24788884 </v>
   <v>      -0.09030402      -0.15826800      -0.25405396 </v>
   <v>       0.00147339       0.00182557       0.25220008 </v>
   <v>      -0.09130421      -0.16003424      -0.25287234 </v>
   <v>       0.00033612       0.00040506       0.24989556 </v>
  </varray>
  <varray name="stress" >
   <v>      -0.36156648       0.51548144       0.39475358 </v>
   <v>       0.51548149       0.27337653       0.70571555 </v>
   <v>       0.39475375       0.70571555      -0.42574392 </v>
  </varray>
  <energy>
   <i name="e_fr_energy">   -191.62837853 </i>
   <i name="e_wo_entrp">   -191.54447620 </i>
   <i name="e_0_energy">     -0.16780465 </i>
  </energy>
  <time name="totalsc">  389.58  390.62</time>
 </calculation>
 <calculation>
  <scstep>
   <time name="dav">   22.77   22.82</time>
   <time name="total">   23.27   23.33</time>
   <energy>
    <i name="alphaZ">     90.36770575 </i>
    <i name="ewald">  44723.22477237 </i>
    <i name="hartreedc"> -50733.86294311 </i>
    <i name="XCdc">   -233.41125887 </i>
    <i name="pawpsdc">   4087.39194397 </i>
    <i name="pawaedc">  -3503.34421701 </i>
    <i name="eentropy">     -0.15868900 </i>
    <i name="bandstr">  -1383.39668261 </i>
    <i name="atom">   6761.44252427 </i>
    <i name="e_fr_energy">   -191.74684424 </i>
    <i name="e_wo_entrp">   -191.58815524 </i>
    <i name="e_0_energy">   -191.66749974 </i>
   </energy>
  </scstep>
  <scstep>
   <time name="dav">   32.36   32.44</time>
   <time name="total">   32.87   32.96</time>
   <energy>
    <i name="e_fr_energy">   -191.82511075 </i>
    <i name="e_wo_entrp">   -191.63175387 </i>
    <i name="e_0_energy">   -191.72843231 </i>
   </energy>
  </scstep>
  <scstep>
   <time name="dav">   31.98   32.06</time>
   <time name="total">   32.49   32.57</time>
   <energy>
    <i name="e_fr_energy">   -191.76845224 </i>
    <i name="e_wo_entrp">   -191.60858955 </i>
    <i name="e_0_energy">   -191.68852089 </i>
   </energy>
  </scstep>
  <scstep>
   <time name="dav">   30.60   30.67</time>
   <time name="total">   31.11   31.19</time>
   <energy>
    <i name="e_fr_energy">   -191.76417251 </i>
    <i name="e_wo_entrp">   -191.59891965 </i>
    <i name="e_0_energy">   -191.68154608 </i>
   </energy>
  </scstep>
  <scstep>
   <time name="dav">   30.40   30.47</time>
   <time name="total">   30.91   30.99</time>
   <energy>
    <i name="e_fr_energy">   -191.76430888 </i>
    <i name="e_wo_entrp">   -191.59797559 </i>
    <i name="e_0_energy">   -191.68114224 </i>
   </energy>
  </scstep>
  <scstep>
   <time name="dav">   31.27   31.35</time>
   <time name="total">   31.78   31.87</time>
   <energy>
    <i name="e_fr_energy">   -191.76367757 </i>
    <i name="e_wo_entrp">   -191.59783092 </i>
    <i name="e_0_energy">   -191.68075424 </i>
   </energy>
  </scstep>
  <scstep>
   <time name="dav">   27.47   27.54</time>
   <time name="total">   27.98   28.05</time>
   <energy>
    <i name="e_fr_energy">   -191.76337903 </i>
    <i name="e_wo_entrp">   -191.59761454 </i>
    <i name="e_0_energy">   -191.68049679 </i>
   </energy>
  </scstep>
  <scstep>
   <time name="dav">   19.02   19.07</time>
   <time name="total">   19.06   19.11</time>
   <energy>
    <i name="alphaZ">     90.36770575 </i>
    <i name="ewald">  44723.22477237 </i>
    <i name="hartreedc"> -50734.35193404 </i>
    <i name="XCdc">   -233.39316185 </i>
    <i name="pawpsdc">   4086.09333719 </i>
    <i name="pawaedc">  -3502.02258217 </i>
    <i name="eentropy">     -0.16564626 </i>
    <i name="bandstr">  -1382.95836038 </i>
    <i name="atom">   6761.44252427 </i>
    <i name="e_fr_energy">   -191.76334512 </i>
    <i name="e_wo_entrp">   -191.59769887 </i>
    <i name="e_0_energy">   -191.68052200 </i>
   </energy>
  </scstep>
  <structure>
   <crystal>
    <varray name="basis" >
     <v>       8.26961852       4.80651816       0.00000000 </v>
     <v>      -8.24201303       4.75873309       0.00000000 </v>
     <v>       0.00000000       0.00000000      30.00000000 </v>
    </varray>
    <i name="volume">   2369.04877861 </i>
    <varray name="rec_basis" >
     <v>       0.06026131       0.10437117       0.00000000 </v>
     <v>      -0.06086643       0.10472075       0.00000000 </v>
     <v>       0.00000000       0.00000000       0.03333333 </v>
    </varray>
   </crystal>
   <varray name="positions" >
    <v>       0.34730414       0.34027864       0.00034535 </v>
    <v>       0.34728764       0.00697936       0.00034749 </v>
    <v>       0.34726904       0.67359845       0.00035078 </v>
    <v>       0.67694449       0.67174028      -0.00030236 </v>
    <v>       0.67691910       0.33847886      -0.00030273 </v>
    <v>       0.67696285       0.00515303      -0.00030120 </v>
    <v>      -0.02046142      -0.01026774      -0.00008343 </v>
    <v>       0.97954149       0.32303400      -0.00008075 </v>
    <v>      -0.02047964       0.65639962      -0.00008163 </v>
    <v>       0.11492115       0.22409767       0.95089640 </v>
    <v>       0.22479831       0.11235003       0.04806769 </v>
    <v>       0.11490440       0.55742818       0.95089738 </v>
    <v>       0.22480063       0.44566516       0.04806455 </v>
    <v>       0.11491483       0.89075876       0.95089789 </v>
    <v>       0.22479247       0.77902294       0.04805952 </v>
    <v>       0.43985636       0.21988411       0.94955550 </v>
    <v>       0.55054350       0.10858197       0.05167703 </v>
    <v>       0.43985281       0.55320124       0.94956042 </v>
    <v>       0.55053925       0.44190455       0.05168458 </v>
    <v>       0.43985166       0.88655688       0.94956546 </v>
    <v>       0.55055481       0.77524703       0.05167009 </v>
    <v>       0.77615723       0.22141925       0.94504766 </v>
    <v>       0.88937555       0.11129680       0.05478959 </v>
    <v>       0.77616287       0.55473674       0.94504197 </v>
    <v>       0.88937013       0.44462953       0.05478908 </v>
    <v>       0.77615968       0.88806841       0.94505333 </v>
    <v>       0.88937108       0.77797072       0.05479024 </v>
   </varray>
  </structure>
  <varray name="forces" >
   <v>       0.27765719       0.48007971       0.05217249 </v>
   <v>       0.27917740       0.48073821       0.05212083 </v>
   <v>       0.27675742       0.48114777       0.05084990 </v>
   <v>       0.05130298       0.08688720      -0.03196338 </v>
   <v>       0.05164822       0.08695690      -0.03077712 </v>
   <v>       0.04988788       0.08656981      -0.03309219 </v>
   <v>      -0.24248328      -0.41774757       0.04101649 </v>
   <v>      -0.24284308      -0.41863907       0.03896223 </v>
   <v>      -0.24166109      -0.41780427       0.04048103 </v>
   <v>      -0.05307186      -0.09435079       0.29514217 </v>
   <v>      -0.06790025      -0.11716728      -0.28725699 </v>
   <v>      -0.05266812      -0.09411289       0.29635695 </v>
   <v>      -0.06905760      -0.11702377      -0.28578407 </v>
   <v>      -0.05321143      -0.09377827       0.29597944 </v>
   <v>      -0.06859545      -0.11715676      -0.28608616 </v>
   <v>       0.04225153       0.07244798      -0.10362384 </v>
   <v>       0.06976281       0.12156105       0.04633135 </v>
   <v>       0.04138731       0.07364204      -0.10398635 </v>
   <v>       0.06963263       0.12213832       0.04631074 </v>
   <v>       0.04181890       0.07296970      -0.10385217 </v>
   <v>       0.06962711       0.12152996       0.04764958 </v>
   <v>      -0.04229507      -0.07702630      -0.19141589 </v>
   <v>      -0.03354523      -0.05578441       0.18162127 </v>
   <v>      -0.04311920      -0.07690475      -0.19291087 </v>
   <v>      -0.03354803      -0.05523807       0.17878175 </v>
   <v>      -0.04366083      -0.07828137      -0.19326526 </v>
   <v>      -0.03325084      -0.05565306       0.18023805 </v>
  </varray>
  <varray name="stress" >
   <v>       0.01975148      -0.02714294       0.09048461 </v>
   <v>      -0.02714290      -0.01317973       0.18696795 </v>
   <v>       0.09048441       0.18696775      -1.24071208 </v>
  </varray>
  <energy>
   <i name="e_fr_energy">   -191.76334512 </i>
   <i name="e_wo_entrp">   -191.68052200 </i>
   <i name="e_0_energy">     -0.16564626 </i>
  </energy>
  <time name="totalsc">  273.26  273.98</time>
 </calculation>
 <calculation>
  <scstep>
   <time name="dav">   22.79   22.85</time>
   <time name="total">   23.30   23.36</time>
   <energy>
    <i name="alphaZ">     90.35702876 </i>
    <i name="ewald">  44723.01936689 </i>
    <i name="hartreedc"> -50733.77878179 </i>
    <i name="XCdc">   -233.39048928 </i>
    <i name="pawpsdc">   4086.11534610 </i>
    <i name="pawaedc">  -3502.04370825 </i>
    <i name="eentropy">     -0.15723939 </i>
    <i name="bandstr">  -1383.42395978 </i>
    <i name="atom">   6761.44252427 </i>
    <i name="e_fr_energy">   -191.85991247 </i>
    <i name="e_wo_entrp">   -191.70267308 </i>
    <i name="e_0_energy">   -191.78129277 </i>
   </energy>
  </scstep>
  <scstep>
   <time name="dav">   32.38   32.46</time>
   <time name="total">   32.89   32.98</time>
   <energy>
    <i name="e_fr_energy">   -191.88179220 </i>
    <i name="e_wo_entrp">   -191.70896851 </i>
    <i name="e_0_energy">   -191.79538036 </i>
   </energy>
  </scstep>
  <scstep>
   <time name="dav">   31.97   32.05</time>
   <time name="total">   32.48   32.57</time>
   <energy>
    <i name="e_fr_energy">   -191.87058154 </i>
    <i name="e_wo_entrp">   -191.71567464 </i>
    <i name="e_0_energy">   -191.79312809 </i>
   </energy>
  </scstep>
  <scstep>
   <time name="dav">   29.92   30.00</time>
   <time name="total">   30.44   30.52</time>
   <energy>
    <i name="e_fr_energy">   -191.86749532 </i>
    <i name="e_wo_entrp">   -191.70813042 </i>
    <i name="e_0_energy">   -191.78781287 </i>
   </energy>
  </scstep>
  <scstep>
   <time name="dav">   32.88   32.96</time>
   <time name="total">   33.39   33.47</time>
   <energy>
    <i name="e_fr_energy">   -191.86877691 </i>
    <i name="e_wo_entrp">   -191.70872638 </i>
    <i name="e_0_energy">   -191.78875164 </i>
   </energy>
  </scstep>
  <scstep>
   <time name="dav">   30.21   30.28</time>
   <time name="total">   30.72   30.81</time>
   <energy>
    <i name="e_fr_energy">   -191.86754086 </i>
    <i name="e_wo_entrp">   -191.70796686 </i>
    <i name="e_0_energy">   -191.78775386 </i>
   </energy>
  </scstep>
  <scstep>
   <time name="dav">   26.82   26.88</time>
   <time name="total">   27.33   27.40</time>
   <energy>
    <i name="e_fr_energy">   -191.86708992 </i>
    <i name="e_wo_entrp">   -191.70766348 </i>
    <i name="e_0_energy">   -191.78737670 </i>
   </energy>
  </scstep>
  <scstep>
   <time name="dav">   19.90   19.95</time>
   <time name="total">   19.94   19.99</time>
   <energy>
    <i name="alphaZ">     90.35702876 </i>
    <i name="ewald">  44723.01936689 </i>
    <i name="hartreedc"> -50734.38107420 </i>
    <i name="XCdc">   -233.36438271 </i>
    <i name="pawpsdc">   4089.14064478 </i>
    <i name="pawaedc">  -3505.10289050 </i>
    <i name="eentropy">     -0.15939865 </i>
    <i name="bandstr">  -1382.81892144 </i>
    <i name="atom">   6761.44252427 </i>
    <i name="e_fr_energy">   -191.86710280 </i>
    <i name="e_wo_entrp">   -191.70770415 </i>
    <i name="e_0_energy">   -191.78740347 </i>
   </energy>
  </scstep>
  <structure>
   <crystal>
    <varray name="basis" >
     <v>       8.27012170       4.80600195       0.00000000 </v>
     <v>      -8.24319790       4.75939776       0.00000000 </v>
     <v>       0.00000000       0.00000000      30.00000000 </v>
    </varray>
    <i name="volume">   2369.32871606 </i>
    <varray name="rec_basis" >
     <v>       0.06026261       0.10437384       0.00000000 </v>
     <v>      -0.06085270       0.10471474       0.00000000 </v>
     <v>       0.00000000       0.00000000       0.03333333 </v>
    </varray>
   </crystal>
   <varray name="positions" >
    <v>       0.34995774       0.34160363       0.00041484 </v>
    <v>       0.34994771       0.00830340       0.00041691 </v>
    <v>       0.34992499       0.67493017       0.00041848 </v>
    <v>       0.67740817       0.67196816      -0.00034417 </v>
    <v>       0.67738399       0.33870606      -0.00034294 </v>
    <v>       0.67742175       0.00538290      -0.00034454 </v>
    <v>      -0.02275567      -0.01141006      -0.00002857 </v>
    <v>       0.97724257       0.32188888      -0.00002866 </v>
    <v>      -0.02277217       0.65525499      -0.00002749 </v>
    <v>       0.11439908       0.22383143       0.95129389 </v>
    <v>       0.22414742       0.11202508       0.04768029 </v>
    <v>       0.11438430       0.55716195       0.95129648 </v>
    <v>       0.22414755       0.44534363       0.04767915 </v>
    <v>       0.11439479       0.89049529       0.95129649 </v>
    <v>       0.22413995       0.77869969       0.04767373 </v>
    <v>       0.44025909       0.22008438       0.94942516 </v>
    <v>       0.55121813       0.10892074       0.05173011 </v>
    <v>       0.44025847       0.55340863       0.94942957 </v>
    <v>       0.55121596       0.44224607       0.05173760 </v>
    <v>       0.44025558       0.88676037       0.94943478 </v>
    <v>       0.55122897       0.77558602       0.05172498 </v>
    <v>       0.77574237       0.22120383       0.94480536 </v>
    <v>       0.88906242       0.11114514       0.05501928 </v>
    <v>       0.77574649       0.55452389       0.94479767 </v>
    <v>       0.88905929       0.44448019       0.05501495 </v>
    <v>       0.77573625       0.88785112       0.94480852 </v>
    <v>       0.88905925       0.77781889       0.05501807 </v>
   </varray>
  </structure>
  <varray name="forces" >
   <v>       0.28014742       0.47923647      -0.00201621 </v>
   <v>       0.28301933       0.48804703      -0.00288447 </v>
   <v>       0.27539143       0.48392411      -0.00194168 </v>
   <v>       0.02221391       0.03754357      -0.09162945 </v>
   <v>       0.02206482       0.03189247      -0.09153615 </v>
[...]
      <set comment="kpoint 31">
       <r>  -17.4903    1.0000 </r>
       <r>  -17.3324    1.0000 </r>
       <r>  -16.8900    1.0000 </r>
       <r>  -16.6211    1.0000 </r>
       <r>  -16.5748    1.0000 </r>
       <r>  -16.4561    1.0000 </r>
       <r>  -16.2153    1.0000 </r>
       <r>  -16.1942    1.0000 </r>
       <r>  -16.1814    1.0000 </r>
       <r>  -16.1770    1.0000 </r>
       <r>  -15.9007    1.0000 </r>
       <r>  -15.7981    1.0000 </r>
       <r>  -15.6796    1.0000 </r>
       <r>  -15.6509    1.0000 </r>
       <r>  -15.5015    1.0000 </r>
       <r>  -15.4791    1.0000 </r>
       <r>  -15.4586    1.0000 </r>
       <r>  -15.2667    1.0000 </r>
       <r>   -9.7962    1.0000 </r>
       <r>   -9.4721    1.0000 </r>
       <r>   -9.3583    1.0000 </r>
       <r>   -8.9968    1.0000 </r>
       <r>   -8.7901    1.0000 </r>
       <r>   -8.7101    1.0000 </r>
       <r>   -8.6714    1.0000 </r>
       <r>   -8.5765    1.0000 </r>
       <r>   -8.4658    1.0000 </r>
       <r>   -8.3571    1.0000 </r>
       <r>   -8.1764    1.0000 </r>
       <r>   -8.1599    1.0000 </r>
       <r>   -8.0905    1.0000 </r>
       <r>   -8.0696    1.0000 </r>
       <r>   -7.9734    1.0000 </r>
       <r>   -7.9120    1.0000 </r>
       <r>   -7.7045    1.0000 </r>
       <r>   -7.6953    1.0000 </r>
       <r>   -7.6485    1.0000 </r>
       <r>   -7.5204    1.0000 </r>
       <r>   -7.4702    1.0000 </r>
       <r>   -7.2954    1.0000 </r>
       <r>   -7.0934    1.0000 </r>
       <r>   -7.0513    1.0000 </r>
       <r>   -6.9834    1.0000 </r>
       <r>   -6.8492    1.0000 </r>
       <r>   -6.7556    1.0000 </r>
       <r>   -6.7486    1.0000 </r>
       <r>   -6.7033    1.0000 </r>
       <r>   -6.5696    1.0000 </r>
       <r>   -6.5581    1.0000 </r>
       <r>   -6.5502    1.0000 </r>
       <r>   -6.3597    1.0000 </r>
       <r>   -6.3565    1.0000 </r>
       <r>   -6.2822    1.0000 </r>
       <r>   -6.1739    1.0000 </r>
       <r>   -6.0768    1.0000 </r>
       <r>   -6.0479    1.0000 </r>
       <r>   -5.9832    1.0000 </r>
       <r>   -5.9197    1.0000 </r>
       <r>   -5.8861    1.0000 </r>
       <r>   -5.7191    1.0000 </r>
       <r>   -5.7001    1.0000 </r>
       <r>   -5.5293    1.0000 </r>
       <r>   -5.5130    1.0000 </r>
       <r>   -5.4717    1.0000 </r>
       <r>   -5.1947    1.0000 </r>
       <r>   -5.0677    1.0000 </r>
       <r>   -5.0595    1.0000 </r>
       <r>   -4.8945    1.0000 </r>
       <r>   -4.7705    1.0000 </r>
       <r>   -4.6797    1.0000 </r>
       <r>   -4.6536    1.0000 </r>
       <r>   -4.4953    1.0000 </r>
       <r>   -4.2682    1.0000 </r>
       <r>   -4.1562    1.0000 </r>
       <r>   -4.0586    1.0000 </r>
       <r>   -4.0390    1.0000 </r>
       <r>   -3.8985    1.0000 </r>
       <r>   -3.8230    1.0000 </r>
       <r>   -3.4388    0.9186 </r>
       <r>   -3.4352    0.9147 </r>
       <r>   -3.0077    0.0492 </r>
       <r>   -2.9405    0.0167 </r>
       <r>   -2.6621    0.0000 </r>
       <r>   -2.5974    0.0000 </r>
       <r>   -2.5599    0.0000 </r>
       <r>   -2.4758    0.0000 </r>
       <r>   -2.2127    0.0000 </r>
       <r>   -2.1671    0.0000 </r>
       <r>   -2.0389    0.0000 </r>
       <r>   -1.9256    0.0000 </r>
       <r>   -1.9074    0.0000 </r>
       <r>   -1.5806    0.0000 </r>
       <r>   -1.2199    0.0000 </r>
       <r>   -1.2163    0.0000 </r>
       <r>   -1.1987    0.0000 </r>
       <r>   -1.0247    0.0000 </r>
       <r>   -1.0107    0.0000 </r>
       <r>   -1.0039    0.0000 </r>
       <r>   -0.8115    0.0000 </r>
       <r>   -0.8072    0.0000 </r>
       <r>   -0.7900    0.0000 </r>
       <r>   -0.7188    0.0000 </r>
       <r>   -0.7063    0.0000 </r>
       <r>   -0.6089    0.0000 </r>
       <r>   -0.5509    0.0000 </r>
       <r>   -0.3933    0.0000 </r>
       <r>   -0.2258    0.0000 </r>
       <r>   -0.1078    0.0000 </r>
       <r>    0.0501    0.0000 </r>
       <r>    0.2515    0.0000 </r>
       <r>    0.3690    0.0000 </r>
       <r>    0.4185    0.0000 </r>
       <r>    0.5539    0.0000 </r>
       <r>    1.0416    0.0000 </r>
       <r>    1.0605    0.0000 </r>
       <r>    1.0826    0.0000 </r>
       <r>    1.8425    0.0000 </r>
       <r>    2.1644    0.0000 </r>
       <r>    2.3125    0.0000 </r>
       <r>    2.4229    0.0000 </r>
      </set>
      <set comment="kpoint 32">
       <r>  -17.5124    1.0000 </r>
       <r>  -17.2672    1.0000 </r>
       <r>  -16.9869    1.0000 </r>
       <r>  -16.6160    1.0000 </r>
       <r>  -16.5729    1.0000 </r>
       <r>  -16.2959    1.0000 </r>
       <r>  -16.2474    1.0000 </r>
       <r>  -16.2162    1.0000 </r>
       <r>  -16.1932    1.0000 </r>
       <r>  -16.1872    1.0000 </r>
       <r>  -15.9769    1.0000 </r>
       <r>  -15.7994    1.0000 </r>
       <r>  -15.6782    1.0000 </r>
       <r>  -15.6125    1.0000 </r>
       <r>  -15.5059    1.0000 </r>
       <r>  -15.4737    1.0000 </r>
       <r>  -15.4589    1.0000 </r>
       <r>  -15.2668    1.0000 </r>
       <r>   -9.7520    1.0000 </r>
       <r>   -9.5515    1.0000 </r>
       <r>   -9.4195    1.0000 </r>
       <r>   -8.9367    1.0000 </r>
       <r>   -8.7743    1.0000 </r>
       <r>   -8.6781    1.0000 </r>
       <r>   -8.6036    1.0000 </r>
       <r>   -8.4313    1.0000 </r>
       <r>   -8.3965    1.0000 </r>
       <r>   -8.3292    1.0000 </r>
       <r>   -8.3108    1.0000 </r>
       <r>   -8.2257    1.0000 </r>
       <r>   -8.1963    1.0000 </r>
       <r>   -8.1151    1.0000 </r>
       <r>   -8.0160    1.0000 </r>
       <r>   -7.9756    1.0000 </r>
       <r>   -7.6962    1.0000 </r>
       <r>   -7.6735    1.0000 </r>
       <r>   -7.5876    1.0000 </r>
       <r>   -7.5216    1.0000 </r>
       <r>   -7.4819    1.0000 </r>
       <r>   -7.1929    1.0000 </r>
       <r>   -7.1497    1.0000 </r>
       <r>   -7.0599    1.0000 </r>
       <r>   -6.9769    1.0000 </r>
       <r>   -6.8546    1.0000 </r>
       <r>   -6.8140    1.0000 </r>
       <r>   -6.7348    1.0000 </r>
       <r>   -6.6619    1.0000 </r>
       <r>   -6.5502    1.0000 </r>
       <r>   -6.5397    1.0000 </r>
       <r>   -6.5223    1.0000 </r>
       <r>   -6.4469    1.0000 </r>
       <r>   -6.3649    1.0000 </r>
       <r>   -6.3004    1.0000 </r>
       <r>   -6.2123    1.0000 </r>
       <r>   -6.0019    1.0000 </r>
       <r>   -5.9973    1.0000 </r>
       <r>   -5.9776    1.0000 </r>
       <r>   -5.9333    1.0000 </r>
       <r>   -5.7971    1.0000 </r>
       <r>   -5.7250    1.0000 </r>
       <r>   -5.6595    1.0000 </r>
       <r>   -5.6553    1.0000 </r>
       <r>   -5.5069    1.0000 </r>
       <r>   -5.4400    1.0000 </r>
       <r>   -5.1884    1.0000 </r>
       <r>   -5.0646    1.0000 </r>
       <r>   -4.9897    1.0000 </r>
       <r>   -4.8573    1.0000 </r>
       <r>   -4.8175    1.0000 </r>
       <r>   -4.7858    1.0000 </r>
       <r>   -4.7587    1.0000 </r>
       <r>   -4.4725    1.0000 </r>
       <r>   -4.2533    1.0000 </r>
       <r>   -4.1406    1.0000 </r>
       <r>   -4.0459    1.0000 </r>
       <r>   -4.0304    1.0000 </r>
       <r>   -3.9106    1.0000 </r>
       <r>   -3.7926    1.0000 </r>
       <r>   -3.4330    0.9121 </r>
       <r>   -3.4293    0.9080 </r>
       <r>   -3.0153    0.0549 </r>
       <r>   -2.9180    0.0111 </r>
       <r>   -2.6667    0.0000 </r>
       <r>   -2.5755    0.0000 </r>
       <r>   -2.5478    0.0000 </r>
       <r>   -2.5018    0.0000 </r>
       <r>   -2.2444    0.0000 </r>
       <r>   -2.1805    0.0000 </r>
       <r>   -2.0358    0.0000 </r>
       <r>   -1.9401    0.0000 </r>
       <r>   -1.9107    0.0000 </r>
       <r>   -1.5694    0.0000 </r>
       <r>   -1.2474    0.0000 </r>
       <r>   -1.2443    0.0000 </r>
       <r>   -1.2064    0.0000 </r>
       <r>   -0.9860    0.0000 </r>
       <r>   -0.9575    0.0000 </r>
       <r>   -0.9262    0.0000 </r>
       <r>   -0.8850    0.0000 </r>
       <r>   -0.7977    0.0000 </r>
       <r>   -0.7823    0.0000 </r>
       <r>   -0.6935    0.0000 </r>
       <r>   -0.6897    0.0000 </r>
       <r>   -0.6502    0.0000 </r>
       <r>   -0.5672    0.0000 </r>
       <r>   -0.4148    0.0000 </r>
       <r>   -0.2187    0.0000 </r>
       <r>   -0.1043    0.0000 </r>
       <r>    0.1588    0.0000 </r>
       <r>    0.2513    0.0000 </r>
       <r>    0.3144    0.0000 </r>
       <r>    0.3598    0.0000 </r>
       <r>    0.5568    0.0000 </r>
       <r>    1.0270    0.0000 </r>
       <r>    1.0507    0.0000 </r>
       <r>    1.0860    0.0000 </r>
       <r>    1.8462    0.0000 </r>
       <r>    2.1321    0.0000 </r>
       <r>    2.2780    0.0000 </r>
       <r>    2.6070    0.0000 </r>
      </set>
      <set comment="kpoint 33">
       <r>  -17.4903    1.0000 </r>
       <r>  -17.3323    1.0000 </r>
       <r>  -16.8901    1.0000 </r>
       <r>  -16.6211    1.0000 </r>
       <r>  -16.5748    1.0000 </r>
       <r>  -16.4563    1.0000 </r>
       <r>  -16.2152    1.0000 </r>
       <r>  -16.1943    1.0000 </r>
       <r>  -16.1814    1.0000 </r>
       <r>  -16.1770    1.0000 </r>
       <r>  -15.9006    1.0000 </r>
       <r>  -15.7982    1.0000 </r>
       <r>  -15.6796    1.0000 </r>
       <r>  -15.6508    1.0000 </r>
       <r>  -15.5015    1.0000 </r>
       <r>  -15.4791    1.0000 </r>
       <r>  -15.4586    1.0000 </r>
       <r>  -15.2667    1.0000 </r>
       <r>   -9.7961    1.0000 </r>
       <r>   -9.4723    1.0000 </r>
       <r>   -9.3584    1.0000 </r>
       <r>   -8.9969    1.0000 </r>
       <r>   -8.7901    1.0000 </r>
       <r>   -8.7100    1.0000 </r>
       <r>   -8.6715    1.0000 </r>
       <r>   -8.5765    1.0000 </r>
       <r>   -8.4658    1.0000 </r>
       <r>   -8.3571    1.0000 </r>
       <r>   -8.1763    1.0000 </r>
       <r>   -8.1600    1.0000 </r>
       <r>   -8.0904    1.0000 </r>
       <r>   -8.0696    1.0000 </r>
       <r>   -7.9734    1.0000 </r>
       <r>   -7.9120    1.0000 </r>
       <r>   -7.7046    1.0000 </r>
       <r>   -7.6953    1.0000 </r>
       <r>   -7.6485    1.0000 </r>
       <r>   -7.5203    1.0000 </r>
       <r>   -7.4701    1.0000 </r>
       <r>   -7.2955    1.0000 </r>
       <r>   -7.0934    1.0000 </r>
       <r>   -7.0512    1.0000 </r>
       <r>   -6.9833    1.0000 </r>
       <r>   -6.8492    1.0000 </r>
       <r>   -6.7555    1.0000 </r>
       <r>   -6.7487    1.0000 </r>
       <r>   -6.7032    1.0000 </r>
       <r>   -6.5697    1.0000 </r>
       <r>   -6.5581    1.0000 </r>
       <r>   -6.5501    1.0000 </r>
       <r>   -6.3600    1.0000 </r>
       <r>   -6.3565    1.0000 </r>
       <r>   -6.2821    1.0000 </r>
       <r>   -6.1739    1.0000 </r>
       <r>   -6.0766    1.0000 </r>
       <r>   -6.0480    1.0000 </r>
       <r>   -5.9831    1.0000 </r>
       <r>   -5.9197    1.0000 </r>
       <r>   -5.8859    1.0000 </r>
       <r>   -5.7190    1.0000 </r>
       <r>   -5.7002    1.0000 </r>
       <r>   -5.5295    1.0000 </r>
       <r>   -5.5129    1.0000 </r>
       <r>   -5.4716    1.0000 </r>
       <r>   -5.1950    1.0000 </r>
       <r>   -5.0675    1.0000 </r>
       <r>   -5.0595    1.0000 </r>
       <r>   -4.8945    1.0000 </r>
       <r>   -4.7706    1.0000 </r>
       <r>   -4.6801    1.0000 </r>
       <r>   -4.6540    1.0000 </r>
       <r>   -4.4951    1.0000 </r>
       <r>   -4.2682    1.0000 </r>
       <r>   -4.1564    1.0000 </r>
       <r>   -4.0584    1.0000 </r>
       <r>   -4.0389    1.0000 </r>
       <r>   -3.8986    1.0000 </r>
       <r>   -3.8230    1.0000 </r>
       <r>   -3.4389    0.9187 </r>
       <r>   -3.4350    0.9144 </r>
       <r>   -3.0077    0.0491 </r>
       <r>   -2.9405    0.0167 </r>
       <r>   -2.6621    0.0000 </r>
       <r>   -2.5974    0.0000 </r>
       <r>   -2.5599    0.0000 </r>
       <r>   -2.4759    0.0000 </r>
       <r>   -2.2127    0.0000 </r>
       <r>   -2.1671    0.0000 </r>
       <r>   -2.0389    0.0000 </r>
       <r>   -1.9258    0.0000 </r>
       <r>   -1.9074    0.0000 </r>
       <r>   -1.5806    0.0000 </r>
       <r>   -1.2198    0.0000 </r>
       <r>   -1.2162    0.0000 </r>
       <r>   -1.1986    0.0000 </r>
       <r>   -1.0244    0.0000 </r>
       <r>   -1.0105    0.0000 </r>
       <r>   -1.0038    0.0000 </r>
       <r>   -0.8113    0.0000 </r>
       <r>   -0.8072    0.0000 </r>
       <r>   -0.7902    0.0000 </r>
       <r>   -0.7187    0.0000 </r>
       <r>   -0.7062    0.0000 </r>
       <r>   -0.6092    0.0000 </r>
       <r>   -0.5511    0.0000 </r>
       <r>   -0.3933    0.0000 </r>
       <r>   -0.2260    0.0000 </r>
       <r>   -0.1079    0.0000 </r>
       <r>    0.0500    0.0000 </r>
       <r>    0.2514    0.0000 </r>
       <r>    0.3688    0.0000 </r>
       <r>    0.4185    0.0000 </r>
       <r>    0.5539    0.0000 </r>
       <r>    1.0415    0.0000 </r>
       <r>    1.0605    0.0000 </r>
       <r>    1.0826    0.0000 </r>
       <r>    1.8425    0.0000 </r>
       <r>    2.1645    0.0000 </r>
       <r>    2.3125    0.0000 </r>
       <r>    2.4230    0.0000 </r>
      </set>
      <set comment="kpoint 34">
       <r>  -17.4264    1.0000 </r>
       <r>  -17.4263    1.0000 </r>
       <r>  -16.7124    1.0000 </r>
       <r>  -16.7123    1.0000 </r>
       <r>  -16.5698    1.0000 </r>
       <r>  -16.5696    1.0000 </r>
       <r>  -16.2142    1.0000 </r>
       <r>  -16.1955    1.0000 </r>
       <r>  -16.1705    1.0000 </r>
       <r>  -16.1701    1.0000 </r>
       <r>  -15.7969    1.0000 </r>
       <r>  -15.7586    1.0000 </r>
       <r>  -15.7583    1.0000 </r>
       <r>  -15.6811    1.0000 </r>
       <r>  -15.4909    1.0000 </r>
       <r>  -15.4904    1.0000 </r>
       <r>  -15.4583    1.0000 </r>
       <r>  -15.2666    1.0000 </r>
       <r>   -9.8261    1.0000 </r>
       <r>   -9.4002    1.0000 </r>
       <r>   -9.1914    1.0000 </r>
       <r>   -9.1912    1.0000 </r>
       <r>   -8.7678    1.0000 </r>
       <r>   -8.7675    1.0000 </r>
       <r>   -8.7449    1.0000 </r>
       <r>   -8.5581    1.0000 </r>
       <r>   -8.5576    1.0000 </r>
       <r>   -8.3749    1.0000 </r>
       <r>   -8.1526    1.0000 </r>
       <r>   -8.0809    1.0000 </r>
       <r>   -8.0773    1.0000 </r>
       <r>   -8.0770    1.0000 </r>
       <r>   -7.7864    1.0000 </r>
       <r>   -7.7855    1.0000 </r>
       <r>   -7.7266    1.0000 </r>
       <r>   -7.7097    1.0000 </r>
       <r>   -7.7092    1.0000 </r>
       <r>   -7.5225    1.0000 </r>
       <r>   -7.5221    1.0000 </r>
       <r>   -7.4290    1.0000 </r>
       <r>   -7.0414    1.0000 </r>
       <r>   -7.0106    1.0000 </r>
       <r>   -7.0105    1.0000 </r>
       <r>   -6.8570    1.0000 </r>
       <r>   -6.7465    1.0000 </r>
       <r>   -6.7457    1.0000 </r>
       <r>   -6.6402    1.0000 </r>
       <r>   -6.5751    1.0000 </r>
       <r>   -6.5747    1.0000 </r>
       <r>   -6.5638    1.0000 </r>
       <r>   -6.3574    1.0000 </r>
       <r>   -6.3114    1.0000 </r>
       <r>   -6.3108    1.0000 </r>
       <r>   -6.2626    1.0000 </r>
       <r>   -6.0802    1.0000 </r>
       <r>   -6.0793    1.0000 </r>
       <r>   -5.9856    1.0000 </r>
       <r>   -5.8635    1.0000 </r>
       <r>   -5.8634    1.0000 </r>
       <r>   -5.7290    1.0000 </r>
       <r>   -5.7284    1.0000 </r>
       <r>   -5.5609    1.0000 </r>
       <r>   -5.5607    1.0000 </r>
       <r>   -5.4446    1.0000 </r>
       <r>   -5.1988    1.0000 </r>
       <r>   -5.0583    1.0000 </r>
       <r>   -4.9984    1.0000 </r>
       <r>   -4.9978    1.0000 </r>
       <r>   -4.7490    1.0000 </r>
       <r>   -4.5630    1.0000 </r>
       <r>   -4.5620    1.0000 </r>
       <r>   -4.5226    1.0000 </r>
       <r>   -4.2429    1.0000 </r>
       <r>   -4.2424    1.0000 </r>
       <r>   -4.0571    1.0000 </r>
       <r>   -4.0554    1.0000 </r>
       <r>   -3.8694    1.0000 </r>
       <r>   -3.8686    1.0000 </r>
       <r>   -3.4444    0.9244 </r>
       <r>   -3.4409    0.9208 </r>
       <r>   -2.9824    0.0335 </r>
       <r>   -2.9807    0.0326 </r>
       <r>   -2.6391    0.0000 </r>
       <r>   -2.6363    0.0000 </r>
       <r>   -2.5668    0.0000 </r>
       <r>   -2.4548    0.0000 </r>
       <r>   -2.1672    0.0000 </r>
       <r>   -2.1656    0.0000 </r>
       <r>   -2.0424    0.0000 </r>
       <r>   -1.9111    0.0000 </r>
       <r>   -1.9089    0.0000 </r>
       <r>   -1.5913    0.0000 </r>
       <r>   -1.1803    0.0000 </r>
       <r>   -1.1742    0.0000 </r>
       <r>   -1.1733    0.0000 </r>
       <r>   -1.0875    0.0000 </r>
       <r>   -1.0856    0.0000 </r>
       <r>   -1.0330    0.0000 </r>
       <r>   -0.8239    0.0000 </r>
       <r>   -0.7925    0.0000 </r>
       <r>   -0.7915    0.0000 </r>
       <r>   -0.7165    0.0000 </r>
       <r>   -0.6651    0.0000 </r>
       <r>   -0.6629    0.0000 </r>
       <r>   -0.5398    0.0000 </r>
       <r>   -0.2896    0.0000 </r>
       <r>   -0.2883    0.0000 </r>
       <r>   -0.0690    0.0000 </r>
       <r>   -0.0674    0.0000 </r>
       <r>    0.2512    0.0000 </r>
       <r>    0.3779    0.0000 </r>
       <r>    0.5188    0.0000 </r>
       <r>    0.5194    0.0000 </r>
       <r>    1.0675    0.0000 </r>
       <r>    1.0676    0.0000 </r>
       <r>    1.0708    0.0000 </r>
       <r>    1.8384    0.0000 </r>
       <r>    2.2620    0.0000 </r>
       <r>    2.2621    0.0000 </r>
       <r>    2.4138    0.0000 </r>
      </set>
     </set>
    </set>
   </array>
  </eigenvalues>
  <separator name="orbital magnetization" >
   <v name="MAGDIPOLOUT">      0.00000000      0.00000000      0.00000000</v>
  </separator>
 </calculation>
 <structure name="finalpos" >
  <crystal>
   <varray name="basis" >
    <v>       8.31044018       4.82729195       0.00000000 </v>
    <v>      -8.28544429       4.78402284       0.00000000 </v>
    <v>       0.00000000       0.00000000      30.00000000 </v>
   </varray>
   <i name="volume">   2392.60782425 </i>
   <varray name="rec_basis" >
    <v>       0.05998504       0.10388804       0.00000000 </v>
    <v>      -0.06052758       0.10420145       0.00000000 </v>
    <v>       0.00000000       0.00000000       0.03333333 </v>
   </varray>
  </crystal>
  <varray name="positions" >
   <v>       0.36890445       0.35106883      -0.00176608 </v>
   <v>       0.36896463       0.01778790      -0.00177392 </v>
   <v>       0.36891205       0.68446717      -0.00177022 </v>
   <v>       0.67597675       0.67118345      -0.00074828 </v>
   <v>       0.67593414       0.33798234      -0.00074927 </v>
   <v>       0.67591676       0.00464273      -0.00074741 </v>
   <v>      -0.03810484      -0.01910083       0.00239752 </v>
   <v>       0.96190852       0.31426422       0.00239685 </v>
   <v>      -0.03807487       0.64759693       0.00238946 </v>
   <v>       0.11235608       0.22280694       0.95650665 </v>
   <v>       0.22409932       0.11198937       0.04283944 </v>
   <v>       0.11238560       0.55615317       0.95650313 </v>
   <v>       0.22408714       0.44535153       0.04284049 </v>
   <v>       0.11241371       0.88951063       0.95651082 </v>
   <v>       0.22411642       0.77870990       0.04284133 </v>
   <v>       0.44410873       0.22202545       0.94664570 </v>
   <v>       0.55432641       0.11048630       0.05234466 </v>
   <v>       0.44410661       0.55532238       0.94664788 </v>
   <v>       0.55429901       0.44378787       0.05234536 </v>
   <v>       0.44412607       0.88871127       0.94663247 </v>
   <v>       0.55434933       0.77713061       0.05234050 </v>
   <v>       0.77423768       0.22042057       0.94414765 </v>
   <v>       0.88343567       0.10835577       0.05764246 </v>
   <v>       0.77427580       0.55375643       0.94413676 </v>
   <v>       0.88346564       0.44171639       0.05764408 </v>
   <v>       0.77422958       0.88707183       0.94415709 </v>
   <v>       0.88345807       0.77501532       0.05764478 </v>
  </varray>
 </structure>
</modeling>
