unknown system                          
           1
     8.856594    5.109535    0.000000
    -8.852999    5.103351    0.000000
     0.000000    0.000000   30.000000
   V    Mo   W    S 
   3   3   3  18
Direct configuration=     1
   0.33333334  0.33333334  0.00000000
   0.33333334  0.00000000  0.00000000
   0.33333334  0.66666669  0.00000000
   0.66666669  0.66666669  0.00000000
   0.66666669  0.33333334  0.00000000
   0.66666669  0.00000000  0.00000000
   0.00000000  0.00000000  0.00000000
   1.00000000  0.33333334  0.00000000
   0.00000000  0.66666669  0.00000000
   0.11068511  0.22244981  0.95539999
   0.22244981  0.11068511  0.04460000
   0.11068511  0.55578315  0.95539999
   0.22244981  0.44401845  0.04460000
   0.11068511  0.88911647  0.95539999
   0.22244981  0.77735180  0.04460000
   0.44401845  0.22244981  0.95539999
   0.55578315  0.11068511  0.04460000
   0.44401845  0.55578315  0.95539999
   0.55578315  0.44401845  0.04460000
   0.44401845  0.88911647  0.95539999
   0.55578315  0.77735180  0.04460000
   0.77735180  0.22244981  0.95539999
   0.88911647  0.11068511  0.04460000
   0.77735180  0.55578315  0.95539999
   0.88911647  0.44401845  0.04460000
   0.77735180  0.88911647  0.95539999
   0.88911647  0.77735180  0.04460000
unknown system                          
           1
     8.667902    5.002283    0.000000
    -8.665063    4.997407    0.000000
     0.000000    0.000000   30.000000
   V    Mo   W    S 
   3   3   3  18
Direct configuration=     2
   0.33559775  0.33442533 -0.00000213
   0.33560105  0.00109233 -0.00000247
   0.33559425  0.66776324 -0.00000203
   0.66650618  0.66659806 -0.00017354
   0.66651398  0.33326460 -0.00017329
   0.66650998 -0.00006573 -0.00017347
  -0.00249303 -0.00124270  0.00024571
   0.99750524  0.33209231  0.00024621
  -0.00249072  0.66542356  0.00024585
   0.11481106  0.22392090  0.95196090
   0.22563104  0.11253512  0.04682314
   0.11481112  0.55726048  0.95196027
   0.22563678  0.44586758  0.04682308
   0.11480566  0.89058919  0.95196128
   0.22563107  0.77919820  0.04682354
   0.43998707  0.22018756  0.95310392
   0.55099707  0.10883461  0.04803145
   0.43998023  0.55351389  0.95310292
   0.55099408  0.44215857  0.04803105
   0.43998643  0.88685028  0.95310308
   0.55099612  0.77550326  0.04803216
   0.77847734  0.22252862  0.95070950
   0.88988300  0.11161241  0.04930096
   0.77848334  0.55585762  0.95070957
   0.88988134  0.44495350  0.04930144
   0.77848527  0.88920292  0.95070962
   0.88989180  0.77828875  0.04930117
unknown system                          
           1
     8.484032    4.901481    0.000000
    -8.481246    4.896691    0.000000
     0.000000    0.000000   30.000000
   V    Mo   W    S 
   3   3   3  18
Direct configuration=     3
   0.33630065  0.33478306  0.00003642
   0.33630071  0.00144434  0.00003622
   0.33629965  0.66811594  0.00003643
   0.66702617  0.66686206 -0.00018469
   0.66702963  0.33352542 -0.00018476
   0.66702871  0.00019162 -0.00018478
  -0.00356682 -0.00178373  0.00019707
   0.99643409  0.33155100  0.00019727
  -0.00356235  0.66488323  0.00019701
   0.11463998  0.22386350  0.95212058
   0.22545491  0.11246902  0.04669640
   0.11463862  0.55719586  0.95212041
   0.22545468  0.44579692  0.04669589
   0.11463651  0.89052859  0.95212024
   0.22545370  0.77912943  0.04669714
   0.43990945  0.22012532  0.95308859
   0.55083454  0.10873752  0.04804402
   0.43990703  0.55345312  0.95308848
   0.55083089  0.44206739  0.04804383
   0.43991129  0.88678941  0.95308802
   0.55083372  0.77540572  0.04804441
   0.77872113  0.22265982  0.95061413
   0.89008300  0.11169876  0.04938834
   0.77872208  0.55599086  0.95061313
   0.89008378  0.44503297  0.04938853
   0.77872173  0.88933013  0.95061301
   0.89008696  0.77836718  0.04938858
unknown system                          
           1
     8.272164    4.792103    0.000000
    -8.257871    4.767381    0.000000
     0.000000    0.000000   30.000000
   V    Mo   W    S 
   3   3   3  18
Direct configuration=     4
   0.33882576  0.33604065  0.00019577
   0.33881364  0.00274464  0.00019632
   0.33880812  0.66935997  0.00019609
   0.66997206  0.66830774 -0.00014515
   0.66994922  0.33500832 -0.00014381
   0.66999955  0.00167830 -0.00014467
  -0.00821005 -0.00413163 -0.00003735
   0.99179501  0.32918379 -0.00003666
  -0.00822939  0.66253802 -0.00003636
   0.11549263  0.22436427  0.95129037
   0.22614592  0.11290547  0.04750204
   0.11546332  0.55769507  0.95128348
   0.22615293  0.44620557  0.04750566
   0.11546933  0.89102527  0.95128753
   0.22613107  0.77955701  0.04750684
   0.43897701  0.21958151  0.95170126
   0.54963029  0.10810176  0.04948772
   0.43897229  0.55287396  0.95169824
   0.54960975  0.44141921  0.04948513
   0.43898872  0.88624810  0.95169633
   0.54964143  0.77477701  0.04949260
   0.77865819  0.22266450  0.94859016
   0.88993605  0.11156831  0.05141632
   0.77866720  0.55599434  0.94859033
   0.88993497  0.44491363  0.05141420
   0.77867228  0.88934052  0.94859119
   0.88994715  0.77824915  0.05141632
unknown system                          
           1
     8.269619    4.806518    0.000000
    -8.242013    4.758733    0.000000
     0.000000    0.000000   30.000000
   V    Mo   W    S 
   3   3   3  18
Direct configuration=     5
   0.34425674  0.33874717  0.00038661
   0.34424351  0.00546809  0.00039045
   0.34421295  0.67207537  0.00039125
   0.67626918  0.67140432 -0.00004857
   0.67626247  0.33816060 -0.00004642
   0.67628365  0.00484089 -0.00005066
  -0.01778822 -0.00894687 -0.00026934
   0.98218931  0.32435970 -0.00026915
  -0.01783160  0.65769844 -0.00026350
   0.11592393  0.22460197  0.95051424
   0.22594560  0.11292023  0.04841841
   0.11590613  0.55793913  0.95051287
   0.22595627  0.44623543  0.04841683
   0.11591310  0.89126893  0.95051359
   0.22594634  0.77959558  0.04840907
   0.43896769  0.21943908  0.94966628
   0.54924489  0.10792986  0.05148065
   0.43896447  0.55275437  0.94966782
   0.54924023  0.44124697  0.05148879
   0.43896409  0.88610694  0.94967547
   0.54925699  0.77459372  0.05147886
   0.77725328  0.22197131  0.94549788
   0.88937952  0.11129076  0.05435340
   0.77725370  0.55528694  0.94548950
   0.88936314  0.44462791  0.05434591
   0.77726244  0.88862469  0.94549886
   0.88937465  0.77797292  0.05435080
unknown system                          
           1
     8.270122    4.806002    0.000000
    -8.243198    4.759398    0.000000
     0.000000    0.000000   30.000000
   V    Mo   W    S 
   3   3   3  18
Direct configuration=     6
   0.34730414  0.34027864  0.00034535
   0.34728764  0.00697936  0.00034749
   0.34726904  0.67359845  0.00035078
   0.67694449  0.67174028 -0.00030236
   0.67691910  0.33847886 -0.00030273
   0.67696285  0.00515303 -0.00030120
  -0.02046142 -0.01026774 -0.00008343
   0.97954149  0.32303400 -0.00008075
  -0.02047964  0.65639962 -0.00008163
   0.11492115  0.22409767  0.95089640
   0.22479831  0.11235003  0.04806769
   0.11490440  0.55742818  0.95089738
   0.22480063  0.44566516  0.04806455
   0.11491483  0.89075876  0.95089789
   0.22479247  0.77902294  0.04805952
   0.43985636  0.21988411  0.94955550
   0.55054350  0.10858197  0.05167703
   0.43985281  0.55320124  0.94956042
   0.55053925  0.44190455  0.05168458
   0.43985166  0.88655688  0.94956546
   0.55055481  0.77524703  0.05167009
   0.77615723  0.22141925  0.94504766
   0.88937555  0.11129680  0.05478959
   0.77616287  0.55473674  0.94504197
   0.88937013  0.44462953  0.05478908
   0.77615968  0.88806841  0.94505333
   0.88937108  0.77797072  0.05479024
unknown system                          
           1
     8.273404    4.811651    0.000000
    -8.243259    4.759467    0.000000
     0.000000    0.000000   30.000000
   V    Mo   W    S 
   3   3   3  18
Direct configuration=     7
   0.34995774  0.34160363  0.00041484
   0.34994771  0.00830340  0.00041691
   0.34992499  0.67493017  0.00041848
   0.67740817  0.67196816 -0.00034417
   0.67738399  0.33870606 -0.00034294
   0.67742175  0.00538290 -0.00034454
  -0.02275567 -0.01141006 -0.00002857
   0.97724257  0.32188888 -0.00002866
  -0.02277217  0.65525499 -0.00002749
   0.11439908  0.22383143  0.95129389
   0.22414742  0.11202508  0.04768029
   0.11438430  0.55716195  0.95129648
   0.22414755  0.44534363  0.04767915
   0.11439479  0.89049529  0.95129649
   0.22413995  0.77869969  0.04767373
   0.44025909  0.22008438  0.94942516
   0.55121813  0.10892074  0.05173011
   0.44025847  0.55340863  0.94942957
   0.55121596  0.44224607  0.05173760
   0.44025558  0.88676037  0.94943478
   0.55122897  0.77558602  0.05172498
   0.77574237  0.22120383  0.94480536
   0.88906242  0.11114514  0.05501928
   0.77574649  0.55452389  0.94479767
   0.88905929  0.44448019  0.05501495
   0.77573625  0.88785112  0.94480852
   0.88905925  0.77781889  0.05501807
unknown system                          
           1
     8.279352    4.826731    0.000000
    -8.239206    4.757226    0.000000
     0.000000    0.000000   30.000000
   V    Mo   W    S 
   3   3   3  18
Direct configuration=     8
   0.35186001  0.34254632  0.00041628
   0.35187920  0.00926587  0.00041759
   0.35183271  0.67589382  0.00041992
   0.67757771  0.67205137 -0.00042733
   0.67753769  0.33877385 -0.00042595
   0.67757219  0.00546285 -0.00042728
  -0.02428388 -0.01217303  0.00004187
   0.97571875  0.32112737  0.00004189
  -0.02429793  0.65449492  0.00004266
   0.11410706  0.22368372  0.95158549
   0.22376454  0.11183083  0.04739735
   0.11409505  0.55701463  0.95158893
   0.22376143  0.44515613  0.04739693
   0.11411043  0.89035177  0.95159007
   0.22375712  0.77851272  0.04739114
   0.44044838  0.22017379  0.94932896
   0.55169597  0.10915957  0.05182978
   0.44044974  0.55350919  0.94933287
   0.55170520  0.44249250  0.05183918
   0.44044384  0.88685701  0.94933848
   0.55171307  0.77582845  0.05182570
   0.77537351  0.22101585  0.94462601
   0.88888278  0.11105776  0.05519541
   0.77538109  0.55433922  0.94461904
   0.88888234  0.44439512  0.05519069
   0.77536766  0.88766253  0.94462990
   0.88887880  0.77773031  0.05519433
unknown system                          
           1
     8.303229    4.852698    0.000000
    -8.252620    4.765070    0.000000
     0.000000    0.000000   30.000000
   V    Mo   W    S 
   3   3   3  18
Direct configuration=     9
   0.35990138  0.34663297  0.00038421
   0.35980036  0.01320760  0.00038036
   0.35990393  0.67987545  0.00038758
   0.67781150  0.67216076 -0.00069519
   0.67787296  0.33897013 -0.00069462
   0.67788379  0.00557798 -0.00069620
  -0.03051021 -0.01527907  0.00040271
   0.96947396  0.31800678  0.00040217
  -0.03051774  0.65138641  0.00040150
   0.11314196  0.22319277  0.95300215
   0.22230759  0.11114442  0.04602415
   0.11313166  0.55652590  0.95301055
   0.22233774  0.44445344  0.04600671
   0.11309150  0.88984415  0.95299535
   0.22229946  0.77775773  0.04601976
   0.44110811  0.22055426  0.94888424
   0.55381130  0.11022457  0.05224752
   0.44107330  0.55382392  0.94890761
   0.55372938  0.44350593  0.05222390
   0.44109988  0.88713894  0.94888819
   0.55372232  0.77682908  0.05221607
   0.77398895  0.22031489  0.94396675
   0.88793243  0.11059781  0.05580310
   0.77397712  0.55361114  0.94396252
   0.88793717  0.44392575  0.05579467
   0.77395997  0.88695910  0.94397193
   0.88794468  0.77727164  0.05580217
unknown system                          
           1
     8.293959    4.832189    0.000000
    -8.256456    4.767260    0.000000
     0.000000    0.000000   30.000000
   V    Mo   W    S 
   3   3   3  18
Direct configuration=    10
   0.36815274  0.35073969  0.00011700
   0.36800587  0.01735013  0.00012917
   0.36801493  0.68390583  0.00012002
   0.67778397  0.67210028 -0.00103328
   0.67780656  0.33894428 -0.00103568
   0.67790433  0.00560755 -0.00103486
  -0.03701968 -0.01851812  0.00092598
   0.96298192  0.31475923  0.00092032
  -0.03698934  0.64814581  0.00092208
   0.11248622  0.22285988  0.95471704
   0.22102615  0.11053755  0.04435961
   0.11243930  0.55617507  0.95471752
   0.22103656  0.44378105  0.04434893
   0.11240095  0.88950087  0.95469897
   0.22099675  0.77711655  0.04436648
   0.44179938  0.22093249  0.94834726
   0.55636648  0.11150374  0.05278652
   0.44177747  0.55413702  0.94835017
   0.55627272  0.44477503  0.05277449
   0.44181330  0.88750903  0.94833673
   0.55634464  0.77814263  0.05278801
   0.77229028  0.21944710  0.94327372
   0.88664284  0.10995683  0.05652677
   0.77227743  0.55276026  0.94326262
   0.88667069  0.44330025  0.05651739
   0.77226797  0.88609921  0.94327524
   0.88666404  0.77664522  0.05652169
unknown system                          
           1
     8.303173    4.838992    0.000000
    -8.264398    4.771860    0.000000
     0.000000    0.000000   30.000000
   V    Mo   W    S 
   3   3   3  18
Direct configuration=    11
   0.36446139  0.34886422  0.00002029
   0.36446551  0.01556124  0.00003270
   0.36444059  0.68217094  0.00003510
   0.67755406  0.67200610 -0.00089102
   0.67753594  0.33878776 -0.00089407
   0.67757575  0.00544969 -0.00089576
  -0.03450256 -0.01726707  0.00086089
   0.96550947  0.31602071  0.00086257
  -0.03449969  0.64939757  0.00085868
   0.11295320  0.22309841  0.95444853
   0.22179987  0.11088963  0.04461438
   0.11292603  0.55642010  0.95444828
   0.22179698  0.44417019  0.04461156
   0.11291349  0.88975812  0.95444199
   0.22178925  0.77752865  0.04461496
   0.44179090  0.22087335  0.94843255
   0.55592382  0.11127760  0.05260401
   0.44178728  0.55416557  0.94842855
   0.55592976  0.44460390  0.05261968
   0.44178819  0.88752513  0.94844093
   0.55592601  0.77793495  0.05260339
   0.77277757  0.21970165  0.94359111
   0.88666241  0.10996607  0.05631598
   0.77279346  0.55302715  0.94358237
   0.88667837  0.44330399  0.05630551
   0.77276913  0.88634106  0.94359812
   0.88666829  0.77663778  0.05630866
unknown system                          
           1
     8.303668    4.834839    0.000000
    -8.268741    4.774371    0.000000
     0.000000    0.000000   30.000000
   V    Mo   W    S 
   3   3   3  18
Direct configuration=    12
   0.36632974  0.34980171 -0.00010100
   0.36628136  0.01647948 -0.00009091
   0.36626974  0.68307208 -0.00008943
   0.67739620  0.67191034 -0.00093801
   0.67738938  0.33872882 -0.00093980
   0.67744797  0.00538384 -0.00094190
  -0.03603821 -0.01803594  0.00104376
   0.96396877  0.31525390  0.00104314
  -0.03602504  0.64863428  0.00103951
   0.11294040  0.22309194  0.95489506
   0.22165704  0.11082700  0.04418736
   0.11290526  0.55640924  0.95489339
   0.22165459  0.44409322  0.04418554
   0.11289229  0.88974825  0.95488685
   0.22164203  0.77745567  0.04418998
   0.44196591  0.22096870  0.94825627
   0.55644329  0.11153704  0.05268164
   0.44196292  0.55424706  0.94825261
   0.55642345  0.44485017  0.05269161
   0.44196678  0.88761437  0.94826330
   0.55644323  0.77819393  0.05268194
   0.77247163  0.21954434  0.94348129
   0.88628275  0.10977735  0.05649579
   0.77248438  0.55287086  0.94347079
   0.88630437  0.44311797  0.05648545
   0.77245894  0.88618472  0.94348704
   0.88629529  0.77645413  0.05648863
unknown system                          
           1
     8.309706    4.838570    0.000000
    -8.274568    4.777736    0.000000
     0.000000    0.000000   30.000000
   V    Mo   W    S 
   3   3   3  18
Direct configuration=    13
   0.36723506  0.35026342 -0.00034435
   0.36729333  0.01694636 -0.00033447
   0.36732205  0.68363335 -0.00033356
   0.67707355  0.67176866 -0.00093792
   0.67709274  0.33856456 -0.00093749
   0.67705576  0.00518021 -0.00094055
  -0.03701882 -0.01852986  0.00124872
   0.96298556  0.31476958  0.00124751
  -0.03701159  0.64813701  0.00124598
   0.11304355  0.22314583  0.95538077
   0.22193986  0.11094451  0.04375814
   0.11305660  0.55648355  0.95538610
   0.22194263  0.44426753  0.04375550
   0.11303952  0.88982566  0.95537921
   0.22195159  0.77760476  0.04375093
   0.44221785  0.22105662  0.94801030
   0.55662139  0.11162625  0.05263415
   0.44221285  0.55441981  0.94801302
   0.55665665  0.44496586  0.05265789
   0.44219659  0.88771999  0.94803205
   0.55660451  0.77827286  0.05262797
   0.77247448  0.21955237  0.94357503
   0.88574918  0.10951149  0.05666533
   0.77250005  0.55287688  0.94356339
   0.88576431  0.44285591  0.05665601
   0.77245853  0.88617454  0.94358053
   0.88575667  0.77617675  0.05665971
unknown system                          
           1
     8.309931    4.836282    0.000000
    -8.276888    4.779076    0.000000
     0.000000    0.000000   30.000000
   V    Mo   W    S 
   3   3   3  18
Direct configuration=    14
   0.36725936  0.35027042 -0.00040127
   0.36725957  0.01694547 -0.00039842
   0.36726365  0.68359347 -0.00039879
   0.67696814  0.67170016 -0.00092213
   0.67697394  0.33851652 -0.00092328
   0.67697479  0.00514403 -0.00092371
  -0.03693427 -0.01849358  0.00131916
   0.96307268  0.31482021  0.00131774
  -0.03691600  0.64818391  0.00131423
   0.11305509  0.22315210  0.95539978
   0.22204542  0.11099966  0.04374532
   0.11306236  0.55648725  0.95540402
   0.22204726  0.44431453  0.04374360
   0.11304852  0.88982978  0.95539817
   0.22204920  0.77765554  0.04374205
   0.44225748  0.22108516  0.94794668
   0.55653139  0.11158280  0.05264319
   0.44225505  0.55442767  0.94794605
   0.55652939  0.44490197  0.05265302
   0.44224635  0.88774926  0.94795641
   0.55652731  0.77823286  0.05264101
   0.77251547  0.21956691  0.94356578
   0.88568248  0.10947771  0.05670522
   0.77253674  0.55289605  0.94355566
   0.88570551  0.44282382  0.05669869
   0.77250230  0.88620174  0.94357051
   0.88569526  0.77614904  0.05670120
unknown system                          
           1
     8.307400    4.833008    0.000000
    -8.275924    4.778517    0.000000
     0.000000    0.000000   30.000000
   V    Mo   W    S 
   3   3   3  18
Direct configuration=    15
   0.36761159  0.35046703 -0.00052067
   0.36748710  0.01707923 -0.00051596
   0.36755294  0.68369874 -0.00051636
   0.67676892  0.67158320 -0.00091869
   0.67681817  0.33847220 -0.00091891
   0.67686270  0.00507050 -0.00091718
  -0.03716585 -0.01860588  0.00140102
   0.96283669  0.31470179  0.00140074
  -0.03713728  0.64807018  0.00139715
   0.11305911  0.22315469  0.95556851
   0.22223278  0.11111826  0.04360925
   0.11304945  0.55648200  0.95556767
   0.22224367  0.44439844  0.04360474
   0.11301857  0.88981502  0.95556005
   0.22222548  0.77773259  0.04360995
   0.44238172  0.22118933  0.94784626
   0.55646093  0.11154779  0.05261510
   0.44237318  0.55446043  0.94784905
   0.55639412  0.44483319  0.05261113
   0.44238127  0.88780173  0.94784755
   0.55643296  0.77818564  0.05260730
   0.77262721  0.21961864  0.94363368
   0.88546537  0.10937215  0.05677613
   0.77263885  0.55294410  0.94361997
   0.88549526  0.44271603  0.05677130
   0.77261010  0.88626165  0.94363764
   0.88548944  0.77604578  0.05677347
unknown system                          
           1
     8.306670    4.830521    0.000000
    -8.276982    4.779126    0.000000
     0.000000    0.000000   30.000000
   V    Mo   W    S 
   3   3   3  18
Direct configuration=    16
   0.36787704  0.35060207 -0.00070185
   0.36776101  0.01722541 -0.00068058
   0.36781250  0.68381946 -0.00068978
   0.67671291  0.67154284 -0.00088753
   0.67675842  0.33845619 -0.00089039
   0.67681419  0.00504344 -0.00089097
  -0.03744522 -0.01873546  0.00156449
   0.96256193  0.31456175  0.00156269
  -0.03742360  0.64791945  0.00155954
   0.11301527  0.22313420  0.95576089
   0.22245969  0.11124624  0.04345435
   0.11299664  0.55645652  0.95575527
   0.22247642  0.44451150  0.04345025
   0.11295269  0.88978179  0.95574581
   0.22245344  0.77783490  0.04345569
   0.44258752  0.22130674  0.94766010
   0.55632877  0.11148077  0.05258986
   0.44257981  0.55455756  0.94765760
   0.55628387  0.44477657  0.05260317
   0.44258687  0.88789477  0.94766773
   0.55631338  0.77812797  0.05258949
   0.77273106  0.21967169  0.94368443
   0.88516283  0.10921951  0.05688264
   0.77275894  0.55300665  0.94366230
   0.88519274  0.44256806  0.05687553
   0.77272011  0.88631133  0.94368447
   0.88518520  0.77589254  0.05687472
unknown system                          
           1
     8.309018    4.830945    0.000000
    -8.280141    4.780955    0.000000
     0.000000    0.000000   30.000000
   V    Mo   W    S 
   3   3   3  18
Direct configuration=    17
   0.36807642  0.35066791 -0.00094807
   0.36823847  0.01742135 -0.00092396
   0.36817451  0.68407973 -0.00093239
   0.67665349  0.67153577 -0.00087029
   0.67661547  0.33834414 -0.00087614
   0.67656398  0.00493544 -0.00088132
  -0.03774119 -0.01888927  0.00172638
   0.96228255  0.31442759  0.00172720
  -0.03773231  0.64776487  0.00172096
   0.11288410  0.22307176  0.95596667
   0.22278024  0.11135266  0.04329557
   0.11290938  0.55640997  0.95596678
   0.22277950  0.44469674  0.04329885
   0.11289883  0.88975645  0.95596580
   0.22280118  0.77802776  0.04328715
   0.44288130  0.22136471  0.94741575
   0.55599749  0.11131660  0.05254783
   0.44289320  0.55476556  0.94740022
   0.55610137  0.44468597  0.05260327
   0.44285728  0.88806854  0.94744157
   0.55604171  0.77798872  0.05256200
   0.77294043  0.21978608  0.94376795
   0.88478171  0.10902743  0.05708062
   0.77300706  0.55313836  0.94374684
   0.88479857  0.44238116  0.05707163
   0.77294622  0.88640497  0.94377011
   0.88478348  0.77568346  0.05706889
unknown system                          
           1
     8.309704    4.829466    0.000000
    -8.282456    4.782296    0.000000
     0.000000    0.000000   30.000000
   V    Mo   W    S 
   3   3   3  18
Direct configuration=    18
   0.36821340  0.35072612 -0.00103197
   0.36837569  0.01746965 -0.00103806
   0.36831665  0.68418219 -0.00103372
   0.67655784  0.67149423 -0.00084550
   0.67651041  0.33827565 -0.00084679
   0.67643298  0.00487841 -0.00084770
  -0.03777432 -0.01892699  0.00183589
   0.96222980  0.31441512  0.00183546
  -0.03774711  0.64776470  0.00182883
   0.11279533  0.22302817  0.95601693
   0.22294052  0.11139667  0.04324571
   0.11285488  0.55638105  0.95602464
   0.22293523  0.44479551  0.04325014
   0.11286930  0.88974283  0.95602962
   0.22296936  0.77812700  0.04323553
   0.44302906  0.22140244  0.94731020
   0.55577889  0.11120977  0.05252643
   0.44304135  0.55486153  0.94730394
   0.55584663  0.44456035  0.05255327
   0.44300246  0.88815713  0.94732543
   0.55580730  0.77786648  0.05252845
   0.77309196  0.21985946  0.94379023
   0.88462157  0.10894741  0.05714498
   0.77314427  0.55320304  0.94377758
   0.88464435  0.44230389  0.05714180
   0.77308944  0.88648239  0.94379549
   0.88463720  0.77561024  0.05714312
unknown system                          
           1
     8.309793    4.828424    0.000000
    -8.283491    4.782894    0.000000
     0.000000    0.000000   30.000000
   V    Mo   W    S 
   3   3   3  18
Direct configuration=    19
   0.36859848  0.35093549 -0.00127636
   0.36855458  0.01757917 -0.00129905
   0.36858041  0.68428078 -0.00128807
   0.67633893  0.67136437 -0.00082985
   0.67634035  0.33821653 -0.00082458
   0.67632693  0.00481787 -0.00081673
  -0.03796544 -0.01903371  0.00202310
   0.96202018  0.31431959  0.00202087
  -0.03790972  0.64768432  0.00201806
   0.11262903  0.22294557  0.95621207
   0.22332806  0.11159819  0.04309386
   0.11268465  0.55629599  0.95621770
   0.22332968  0.44498827  0.04309384
   0.11270063  0.88965839  0.95622333
   0.22334558  0.77831232  0.04308989
   0.44338656  0.22163040  0.94707131
   0.55538964  0.11101728  0.05249110
   0.44338429  0.55500148  0.94708409
   0.55532331  0.44429970  0.05246819
   0.44338063  0.88833127  0.94705740
   0.55536673  0.77764165  0.05247339
   0.77346351  0.22003481  0.94391273
   0.88419864  0.10873789  0.05731673
   0.77348380  0.55336261  0.94390130
   0.88423986  0.44209987  0.05732068
   0.77344725  0.88667966  0.94391895
   0.88424791  0.77541470  0.05732594
unknown system                          
           1
     8.309431    4.827674    0.000000
    -8.283598    4.782956    0.000000
     0.000000    0.000000   30.000000
   V    Mo   W    S 
   3   3   3  18
Direct configuration=    20
   0.36883592  0.35105166 -0.00157127
   0.36887460  0.01773045 -0.00156914
   0.36887196  0.68444132 -0.00156966
   0.67608640  0.67125136 -0.00077999
   0.67608246  0.33805834 -0.00077662
   0.67604906  0.00469350 -0.00077075
  -0.03808945 -0.01908705  0.00226756
   0.96190912  0.31426100  0.00226393
  -0.03804968  0.64760746  0.00226529
   0.11246542  0.22286257  0.95641427
   0.22378298  0.11183018  0.04292290
   0.11251694  0.55621502  0.95641322
   0.22377998  0.44520909  0.04292169
   0.11253356  0.88957376  0.95641729
   0.22380039  0.77854069  0.04292180
   0.44379815  0.22187915  0.94680851
   0.55481424  0.11073088  0.05239986
   0.44378740  0.55517424  0.94682266
   0.55476409  0.44401996  0.05239236
   0.44380582  0.88853125  0.94678805
   0.55480451  0.77735815  0.05238890
   0.77387704  0.22023873  0.94404006
   0.88375485  0.10851449  0.05750295
   0.77390690  0.55356893  0.94402303
   0.88379069  0.44188383  0.05750735
   0.77386383  0.88689387  0.94404500
   0.88379727  0.77518162  0.05751063
unknown system                          
           1
     8.310440    4.827292    0.000000
    -8.285444    4.784023    0.000000
     0.000000    0.000000   30.000000
   V    Mo   W    S 
   3   3   3  18
Direct configuration=    21
   0.36881132  0.35103339 -0.00165776
   0.36886630  0.01772945 -0.00166207
   0.36884614  0.68443188 -0.00166004
   0.67607369  0.67124076 -0.00077074
   0.67605462  0.33804636 -0.00077118
   0.67601693  0.00468036 -0.00076974
  -0.03808623 -0.01908973  0.00230162
   0.96192590  0.31427243  0.00230171
  -0.03805969  0.64760352  0.00229384
   0.11240880  0.22283346  0.95645004
   0.22392235  0.11190255  0.04289310
   0.11244941  0.55618403  0.95644891
   0.22391452  0.44527183  0.04289268
   0.11246535  0.88953746  0.95645442
   0.22394273  0.77861435  0.04289326
   0.44394644  0.22194568  0.94673751
   0.55457668  0.11061177  0.05237805
   0.44394058  0.55524984  0.94674236
   0.55454809  0.44391221  0.05237811
   0.44395819  0.88861492  0.94672538
   0.55458345  0.77724774  0.05237088
   0.77406620  0.22033512  0.94410190
   0.88360712  0.10844255  0.05757437
   0.77410802  0.55367160  0.94409073
   0.88363632  0.44180134  0.05757580
   0.77405863  0.88698735  0.94411014
   0.88363259  0.77510223  0.05757663
unknown system                          
           1
     8.310440    4.827292    0.000000
    -8.285444    4.784023    0.000000
     0.000000    0.000000   30.000000
   V    Mo   W    S 
   3   3   3  18
Direct configuration=    22
   0.36890445  0.35106883 -0.00176608
   0.36896463  0.01778790 -0.00177392
   0.36891205  0.68446717 -0.00177022
   0.67597675  0.67118345 -0.00074828
   0.67593414  0.33798234 -0.00074927
   0.67591676  0.00464273 -0.00074741
  -0.03810484 -0.01910083  0.00239752
   0.96190852  0.31426422  0.00239685
  -0.03807487  0.64759693  0.00238946
   0.11235608  0.22280694  0.95650665
   0.22409932  0.11198937  0.04283944
   0.11238560  0.55615317  0.95650313
   0.22408714  0.44535153  0.04284049
   0.11241371  0.88951063  0.95651082
   0.22411642  0.77870990  0.04284133
   0.44410873  0.22202545  0.94664570
   0.55432641  0.11048630  0.05234466
   0.44410661  0.55532238  0.94664788
   0.55429901  0.44378787  0.05234536
   0.44412607  0.88871127  0.94663247
   0.55434933  0.77713061  0.05234050
   0.77423768  0.22042057  0.94414765
   0.88343567  0.10835577  0.05764246
   0.77427580  0.55375643  0.94413676
   0.88346564  0.44171639  0.05764408
   0.77422958  0.88707183  0.94415709
   0.88345807  0.77501532  0.05764478
