   27   27  100    1
  0.9710400E+02  0.1002848E-08  0.1002848E-08  0.3000000E-08  0.5000000E-15
  1.000000000000000E-004
  CAR 
 unknown system                          
    159     34    120
 
  0.0000000E+00  0.0000000E+00  0.0000000E+00  0.1562500E-01
    1      -17.814210   1.000000
    2      -16.727557   1.000000
    3      -16.659160   1.000000
    4      -16.582633   1.000000
    5      -16.508076   1.000000
    6      -16.458390   1.000000
    7      -16.387994   1.000000
    8      -16.286727   1.000000
    9      -16.173915   1.000000
   10      -16.127156   1.000000
   11      -16.052159   1.000000
   12      -15.953552   1.000000
   13      -15.885756   1.000000
   14      -15.711998   1.000000
   15      -15.583688   1.000000
   16      -15.505834   1.000000
   17      -15.428003   1.000000
   18      -15.193565   1.000000
   19       -9.422539   1.000000
   20       -9.019663   1.000000
   21       -8.943550   1.000000
   22       -8.859383   1.000000
   23       -8.705427   1.000000
   24       -8.664985   1.000000
   25       -8.585662   1.000000
   26       -8.563336   1.000000
   27       -8.500543   1.000000
   28       -8.449524   1.000000
   29       -8.415091   1.000000
   30       -8.400851   1.000000
   31       -8.307877   1.000000
   32       -8.155090   1.000000
   33       -8.077827   1.000000
   34       -8.005952   1.000000
   35       -7.873840   1.000000
   36       -7.723170   1.000000
   37       -7.701092   1.000000
   38       -7.560450   1.000000
   39       -7.526252   1.000000
   40       -7.422711   1.000000
   41       -7.357943   1.000000
   42       -7.178163   1.000000
   43       -7.116982   1.000000
   44       -6.932053   1.000000
   45       -6.829078   1.000000
   46       -6.798767   1.000000
   47       -6.767310   1.000000
   48       -6.679632   1.000000
   49       -6.647057   1.000000
   50       -6.490871   1.000000
   51       -6.427434   1.000000
   52       -6.344149   1.000000
   53       -6.267479   1.000000
   54       -6.215421   1.000000
   55       -6.142511   1.000000
   56       -6.080619   1.000000
   57       -6.002305   1.000000
   58       -5.946358   1.000000
   59       -5.756811   1.000000
   60       -5.713193   1.000000
   61       -5.466628   1.000000
   62       -5.318955   1.000000
   63       -5.302030   1.000000
   64       -5.193343   1.000000
   65       -5.057123   1.000000
   66       -4.935294   1.000000
   67       -4.863992   1.000000
   68       -4.826973   1.000000
   69       -4.806342   1.000000
   70       -4.767362   1.000000
   71       -4.588219   1.000000
   72       -4.576978   1.000000
   73       -4.497675   1.000000
   74       -4.418106   1.000000
   75       -4.226774   1.000000
   76       -3.987438   0.999995
   77       -3.760228   0.997530
   78       -3.676238   0.986689
   79       -3.598532   0.952299
   80       -3.388540   0.572482
   81       -3.155620   0.071557
   82       -2.848052   0.000137
   83       -2.730252   0.000004
   84       -2.681360   0.000001
   85       -2.644190   0.000000
   86       -2.449912   0.000000
   87       -2.353493   0.000000
   88       -2.259703   0.000000
   89       -2.138687   0.000000
   90       -2.132930   0.000000
   91       -1.719830   0.000000
   92       -1.596741   0.000000
   93       -1.549797   0.000000
   94       -1.322953   0.000000
   95       -1.232457   0.000000
   96       -1.090161   0.000000
   97       -0.949383   0.000000
   98       -0.842562   0.000000
   99       -0.744512   0.000000
  100       -0.676928   0.000000
  101       -0.565235   0.000000
  102       -0.554475   0.000000
  103       -0.468336   0.000000
  104       -0.302827   0.000000
  105       -0.112033   0.000000
  106       -0.061993   0.000000
  107       -0.010874   0.000000
  108        0.032452   0.000000
  109        0.124465   0.000000
  110        0.242734   0.000000
  111        0.412649   0.000000
  112        0.471971   0.000000
  113        0.566979   0.000000
  114        0.669133   0.000000
  115        0.904071   0.000000
  116        1.008920   0.000000
  117        1.265355   0.000000
  118        1.644148   0.000000
  119        1.838982   0.000000
  120        2.163228   0.000000
 
  0.1250000E+00  0.2775558E-16  0.0000000E+00  0.3125000E-01
    1      -17.789320   1.000000
    2      -16.781242   1.000000
    3      -16.697411   1.000000
    4      -16.651933   1.000000
    5      -16.505496   1.000000
    6      -16.408680   1.000000
    7      -16.382052   1.000000
    8      -16.283384   1.000000
    9      -16.193519   1.000000
   10      -16.092340   1.000000
   11      -15.994797   1.000000
   12      -15.952268   1.000000
   13      -15.838942   1.000000
   14      -15.711984   1.000000
   15      -15.590723   1.000000
   16      -15.514621   1.000000
   17      -15.434585   1.000000
   18      -15.205245   1.000000
   19       -9.420020   1.000000
   20       -9.116757   1.000000
   21       -9.066858   1.000000
   22       -8.973483   1.000000
   23       -8.754560   1.000000
   24       -8.674085   1.000000
   25       -8.608237   1.000000
   26       -8.584943   1.000000
   27       -8.498533   1.000000
   28       -8.433907   1.000000
   29       -8.371347   1.000000
   30       -8.294588   1.000000
   31       -8.224630   1.000000
   32       -8.054916   1.000000
   33       -8.025300   1.000000
   34       -7.917375   1.000000
   35       -7.803882   1.000000
   36       -7.761230   1.000000
   37       -7.671016   1.000000
   38       -7.571790   1.000000
   39       -7.453046   1.000000
   40       -7.424140   1.000000
   41       -7.339277   1.000000
   42       -7.179477   1.000000
   43       -7.128649   1.000000
   44       -6.974395   1.000000
   45       -6.931147   1.000000
   46       -6.877657   1.000000
   47       -6.738011   1.000000
   48       -6.642704   1.000000
   49       -6.586268   1.000000
   50       -6.526206   1.000000
   51       -6.427037   1.000000
   52       -6.327911   1.000000
   53       -6.291757   1.000000
   54       -6.194412   1.000000
   55       -6.139984   1.000000
   56       -6.095984   1.000000
   57       -5.984070   1.000000
   58       -5.903476   1.000000
   59       -5.731709   1.000000
   60       -5.681046   1.000000
   61       -5.469201   1.000000
   62       -5.363305   1.000000
   63       -5.274254   1.000000
   64       -5.253344   1.000000
   65       -5.149488   1.000000
   66       -5.062284   1.000000
   67       -4.978353   1.000000
   68       -4.878965   1.000000
   69       -4.757530   1.000000
   70       -4.716202   1.000000
   71       -4.606516   1.000000
   72       -4.493976   1.000000
   73       -4.386220   1.000000
   74       -4.347551   1.000000
   75       -4.165297   1.000000
   76       -3.972292   0.999992
   77       -3.839822   0.999629
   78       -3.762598   0.997656
   79       -3.561457   0.920050
   80       -3.458946   0.751920
   81       -3.089624   0.026744
   82       -2.851004   0.000148
   83       -2.734642   0.000004
   84       -2.698500   0.000001
   85       -2.629826   0.000000
   86       -2.465443   0.000000
   87       -2.351363   0.000000
   88       -2.223526   0.000000
   89       -2.126834   0.000000
   90       -2.094646   0.000000
   91       -1.691333   0.000000
   92       -1.597636   0.000000
   93       -1.538797   0.000000
   94       -1.330137   0.000000
   95       -1.219581   0.000000
   96       -1.098609   0.000000
   97       -0.971706   0.000000
   98       -0.848580   0.000000
   99       -0.789501   0.000000
  100       -0.697153   0.000000
  101       -0.597550   0.000000
  102       -0.583849   0.000000
  103       -0.496305   0.000000
  104       -0.345616   0.000000
  105       -0.192518   0.000000
  106       -0.114411   0.000000
  107       -0.069454   0.000000
  108        0.009207   0.000000
  109        0.062855   0.000000
  110        0.285294   0.000000
  111        0.394513   0.000000
  112        0.518764   0.000000
  113        0.623236   0.000000
  114        0.720883   0.000000
  115        0.913260   0.000000
  116        1.048653   0.000000
  117        1.269037   0.000000
  118        1.688653   0.000000
  119        1.876461   0.000000
  120        2.198415   0.000000
 
  0.2500000E+00  0.5551115E-16  0.0000000E+00  0.3125000E-01
    1      -17.716426   1.000000
    2      -16.975602   1.000000
    3      -16.722291   1.000000
    4      -16.685467   1.000000
    5      -16.555629   1.000000
    6      -16.421067   1.000000
    7      -16.327040   1.000000
    8      -16.244217   1.000000
    9      -16.155203   1.000000
   10      -16.065583   1.000000
   11      -15.984325   1.000000
   12      -15.865180   1.000000
   13      -15.745591   1.000000
   14      -15.713176   1.000000
   15      -15.596110   1.000000
   16      -15.544111   1.000000
   17      -15.448678   1.000000
   18      -15.233924   1.000000
   19       -9.532659   1.000000
   20       -9.264998   1.000000
   21       -9.191884   1.000000
   22       -9.097949   1.000000
   23       -8.833439   1.000000
   24       -8.737434   1.000000
   25       -8.613101   1.000000
   26       -8.557688   1.000000
   27       -8.510927   1.000000
   28       -8.403507   1.000000
   29       -8.258525   1.000000
   30       -8.188014   1.000000
   31       -8.101073   1.000000
   32       -8.014832   1.000000
   33       -7.968628   1.000000
   34       -7.819667   1.000000
   35       -7.795781   1.000000
   36       -7.659354   1.000000
   37       -7.573557   1.000000
   38       -7.519459   1.000000
   39       -7.436969   1.000000
   40       -7.343910   1.000000
   41       -7.279933   1.000000
   42       -7.227097   1.000000
   43       -7.116559   1.000000
   44       -7.023069   1.000000
   45       -6.950780   1.000000
   46       -6.841949   1.000000
   47       -6.755992   1.000000
   48       -6.667855   1.000000
   49       -6.577708   1.000000
   50       -6.482657   1.000000
   51       -6.415054   1.000000
   52       -6.362375   1.000000
   53       -6.279121   1.000000
   54       -6.197067   1.000000
   55       -6.121153   1.000000
   56       -6.043146   1.000000
   57       -5.964257   1.000000
   58       -5.849455   1.000000
   59       -5.731244   1.000000
   60       -5.682172   1.000000
   61       -5.595746   1.000000
   62       -5.490650   1.000000
   63       -5.423934   1.000000
   64       -5.316444   1.000000
   65       -5.268683   1.000000
   66       -5.122887   1.000000
   67       -5.010664   1.000000
   68       -4.847320   1.000000
   69       -4.793207   1.000000
   70       -4.654240   1.000000
   71       -4.582353   1.000000
   72       -4.370357   1.000000
   73       -4.304805   1.000000
   74       -4.252402   1.000000
   75       -4.154583   1.000000
   76       -4.027392   0.999999
   77       -3.924735   0.999965
   78       -3.822289   0.999423
   79       -3.529562   0.880976
   80       -3.439760   0.707081
   81       -3.068341   0.018697
   82       -2.864145   0.000211
   83       -2.780503   0.000019
   84       -2.674304   0.000001
   85       -2.594213   0.000000
   86       -2.502109   0.000000
   87       -2.353360   0.000000
   88       -2.137542   0.000000
   89       -2.079922   0.000000
   90       -2.016360   0.000000
   91       -1.686736   0.000000
   92       -1.583933   0.000000
   93       -1.472210   0.000000
   94       -1.351527   0.000000
   95       -1.199633   0.000000
   96       -1.129573   0.000000
   97       -1.031937   0.000000
   98       -0.921950   0.000000
   99       -0.854865   0.000000
  100       -0.762680   0.000000
  101       -0.663943   0.000000
  102       -0.600284   0.000000
  103       -0.555154   0.000000
  104       -0.440419   0.000000
  105       -0.331265   0.000000
  106       -0.244772   0.000000
  107       -0.206626   0.000000
  108       -0.039027   0.000000
  109        0.014431   0.000000
  110        0.277442   0.000000
  111        0.356358   0.000000
  112        0.554829   0.000000
  113        0.708652   0.000000
  114        0.792886   0.000000
  115        1.057621   0.000000
  116        1.120569   0.000000
  117        1.290470   0.000000
  118        1.812692   0.000000
  119        1.985340   0.000000
  120        2.302799   0.000000
 
  0.3750000E+00  0.0000000E+00  0.0000000E+00  0.3125000E-01
    1      -17.604058   1.000000
    2      -17.181923   1.000000
    3      -16.763302   1.000000
    4      -16.668744   1.000000
    5      -16.602293   1.000000
    6      -16.454843   1.000000
    7      -16.275718   1.000000
    8      -16.217719   1.000000
    9      -16.126145   1.000000
   10      -16.048230   1.000000
   11      -15.913460   1.000000
   12      -15.815183   1.000000
   13      -15.716826   1.000000
   14      -15.705276   1.000000
   15      -15.608563   1.000000
   16      -15.552460   1.000000
   17      -15.451618   1.000000
   18      -15.263480   1.000000
   19       -9.726222   1.000000
   20       -9.350664   1.000000
   21       -9.235566   1.000000
   22       -9.112113   1.000000
   23       -8.909268   1.000000
   24       -8.777161   1.000000
   25       -8.633077   1.000000
   26       -8.522698   1.000000
   27       -8.472221   1.000000
   28       -8.285296   1.000000
   29       -8.269282   1.000000
   30       -8.174664   1.000000
   31       -8.064729   1.000000
   32       -7.997122   1.000000
   33       -7.902700   1.000000
   34       -7.836340   1.000000
   35       -7.773990   1.000000
   36       -7.641240   1.000000
   37       -7.573455   1.000000
   38       -7.527316   1.000000
   39       -7.457360   1.000000
   40       -7.303819   1.000000
   41       -7.179261   1.000000
   42       -7.119832   1.000000
   43       -7.028707   1.000000
   44       -6.990417   1.000000
   45       -6.886259   1.000000
   46       -6.750971   1.000000
   47       -6.725876   1.000000
   48       -6.633318   1.000000
   49       -6.519691   1.000000
   50       -6.467343   1.000000
   51       -6.383451   1.000000
   52       -6.318409   1.000000
   53       -6.276631   1.000000
   54       -6.171091   1.000000
   55       -6.131335   1.000000
   56       -6.052607   1.000000
   57       -5.985792   1.000000
   58       -5.931295   1.000000
   59       -5.857658   1.000000
   60       -5.775801   1.000000
   61       -5.696645   1.000000
   62       -5.582854   1.000000
   63       -5.532037   1.000000
   64       -5.366153   1.000000
   65       -5.300059   1.000000
   66       -5.121296   1.000000
   67       -4.985415   1.000000
   68       -4.860894   1.000000
   69       -4.754804   1.000000
   70       -4.688593   1.000000
   71       -4.587664   1.000000
   72       -4.466792   1.000000
   73       -4.315948   1.000000
   74       -4.226841   1.000000
   75       -4.104162   1.000000
   76       -4.030219   0.999999
   77       -3.836838   0.999600
   78       -3.754970   0.997229
   79       -3.553063   0.910857
   80       -3.385681   0.564537
   81       -3.082918   0.023943
   82       -2.864740   0.000215
   83       -2.817303   0.000057
   84       -2.667391   0.000000
   85       -2.573262   0.000000
   86       -2.524939   0.000000
   87       -2.324629   0.000000
   88       -2.095205   0.000000
   89       -2.018422   0.000000
   90       -1.939207   0.000000
   91       -1.692801   0.000000
   92       -1.578805   0.000000
   93       -1.416428   0.000000
   94       -1.335828   0.000000
   95       -1.226466   0.000000
   96       -1.182298   0.000000
   97       -1.068083   0.000000
   98       -1.026104   0.000000
   99       -0.909569   0.000000
  100       -0.814879   0.000000
  101       -0.694746   0.000000
  102       -0.635731   0.000000
  103       -0.594317   0.000000
  104       -0.532777   0.000000
  105       -0.416255   0.000000
  106       -0.346802   0.000000
  107       -0.320607   0.000000
  108       -0.137683   0.000000
  109       -0.008826   0.000000
  110        0.204082   0.000000
  111        0.363022   0.000000
  112        0.593391   0.000000
  113        0.729961   0.000000
  114        0.861843   0.000000
  115        1.164483   0.000000
  116        1.221902   0.000000
  117        1.333826   0.000000
  118        1.998602   0.000000
  119        2.158751   0.000000
  120        2.471241   0.000000
 
  0.5000000E+00  0.1110223E-15  0.0000000E+00  0.1562500E-01
    1      -17.513237   1.000000
    2      -17.306349   1.000000
    3      -16.778161   1.000000
    4      -16.654395   1.000000
    5      -16.625319   1.000000
    6      -16.468064   1.000000
    7      -16.258542   1.000000
    8      -16.210828   1.000000
    9      -16.118580   1.000000
   10      -16.038602   1.000000
   11      -15.863032   1.000000
   12      -15.790989   1.000000
   13      -15.733895   1.000000
   14      -15.680756   1.000000
   15      -15.664321   1.000000
   16      -15.532799   1.000000
   17      -15.443229   1.000000
   18      -15.276169   1.000000
   19       -9.802299   1.000000
   20       -9.385885   1.000000
   21       -9.271812   1.000000
   22       -9.060696   1.000000
   23       -8.944638   1.000000
   24       -8.785910   1.000000
   25       -8.631887   1.000000
   26       -8.580276   1.000000
   27       -8.386383   1.000000
   28       -8.330624   1.000000
   29       -8.191867   1.000000
   30       -8.132367   1.000000
   31       -8.050409   1.000000
   32       -8.041886   1.000000
   33       -7.877650   1.000000
   34       -7.849357   1.000000
   35       -7.764966   1.000000
   36       -7.661103   1.000000
   37       -7.651215   1.000000
   38       -7.525702   1.000000
   39       -7.494892   1.000000
   40       -7.300100   1.000000
   41       -7.133335   1.000000
   42       -7.031127   1.000000
   43       -6.952535   1.000000
   44       -6.907271   1.000000
   45       -6.779162   1.000000
   46       -6.669385   1.000000
   47       -6.634085   1.000000
   48       -6.610170   1.000000
   49       -6.576163   1.000000
   50       -6.542164   1.000000
   51       -6.446046   1.000000
   52       -6.360321   1.000000
   53       -6.271034   1.000000
   54       -6.235259   1.000000
   55       -6.169158   1.000000
   56       -5.993320   1.000000
   57       -5.945266   1.000000
   58       -5.887216   1.000000
   59       -5.848179   1.000000
   60       -5.803078   1.000000
   61       -5.649627   1.000000
   62       -5.641638   1.000000
   63       -5.585343   1.000000
   64       -5.491663   1.000000
   65       -5.349559   1.000000
   66       -5.134603   1.000000
   67       -5.056778   1.000000
   68       -4.857645   1.000000
   69       -4.801156   1.000000
   70       -4.625792   1.000000
   71       -4.537550   1.000000
   72       -4.475507   1.000000
   73       -4.405211   1.000000
   74       -4.235283   1.000000
   75       -4.041920   0.999999
   76       -3.990905   0.999996
   77       -3.830295   0.999527
   78       -3.659362   0.982034
   79       -3.596276   0.950693
   80       -3.388288   0.571783
   81       -3.067279   0.018356
   82       -2.868022   0.000234
   83       -2.833820   0.000092
   84       -2.677319   0.000001
   85       -2.566119   0.000000
   86       -2.525084   0.000000
   87       -2.305940   0.000000
   88       -2.055621   0.000000
   89       -2.032108   0.000000
   90       -1.904938   0.000000
   91       -1.686953   0.000000
   92       -1.576132   0.000000
   93       -1.412744   0.000000
   94       -1.290249   0.000000
   95       -1.269157   0.000000
   96       -1.217188   0.000000
   97       -1.091183   0.000000
   98       -1.050665   0.000000
   99       -0.907826   0.000000
  100       -0.851292   0.000000
  101       -0.721241   0.000000
  102       -0.656398   0.000000
  103       -0.596370   0.000000
  104       -0.541465   0.000000
  105       -0.485407   0.000000
  106       -0.396168   0.000000
  107       -0.331330   0.000000
  108       -0.185531   0.000000
  109       -0.018167   0.000000
  110        0.179796   0.000000
  111        0.361480   0.000000
  112        0.607364   0.000000
  113        0.734401   0.000000
  114        0.891241   0.000000
  115        1.185620   0.000000
  116        1.271219   0.000000
  117        1.358671   0.000000
  118        2.219128   0.000000
  119        2.250313   0.000000
  120        2.381916   0.000000
 
  0.0000000E+00  0.1250000E+00  0.0000000E+00  0.3125000E-01
    1      -17.789995   1.000000
    2      -16.790050   1.000000
    3      -16.688926   1.000000
    4      -16.613021   1.000000
    5      -16.560995   1.000000
    6      -16.417823   1.000000
    7      -16.357400   1.000000
    8      -16.286748   1.000000
    9      -16.172173   1.000000
   10      -16.084844   1.000000
   11      -16.003975   1.000000
   12      -15.965611   1.000000
   13      -15.846600   1.000000
   14      -15.705516   1.000000
   15      -15.594068   1.000000
   16      -15.509938   1.000000
   17      -15.437391   1.000000
   18      -15.204239   1.000000
   19       -9.430687   1.000000
   20       -9.125054   1.000000
   21       -9.012256   1.000000
   22       -8.966150   1.000000
   23       -8.766615   1.000000
   24       -8.672964   1.000000
   25       -8.603764   1.000000
   26       -8.551642   1.000000
   27       -8.523295   1.000000
   28       -8.499053   1.000000
   29       -8.401230   1.000000
   30       -8.261438   1.000000
   31       -8.195596   1.000000
   32       -8.090143   1.000000
   33       -7.990552   1.000000
   34       -7.896517   1.000000
   35       -7.847359   1.000000
   36       -7.728205   1.000000
   37       -7.689237   1.000000
   38       -7.566502   1.000000
   39       -7.476462   1.000000
   40       -7.402621   1.000000
   41       -7.347329   1.000000
   42       -7.192525   1.000000
   43       -7.143656   1.000000
   44       -6.981283   1.000000
   45       -6.925205   1.000000
   46       -6.829731   1.000000
   47       -6.740989   1.000000
   48       -6.659437   1.000000
   49       -6.602520   1.000000
   50       -6.512893   1.000000
   51       -6.415836   1.000000
   52       -6.333450   1.000000
   53       -6.268591   1.000000
   54       -6.204696   1.000000
   55       -6.151204   1.000000
   56       -6.093939   1.000000
   57       -5.994045   1.000000
   58       -5.927163   1.000000
   59       -5.749742   1.000000
   60       -5.629677   1.000000
   61       -5.470544   1.000000
   62       -5.382387   1.000000
   63       -5.325696   1.000000
   64       -5.211749   1.000000
   65       -5.131988   1.000000
   66       -5.042901   1.000000
   67       -4.918330   1.000000
   68       -4.884871   1.000000
   69       -4.830395   1.000000
   70       -4.759979   1.000000
   71       -4.587777   1.000000
   72       -4.461336   1.000000
   73       -4.357233   1.000000
   74       -4.342278   1.000000
   75       -4.196715   1.000000
   76       -3.974663   0.999992
   77       -3.824084   0.999448
   78       -3.702652   0.991887
   79       -3.621587   0.966419
   80       -3.502213   0.838053
   81       -3.035410   0.010325
   82       -2.847640   0.000135
   83       -2.755023   0.000009
   84       -2.731593   0.000004
   85       -2.600601   0.000000
   86       -2.443970   0.000000
   87       -2.326300   0.000000
   88       -2.257440   0.000000
   89       -2.143321   0.000000
   90       -2.096352   0.000000
   91       -1.685521   0.000000
   92       -1.605390   0.000000
   93       -1.548165   0.000000
   94       -1.317183   0.000000
   95       -1.214266   0.000000
   96       -1.092353   0.000000
   97       -0.963542   0.000000
   98       -0.849789   0.000000
   99       -0.781919   0.000000
  100       -0.720409   0.000000
  101       -0.599416   0.000000
  102       -0.583352   0.000000
  103       -0.543581   0.000000
  104       -0.355816   0.000000
  105       -0.182333   0.000000
  106       -0.089590   0.000000
  107       -0.032367   0.000000
  108        0.025855   0.000000
  109        0.092158   0.000000
  110        0.229434   0.000000
  111        0.350744   0.000000
  112        0.471067   0.000000
  113        0.583567   0.000000
  114        0.810429   0.000000
  115        0.908525   0.000000
  116        1.064162   0.000000
  117        1.290074   0.000000
  118        1.687818   0.000000
  119        1.877841   0.000000
  120        2.198360   0.000000
 
  0.1250000E+00  0.1250000E+00  0.0000000E+00  0.3125000E-01
    1      -17.741225   1.000000
    2      -16.897604   1.000000
    3      -16.763882   1.000000
    4      -16.675049   1.000000
    5      -16.502670   1.000000
    6      -16.402731   1.000000
    7      -16.372212   1.000000
    8      -16.243614   1.000000
    9      -16.149558   1.000000
   10      -16.101782   1.000000
   11      -16.017794   1.000000
   12      -15.850409   1.000000
   13      -15.787420   1.000000
   14      -15.701022   1.000000
   15      -15.600586   1.000000
   16      -15.514708   1.000000
   17      -15.453633   1.000000
   18      -15.232835   1.000000
   19       -9.484620   1.000000
   20       -9.251029   1.000000
   21       -9.166815   1.000000
   22       -9.044934   1.000000
   23       -8.823771   1.000000
   24       -8.681124   1.000000
   25       -8.590030   1.000000
   26       -8.560120   1.000000
   27       -8.463609   1.000000
   28       -8.423456   1.000000
   29       -8.370868   1.000000
   30       -8.281228   1.000000
   31       -8.113808   1.000000
   32       -8.100533   1.000000
   33       -7.977068   1.000000
   34       -7.836587   1.000000
   35       -7.705764   1.000000
   36       -7.645109   1.000000
   37       -7.593001   1.000000
   38       -7.497413   1.000000
   39       -7.396323   1.000000
   40       -7.359608   1.000000
   41       -7.332293   1.000000
   42       -7.229613   1.000000
   43       -7.133970   1.000000
   44       -7.064499   1.000000
   45       -6.986480   1.000000
   46       -6.899214   1.000000
   47       -6.758036   1.000000
   48       -6.646914   1.000000
   49       -6.595899   1.000000
   50       -6.503813   1.000000
   51       -6.407512   1.000000
   52       -6.337284   1.000000
   53       -6.270880   1.000000
   54       -6.183052   1.000000
   55       -6.121684   1.000000
   56       -6.081531   1.000000
   57       -5.935418   1.000000
   58       -5.867586   1.000000
   59       -5.710405   1.000000
   60       -5.638519   1.000000
   61       -5.557132   1.000000
   62       -5.446367   1.000000
   63       -5.381152   1.000000
   64       -5.304391   1.000000
   65       -5.207353   1.000000
   66       -5.133496   1.000000
   67       -5.067197   1.000000
   68       -4.873847   1.000000
   69       -4.787325   1.000000
   70       -4.701635   1.000000
   71       -4.578887   1.000000
   72       -4.383858   1.000000
   73       -4.265127   1.000000
   74       -4.208810   1.000000
   75       -4.133578   1.000000
   76       -4.043755   0.999999
   77       -3.954957   0.999986
   78       -3.770354   0.998028
   79       -3.578508   0.936493
   80       -3.482219   0.800975
   81       -3.021329   0.007892
   82       -2.877336   0.000300
   83       -2.793876   0.000029
   84       -2.717904   0.000003
   85       -2.584829   0.000000
   86       -2.452491   0.000000
   87       -2.352207   0.000000
   88       -2.192608   0.000000
   89       -2.114218   0.000000
   90       -2.055446   0.000000
   91       -1.681156   0.000000
   92       -1.563922   0.000000
   93       -1.518120   0.000000
   94       -1.319146   0.000000
   95       -1.186030   0.000000
   96       -1.118535   0.000000
   97       -1.007901   0.000000
   98       -0.872128   0.000000
   99       -0.846189   0.000000
  100       -0.734470   0.000000
  101       -0.642363   0.000000
  102       -0.618872   0.000000
  103       -0.577392   0.000000
  104       -0.440271   0.000000
  105       -0.284293   0.000000
  106       -0.193837   0.000000
  107       -0.104065   0.000000
  108       -0.019466   0.000000
  109        0.018626   0.000000
  110        0.190760   0.000000
  111        0.340837   0.000000
  112        0.482382   0.000000
  113        0.662885   0.000000
  114        0.880605   0.000000
  115        0.992749   0.000000
  116        1.127464   0.000000
  117        1.344859   0.000000
  118        1.773392   0.000000
  119        1.948945   0.000000
  120        2.268531   0.000000
 
  0.2500000E+00  0.1250000E+00  0.0000000E+00  0.3125000E-01
    1      -17.647948   1.000000
    2      -17.074163   1.000000
    3      -16.871810   1.000000
    4      -16.655858   1.000000
    5      -16.494935   1.000000
    6      -16.430148   1.000000
    7      -16.315350   1.000000
    8      -16.217156   1.000000
    9      -16.119631   1.000000
   10      -16.080595   1.000000
   11      -15.996057   1.000000
   12      -15.796385   1.000000
   13      -15.737624   1.000000
   14      -15.698279   1.000000
   15      -15.579125   1.000000
   16      -15.538809   1.000000
   17      -15.459043   1.000000
   18      -15.266178   1.000000
   19       -9.638130   1.000000
   20       -9.419807   1.000000
   21       -9.212081   1.000000
   22       -9.124728   1.000000
   23       -8.829994   1.000000
   24       -8.699464   1.000000
   25       -8.595201   1.000000
   26       -8.491930   1.000000
   27       -8.447092   1.000000
   28       -8.364607   1.000000
   29       -8.277578   1.000000
   30       -8.225301   1.000000
   31       -8.123667   1.000000
   32       -8.080854   1.000000
   33       -7.983352   1.000000
   34       -7.882326   1.000000
   35       -7.779131   1.000000
   36       -7.558927   1.000000
   37       -7.477748   1.000000
   38       -7.429366   1.000000
   39       -7.389937   1.000000
   40       -7.327429   1.000000
   41       -7.268482   1.000000
   42       -7.190524   1.000000
   43       -7.083191   1.000000
   44       -6.995570   1.000000
   45       -6.903806   1.000000
   46       -6.854157   1.000000
   47       -6.737447   1.000000