       N       E                     dE             d eps       ncg     rms          rms(c)
DAV:   1     0.112407964879E+04    0.11241E+04   -0.35868E+04  8160   0.577E+02
DAV:   2    -0.507617799274E+01   -0.11292E+04   -0.10888E+04 11120   0.173E+02
DAV:   3    -0.199904866764E+03   -0.19483E+03   -0.18704E+03 10880   0.818E+01
DAV:   4    -0.208990473790E+03   -0.90856E+01   -0.88087E+01 12200   0.260E+01
DAV:   5    -0.209313491445E+03   -0.32302E+00   -0.32211E+00 11480   0.355E+00    0.275E+01
DAV:   6    -0.237228344230E+03   -0.27915E+02   -0.10613E+02 12600   0.605E+01    0.595E+01
DAV:   7    -0.196470770604E+03    0.40758E+02   -0.17621E+02 13280   0.152E+02    0.200E+01
DAV:   8    -0.189425475701E+03    0.70453E+01   -0.17577E+01 12040   0.127E+01    0.125E+01
DAV:   9    -0.188229200339E+03    0.11963E+01   -0.35822E+00 12600   0.614E+00    0.929E+00
DAV:  10    -0.187079331594E+03    0.11499E+01   -0.20081E+00 13400   0.732E+00    0.319E+00
DAV:  11    -0.187029833895E+03    0.49498E-01   -0.72244E-01 13560   0.321E+00    0.343E+00
DAV:  12    -0.187173127347E+03   -0.14329E+00   -0.11480E+00 12680   0.556E+00    0.486E+00
DAV:  13    -0.186927059779E+03    0.24607E+00   -0.49517E-01 13240   0.359E+00    0.215E+00
DAV:  14    -0.186879679285E+03    0.47380E-01   -0.11159E-01 13480   0.163E+00    0.772E-01
DAV:  15    -0.186881576804E+03   -0.18975E-02   -0.41676E-02 12520   0.118E+00    0.117E+00
DAV:  16    -0.186872616432E+03    0.89604E-02   -0.20644E-02 13160   0.810E-01    0.565E-01
DAV:  17    -0.186869277988E+03    0.33384E-02   -0.98793E-03 12680   0.520E-01    0.221E-01
DAV:  18    -0.186869082684E+03    0.19530E-03   -0.20483E-03 12120   0.150E-01    0.153E-01
DAV:  19    -0.186868738674E+03    0.34401E-03   -0.89414E-04 11160   0.103E-01    0.510E-02
DAV:  20    -0.186869504101E+03   -0.76543E-03   -0.74000E-04  9080   0.626E-02    0.540E-02
DAV:  21    -0.186870108439E+03   -0.60434E-03   -0.20920E-04  8080   0.455E-02    0.324E-02
DAV:  22    -0.186871220833E+03   -0.11124E-02   -0.18023E-04  7480   0.420E-02    0.332E-02
DAV:  23    -0.186872446825E+03   -0.12260E-02   -0.13129E-04  7520   0.410E-02    0.120E-02
DAV:  24    -0.186873032254E+03   -0.58543E-03   -0.25121E-05  6800   0.133E-02    0.760E-03
DAV:  25    -0.186873411038E+03   -0.37878E-03   -0.15739E-05  5480   0.118E-02    0.488E-03
DAV:  26    -0.186873629860E+03   -0.21882E-03   -0.83037E-06  6840   0.713E-03    0.209E-03
DAV:  27    -0.186873733586E+03   -0.10373E-03   -0.38304E-06  6880   0.409E-03    0.127E-03
DAV:  28    -0.186873783708E+03   -0.50122E-04   -0.20914E-06  7240   0.300E-03
   1 F= -.18687378E+03 E0= -.18670211E+03  d E =-.186874E+03
       N       E                     dE             d eps       ncg     rms          rms(c)
DAV:   1    -0.187499223802E+03   -0.62549E+00   -0.27028E+02  8160   0.349E+01    0.465E+00
DAV:   2    -0.189500358120E+03   -0.20011E+01   -0.20289E+01 12240   0.156E+01    0.984E+00
DAV:   3    -0.189340581959E+03    0.15978E+00   -0.49345E+00 12440   0.126E+01    0.629E+00
DAV:   4    -0.188767371706E+03    0.57321E+00   -0.56109E-01 11920   0.439E+00    0.201E+00
DAV:   5    -0.188899813111E+03   -0.13244E+00   -0.48351E-01 12160   0.390E+00    0.550E+00
DAV:   6    -0.188742606091E+03    0.15721E+00   -0.78772E-01 12680   0.436E+00    0.229E+00
DAV:   7    -0.188712080728E+03    0.30525E-01   -0.21118E-01 11720   0.214E+00    0.202E+00
DAV:   8    -0.188695595030E+03    0.16486E-01   -0.11981E-01 12880   0.208E+00    0.174E+00
DAV:   9    -0.188670402634E+03    0.25192E-01   -0.48143E-02 12000   0.113E+00    0.506E-01
DAV:  10    -0.188668726971E+03    0.16757E-02   -0.58578E-03 11120   0.273E-01    0.259E-01
DAV:  11    -0.188668175044E+03    0.55193E-03   -0.28820E-03 13160   0.222E-01    0.139E-01
DAV:  12    -0.188668112666E+03    0.62378E-04   -0.10823E-03 11800   0.103E-01    0.104E-01
DAV:  13    -0.188668093343E+03    0.19323E-04   -0.27230E-04  7560   0.677E-02
   2 F= -.18866809E+03 E0= -.18852823E+03  d E =-.179431E+01
       N       E                     dE             d eps       ncg     rms          rms(c)
DAV:   1    -0.190590504390E+03   -0.19224E+01   -0.31015E+01  9200   0.142E+01    0.446E+00
DAV:   2    -0.190573117373E+03    0.17387E-01   -0.28211E+00 11120   0.969E+00    0.741E+00
DAV:   3    -0.190062427835E+03    0.51069E+00   -0.13093E+00 12280   0.867E+00    0.416E+00
DAV:   4    -0.189856198658E+03    0.20623E+00   -0.68901E-01 12760   0.413E+00    0.248E+00
DAV:   5    -0.189792304322E+03    0.63894E-01   -0.31332E-01 11080   0.237E+00    0.202E+00
DAV:   6    -0.189759770980E+03    0.32533E-01   -0.10679E-01 12720   0.195E+00    0.840E-01
DAV:   7    -0.189752326011E+03    0.74450E-02   -0.14938E-02 12520   0.585E-01    0.195E-01
DAV:   8    -0.189752341903E+03   -0.15892E-04   -0.26841E-03 10240   0.157E-01    0.138E-01
DAV:   9    -0.189752560342E+03   -0.21844E-03   -0.10294E-03 10400   0.104E-01    0.128E-01
DAV:  10    -0.189752431040E+03    0.12930E-03   -0.51649E-04  9080   0.825E-02    0.301E-02
DAV:  11    -0.189752447230E+03   -0.16189E-04   -0.98875E-05  7000   0.426E-02
   3 F= -.18975245E+03 E0= -.18963512E+03  d E =-.108435E+01
       N       E                     dE             d eps       ncg     rms          rms(c)
DAV:   1    -0.191296732681E+03   -0.15443E+01   -0.71120E+01  8160   0.193E+01    0.461E+00
DAV:   2    -0.191186409651E+03    0.11032E+00   -0.54085E+00 13400   0.838E+00    0.519E+00
DAV:   3    -0.191236446822E+03   -0.50037E-01   -0.15765E+00 11800   0.922E+00    0.686E+00
DAV:   4    -0.190907471791E+03    0.32898E+00   -0.15625E+00 12600   0.786E+00    0.408E+00
DAV:   5    -0.190896441129E+03    0.11031E-01   -0.86420E-01 11200   0.587E+00    0.360E+00
DAV:   6    -0.190713059640E+03    0.18338E+00   -0.20634E-01 11160   0.298E+00    0.604E-01
DAV:   7    -0.190712024775E+03    0.10349E-02   -0.37518E-02 11360   0.737E-01    0.506E-01
DAV:   8    -0.190710574780E+03    0.14500E-02   -0.11796E-02 11440   0.687E-01    0.516E-01
DAV:   9    -0.190708205226E+03    0.23696E-02   -0.40632E-03 11200   0.472E-01    0.146E-01
DAV:  10    -0.190708440992E+03   -0.23577E-03   -0.10990E-03 10520   0.128E-01    0.919E-02
DAV:  11    -0.190708359117E+03    0.81876E-04   -0.52937E-04  9480   0.812E-02
   4 F= -.19070836E+03 E0= -.19060997E+03  d E =-.955912E+00
       N       E                     dE             d eps       ncg     rms          rms(c)
DAV:   1    -0.192132026381E+03   -0.14236E+01   -0.14772E+02  8160   0.273E+01    0.583E+00
DAV:   2    -0.191961038407E+03    0.17099E+00   -0.96967E+00 12200   0.951E+00    0.554E+00
DAV:   3    -0.192410506139E+03   -0.44947E+00   -0.33129E+00 12240   0.126E+01    0.944E+00
DAV:   4    -0.191539486686E+03    0.87102E+00   -0.21972E+00 12320   0.106E+01    0.302E+00
DAV:   5    -0.191509830627E+03    0.29656E-01   -0.54573E-01 11840   0.486E+00    0.414E+00
DAV:   6    -0.191372967363E+03    0.13686E+00   -0.58747E-01 12200   0.513E+00    0.159E+00
DAV:   7    -0.191348306366E+03    0.24661E-01   -0.69665E-02 11880   0.145E+00    0.677E-01
DAV:   8    -0.191346924078E+03    0.13823E-02   -0.24090E-02 12080   0.109E+00    0.747E-01
DAV:   9    -0.191341466669E+03    0.54574E-02   -0.97547E-03 11400   0.744E-01    0.231E-01
DAV:  10    -0.191341589782E+03   -0.12311E-03   -0.27460E-03 11520   0.225E-01    0.119E-01
DAV:  11    -0.191341448848E+03    0.14093E-03   -0.87078E-04 10720   0.108E-01    0.656E-02
DAV:  12    -0.191341415282E+03    0.33566E-04   -0.13960E-04  7200   0.475E-02
   5 F= -.19134142E+03 E0= -.19124827E+03  d E =-.633056E+00
       N       E                     dE             d eps       ncg     rms          rms(c)
DAV:   1    -0.191388276608E+03   -0.46828E-01   -0.35427E+00  8160   0.400E+00    0.595E-01
DAV:   2    -0.191446771563E+03   -0.58495E-01   -0.22626E-01 12400   0.279E+00    0.229E+00
DAV:   3    -0.191397133948E+03    0.49638E-01   -0.10648E-01 12080   0.224E+00    0.479E-01
DAV:   4    -0.191397449095E+03   -0.31515E-03   -0.13231E-02 11480   0.786E-01    0.537E-01
DAV:   5    -0.191394514074E+03    0.29350E-02   -0.58858E-03 11520   0.548E-01    0.178E-01
DAV:   6    -0.191394631276E+03   -0.11720E-03   -0.20748E-03 11480   0.285E-01    0.227E-01
DAV:   7    -0.191394488594E+03    0.14268E-03   -0.21899E-03 10960   0.351E-01    0.182E-01
DAV:   8    -0.191394092472E+03    0.39612E-03   -0.67207E-04  9000   0.170E-01    0.273E-02
DAV:   9    -0.191394107945E+03   -0.15473E-04   -0.89419E-05  6400   0.360E-02
   6 F= -.19139411E+03 E0= -.19129860E+03  d E =-.526927E-01
       N       E                     dE             d eps       ncg     rms          rms(c)
DAV:   1    -0.191463904890E+03   -0.69812E-01   -0.10291E+01  8160   0.678E+00    0.901E-01
DAV:   2    -0.191564901707E+03   -0.10100E+00   -0.41623E-01 12520   0.314E+00    0.322E+00
DAV:   3    -0.191479222427E+03    0.85679E-01   -0.26976E-01 11960   0.324E+00    0.893E-01
DAV:   4    -0.191478655941E+03    0.56649E-03   -0.35978E-02 11440   0.126E+00    0.904E-01
DAV:   5    -0.191470242745E+03    0.84132E-02   -0.17852E-02 11680   0.980E-01    0.330E-01
DAV:   6    -0.191470077539E+03    0.16521E-03   -0.62233E-03 11440   0.501E-01    0.369E-01
DAV:   7    -0.191469458978E+03    0.61856E-03   -0.54824E-03 11160   0.560E-01    0.268E-01
DAV:   8    -0.191468635518E+03    0.82346E-03   -0.15863E-03 10320   0.269E-01    0.506E-02
DAV:   9    -0.191468612656E+03    0.22862E-04   -0.17363E-04  6720   0.566E-02
   7 F= -.19146861E+03 E0= -.19137122E+03  d E =-.745047E-01
       N       E                     dE             d eps       ncg     rms          rms(c)
DAV:   1    -0.191478952796E+03   -0.10317E-01   -0.22240E-01  8160   0.109E+00    0.252E-01
DAV:   2    -0.191479567427E+03   -0.61463E-03   -0.14932E-02 11480   0.553E-01    0.426E-01
DAV:   3    -0.191478195031E+03    0.13724E-02   -0.67607E-03 11480   0.602E-01    0.255E-01
DAV:   4    -0.191477931561E+03    0.26347E-03   -0.31740E-03 11200   0.364E-01    0.259E-01
DAV:   5    -0.191477457777E+03    0.47378E-03   -0.22636E-03  9720   0.338E-01    0.164E-01
DAV:   6    -0.191477201641E+03    0.25614E-03   -0.85414E-04  9480   0.180E-01    0.816E-02
DAV:   7    -0.191477163724E+03    0.37917E-04   -0.26639E-04  6720   0.116E-01
   8 F= -.19147716E+03 E0= -.19137947E+03  d E =-.855107E-02
       N       E                     dE             d eps       ncg     rms          rms(c)
DAV:   1    -0.191519165585E+03   -0.41964E-01   -0.34721E+00  8160   0.396E+00    0.511E-01
DAV:   2    -0.191555665555E+03   -0.36500E-01   -0.14513E-01 13160   0.205E+00    0.188E+00
DAV:   3    -0.191524355897E+03    0.31310E-01   -0.78723E-02 12040   0.184E+00    0.453E-01
DAV:   4    -0.191524832581E+03   -0.47668E-03   -0.10957E-02 11480   0.700E-01    0.516E-01
DAV:   5    -0.191522209887E+03    0.26227E-02   -0.58305E-03 11560   0.544E-01    0.187E-01
DAV:   6    -0.191522220484E+03   -0.10597E-04   -0.20028E-03 10520   0.297E-01    0.213E-01
DAV:   7    -0.191522035873E+03    0.18461E-03   -0.17968E-03 10200   0.323E-01    0.151E-01
DAV:   8    -0.191521740660E+03    0.29521E-03   -0.51001E-04  8400   0.154E-01    0.270E-02
DAV:   9    -0.191521738085E+03    0.25746E-05   -0.70437E-05  6800   0.355E-02
   9 F= -.19152174E+03 E0= -.19142412E+03  d E =-.445744E-01
       N       E                     dE             d eps       ncg     rms          rms(c)
DAV:   1    -0.191531558082E+03   -0.98174E-02   -0.16689E-01  8160   0.877E-01    0.123E-01
DAV:   2    -0.191533447397E+03   -0.18893E-02   -0.82131E-03 12640   0.500E-01    0.411E-01
DAV:   3    -0.191531781972E+03    0.16654E-02   -0.35252E-03 11560   0.416E-01    0.992E-02
DAV:   4    -0.191531854732E+03   -0.72760E-04   -0.60563E-04  8320   0.170E-01
  10 F= -.19153185E+03 E0= -.19143434E+03  d E =-.101166E-01
       N       E                     dE             d eps       ncg     rms          rms(c)
DAV:   1    -0.191552168132E+03   -0.20386E-01   -0.72934E-01  8160   0.185E+00    0.274E-01
DAV:   2    -0.191561860654E+03   -0.96925E-02   -0.38168E-02 12200   0.106E+00    0.101E+00
DAV:   3    -0.191552994088E+03    0.88666E-02   -0.21398E-02 10840   0.932E-01    0.223E-01
DAV:   4    -0.191553092314E+03   -0.98226E-04   -0.27622E-03 11240   0.349E-01    0.253E-01
DAV:   5    -0.191552459504E+03    0.63281E-03   -0.16382E-03 10480   0.299E-01    0.115E-01
DAV:   6    -0.191552399836E+03    0.59667E-04   -0.68402E-04  9520   0.165E-01
  11 F= -.19155240E+03 E0= -.19145534E+03  d E =-.205451E-01
       N       E                     dE             d eps       ncg     rms          rms(c)
DAV:   1    -0.191586327092E+03   -0.33868E-01   -0.33144E+00  8160   0.388E+00    0.585E-01
DAV:   2    -0.191658943238E+03   -0.72616E-01   -0.21617E-01 11960   0.267E+00    0.299E+00
DAV:   3    -0.191591274274E+03    0.67669E-01   -0.16723E-01 11640   0.240E+00    0.374E-01
DAV:   4    -0.191591807112E+03   -0.53284E-03   -0.86709E-03 11520   0.649E-01    0.484E-01
DAV:   5    -0.191589451869E+03    0.23552E-02   -0.56969E-03 11720   0.604E-01    0.203E-01
DAV:   6    -0.191589272091E+03    0.17978E-03   -0.19261E-03 10400   0.273E-01    0.158E-01
DAV:   7    -0.191589335633E+03   -0.63542E-04   -0.14737E-03 10600   0.302E-01    0.173E-01
DAV:   8    -0.191588931184E+03    0.40445E-03   -0.52902E-04  8520   0.171E-01    0.229E-02
DAV:   9    -0.191588938757E+03   -0.75724E-05   -0.67048E-05  5640   0.309E-02
  12 F= -.19158894E+03 E0= -.19149397E+03  d E =-.365389E-01
       N       E                     dE             d eps       ncg     rms          rms(c)
DAV:   1    -0.191594176647E+03   -0.52455E-02   -0.97300E-01  8160   0.209E+00    0.394E-01
DAV:   2    -0.191629192183E+03   -0.35016E-01   -0.99798E-02 12240   0.211E+00    0.184E+00
DAV:   3    -0.191594989960E+03    0.34202E-01   -0.51467E-02 11600   0.167E+00    0.185E-01
DAV:   4    -0.191595092485E+03   -0.10252E-03   -0.27900E-03 11400   0.334E-01    0.235E-01
DAV:   5    -0.191594604639E+03    0.48785E-03   -0.13705E-03 10560   0.277E-01    0.124E-01
DAV:   6    -0.191594456736E+03    0.14790E-03   -0.47800E-04  8680   0.125E-01    0.782E-02
DAV:   7    -0.191594566677E+03   -0.10994E-03   -0.58689E-04  9720   0.185E-01    0.129E-01
DAV:   8    -0.191594374340E+03    0.19234E-03   -0.30563E-04  7080   0.135E-01    0.204E-02
DAV:   9    -0.191594381847E+03   -0.75071E-05   -0.36673E-05  5680   0.242E-02
  13 F= -.19159438E+03 E0= -.19149927E+03  d E =-.544309E-02
       N       E                     dE             d eps       ncg     rms          rms(c)
DAV:   1    -0.191636132702E+03   -0.41758E-01   -0.31524E+00  8160   0.379E+00    0.409E-01
DAV:   2    -0.191649064784E+03   -0.12932E-01   -0.10040E-01 13080   0.126E+00    0.931E-01
DAV:   3    -0.191642386670E+03    0.66781E-02   -0.29404E-02 12040   0.114E+00    0.465E-01
DAV:   4    -0.191641597243E+03    0.78943E-03   -0.71801E-03 11200   0.575E-01    0.396E-01
DAV:   5    -0.191640013624E+03    0.15836E-02   -0.37501E-03 11240   0.472E-01    0.180E-01
DAV:   6    -0.191640021842E+03   -0.82177E-05   -0.18525E-03 10600   0.263E-01    0.171E-01
DAV:   7    -0.191639994035E+03    0.27807E-04   -0.14906E-03 10240   0.299E-01    0.169E-01
DAV:   8    -0.191639630899E+03    0.36314E-03   -0.51889E-04  8200   0.177E-01    0.219E-02
DAV:   9    -0.191639636262E+03   -0.53629E-05   -0.51903E-05  6360   0.289E-02
  14 F= -.19163964E+03 E0= -.19154753E+03  d E =-.452544E-01
       N       E                     dE             d eps       ncg     rms          rms(c)
DAV:   1    -0.191579681125E+03    0.59950E-01   -0.47602E+00  8160   0.466E+00    0.481E-01
DAV:   2    -0.191592294583E+03   -0.12613E-01   -0.13906E-01 12480   0.122E+00    0.728E-01
DAV:   3    -0.191590337377E+03    0.19572E-02   -0.27091E-02 12080   0.116E+00    0.700E-01
DAV:   4    -0.191587208840E+03    0.31285E-02   -0.13977E-02 12240   0.733E-01    0.429E-01
DAV:   5    -0.191585651621E+03    0.15572E-02   -0.54766E-03 11040   0.530E-01    0.249E-01
DAV:   6    -0.191585449978E+03    0.20164E-03   -0.30098E-03 10880   0.343E-01    0.192E-01
DAV:   7    -0.191585486364E+03   -0.36386E-04   -0.20276E-03 11200   0.334E-01    0.217E-01
DAV:   8    -0.191584930632E+03    0.55573E-03   -0.80956E-04  9160   0.225E-01    0.278E-02
DAV:   9    -0.191584940135E+03   -0.95035E-05   -0.63812E-05  6520   0.330E-02
  15 F= -.19158494E+03 E0= -.19148944E+03  d E =0.546961E-01
       N       E                     dE             d eps       ncg     rms          rms(c)
DAV:   1    -0.191586876538E+03   -0.19459E-02   -0.12452E+00  8160   0.242E+00    0.357E-01
DAV:   2    -0.191604504719E+03   -0.17628E-01   -0.62073E-02 12560   0.141E+00    0.139E+00
DAV:   3    -0.191587835437E+03    0.16669E-01   -0.36070E-02 12120   0.125E+00    0.268E-01
DAV:   4    -0.191588636165E+03   -0.80073E-03   -0.53178E-03 11200   0.484E-01    0.395E-01
DAV:   5    -0.191587126208E+03    0.15100E-02   -0.36925E-03 10480   0.447E-01    0.152E-01
DAV:   6    -0.191586924280E+03    0.20193E-03   -0.98407E-04 10040   0.178E-01    0.831E-02
DAV:   7    -0.191586937937E+03   -0.13656E-04   -0.48880E-04 10160   0.164E-01
  16 F= -.19158694E+03 E0= -.19149222E+03  d E =-.199780E-02
       N       E                     dE             d eps       ncg     rms          rms(c)
DAV:   1    -0.191581814820E+03    0.51095E-02   -0.16379E+00  8160   0.278E+00    0.368E-01
DAV:   2    -0.191590582783E+03   -0.87680E-02   -0.56225E-02 12280   0.117E+00    0.885E-01
DAV:   3    -0.191583807560E+03    0.67752E-02   -0.20531E-02 12440   0.105E+00    0.405E-01
DAV:   4    -0.191583429671E+03    0.37789E-03   -0.56257E-03 10720   0.514E-01    0.364E-01
DAV:   5    -0.191582309251E+03    0.11204E-02   -0.37268E-03 10520   0.469E-01    0.207E-01
DAV:   6    -0.191582074404E+03    0.23485E-03   -0.17550E-03 10680   0.282E-01    0.154E-01
DAV:   7    -0.191582015749E+03    0.58656E-04   -0.11554E-03 10320   0.257E-01    0.141E-01
DAV:   8    -0.191581777205E+03    0.23854E-03   -0.39096E-04  8520   0.141E-01    0.223E-02
DAV:   9    -0.191581777886E+03   -0.68141E-06   -0.38726E-05  6000   0.256E-02
  17 F= -.19158178E+03 E0= -.19148848E+03  d E =0.516005E-02
       N       E                     dE             d eps       ncg     rms          rms(c)
DAV:   1    -0.191614137935E+03   -0.32361E-01   -0.36415E+00  8160   0.410E+00    0.476E-01
DAV:   2    -0.191629449566E+03   -0.15312E-01   -0.12127E-01 13240   0.142E+00    0.103E+00
DAV:   3    -0.191621096774E+03    0.83528E-02   -0.34955E-02 12080   0.129E+00    0.547E-01
DAV:   4    -0.191620173797E+03    0.92298E-03   -0.11178E-02 12320   0.707E-01    0.501E-01
DAV:   5    -0.191617757988E+03    0.24158E-02   -0.62442E-03 11600   0.583E-01    0.226E-01
DAV:   6    -0.191617526906E+03    0.23108E-03   -0.26357E-03 10320   0.305E-01    0.180E-01
DAV:   7    -0.191617627263E+03   -0.10036E-03   -0.19467E-03 10720   0.344E-01    0.210E-01
DAV:   8    -0.191617084455E+03    0.54281E-03   -0.77721E-04  9200   0.222E-01    0.287E-02
DAV:   9    -0.191617083753E+03    0.70237E-06   -0.62031E-05  6280   0.330E-02
  18 F= -.19161708E+03 E0= -.19152434E+03  d E =-.353059E-01
       N       E                     dE             d eps       ncg     rms          rms(c)
DAV:   1    -0.191652132446E+03   -0.35048E-01   -0.31135E+00  8160   0.377E+00    0.428E-01
DAV:   2    -0.191668222043E+03   -0.16090E-01   -0.10757E-01 13000   0.138E+00    0.115E+00
DAV:   3    -0.191658071299E+03    0.10151E-01   -0.35737E-02 12040   0.124E+00    0.451E-01
DAV:   4    -0.191657554273E+03    0.51703E-03   -0.74494E-03 11280   0.590E-01    0.414E-01
DAV:   5    -0.191655754882E+03    0.17994E-02   -0.40961E-03 10800   0.496E-01    0.181E-01
DAV:   6    -0.191655798896E+03   -0.44014E-04   -0.19731E-03 11440   0.278E-01    0.181E-01
DAV:   7    -0.191655673375E+03    0.12552E-03   -0.14375E-03 10360   0.302E-01    0.155E-01
DAV:   8    -0.191655356529E+03    0.31685E-03   -0.45822E-04  8840   0.168E-01    0.234E-02
DAV:   9    -0.191655354968E+03    0.15613E-05   -0.50578E-05  6400   0.293E-02
  19 F= -.19165535E+03 E0= -.19156504E+03  d E =-.382712E-01
       N       E                     dE             d eps       ncg     rms          rms(c)
DAV:   1    -0.191658843993E+03   -0.34875E-02   -0.31197E-02  8160   0.383E-01    0.541E-02
DAV:   2    -0.191659155313E+03   -0.31132E-03   -0.15765E-03 12400   0.197E-01    0.172E-01
DAV:   3    -0.191658884966E+03    0.27035E-03   -0.58815E-04  8240   0.169E-01    0.448E-02
DAV:   4    -0.191658892986E+03   -0.80203E-05   -0.89484E-05  5520   0.692E-02
  20 F= -.19165889E+03 E0= -.19156892E+03  d E =-.353802E-02
       N       E                     dE             d eps       ncg     rms          rms(c)
DAV:   1    -0.191664455778E+03   -0.55708E-02   -0.50735E-01  8160   0.158E+00    0.302E-01
DAV:   2    -0.191672400315E+03   -0.79445E-02   -0.32630E-02 11960   0.117E+00    0.890E-01
DAV:   3    -0.191663390550E+03    0.90098E-02   -0.14401E-02 12080   0.952E-01    0.177E-01
DAV:   4    -0.191663863505E+03   -0.47296E-03   -0.28181E-03 10920   0.381E-01    0.293E-01
DAV:   5    -0.191663260610E+03    0.60289E-03   -0.26467E-03 10200   0.396E-01    0.207E-01
DAV:   6    -0.191662937407E+03    0.32320E-03   -0.13533E-03  9520   0.242E-01    0.126E-01
DAV:   7    -0.191662822673E+03    0.11473E-03   -0.51902E-04  8400   0.169E-01    0.650E-02
DAV:   8    -0.191662776017E+03    0.46657E-04   -0.91267E-05  6760   0.662E-02
  21 F= -.19166278E+03 E0= -.19157288E+03  d E =-.388303E-02
       N       E                     dE             d eps       ncg     rms          rms(c)
DAV:   1    -0.191668741473E+03   -0.59188E-02   -0.32983E-01  8160   0.125E+00    0.185E-01
DAV:   2    -0.191673112175E+03   -0.43707E-02   -0.16396E-02 12240   0.752E-01    0.650E-01
DAV:   3    -0.191668947492E+03    0.41647E-02   -0.77440E-03 11720   0.645E-01    0.129E-01
DAV:   4    -0.191669272746E+03   -0.32525E-03   -0.13883E-03  9960   0.257E-01    0.220E-01
DAV:   5    -0.191668796006E+03    0.47674E-03   -0.10094E-03  9240   0.234E-01    0.691E-02
DAV:   6    -0.191668793901E+03    0.21051E-05   -0.24545E-04  6760   0.101E-01
  22 F= -.19166879E+03 E0= -.19157960E+03  d E =-.601788E-02
       N       E                     dE             d eps       ncg     rms          rms(c)
DAV:   1    -0.191700066308E+03   -0.31270E-01   -0.22446E+00  8160   0.328E+00    0.433E-01
DAV:   2    -0.191710535642E+03   -0.10469E-01   -0.85097E-02 12800   0.133E+00    0.873E-01
DAV:   3    -0.191703302793E+03    0.72328E-02   -0.20967E-02 11880   0.118E+00    0.405E-01
DAV:   4    -0.191702703991E+03    0.59880E-03   -0.65823E-03 11440   0.575E-01    0.392E-01
DAV:   5    -0.191701535416E+03    0.11686E-02   -0.47095E-03 10360   0.499E-01    0.265E-01
DAV:   6    -0.191701138632E+03    0.39678E-03   -0.29247E-03 11240   0.340E-01    0.188E-01
DAV:   7    -0.191701099885E+03    0.38747E-04   -0.17755E-03  9840   0.318E-01    0.182E-01
DAV:   8    -0.191700687463E+03    0.41242E-03   -0.62742E-04  9400   0.183E-01    0.270E-02
DAV:   9    -0.191700681830E+03    0.56326E-05   -0.51169E-05  6240   0.284E-02
  23 F= -.19170068E+03 E0= -.19161338E+03  d E =-.318879E-01
       N       E                     dE             d eps       ncg     rms          rms(c)
DAV:   1    -0.191726738589E+03   -0.26051E-01   -0.14422E+00  8160   0.255E+00    0.254E-01
DAV:   2    -0.191731133534E+03   -0.43949E-02   -0.42936E-02 11800   0.720E-01    0.461E-01
DAV:   3    -0.191729958115E+03    0.11754E-02   -0.85611E-03 12520   0.667E-01    0.323E-01
DAV:   4    -0.191729087403E+03    0.87071E-03   -0.21377E-03 10200   0.314E-01    0.171E-01
DAV:   5    -0.191728978053E+03    0.10935E-03   -0.12454E-03 10200   0.280E-01    0.153E-01
DAV:   6    -0.191728847318E+03    0.13073E-03   -0.80734E-04 10280   0.184E-01    0.757E-02
DAV:   7    -0.191728758056E+03    0.89262E-04   -0.26472E-04  7320   0.955E-02
  24 F= -.19172876E+03 E0= -.19164394E+03  d E =-.280762E-01
       N       E                     dE             d eps       ncg     rms          rms(c)
DAV:   1    -0.191756634589E+03   -0.27787E-01   -0.11795E+00  8160   0.234E+00    0.262E-01
DAV:   2    -0.191760463657E+03   -0.38291E-02   -0.37941E-02 12080   0.710E-01    0.469E-01
DAV:   3    -0.191758923250E+03    0.15404E-02   -0.83210E-03 12360   0.667E-01    0.307E-01
DAV:   4    -0.191758308841E+03    0.61441E-03   -0.26883E-03 11320   0.350E-01    0.191E-01
DAV:   5    -0.191758098253E+03    0.21059E-03   -0.14435E-03  9880   0.292E-01    0.166E-01
DAV:   6    -0.191757912676E+03    0.18558E-03   -0.82400E-04 10880   0.214E-01    0.890E-02
DAV:   7    -0.191757884277E+03    0.28399E-04   -0.37199E-04  8520   0.145E-01
  25 F= -.19175788E+03 E0= -.19167560E+03  d E =-.291262E-01
       N       E                     dE             d eps       ncg     rms          rms(c)
DAV:   1    -0.191739747517E+03    0.18165E-01   -0.80589E-01  8160   0.195E+00    0.283E-01
DAV:   2    -0.191749711664E+03   -0.99641E-02   -0.35328E-02 12120   0.108E+00    0.103E+00
DAV:   3    -0.191740244114E+03    0.94675E-02   -0.20044E-02 12000   0.976E-01    0.207E-01
DAV:   4    -0.191740528092E+03   -0.28398E-03   -0.24971E-03 10880   0.344E-01    0.262E-01
DAV:   5    -0.191739847788E+03    0.68030E-03   -0.17759E-03 10440   0.340E-01    0.129E-01
DAV:   6    -0.191739701976E+03    0.14581E-03   -0.58793E-04  9480   0.160E-01    0.690E-02
DAV:   7    -0.191739711166E+03   -0.91895E-05   -0.28054E-04  9560   0.137E-01
  26 F= -.19173971E+03 E0= -.19165644E+03  d E =0.181731E-01
       N       E                     dE             d eps       ncg     rms          rms(c)
DAV:   1    -0.191725336351E+03    0.14366E-01   -0.14282E+01  8160   0.832E+00    0.115E+00
DAV:   2    -0.191874972058E+03   -0.14964E+00   -0.52407E-01 12080   0.397E+00    0.442E+00
DAV:   3    -0.191741283760E+03    0.13369E+00   -0.38513E-01 11800   0.402E+00    0.100E+00
DAV:   4    -0.191741686289E+03   -0.40253E-03   -0.45121E-02 11760   0.148E+00    0.107E+00
DAV:   5    -0.191729712486E+03    0.11974E-01   -0.28683E-02 11040   0.143E+00    0.580E-01
DAV:   6    -0.191726543938E+03    0.31685E-02   -0.10826E-02 12440   0.717E-01    0.313E-01
DAV:   7    -0.191726513930E+03    0.30008E-04   -0.50903E-03 10680   0.581E-01    0.342E-01
DAV:   8    -0.191724990650E+03    0.15233E-02   -0.16700E-03 11200   0.371E-01    0.472E-02
DAV:   9    -0.191724992849E+03   -0.21988E-05   -0.17722E-04  6480   0.630E-02
  27 F= -.19172499E+03 E0= -.19164515E+03  d E =0.147183E-01
       N       E                     dE             d eps       ncg     rms          rms(c)
DAV:   1    -0.191735186765E+03   -0.10196E-01   -0.62732E-01  8160   0.175E+00    0.225E-01
DAV:   2    -0.191736591008E+03   -0.14042E-02   -0.17156E-02 12560   0.525E-01    0.362E-01
DAV:   3    -0.191735676659E+03    0.91435E-03   -0.44519E-03 12400   0.534E-01    0.238E-01
DAV:   4    -0.191735400833E+03    0.27583E-03   -0.15841E-03 10080   0.301E-01    0.192E-01
DAV:   5    -0.191735179037E+03    0.22180E-03   -0.13473E-03 10200   0.287E-01    0.166E-01
DAV:   6    -0.191734963123E+03    0.21591E-03   -0.68461E-04  9480   0.202E-01    0.776E-02
DAV:   7    -0.191734940205E+03    0.22918E-04   -0.24548E-04  7880   0.126E-01
  28 F= -.19173494E+03 E0= -.19165667E+03  d E =-.994736E-02
       N       E                     dE             d eps       ncg     rms          rms(c)
DAV:   1    -0.191753136133E+03   -0.18173E-01   -0.98771E-01  8160   0.212E+00    0.214E-01
DAV:   2    -0.191756119033E+03   -0.29829E-02   -0.28919E-02 12200   0.594E-01    0.396E-01
DAV:   3    -0.191755256740E+03    0.86229E-03   -0.55147E-03 12080   0.557E-01    0.269E-01
DAV:   4    -0.191754534640E+03    0.72210E-03   -0.11687E-03  9560   0.236E-01    0.922E-02
DAV:   5    -0.191754570759E+03   -0.36119E-04   -0.55433E-04 10080   0.173E-01
  29 F= -.19175457E+03 E0= -.19167708E+03  d E =-.196306E-01
       N       E                     dE             d eps       ncg     rms          rms(c)
DAV:   1    -0.191735169177E+03    0.19365E-01   -0.13289E+00  8160   0.248E+00    0.268E-01
DAV:   2    -0.191739582051E+03   -0.44129E-02   -0.39958E-02 11840   0.743E-01    0.523E-01
DAV:   3    -0.191737560605E+03    0.20214E-02   -0.84424E-03 12200   0.707E-01    0.317E-01
DAV:   4    -0.191736614279E+03    0.94633E-03   -0.22992E-03 11000   0.310E-01    0.125E-01
DAV:   5    -0.191736478766E+03    0.13551E-03   -0.84393E-04 10240   0.180E-01    0.119E-01
DAV:   6    -0.191736515082E+03   -0.36316E-04   -0.75046E-04 10760   0.236E-01
  30 F= -.19173652E+03 E0= -.19165904E+03  d E =0.180557E-01
       N       E                     dE             d eps       ncg     rms          rms(c)
DAV:   1    -0.191715807653E+03    0.20671E-01   -0.20216E+00  8160   0.305E+00    0.360E-01
DAV:   2    -0.191725029628E+03   -0.92220E-02   -0.67021E-02 12560   0.114E+00    0.779E-01
DAV:   3    -0.191719117015E+03    0.59126E-02   -0.15069E-02 12320   0.988E-01    0.331E-01
DAV:   4    -0.191719200906E+03   -0.83890E-04   -0.40509E-03 11640   0.503E-01    0.358E-01
DAV:   5    -0.191717866461E+03    0.13344E-02   -0.22469E-03 11160   0.430E-01    0.135E-01
DAV:   6    -0.191718002049E+03   -0.13559E-03   -0.10846E-03 10480   0.228E-01    0.150E-01
DAV:   7    -0.191717832083E+03    0.16997E-03   -0.75293E-04  9720   0.235E-01    0.109E-01
DAV:   8    -0.191717681119E+03    0.15096E-03   -0.21907E-04  7480   0.116E-01    0.155E-02
DAV:   9    -0.191717686214E+03   -0.50953E-05   -0.34503E-05  6720   0.209E-02
  31 F= -.19171769E+03 E0= -.19163982E+03  d E =0.188289E-01
       N       E                     dE             d eps       ncg     rms          rms(c)
DAV:   1    -0.191761880011E+03   -0.44199E-01   -0.93211E+00  8160   0.653E+00    0.700E-01
DAV:   2    -0.191786835839E+03   -0.24956E-01   -0.27146E-01 12240   0.187E+00    0.117E+00
DAV:   3    -0.191779795953E+03    0.70399E-02   -0.50812E-02 11720   0.173E+00    0.817E-01
DAV:   4    -0.191774472144E+03    0.53238E-02   -0.14768E-02 12360   0.972E-01    0.558E-01
DAV:   5    -0.191771679676E+03    0.27925E-02   -0.85409E-03 12120   0.804E-01    0.346E-01
DAV:   6    -0.191771156997E+03    0.52268E-03   -0.53374E-03 11480   0.490E-01    0.235E-01
DAV:   7    -0.191770674620E+03    0.48238E-03   -0.22287E-03 11880   0.373E-01    0.196E-01
DAV:   8    -0.191770222883E+03    0.45174E-03   -0.83047E-04 10240   0.239E-01    0.484E-02
DAV:   9    -0.191770191011E+03    0.31871E-04   -0.92312E-05  6360   0.515E-02
  32 F= -.19177019E+03 E0= -.19169409E+03  d E =-.525048E-01
       N       E                     dE             d eps       ncg     rms          rms(c)
DAV:   1    -0.191802400821E+03   -0.32178E-01   -0.32844E+00  8160   0.386E+00    0.418E-01
DAV:   2    -0.191815405320E+03   -0.13004E-01   -0.10325E-01 12480   0.138E+00    0.887E-01
DAV:   3    -0.191808187368E+03    0.72180E-02   -0.21020E-02 12400   0.117E+00    0.368E-01
DAV:   4    -0.191807635391E+03    0.55198E-03   -0.41628E-03 11520   0.512E-01    0.352E-01
DAV:   5    -0.191806572987E+03    0.10624E-02   -0.26035E-03 11200   0.479E-01    0.188E-01
DAV:   6    -0.191806692338E+03   -0.11935E-03   -0.15913E-03 11440   0.297E-01    0.199E-01
DAV:   7    -0.191806253889E+03    0.43845E-03   -0.86936E-04 10480   0.257E-01    0.607E-02
DAV:   8    -0.191806200712E+03    0.53177E-04   -0.90454E-05  6080   0.638E-02
  33 F= -.19180620E+03 E0= -.19173099E+03  d E =-.360097E-01
       N       E                     dE             d eps       ncg     rms          rms(c)
DAV:   1    -0.191830615292E+03   -0.24361E-01   -0.16641E+00  8160   0.275E+00    0.284E-01
DAV:   2    -0.191834657796E+03   -0.40425E-02   -0.48055E-02 11840   0.755E-01    0.389E-01
DAV:   3    -0.191834221039E+03    0.43676E-03   -0.74064E-03 12480   0.701E-01    0.348E-01
DAV:   4    -0.191833021402E+03    0.11996E-02   -0.25801E-03 11120   0.398E-01    0.171E-01
DAV:   5    -0.191832995545E+03    0.25857E-04   -0.11712E-03  9920   0.306E-01    0.180E-01
DAV:   6    -0.191832822332E+03    0.17321E-03   -0.90846E-04  9720   0.241E-01    0.110E-01
DAV:   7    -0.191832724113E+03    0.98219E-04   -0.44080E-04  9160   0.170E-01
  34 F= -.19183272E+03 E0= -.19175834E+03  d E =-.265234E-01
       N       E                     dE             d eps       ncg     rms          rms(c)
DAV:   1    -0.191870360366E+03   -0.37538E-01   -0.52956E+00  8160   0.490E+00    0.492E-01
DAV:   2    -0.191883132648E+03   -0.12772E-01   -0.15483E-01 11560   0.129E+00    0.616E-01
DAV:   3    -0.191883202056E+03   -0.69408E-04   -0.22100E-02 12440   0.121E+00    0.641E-01
DAV:   4    -0.191878822921E+03    0.43791E-02   -0.81650E-03 12040   0.723E-01    0.262E-01
DAV:   5    -0.191878831261E+03   -0.83400E-05   -0.32197E-03 11520   0.488E-01    0.299E-01
DAV:   6    -0.191878408793E+03    0.42247E-03   -0.25810E-03 11680   0.428E-01    0.194E-01
DAV:   7    -0.191878043281E+03    0.36551E-03   -0.12884E-03 10120   0.281E-01    0.131E-01
DAV:   8    -0.191877841770E+03    0.20151E-03   -0.31196E-04  9040   0.151E-01    0.297E-02
DAV:   9    -0.191877835945E+03    0.58250E-05   -0.52080E-05  6400   0.355E-02
  35 F= -.19187784E+03 E0= -.19180359E+03  d E =-.451118E-01
       N       E                     dE             d eps       ncg     rms          rms(c)
DAV:   1    -0.191892827061E+03   -0.14985E-01   -0.69396E-01  8160   0.180E+00    0.218E-01
DAV:   2    -0.191894903826E+03   -0.20768E-02   -0.23829E-02 12200   0.603E-01    0.339E-01
DAV:   3    -0.191894037259E+03    0.86657E-03   -0.43113E-03 12360   0.546E-01    0.218E-01
DAV:   4    -0.191893567498E+03    0.46976E-03   -0.14669E-03  9880   0.286E-01    0.134E-01
DAV:   5    -0.191893514876E+03    0.52622E-04   -0.87280E-04 10400   0.244E-01
  36 F= -.19189351E+03 E0= -.19181885E+03  d E =-.156789E-01
       N       E                     dE             d eps       ncg     rms          rms(c)
DAV:   1    -0.191912288117E+03   -0.18721E-01   -0.12176E+00  8160   0.237E+00    0.286E-01
DAV:   2    -0.191916836807E+03   -0.45487E-02   -0.41001E-02 12040   0.859E-01    0.522E-01
DAV:   3    -0.191914357468E+03    0.24793E-02   -0.75755E-03 12120   0.764E-01    0.253E-01
DAV:   4    -0.191913586736E+03    0.77073E-03   -0.14042E-03 11440   0.292E-01    0.131E-01
DAV:   5    -0.191913704308E+03   -0.11757E-03   -0.10216E-03 10640   0.290E-01    0.168E-01
DAV:   6    -0.191913408770E+03    0.29554E-03   -0.71969E-04 10000   0.204E-01    0.622E-02
DAV:   7    -0.191913383410E+03    0.25360E-04   -0.13620E-04  6520   0.100E-01
  37 F= -.19191338E+03 E0= -.19183824E+03  d E =-.198685E-01
       N       E                     dE             d eps       ncg     rms          rms(c)
DAV:   1    -0.191923844346E+03   -0.10436E-01   -0.43682E-01  8160   0.143E+00    0.199E-01
DAV:   2    -0.191925017830E+03   -0.11735E-02   -0.16973E-02 11360   0.514E-01    0.286E-01
DAV:   3    -0.191924608749E+03    0.40908E-03   -0.30558E-03 11880   0.474E-01    0.229E-01
DAV:   4    -0.191924095945E+03    0.51280E-03   -0.12158E-03 10040   0.293E-01    0.129E-01
DAV:   5    -0.191924081512E+03    0.14433E-04   -0.63734E-04  9640   0.227E-01
  38 F= -.19192408E+03 E0= -.19184940E+03  d E =-.106981E-01
       N       E                     dE             d eps       ncg     rms          rms(c)
DAV:   1    -0.191940690351E+03   -0.16594E-01   -0.12224E+00  8160   0.237E+00    0.264E-01
DAV:   2    -0.191945585458E+03   -0.48951E-02   -0.41654E-02 12520   0.843E-01    0.500E-01
DAV:   3    -0.191943292336E+03    0.22931E-02   -0.77320E-03 12160   0.735E-01    0.241E-01
DAV:   4    -0.191942685759E+03    0.60658E-03   -0.15018E-03 10040   0.277E-01    0.128E-01
DAV:   5    -0.191942732437E+03   -0.46678E-04   -0.86977E-04 10680   0.263E-01
  39 F= -.19194273E+03 E0= -.19186757E+03  d E =-.186509E-01
       N       E                     dE             d eps       ncg     rms          rms(c)
DAV:   1    -0.191945402534E+03   -0.27168E-02   -0.29411E-02  9280   0.424E-01    0.108E-01
DAV:   2    -0.191947146072E+03   -0.17435E-02   -0.32480E-03 12080   0.488E-01    0.398E-01
DAV:   3    -0.191945303148E+03    0.18429E-02   -0.17593E-03 10160   0.425E-01    0.587E-02
DAV:   4    -0.191945286314E+03    0.16834E-04   -0.15181E-04  5720   0.736E-02
  40 F= -.19194529E+03 E0= -.19186999E+03  d E =-.255388E-02
       N       E                     dE             d eps       ncg     rms          rms(c)
DAV:   1    -0.191964181789E+03   -0.18879E-01   -0.20847E+00  8160   0.307E+00    0.321E-01
DAV:   2    -0.191969845088E+03   -0.56633E-02   -0.61174E-02 12200   0.904E-01    0.460E-01
DAV:   3    -0.191968786240E+03    0.10588E-02   -0.83658E-03 12280   0.810E-01    0.372E-01
DAV:   4    -0.191967366965E+03    0.14193E-02   -0.25407E-03 12280   0.428E-01    0.161E-01
DAV:   5    -0.191967278353E+03    0.88612E-04   -0.13571E-03 10480   0.286E-01    0.167E-01
DAV:   6    -0.191967247911E+03    0.30441E-04   -0.11984E-03 11240   0.276E-01    0.137E-01
DAV:   7    -0.191967037676E+03    0.21023E-03   -0.61672E-04  8360   0.178E-01    0.781E-02
DAV:   8    -0.191966978644E+03    0.59032E-04   -0.13349E-04  6640   0.101E-01
  41 F= -.19196698E+03 E0= -.19189120E+03  d E =-.216923E-01
       N       E                     dE             d eps       ncg     rms          rms(c)
DAV:   1    -0.191974444407E+03   -0.74067E-02   -0.21942E-01  8160   0.107E+00    0.223E-01
DAV:   2    -0.191975344143E+03   -0.89974E-03   -0.13367E-02 11000   0.565E-01    0.394E-01
DAV:   3    -0.191974047481E+03    0.12967E-02   -0.44957E-03 11760   0.568E-01    0.209E-01
DAV:   4    -0.191973696895E+03    0.35059E-03   -0.16901E-03 10120   0.315E-01    0.169E-01
DAV:   5    -0.191973494621E+03    0.20227E-03   -0.98204E-04 10320   0.280E-01    0.129E-01
DAV:   6    -0.191973270308E+03    0.22431E-03   -0.43664E-04  9200   0.157E-01    0.339E-02
DAV:   7    -0.191973262534E+03    0.77741E-05   -0.89303E-05  6440   0.605E-02
  42 F= -.19197326E+03 E0= -.19189696E+03  d E =-.628389E-02
       N       E                     dE             d eps       ncg     rms          rms(c)
DAV:   1    -0.191985185469E+03   -0.11915E-01   -0.80511E-01  8160   0.191E+00    0.217E-01
DAV:   2    -0.191987823347E+03   -0.26379E-02   -0.26960E-02 11080   0.602E-01    0.334E-01
DAV:   3    -0.191987092079E+03    0.73127E-03   -0.45559E-03 12440   0.579E-01    0.250E-01
DAV:   4    -0.191986408567E+03    0.68351E-03   -0.13720E-03 10200   0.290E-01    0.902E-02
DAV:   5    -0.191986344522E+03    0.64045E-04   -0.50065E-04 10120   0.123E-01
  43 F= -.19198634E+03 E0= -.19191006E+03  d E =-.130820E-01
       N       E                     dE             d eps       ncg     rms          rms(c)
DAV:   1    -0.191999242502E+03   -0.12834E-01   -0.10896E+00  8160   0.224E+00    0.254E-01
DAV:   2    -0.192002885468E+03   -0.36430E-02   -0.34902E-02 12360   0.678E-01    0.405E-01
DAV:   3    -0.192001608633E+03    0.12768E-02   -0.58561E-03 12240   0.665E-01    0.266E-01
DAV:   4    -0.192000879797E+03    0.72884E-03   -0.15148E-03 10280   0.298E-01    0.120E-01
DAV:   5    -0.192000872320E+03    0.74776E-05   -0.77011E-04 10400   0.226E-01
  44 F= -.19200087E+03 E0= -.19192443E+03  d E =-.145278E-01
       N       E                     dE             d eps       ncg     rms          rms(c)
DAV:   1    -0.192017550722E+03   -0.16671E-01   -0.22854E+00  8160   0.325E+00    0.367E-01
DAV:   2    -0.192025080704E+03   -0.75300E-02   -0.73000E-02 12320   0.106E+00    0.614E-01
DAV:   3    -0.192022188509E+03    0.28922E-02   -0.13050E-02 12240   0.974E-01    0.363E-01
DAV:   4    -0.192020616293E+03    0.15722E-02   -0.28082E-03 11600   0.396E-01    0.146E-01
DAV:   5    -0.192020832119E+03   -0.21583E-03   -0.18515E-03 10840   0.332E-01    0.210E-01
DAV:   6    -0.192020530891E+03    0.30123E-03   -0.12130E-03 10520   0.303E-01    0.119E-01
DAV:   7    -0.192020350393E+03    0.18050E-03   -0.36126E-04  8720   0.158E-01    0.708E-02
DAV:   8    -0.192020300589E+03    0.49804E-04   -0.10398E-04  6760   0.851E-02
  45 F= -.19202030E+03 E0= -.19194344E+03  d E =-.194283E-01
       N       E                     dE             d eps       ncg     rms          rms(c)
DAV:   1    -0.192039258183E+03   -0.18908E-01   -0.36725E+00  8160   0.411E+00    0.457E-01
DAV:   2    -0.192049495422E+03   -0.10237E-01   -0.11973E-01 12200   0.120E+00    0.598E-01
DAV:   3    -0.192048301950E+03    0.11935E-02   -0.18165E-02 12280   0.114E+00    0.544E-01
DAV:   4    -0.192045072087E+03    0.32299E-02   -0.57718E-03 12440   0.626E-01    0.208E-01
DAV:   5    -0.192044709770E+03    0.36232E-03   -0.28568E-03 11560   0.353E-01    0.194E-01
DAV:   6    -0.192044787028E+03   -0.77258E-04   -0.18141E-03 12880   0.370E-01    0.183E-01
DAV:   7    -0.192044291660E+03    0.49537E-03   -0.66087E-04 10120   0.201E-01    0.444E-02
DAV:   8    -0.192044293048E+03   -0.13874E-05   -0.10305E-04  6400   0.779E-02
  46 F= -.19204429E+03 E0= -.19196739E+03  d E =-.239925E-01
       N       E                     dE             d eps       ncg     rms          rms(c)
DAV:   1    -0.192058898854E+03   -0.14607E-01   -0.16886E+00  8160   0.281E+00    0.327E-01
DAV:   2    -0.192062608411E+03   -0.37096E-02   -0.52311E-02 11120   0.755E-01    0.364E-01
DAV:   3    -0.192062953698E+03   -0.34529E-03   -0.74310E-03 12520   0.773E-01    0.420E-01
DAV:   4    -0.192061049767E+03    0.19039E-02   -0.25850E-03 11560   0.481E-01    0.158E-01
DAV:   5    -0.192061024231E+03    0.25536E-04   -0.13403E-03 10080   0.300E-01    0.171E-01
DAV:   6    -0.192060931435E+03    0.92796E-04   -0.11683E-03 10800   0.271E-01    0.121E-01
DAV:   7    -0.192060740089E+03    0.19135E-03   -0.52337E-04  8560   0.159E-01    0.671E-02
DAV:   8    -0.192060695778E+03    0.44311E-04   -0.90037E-05  6520   0.843E-02
  47 F= -.19206070E+03 E0= -.19198405E+03  d E =-.164027E-01
       N       E                     dE             d eps       ncg     rms          rms(c)
DAV:   1    -0.192043963078E+03    0.16777E-01   -0.14668E+00  8160   0.261E+00    0.310E-01
DAV:   2    -0.192048664072E+03   -0.47010E-02   -0.47732E-02 11440   0.822E-01    0.500E-01
DAV:   3    -0.192047109447E+03    0.15546E-02   -0.80470E-03 12160   0.792E-01    0.344E-01
DAV:   4    -0.192045866886E+03    0.12426E-02   -0.20896E-03 11480   0.370E-01    0.141E-01
DAV:   5    -0.192045776521E+03    0.90365E-04   -0.98697E-04 10680   0.225E-01
  48 F= -.19204578E+03 E0= -.19196882E+03  d E =0.149193E-01
       N       E                     dE             d eps       ncg     rms          rms(c)
DAV:   1    -0.192044755736E+03    0.11111E-02   -0.90751E-02  8160   0.701E-01    0.137E-01
DAV:   2    -0.192046920443E+03   -0.21647E-02   -0.69774E-03 12760   0.546E-01    0.415E-01
DAV:   3    -0.192044756024E+03    0.21644E-02   -0.34527E-03 11480   0.514E-01    0.992E-02
DAV:   4    -0.192044683409E+03    0.72615E-04   -0.32668E-04  8880   0.102E-01
  49 F= -.19204468E+03 E0= -.19196791E+03  d E =0.109311E-02
       N       E                     dE             d eps       ncg     rms          rms(c)
DAV:   1    -0.192047936978E+03   -0.31810E-02   -0.13501E-01  8160   0.783E-01    0.992E-02
DAV:   2    -0.192048964443E+03   -0.10275E-02   -0.54335E-03 12320   0.355E-01    0.260E-01
DAV:   3    -0.192048200126E+03    0.76432E-03   -0.13624E-03 10520   0.324E-01    0.786E-02
DAV:   4    -0.192048160179E+03    0.39947E-04   -0.16394E-04  6920   0.950E-02
  50 F= -.19204816E+03 E0= -.19197149E+03  d E =-.347677E-02
       N       E                     dE             d eps       ncg     rms          rms(c)
DAV:   1    -0.192048146739E+03    0.53387E-04   -0.46065E-03  8680   0.170E-01    0.452E-02
DAV:   2    -0.192048520276E+03   -0.37354E-03   -0.75447E-04 11480   0.230E-01    0.175E-01
DAV:   3    -0.192048133350E+03    0.38693E-03   -0.42358E-04  8760   0.191E-01    0.178E-02
DAV:   4    -0.192048147885E+03   -0.14535E-04   -0.28132E-05  5960   0.425E-02
  51 F= -.19204815E+03 E0= -.19197158E+03  d E =0.122942E-04
       N       E                     dE             d eps       ncg     rms          rms(c)
DAV:   1    -0.192057185254E+03   -0.90519E-02   -0.63255E-01  8160   0.173E+00    0.208E-01
DAV:   2    -0.192058634269E+03   -0.14490E-02   -0.16867E-02 10520   0.496E-01    0.294E-01
DAV:   3    -0.192058098717E+03    0.53555E-03   -0.32501E-03 12240   0.508E-01    0.217E-01
DAV:   4    -0.192057619793E+03    0.47892E-03   -0.84342E-04 10240   0.252E-01    0.107E-01
DAV:   5    -0.192057616383E+03    0.34100E-05   -0.61743E-04  9440   0.219E-01
  52 F= -.19205762E+03 E0= -.19198132E+03  d E =-.946850E-02
       N       E                     dE             d eps       ncg     rms          rms(c)
DAV:   1    -0.192049421328E+03    0.81985E-02   -0.72310E-01  8160   0.185E+00    0.228E-01
DAV:   2    -0.192051270337E+03   -0.18490E-02   -0.18741E-02 11760   0.561E-01    0.356E-01
DAV:   3    -0.192050240690E+03    0.10296E-02   -0.38057E-03 12400   0.572E-01    0.239E-01
DAV:   4    -0.192049795097E+03    0.44559E-03   -0.13732E-03 10640   0.294E-01    0.130E-01
DAV:   5    -0.192049570020E+03    0.22508E-03   -0.80777E-04 10360   0.184E-01    0.962E-02
DAV:   6    -0.192049607963E+03   -0.37942E-04   -0.50104E-04  9000   0.197E-01
  53 F= -.19204961E+03 E0= -.19197288E+03  d E =0.800842E-02
       N       E                     dE             d eps       ncg     rms          rms(c)
DAV:   1    -0.192039736580E+03    0.98334E-02   -0.21749E+00  8160   0.320E+00    0.398E-01
DAV:   2    -0.192045732591E+03   -0.59960E-02   -0.57359E-02 11000   0.106E+00    0.652E-01
DAV:   3    -0.192041926435E+03    0.38062E-02   -0.14083E-02 12560   0.994E-01    0.374E-01
DAV:   4    -0.192040981863E+03    0.94457E-03   -0.35123E-03 12000   0.489E-01    0.269E-01
DAV:   5    -0.192040441358E+03    0.54050E-03   -0.23794E-03 11120   0.453E-01    0.203E-01
DAV:   6    -0.192040184323E+03    0.25703E-03   -0.13083E-03 10320   0.280E-01    0.118E-01
DAV:   7    -0.192040059511E+03    0.12481E-03   -0.50854E-04  9800   0.191E-01    0.972E-02
DAV:   8    -0.192039947848E+03    0.11166E-03   -0.15426E-04  8120   0.114E-01    0.175E-02
DAV:   9    -0.192039949724E+03   -0.18759E-05   -0.26674E-05  6440   0.238E-02
  54 F= -.19203995E+03 E0= -.19196249E+03  d E =0.965824E-02
       N       E                     dE             d eps       ncg     rms          rms(c)
DAV:   1    -0.192035592382E+03    0.43555E-02   -0.20434E+00  8160   0.309E+00    0.375E-01
DAV:   2    -0.192039928186E+03   -0.43358E-02   -0.55477E-02 11040   0.837E-01    0.496E-01
DAV:   3    -0.192038761970E+03    0.11662E-02   -0.11947E-02 12240   0.876E-01    0.427E-01
DAV:   4    -0.192037264050E+03    0.14979E-02   -0.39230E-03 12200   0.529E-01    0.243E-01
DAV:   5    -0.192036823373E+03    0.44068E-03   -0.21580E-03 10840   0.413E-01    0.198E-01
DAV:   6    -0.192036552100E+03    0.27127E-03   -0.12586E-03 10520   0.281E-01    0.101E-01
DAV:   7    -0.192036361277E+03    0.19082E-03   -0.34176E-04  8640   0.104E-01    0.288E-02
DAV:   8    -0.192036363887E+03   -0.26104E-05   -0.52811E-05  8000   0.604E-02
  55 F= -.19203636E+03 E0= -.19195832E+03  d E =0.358584E-02
       N       E                     dE             d eps       ncg     rms          rms(c)
DAV:   1    -0.192034609201E+03    0.17521E-02   -0.33673E+00  8160   0.396E+00    0.486E-01
DAV:   2    -0.192046499132E+03   -0.11890E-01   -0.11072E-01 11120   0.131E+00    0.801E-01
DAV:   3    -0.192040818867E+03    0.56803E-02   -0.20191E-02 11760   0.122E+00    0.472E-01
DAV:   4    -0.192038829319E+03    0.19895E-02   -0.49574E-03 12200   0.579E-01    0.259E-01
DAV:   5    -0.192038450500E+03    0.37882E-03   -0.29387E-03 11480   0.460E-01    0.246E-01
DAV:   6    -0.192038126031E+03    0.32447E-03   -0.21041E-03 11040   0.381E-01    0.157E-01
DAV:   7    -0.192037835922E+03    0.29011E-03   -0.94682E-04 10560   0.219E-01    0.104E-01
DAV:   8    -0.192037710760E+03    0.12516E-03   -0.21863E-04  8800   0.127E-01    0.250E-02
DAV:   9    -0.192037712098E+03   -0.13379E-05   -0.37785E-05  6520   0.296E-02
  56 F= -.19203771E+03 E0= -.19195935E+03  d E =-.134821E-02
       N       E                     dE             d eps       ncg     rms          rms(c)
DAV:   1    -0.192040246847E+03   -0.25361E-02   -0.29050E-01  8160   0.114E+00    0.111E-01
DAV:   2    -0.192041081486E+03   -0.83464E-03   -0.90389E-03 12240   0.334E-01    0.156E-01
DAV:   3    -0.192040965092E+03    0.11639E-03   -0.10727E-03 11880   0.284E-01    0.132E-01
DAV:   4    -0.192040765789E+03    0.19930E-03   -0.30251E-04  8360   0.154E-01    0.441E-02
DAV:   5    -0.192040751967E+03    0.13822E-04   -0.10640E-04  6600   0.509E-02
  57 F= -.19204075E+03 E0= -.19196263E+03  d E =-.303987E-02
       N       E                     dE             d eps       ncg     rms          rms(c)
DAV:   1    -0.192042222572E+03   -0.14568E-02   -0.11891E+00  8160   0.233E+00    0.284E-01
DAV:   2    -0.192048820293E+03   -0.65977E-02   -0.44547E-02 11800   0.960E-01    0.624E-01
DAV:   3    -0.192044619284E+03    0.42010E-02   -0.86664E-03 12200   0.830E-01    0.225E-01
DAV:   4    -0.192044127389E+03    0.49190E-03   -0.12008E-03 11440   0.253E-01    0.118E-01
DAV:   5    -0.192044130728E+03   -0.33394E-05   -0.76594E-04 11600   0.229E-01
  58 F= -.19204413E+03 E0= -.19196617E+03  d E =-.337876E-02
       N       E                     dE             d eps       ncg     rms          rms(c)
DAV:   1    -0.192045519726E+03   -0.13923E-02   -0.14572E-01  8160   0.850E-01    0.126E-01
DAV:   2    -0.192047266409E+03   -0.17467E-02   -0.68345E-03 12640   0.472E-01    0.362E-01
DAV:   3    -0.192045636416E+03    0.16300E-02   -0.29836E-03 11520   0.459E-01    0.104E-01
DAV:   4    -0.192045530650E+03    0.10577E-03   -0.32232E-04  8520   0.116E-01    0.477E-02
DAV:   5    -0.192045537625E+03   -0.69745E-05   -0.11018E-04  7000   0.969E-02
  59 F= -.19204554E+03 E0= -.19196749E+03  d E =-.140690E-02
       N       E                     dE             d eps       ncg     rms          rms(c)
DAV:   1    -0.192046917996E+03   -0.13873E-02   -0.11173E-01  8160   0.712E-01    0.837E-02
DAV:   2    -0.192047591094E+03   -0.67310E-03   -0.35028E-03 12880   0.289E-01    0.213E-01
DAV:   3    -0.192047072314E+03    0.51878E-03   -0.83429E-04 10240   0.270E-01    0.569E-02
DAV:   4    -0.192047055981E+03    0.16333E-04   -0.80484E-05  6280   0.690E-02
  60 F= -.19204706E+03 E0= -.19196905E+03  d E =-.151836E-02
       N       E                     dE             d eps       ncg     rms          rms(c)
DAV:   1    -0.192049298981E+03   -0.22267E-02   -0.20575E-01  8160   0.964E-01    0.101E-01
DAV:   2    -0.192049875905E+03   -0.57692E-03   -0.47986E-03 12560   0.295E-01    0.181E-01
DAV:   3    -0.192049564119E+03    0.31179E-03   -0.88644E-04 11360   0.269E-01    0.929E-02
DAV:   4    -0.192049487522E+03    0.76596E-04   -0.19296E-04  7320   0.105E-01
  61 F= -.19204949E+03 E0= -.19197138E+03  d E =-.243154E-02
       N       E                     dE             d eps       ncg     rms          rms(c)
DAV:   1    -0.192047242783E+03    0.23213E-02   -0.16257E-01  8160   0.854E-01    0.877E-02
DAV:   2    -0.192047996863E+03   -0.75408E-03   -0.42243E-03 12400   0.348E-01    0.212E-01
DAV:   3    -0.192047399789E+03    0.59707E-03   -0.99735E-04 10280   0.278E-01    0.575E-02
DAV:   4    -0.192047393874E+03    0.59147E-05   -0.14399E-04  6640   0.921E-02
  62 F= -.19204739E+03 E0= -.19196936E+03  d E =0.209365E-02
       N       E                     dE             d eps       ncg     rms          rms(c)
DAV:   1    -0.192042422169E+03    0.49776E-02   -0.98931E-01  8160   0.211E+00    0.231E-01
DAV:   2    -0.192045362446E+03   -0.29403E-02   -0.22835E-02 12320   0.776E-01    0.434E-01
DAV:   3    -0.192043072694E+03    0.22898E-02   -0.50059E-03 12360   0.609E-01    0.164E-01
DAV:   4    -0.192043009498E+03    0.63196E-04   -0.12627E-03 10440   0.253E-01    0.151E-01
DAV:   5    -0.192042822534E+03    0.18696E-03   -0.91709E-04 10800   0.254E-01    0.126E-01
DAV:   6    -0.192042701775E+03    0.12076E-03   -0.42381E-04  9160   0.180E-01    0.619E-02
DAV:   7    -0.192042655533E+03    0.46242E-04   -0.94263E-05  6160   0.643E-02
  63 F= -.19204266E+03 E0= -.19196502E+03  d E =0.473834E-02
       N       E                     dE             d eps       ncg     rms          rms(c)
DAV:   1    -0.192039918635E+03    0.27831E-02   -0.58944E-01  8160   0.163E+00    0.163E-01
DAV:   2    -0.192041486501E+03   -0.15679E-02   -0.12364E-02 12280   0.534E-01    0.299E-01
DAV:   3    -0.192040415616E+03    0.10709E-02   -0.26815E-03 12520   0.433E-01    0.118E-01
DAV:   4    -0.192040393277E+03    0.22339E-04   -0.60809E-04  9680   0.171E-01
  64 F= -.19204039E+03 E0= -.19196313E+03  d E =0.226226E-02
       N       E                     dE             d eps       ncg     rms          rms(c)
DAV:   1    -0.192041072152E+03   -0.65654E-03   -0.15047E-01  8160   0.835E-01    0.109E-01
DAV:   2    -0.192042032989E+03   -0.96084E-03   -0.56348E-03 12800   0.382E-01    0.246E-01
DAV:   3    -0.192041312815E+03    0.72017E-03   -0.13101E-03 10200   0.315E-01    0.759E-02
DAV:   4    -0.192041305298E+03    0.75170E-05   -0.25379E-04  7920   0.120E-01
  65 F= -.19204131E+03 E0= -.19196421E+03  d E =-.912021E-03
       N       E                     dE             d eps       ncg     rms          rms(c)
DAV:   1    -0.192041255781E+03    0.57034E-04   -0.25825E-01  8160   0.108E+00    0.133E-01
DAV:   2    -0.192042554477E+03   -0.12987E-02   -0.70097E-03 12400   0.425E-01    0.288E-01
DAV:   3    -0.192041495360E+03    0.10591E-02   -0.19338E-03 11880   0.395E-01    0.957E-02
DAV:   4    -0.192041485717E+03    0.96432E-05   -0.38875E-04  8360   0.139E-01
  66 F= -.19204149E+03 E0= -.19196469E+03  d E =-.180419E-03
       N       E                     dE             d eps       ncg     rms          rms(c)
DAV:   1    -0.192042256309E+03   -0.76095E-03   -0.36695E-01  8160   0.129E+00    0.150E-01
DAV:   2    -0.192043470770E+03   -0.12145E-02   -0.11171E-02 12920   0.366E-01    0.233E-01
DAV:   3    -0.192043005890E+03    0.46488E-03   -0.21436E-03 11960   0.388E-01    0.174E-01
DAV:   4    -0.192042743366E+03    0.26252E-03   -0.70029E-04  9160   0.205E-01    0.762E-02
DAV:   5    -0.192042664226E+03    0.79140E-04   -0.24115E-04  7360   0.891E-02
  67 F= -.19204266E+03 E0= -.19196618E+03  d E =-.117851E-02
       N       E                     dE             d eps       ncg     rms          rms(c)
DAV:   1    -0.192043389302E+03   -0.64594E-03   -0.36554E-01  8160   0.129E+00    0.137E-01
DAV:   2    -0.192044810359E+03   -0.14211E-02   -0.10685E-02 12600   0.412E-01    0.272E-01
DAV:   3    -0.192044051684E+03    0.75867E-03   -0.18147E-03 12400   0.391E-01    0.119E-01
DAV:   4    -0.192043936872E+03    0.11481E-03   -0.32072E-04  8400   0.130E-01    0.560E-02
DAV:   5    -0.192043916605E+03    0.20266E-04   -0.13893E-04  7000   0.752E-02
  68 F= -.19204392E+03 E0= -.19196790E+03  d E =-.125238E-02
       N       E                     dE             d eps       ncg     rms          rms(c)
DAV:   1    -0.192044771145E+03   -0.83427E-03   -0.70827E-01  8160   0.178E+00    0.175E-01
DAV:   2    -0.192046539106E+03   -0.17680E-02   -0.21324E-02 12320   0.476E-01    0.203E-01
DAV:   3    -0.192046609457E+03   -0.70351E-04   -0.25282E-03 12400   0.422E-01    0.229E-01
DAV:   4    -0.192046035704E+03    0.57375E-03   -0.93312E-04 10040   0.264E-01    0.800E-02
DAV:   5    -0.192046024862E+03    0.10842E-04   -0.32429E-04  8520   0.127E-01
  69 F= -.19204602E+03 E0= -.19197065E+03  d E =-.210826E-02
       N       E                     dE             d eps       ncg     rms          rms(c)
DAV:   1    -0.192046285379E+03   -0.24968E-03   -0.12814E-02  8240   0.272E-01    0.771E-02
DAV:   2    -0.192047068105E+03   -0.78273E-03   -0.16607E-03 11880   0.348E-01    0.248E-01
DAV:   3    -0.192046209448E+03    0.85866E-03   -0.88494E-04 10200   0.289E-01    0.307E-02
DAV:   4    -0.192046219178E+03   -0.97299E-05   -0.55142E-05  5880   0.468E-02
  70 F= -.19204622E+03 E0= -.19197092E+03  d E =-.194316E-03
