<?xml version="1.0" encoding="ISO-8859-1"?>
<modeling>
 <generator>
  <i name="program" type="string">vasp </i>
  <i name="version" type="string">5.4.1  </i>
  <i name="subversion" type="string">05Feb16 (build Jul 05 2020 17:13:04) complex                          parallel </i>
  <i name="platform" type="string">IFC91_ompi </i>
  <i name="date" type="string">2024 04 22 </i>
  <i name="time" type="string">20:46:47 </i>
 </generator>
 <incar>
  <i type="int" name="ISTART">     0</i>
  <i type="string" name="PREC">normal</i>
  <i type="string" name="ALGO"> Normal</i>
  <i type="int" name="ISPIN">     1</i>
  <i type="int" name="ICHARG">     2</i>
  <i type="int" name="IBRION">     1</i>
  <i type="int" name="NSW">   100</i>
  <i type="int" name="ISIF">     3</i>
  <i type="int" name="ISYM">     0</i>
  <i name="SYMPREC">      0.00000001</i>
  <i name="POTIM">      0.50000000</i>
  <i type="logical" name="LREAL"> F  </i>
  <i type="logical" name="LPLANE"> F  </i>
  <i type="int" name="ISMEAR">     0</i>
  <i type="logical" name="LWAVE"> F  </i>
  <i type="logical" name="LCHARG"> F  </i>
  <v type="int" name="KPOINT_BSE">    -1     0     0     0</v>
 </incar>
 <kpoints>
  <generation param="Gamma">
   <v type="int" name="divisions">       8        8        1 </v>
   <v name="usershift">      0.00000000       0.00000000       0.00000000 </v>
   <v name="genvec1">      0.12500000       0.00000000       0.00000000 </v>
   <v name="genvec2">     -0.00000000       0.12500000       0.00000000 </v>
   <v name="genvec3">      0.00000000       0.00000000       1.00000000 </v>
   <v name="shift">      0.00000000       0.00000000       0.00000000 </v>
  </generation>
  <varray name="kpointlist" >
   <v>       0.00000000       0.00000000       0.00000000 </v>
   <v>       0.12500000       0.00000000       0.00000000 </v>
   <v>       0.25000000       0.00000000       0.00000000 </v>
   <v>       0.37500000       0.00000000       0.00000000 </v>
   <v>       0.50000000       0.00000000       0.00000000 </v>
   <v>       0.00000000       0.12500000       0.00000000 </v>
   <v>       0.12500000       0.12500000       0.00000000 </v>
   <v>       0.25000000       0.12500000       0.00000000 </v>
   <v>       0.37500000       0.12500000       0.00000000 </v>
   <v>       0.50000000       0.12500000       0.00000000 </v>
   <v>      -0.37500000       0.12500000       0.00000000 </v>
   <v>      -0.25000000       0.12500000       0.00000000 </v>
   <v>      -0.12500000       0.12500000       0.00000000 </v>
   <v>       0.00000000       0.25000000       0.00000000 </v>
   <v>       0.12500000       0.25000000       0.00000000 </v>
   <v>       0.25000000       0.25000000       0.00000000 </v>
   <v>       0.37500000       0.25000000       0.00000000 </v>
   <v>       0.50000000       0.25000000       0.00000000 </v>
   <v>      -0.37500000       0.25000000       0.00000000 </v>
   <v>      -0.25000000       0.25000000       0.00000000 </v>
   <v>      -0.12500000       0.25000000       0.00000000 </v>
   <v>      -0.00000000       0.37500000       0.00000000 </v>
   <v>       0.12500000       0.37500000       0.00000000 </v>
   <v>       0.25000000       0.37500000       0.00000000 </v>
   <v>       0.37500000       0.37500000       0.00000000 </v>
   <v>       0.50000000       0.37500000       0.00000000 </v>
   <v>      -0.37500000       0.37500000       0.00000000 </v>
   <v>      -0.25000000       0.37500000       0.00000000 </v>
   <v>      -0.12500000       0.37500000       0.00000000 </v>
   <v>       0.00000000       0.50000000       0.00000000 </v>
   <v>       0.12500000       0.50000000       0.00000000 </v>
   <v>       0.25000000       0.50000000       0.00000000 </v>
   <v>       0.37500000       0.50000000       0.00000000 </v>
   <v>       0.50000000       0.50000000       0.00000000 </v>
  </varray>
  <varray name="weights" >
   <v>       0.01562500 </v>
   <v>       0.03125000 </v>
   <v>       0.03125000 </v>
   <v>       0.03125000 </v>
   <v>       0.01562500 </v>
   <v>       0.03125000 </v>
   <v>       0.03125000 </v>
   <v>       0.03125000 </v>
   <v>       0.03125000 </v>
   <v>       0.03125000 </v>
   <v>       0.03125000 </v>
   <v>       0.03125000 </v>
   <v>       0.03125000 </v>
   <v>       0.03125000 </v>
   <v>       0.03125000 </v>
   <v>       0.03125000 </v>
   <v>       0.03125000 </v>
   <v>       0.03125000 </v>
   <v>       0.03125000 </v>
   <v>       0.03125000 </v>
   <v>       0.03125000 </v>
   <v>       0.03125000 </v>
   <v>       0.03125000 </v>
   <v>       0.03125000 </v>
   <v>       0.03125000 </v>
   <v>       0.03125000 </v>
   <v>       0.03125000 </v>
   <v>       0.03125000 </v>
   <v>       0.03125000 </v>
   <v>       0.01562500 </v>
   <v>       0.03125000 </v>
   <v>       0.03125000 </v>
   <v>       0.03125000 </v>
   <v>       0.01562500 </v>
  </varray>
 </kpoints>
 <parameters>
  <separator name="general" >
   <i type="string" name="SYSTEM">unknown system</i>
   <i type="logical" name="LCOMPAT"> F  </i>
  </separator>
  <separator name="electronic" >
   <i type="string" name="PREC">normal</i>
   <i name="ENMAX">    280.00000000</i>
   <i name="ENAUG">    373.43800000</i>
   <i name="EDIFF">      0.00010000</i>
   <i type="int" name="IALGO">    38</i>
   <i type="int" name="IWAVPR">    11</i>
   <i type="int" name="NBANDS">   120</i>
   <i name="NELECT">    159.00000000</i>
   <i type="int" name="TURBO">     0</i>
   <i type="int" name="IRESTART">     0</i>
   <i type="int" name="NREBOOT">     0</i>
   <i type="int" name="NMIN">     0</i>
   <i name="EREF">      0.00000000</i>
   <separator name="electronic smearing" >
    <i type="int" name="ISMEAR">     0</i>
    <i name="SIGMA">      0.20000000</i>
    <i name="KSPACING">      0.50000000</i>
    <i type="logical" name="KGAMMA"> T  </i>
   </separator>
   <separator name="electronic projectors" >
    <i type="logical" name="LREAL"> F  </i>
    <v name="ROPT">      0.00000000      0.00000000      0.00000000      0.00000000</v>
    <i type="int" name="LMAXPAW">  -100</i>
    <i type="int" name="LMAXMIX">     2</i>
    <i type="logical" name="NLSPLINE"> F  </i>
   </separator>
   <separator name="electronic startup" >
    <i type="int" name="ISTART">     0</i>
    <i type="int" name="ICHARG">     2</i>
    <i type="int" name="INIWAV">     1</i>
   </separator>
   <separator name="electronic spin" >
    <i type="int" name="ISPIN">     1</i>
    <i type="logical" name="LNONCOLLINEAR"> F  </i>
    <v name="MAGMOM">      1.00000000      1.00000000      1.00000000      1.00000000      1.00000000      1.00000000      1.00000000      1.00000000      1.00000000      1.00000000      1.00000000      1.00000000      1.00000000      1.00000000      1.00000000      1.00000000      1.00000000      1.00000000      1.00000000      1.00000000
      1.00000000      1.00000000      1.00000000      1.00000000      1.00000000      1.00000000      1.00000000</v>
    <i name="NUPDOWN">     -1.00000000</i>
    <i type="logical" name="LSORBIT"> F  </i>
    <v name="SAXIS">      0.00000000      0.00000000      1.00000000</v>
    <i type="logical" name="LSPIRAL"> F  </i>
    <v name="QSPIRAL">      0.00000000      0.00000000      0.00000000</v>
    <i type="logical" name="LZEROZ"> F  </i>
   </separator>
   <separator name="electronic exchange-correlation" >
    <i type="logical" name="LASPH"> F  </i>
    <i type="logical" name="LMETAGGA"> F  </i>
   </separator>
   <separator name="electronic convergence" >
    <i type="int" name="NELM">    60</i>
    <i type="int" name="NELMDL">    -5</i>
    <i type="int" name="NELMIN">     2</i>
    <i name="ENINI">    280.00000000</i>
    <separator name="electronic convergence detail" >
     <i type="logical" name="LDIAG"> T  </i>
     <i type="logical" name="LSUBROT"> F  </i>
     <i name="WEIMIN">      0.00100000</i>
     <i name="EBREAK">      0.00000021</i>
     <i name="DEPER">      0.30000000</i>
     <i type="int" name="NRMM">     4</i>
     <i name="TIME">      0.40000000</i>
    </separator>
   </separator>
   <separator name="electronic mixer" >
    <i name="AMIX">      0.40000000</i>
    <i name="BMIX">      1.00000000</i>
    <i name="AMIN">      0.10000000</i>
    <i name="AMIX_MAG">      1.60000000</i>
    <i name="BMIX_MAG">      1.00000000</i>
    <separator name="electronic mixer details" >
     <i type="int" name="IMIX">     4</i>
     <i type="logical" name="MIXFIRST"> F  </i>
     <i type="int" name="MAXMIX">   -45</i>
     <i name="WC">    100.00000000</i>
     <i type="int" name="INIMIX">     1</i>
     <i type="int" name="MIXPRE">     1</i>
     <i type="int" name="MREMOVE">     5</i>
    </separator>
   </separator>
   <separator name="electronic dipolcorrection" >
    <i type="logical" name="LDIPOL"> F  </i>
    <i type="logical" name="LMONO"> F  </i>
    <i type="int" name="IDIPOL">     0</i>
    <i name="EPSILON">      1.00000000</i>
    <v name="DIPOL">   -100.00000000   -100.00000000   -100.00000000</v>
    <i name="EFIELD">      0.00000000</i>
   </separator>
  </separator>
  <separator name="grids" >
   <i type="int" name="NGX">    42</i>
   <i type="int" name="NGY">    42</i>
   <i type="int" name="NGZ">   126</i>
   <i type="int" name="NGXF">    84</i>
   <i type="int" name="NGYF">    84</i>
   <i type="int" name="NGZF">   252</i>
   <i type="logical" name="ADDGRID"> F  </i>
  </separator>
  <separator name="ionic" >
   <i type="int" name="NSW">   100</i>
   <i type="int" name="IBRION">     1</i>
   <i type="int" name="ISIF">     3</i>
   <i name="PSTRESS">      0.00000000</i>
   <i name="EDIFFG">      0.00100000</i>
   <i type="int" name="NFREE">     0</i>
   <i name="POTIM">      0.50000000</i>
   <i name="SMASS">     -3.00000000</i>
   <i name="SCALEE">      1.00000000</i>
  </separator>
  <separator name="ionic md" >
   <i name="TEBEG">      0.00010000</i>
   <i name="TEEND">      0.00010000</i>
   <i type="int" name="NBLOCK">     1</i>
   <i type="int" name="KBLOCK">   100</i>
   <i type="int" name="NPACO">   256</i>
   <i name="APACO">     16.00000000</i>
  </separator>
  <separator name="symmetry" >
   <i type="int" name="ISYM">     0</i>
   <i name="SYMPREC">      0.00000001</i>
  </separator>
  <separator name="dos" >
   <i type="logical" name="LORBIT"> F  </i>
   <v name="RWIGS">     -1.00000000     -1.00000000     -1.00000000     -1.00000000</v>
   <i type="int" name="NEDOS">   301</i>
   <i name="EMIN">     10.00000000</i>
   <i name="EMAX">    -10.00000000</i>
   <i name="EFERMI">      0.00000000</i>
  </separator>
  <separator name="writing" >
   <i type="int" name="NWRITE">     2</i>
   <i type="logical" name="LWAVE"> F  </i>
   <i type="logical" name="LCHARG"> F  </i>
   <i type="logical" name="LPARD"> F  </i>
   <i type="logical" name="LVTOT"> F  </i>
   <i type="logical" name="LVHAR"> F  </i>
   <i type="logical" name="LELF"> F  </i>
   <i type="logical" name="LOPTICS"> F  </i>
   <v name="STM">      0.00000000      0.00000000      0.00000000      0.00000000      0.00000000      0.00000000      0.00000000</v>
  </separator>
  <separator name="performance" >
   <i type="int" name="NPAR">    40</i>
   <i type="int" name="NSIM">     4</i>
   <i type="int" name="NBLK">    -1</i>
   <i type="logical" name="LPLANE"> F  </i>
   <i type="logical" name="LSCALAPACK"> T  </i>
   <i type="logical" name="LSCAAWARE"> F  </i>
   <i type="logical" name="LSCALU"> F  </i>
   <i type="logical" name="LASYNC"> F  </i>
   <i type="logical" name="LORBITALREAL"> F  </i>
  </separator>
  <separator name="miscellaneous" >
   <i type="int" name="IDIOT">     3</i>
   <i type="logical" name="LMUSIC"> F  </i>
   <v name="POMASS">     50.94100000     95.94000000    183.85000000     32.06600000</v>
   <v name="DARWINR">      0.00000000      0.00000000      0.00000000      0.00000000</v>
   <v name="DARWINV">      1.00000000      1.00000000      1.00000000      1.00000000</v>
   <i type="logical" name="LCORR"> T  </i>
  </separator>
  <i type="logical" name="GGA_COMPAT"> T  </i>
  <i type="logical" name="LBERRY"> F  </i>
  <i type="int" name="ICORELEVEL">     0</i>
  <i type="logical" name="LDAU"> F  </i>
  <i type="int" name="I_CONSTRAINED_M">     0</i>
  <separator name="electronic exchange-correlation" >
   <i type="string" name="GGA">--</i>
   <i type="int" name="VOSKOWN">     0</i>
   <i type="logical" name="LHFCALC"> F  </i>
   <i type="string" name="PRECFOCK"></i>
   <i type="logical" name="LSYMGRAD"> F  </i>
   <i type="logical" name="LHFONE"> F  </i>
   <i type="logical" name="LRHFCALC"> F  </i>
   <i type="logical" name="LTHOMAS"> F  </i>
   <i type="logical" name="LMODELHF"> F  </i>
   <i name="ENCUT4O">     -1.00000000</i>
   <i type="int" name="EXXOEP">     0</i>
   <i type="int" name="FOURORBIT">     0</i>
   <i name="AEXX">      0.00000000</i>
   <i name="HFALPHA">      0.00000000</i>
   <i name="MCALPHA">      0.00000000</i>
   <i name="ALDAX">      1.00000000</i>
   <i name="AGGAX">      1.00000000</i>
   <i name="ALDAC">      1.00000000</i>
   <i name="AGGAC">      1.00000000</i>
   <i type="int" name="NKREDX">     1</i>
   <i type="int" name="NKREDY">     1</i>
   <i type="int" name="NKREDZ">     1</i>
   <i type="logical" name="SHIFTRED"> F  </i>
   <i type="logical" name="ODDONLY"> F  </i>
   <i type="logical" name="EVENONLY"> F  </i>
   <i type="int" name="LMAXFOCK">     0</i>
   <i type="int" name="NMAXFOCKAE">     0</i>
   <i type="logical" name="LFOCKAEDFT"> F  </i>
   <i name="HFSCREEN">      0.00000000</i>
   <i name="HFSCREENC">      0.00000000</i>
   <i type="int" name="NBANDSGWLOW">     0</i>
  </separator>
  <separator name="vdW DFT" >
   <i type="logical" name="LUSE_VDW"> F  </i>
   <i name="Zab_VDW">     -0.84910000</i>
   <i name="PARAM1">      0.12340000</i>
   <i name="PARAM2">      1.00000000</i>
   <i name="PARAM3">      0.00000000</i>
  </separator>
  <separator name="model GW" >
   <i type="int" name="MODEL_GW">     0</i>
   <i name="MODEL_EPS0">     58.26239943</i>
   <i name="MODEL_ALPHA">      1.00000000</i>
  </separator>
  <separator name="linear response parameters" >
   <i type="logical" name="LEPSILON"> F  </i>
   <i type="logical" name="LRPA"> F  </i>
   <i type="logical" name="LNABLA"> F  </i>
   <i type="logical" name="LVEL"> F  </i>
   <i type="int" name="KINTER">     0</i>
   <i name="CSHIFT">      0.10000000</i>
   <i name="OMEGAMAX">     -1.00000000</i>
   <i name="DEG_THRESHOLD">      0.00200000</i>
  </separator>
  <separator name="orbital magnetization" >
   <i type="logical" name="NUCIND"> F  </i>
   <v name="MAGPOS">      0.00000000      0.00000000      0.00000000</v>
   <i type="logical" name="LNICSALL"> T  </i>
   <i type="logical" name="ORBITALMAG"> F  </i>
   <i type="logical" name="LMAGBLOCH"> F  </i>
   <i type="logical" name="LCHIMAG"> F  </i>
   <i type="logical" name="LGAUGE"> T  </i>
   <i type="int" name="MAGATOM">     0</i>
   <v name="MAGDIPOL">      0.00000000      0.00000000      0.00000000</v>
   <v name="AVECCONST">      0.00000000      0.00000000      0.00000000</v>
  </separator>
  <separator name="response functions" >
   <i type="logical" name="LADDER"> F  </i>
   <i type="logical" name="LFXC"> F  </i>
   <i type="logical" name="LHARTREE"> T  </i>
   <i type="int" name="IBSE">     0</i>
   <v type="int" name="KPOINT">    -1     0     0     0</v>
   <i type="logical" name="LTCTE"> F  </i>
   <i type="logical" name="LTETE"> F  </i>
   <i type="logical" name="LTRIPLET"> F  </i>
   <i type="logical" name="LFXCEPS"> F  </i>
   <i type="logical" name="LFXHEG"> F  </i>
   <i type="int" name="NATURALO">     0</i>
   <i type="logical" name="L2ORDER"> F  </i>
   <i type="logical" name="LUSEW"> F  </i>
   <i name="ENCUTGW">     -2.00000000</i>
   <i name="ENCUTGWSOFT">     -2.00000000</i>
   <i name="ENCUTLF">     -1.00000000</i>
   <i type="int" name="LMAXMP2">    -1</i>
   <i name="SCISSOR">      0.00000000</i>
   <i type="int" name="NOMEGA">     0</i>
   <i type="int" name="NOMEGAR">     0</i>
   <i type="int" name="NBANDSGW">    -1</i>
   <i type="int" name="NBANDSO">    -1</i>
   <i type="int" name="NBANDSV">    -1</i>
   <i type="int" name="NELM">     1</i>
   <i type="int" name="NELMHF">     1</i>
   <i type="int" name="DIM">     3</i>
   <i type="int" name="ANTIRES">     0</i>
   <i name="OMEGAMAX">    -30.00000000</i>
   <i name="OMEGAMIN">    -30.00000000</i>
   <i name="OMEGATL">   -200.00000000</i>
   <i type="int" name="OMEGAGRID">     0</i>
   <i name="CSHIFT">     -0.10000000</i>
   <i type="logical" name="SELFENERGY"> F  </i>
   <i type="logical" name="LSPECTRAL"> F  </i>
   <i type="logical" name="LSPECTRALGW"> F  </i>
   <i type="logical" name="LSINGLES"> F  </i>
   <i type="logical" name="LFERMIGW"> F  </i>
   <i type="logical" name="ODDONLYGW"> F  </i>
   <i type="logical" name="EVENONLYGW"> F  </i>
   <i type="int" name="NKREDLFX">     1</i>
   <i type="int" name="NKREDLFY">     1</i>
   <i type="int" name="NKREDLFZ">     1</i>
   <i type="int" name="MAXMEM">  1800</i>
   <i type="int" name="TELESCOPE">     0</i>
   <i type="int" name="TAUPAR">     1</i>
   <i type="int" name="OMEGAPAR">    -1</i>
   <i name="LAMBDA">      1.00000000</i>
  </separator>
  <separator name="External order field" >
   <i name="OFIELD_KAPPA">      0.00000000</i>
   <v name="OFIELD_K">      0.00000000      0.00000000      0.00000000</v>
   <i name="OFIELD_Q6_NEAR">      0.00000000</i>
   <i name="OFIELD_Q6_FAR">      0.00000000</i>
   <i name="OFIELD_A">      0.00000000</i>
  </separator>
 </parameters>
 <atominfo>
  <atoms>      27 </atoms>
  <types>       4 </types>
  <array name="atoms" >
   <dimension dim="1">ion</dimension>
   <field type="string">element</field>
   <field type="int">atomtype</field>
   <set>
    <rc><c>V </c><c>   1</c></rc>
    <rc><c>V </c><c>   1</c></rc>
    <rc><c>V </c><c>   1</c></rc>
    <rc><c>Mo</c><c>   2</c></rc>
    <rc><c>Mo</c><c>   2</c></rc>
    <rc><c>Mo</c><c>   2</c></rc>
    <rc><c>W </c><c>   3</c></rc>
    <rc><c>W </c><c>   3</c></rc>
    <rc><c>W </c><c>   3</c></rc>
    <rc><c>S </c><c>   4</c></rc>
    <rc><c>S </c><c>   4</c></rc>
    <rc><c>S </c><c>   4</c></rc>
    <rc><c>S </c><c>   4</c></rc>
    <rc><c>S </c><c>   4</c></rc>
    <rc><c>S </c><c>   4</c></rc>
    <rc><c>S </c><c>   4</c></rc>
    <rc><c>S </c><c>   4</c></rc>
    <rc><c>S </c><c>   4</c></rc>
    <rc><c>S </c><c>   4</c></rc>
    <rc><c>S </c><c>   4</c></rc>
    <rc><c>S </c><c>   4</c></rc>
    <rc><c>S </c><c>   4</c></rc>
    <rc><c>S </c><c>   4</c></rc>
    <rc><c>S </c><c>   4</c></rc>
    <rc><c>S </c><c>   4</c></rc>
    <rc><c>S </c><c>   4</c></rc>
    <rc><c>S </c><c>   4</c></rc>
   </set>
  </array>
  <array name="atomtypes" >
   <dimension dim="1">type</dimension>
   <field type="int">atomspertype</field>
   <field type="string">element</field>
   <field>mass</field>
   <field>valence</field>
   <field type="string">pseudopotential</field>
   <set>
    <rc><c>   3</c><c>V </c><c>     50.94100000</c><c>      5.00000000</c><c> PAW_PBE V 08Apr2002                    </c></rc>
    <rc><c>   3</c><c>Mo</c><c>     95.94000000</c><c>      6.00000000</c><c> PAW_PBE Mo 08Apr2002                   </c></rc>
    <rc><c>   3</c><c>W </c><c>    183.85000000</c><c>      6.00000000</c><c> PAW_PBE W 08Apr2002                    </c></rc>
    <rc><c>  18</c><c>S </c><c>     32.06600000</c><c>      6.00000000</c><c>  PAW_PBE S 17Jan2003                   </c></rc>
   </set>
  </array>
 </atominfo>
 <structure name="initialpos" >
  <crystal>
   <varray name="basis" >
    <v>       8.66999996       5.03999989       0.00000000 </v>
    <v>      -8.66999982       5.04000013       0.00000000 </v>
    <v>       0.00000000       0.00000000      30.00000000 </v>
   </varray>
   <i name="volume">   2621.80797419 </i>
   <varray name="rec_basis" >
    <v>       0.05767013       0.09920635       0.00000000 </v>
    <v>      -0.05767013       0.09920635       0.00000000 </v>
    <v>       0.00000000       0.00000000       0.03333333 </v>
   </varray>
  </crystal>
  <varray name="positions" >
   <v>       0.33333334       0.66666669       0.00000000 </v>
   <v>       0.00000000       0.66666669       0.00000000 </v>
   <v>       0.66666669       0.33333334       0.00000000 </v>
   <v>       0.33333334       0.33333334       0.00000000 </v>
   <v>       0.66666669       0.00000000       0.00000000 </v>
   <v>       0.66666669       0.66666669       0.00000000 </v>
   <v>       0.00000000       0.00000000       0.00000000 </v>
   <v>       1.00000000       0.33333334       0.00000000 </v>
   <v>       0.33333334       0.00000000       0.00000000 </v>
   <v>       0.11068511       0.22244981       0.95539999 </v>
   <v>       0.22244981       0.11068511       0.04460000 </v>
   <v>       0.11068511       0.55578315       0.95539999 </v>
   <v>       0.22244981       0.44401845       0.04460000 </v>
   <v>       0.11068511       0.88911647       0.95539999 </v>
   <v>       0.22244981       0.77735180       0.04460000 </v>
   <v>       0.44401845       0.22244981       0.95539999 </v>
   <v>       0.55578315       0.11068511       0.04460000 </v>
   <v>       0.44401845       0.55578315       0.95539999 </v>
   <v>       0.55578315       0.44401845       0.04460000 </v>
   <v>       0.44401845       0.88911647       0.95539999 </v>
   <v>       0.55578315       0.77735180       0.04460000 </v>
   <v>       0.77735180       0.22244981       0.95539999 </v>
   <v>       0.88911647       0.11068511       0.04460000 </v>
   <v>       0.77735180       0.55578315       0.95539999 </v>
   <v>       0.88911647       0.44401845       0.04460000 </v>
   <v>       0.77735180       0.88911647       0.95539999 </v>
   <v>       0.88911647       0.77735180       0.04460000 </v>
  </varray>
 </structure>
 <calculation>
  <scstep>
   <time name="dav">   23.20   23.25</time>
   <time name="total">   23.24   23.31</time>
   <energy>
    <i name="alphaZ">     81.65567618 </i>
    <i name="ewald">  41890.23010370 </i>
    <i name="hartreedc"> -47722.86556759 </i>
    <i name="XCdc">   -242.92862454 </i>
    <i name="pawpsdc">   3467.42045192 </i>
    <i name="pawaedc">  -2871.19716117 </i>
    <i name="eentropy">     -0.53192610 </i>
    <i name="bandstr">   -239.14582787 </i>
    <i name="atom">   6761.44252427 </i>
    <i name="e_fr_energy">   1124.07964879 </i>
    <i name="e_wo_entrp">   1124.61157489 </i>
    <i name="e_0_energy">   1124.34561184 </i>
   </energy>
  </scstep>
  <scstep>
   <time name="dav">   29.85   29.92</time>
   <time name="total">   29.85   29.93</time>
   <energy>
    <i name="e_fr_energy">     -5.07617799 </i>
    <i name="e_wo_entrp">     -4.88606704 </i>
    <i name="e_0_energy">     -4.98112252 </i>
   </energy>
  </scstep>
  <scstep>
   <time name="dav">   29.29   29.36</time>
   <time name="total">   29.29   29.37</time>
   <energy>
    <i name="e_fr_energy">   -199.90486676 </i>
    <i name="e_wo_entrp">   -199.65612693 </i>
    <i name="e_0_energy">   -199.78049685 </i>
   </energy>
  </scstep>
  <scstep>
   <time name="dav">   32.18   32.25</time>
   <time name="total">   32.18   32.26</time>
   <energy>
    <i name="e_fr_energy">   -208.99047379 </i>
    <i name="e_wo_entrp">   -208.70653924 </i>
    <i name="e_0_energy">   -208.84850651 </i>
   </energy>
  </scstep>
  <scstep>
   <time name="dav">   30.56   30.63</time>
   <time name="total">   31.02   31.11</time>
   <energy>
    <i name="e_fr_energy">   -209.31349144 </i>
    <i name="e_wo_entrp">   -209.03279690 </i>
    <i name="e_0_energy">   -209.17314417 </i>
   </energy>
  </scstep>
  <scstep>
   <time name="dav">   32.95   33.03</time>
   <time name="total">   33.45   33.54</time>
   <energy>
    <i name="e_fr_energy">   -237.22834423 </i>
    <i name="e_wo_entrp">   -236.95260310 </i>
    <i name="e_0_energy">   -237.09047366 </i>
   </energy>
  </scstep>
  <scstep>
   <time name="dav">   34.51   34.60</time>
   <time name="total">   35.02   35.11</time>
   <energy>
    <i name="e_fr_energy">   -196.47077060 </i>
    <i name="e_wo_entrp">   -196.14033809 </i>
    <i name="e_0_energy">   -196.30555435 </i>
   </energy>
  </scstep>
  <scstep>
   <time name="dav">   31.83   31.91</time>
   <time name="total">   32.34   32.43</time>
   <energy>
    <i name="e_fr_energy">   -189.42547570 </i>
    <i name="e_wo_entrp">   -189.13385476 </i>
    <i name="e_0_energy">   -189.27966523 </i>
   </energy>
  </scstep>
  <scstep>
   <time name="dav">   33.07   33.15</time>
   <time name="total">   33.60   33.68</time>
   <energy>
    <i name="e_fr_energy">   -188.22920034 </i>
    <i name="e_wo_entrp">   -187.90921450 </i>
    <i name="e_0_energy">   -188.06920742 </i>
   </energy>
  </scstep>
  <scstep>
   <time name="dav">   34.82   34.90</time>
   <time name="total">   35.35   35.44</time>
   <energy>
    <i name="e_fr_energy">   -187.07933159 </i>
    <i name="e_wo_entrp">   -186.73232618 </i>
    <i name="e_0_energy">   -186.90582889 </i>
   </energy>
  </scstep>
  <scstep>
   <time name="dav">   35.18   35.27</time>
   <time name="total">   35.72   35.81</time>
   <energy>
    <i name="e_fr_energy">   -187.02983390 </i>
    <i name="e_wo_entrp">   -186.68182953 </i>
    <i name="e_0_energy">   -186.85583171 </i>
   </energy>
  </scstep>
  <scstep>
   <time name="dav">   33.22   33.30</time>
   <time name="total">   33.75   33.84</time>
   <energy>
    <i name="e_fr_energy">   -187.17312735 </i>
    <i name="e_wo_entrp">   -186.83473937 </i>
    <i name="e_0_energy">   -187.00393336 </i>
   </energy>
  </scstep>
  <scstep>
   <time name="dav">   34.43   34.51</time>
   <time name="total">   34.96   35.05</time>
   <energy>
    <i name="e_fr_energy">   -186.92705978 </i>
    <i name="e_wo_entrp">   -186.59249694 </i>
    <i name="e_0_energy">   -186.75977836 </i>
   </energy>
  </scstep>
  <scstep>
   <time name="dav">   35.00   35.08</time>
   <time name="total">   35.54   35.63</time>
   <energy>
    <i name="e_fr_energy">   -186.87967928 </i>
    <i name="e_wo_entrp">   -186.53594277 </i>
    <i name="e_0_energy">   -186.70781103 </i>
   </energy>
  </scstep>
  <scstep>
   <time name="dav">   32.84   32.92</time>
   <time name="total">   33.38   33.47</time>
   <energy>
    <i name="e_fr_energy">   -186.88157680 </i>
    <i name="e_wo_entrp">   -186.53660580 </i>
    <i name="e_0_energy">   -186.70909130 </i>
   </energy>
  </scstep>
  <scstep>
   <time name="dav">   34.23   34.31</time>
   <time name="total">   34.77   34.86</time>
   <energy>
    <i name="e_fr_energy">   -186.87261643 </i>
    <i name="e_wo_entrp">   -186.52714110 </i>
    <i name="e_0_energy">   -186.69987877 </i>
   </energy>
  </scstep>
  <scstep>
   <time name="dav">   33.15   33.23</time>
   <time name="total">   33.69   33.78</time>
   <energy>
    <i name="e_fr_energy">   -186.86927799 </i>
    <i name="e_wo_entrp">   -186.52624166 </i>
    <i name="e_0_energy">   -186.69775983 </i>
   </energy>
  </scstep>
  <scstep>
   <time name="dav">   31.97   32.04</time>
   <time name="total">   32.50   32.59</time>
   <energy>
    <i name="e_fr_energy">   -186.86908268 </i>
    <i name="e_wo_entrp">   -186.52562900 </i>
    <i name="e_0_energy">   -186.69735584 </i>
   </energy>
  </scstep>
  <scstep>
   <time name="dav">   29.83   29.90</time>
   <time name="total">   30.37   30.45</time>
   <energy>
    <i name="e_fr_energy">   -186.86873867 </i>
    <i name="e_wo_entrp">   -186.52515042 </i>
    <i name="e_0_energy">   -186.69694455 </i>
   </energy>
  </scstep>
  <scstep>
   <time name="dav">   25.20   25.27</time>
   <time name="total">   25.74   25.81</time>
   <energy>
    <i name="e_fr_energy">   -186.86950410 </i>
    <i name="e_wo_entrp">   -186.52618479 </i>
    <i name="e_0_energy">   -186.69784444 </i>
   </energy>
  </scstep>
  <scstep>
   <time name="dav">   23.09   23.14</time>
   <time name="total">   23.62   23.69</time>
   <energy>
    <i name="e_fr_energy">   -186.87010844 </i>
    <i name="e_wo_entrp">   -186.52676123 </i>
    <i name="e_0_energy">   -186.69843483 </i>
   </energy>
  </scstep>
  <scstep>
   <time name="dav">   21.83   21.88</time>
   <time name="total">   22.36   22.42</time>
   <energy>
    <i name="e_fr_energy">   -186.87122083 </i>
    <i name="e_wo_entrp">   -186.52784365 </i>
    <i name="e_0_energy">   -186.69953224 </i>
   </energy>
  </scstep>
  <scstep>
   <time name="dav">   21.89   21.94</time>
   <time name="total">   22.42   22.48</time>
   <energy>
    <i name="e_fr_energy">   -186.87244683 </i>
    <i name="e_wo_entrp">   -186.52915329 </i>
    <i name="e_0_energy">   -186.70080006 </i>
   </energy>
  </scstep>
  <scstep>
   <time name="dav">   20.45   20.50</time>
   <time name="total">   20.98   21.04</time>
   <energy>
    <i name="e_fr_energy">   -186.87303225 </i>
    <i name="e_wo_entrp">   -186.52970998 </i>
    <i name="e_0_energy">   -186.70137112 </i>
   </energy>
  </scstep>
  <scstep>
   <time name="dav">   17.58   17.62</time>
   <time name="total">   18.13   18.58</time>
   <energy>
    <i name="e_fr_energy">   -186.87341104 </i>
    <i name="e_wo_entrp">   -186.53005175 </i>
    <i name="e_0_energy">   -186.70173139 </i>
   </energy>
  </scstep>
  <scstep>
   <time name="dav">   20.53   20.58</time>
   <time name="total">   21.07   21.13</time>
   <energy>
    <i name="e_fr_energy">   -186.87362986 </i>
    <i name="e_wo_entrp">   -186.53028481 </i>
    <i name="e_0_energy">   -186.70195734 </i>
   </energy>
  </scstep>
  <scstep>
   <time name="dav">   20.66   20.71</time>
   <time name="total">   21.19   21.25</time>
   <energy>
    <i name="e_fr_energy">   -186.87373359 </i>
    <i name="e_wo_entrp">   -186.53039290 </i>
    <i name="e_0_energy">   -186.70206324 </i>
   </energy>
  </scstep>
  <scstep>
   <time name="dav">   21.45   21.50</time>
   <time name="total">   21.49   21.55</time>
   <energy>
    <i name="alphaZ">     81.65567618 </i>
    <i name="ewald">  41890.23010370 </i>
    <i name="hartreedc"> -47833.03457924 </i>
    <i name="XCdc">   -231.60127511 </i>
    <i name="pawpsdc">   4192.08578046 </i>
    <i name="pawaedc">  -3610.10361347 </i>
    <i name="eentropy">     -0.34334096 </i>
    <i name="bandstr">  -1437.20505955 </i>
    <i name="atom">   6761.44252427 </i>
    <i name="e_fr_energy">   -186.87378371 </i>
    <i name="e_wo_entrp">   -186.53044275 </i>
    <i name="e_0_energy">   -186.70211323 </i>
   </energy>
  </scstep>
  <structure>
   <crystal>
    <varray name="basis" >
     <v>       8.66999996       5.03999989       0.00000000 </v>
     <v>      -8.66999982       5.04000013       0.00000000 </v>
     <v>       0.00000000       0.00000000      30.00000000 </v>
    </varray>
    <i name="volume">   2621.80797419 </i>
    <varray name="rec_basis" >
     <v>       0.05767013       0.09920635       0.00000000 </v>
     <v>      -0.05767013       0.09920635       0.00000000 </v>
     <v>       0.00000000       0.00000000       0.03333333 </v>
    </varray>
   </crystal>
   <varray name="positions" >
    <v>       0.33333334       0.66666669       0.00000000 </v>
    <v>       0.00000000       0.66666669       0.00000000 </v>
    <v>       0.66666669       0.33333334       0.00000000 </v>
    <v>       0.33333334       0.33333334       0.00000000 </v>
    <v>       0.66666669       0.00000000       0.00000000 </v>
    <v>       0.66666669       0.66666669       0.00000000 </v>
    <v>       0.00000000       0.00000000       0.00000000 </v>
    <v>       1.00000000       0.33333334       0.00000000 </v>
    <v>       0.33333334       0.00000000       0.00000000 </v>
    <v>       0.11068511       0.22244981       0.95539999 </v>
    <v>       0.22244981       0.11068511       0.04460000 </v>
    <v>       0.11068511       0.55578315       0.95539999 </v>
    <v>       0.22244981       0.44401845       0.04460000 </v>
    <v>       0.11068511       0.88911647       0.95539999 </v>
    <v>       0.22244981       0.77735180       0.04460000 </v>
    <v>       0.44401845       0.22244981       0.95539999 </v>
    <v>       0.55578315       0.11068511       0.04460000 </v>
    <v>       0.44401845       0.55578315       0.95539999 </v>
    <v>       0.55578315       0.44401845       0.04460000 </v>
    <v>       0.44401845       0.88911647       0.95539999 </v>
    <v>       0.55578315       0.77735180       0.04460000 </v>
    <v>       0.77735180       0.22244981       0.95539999 </v>
    <v>       0.88911647       0.11068511       0.04460000 </v>
    <v>       0.77735180       0.55578315       0.95539999 </v>
    <v>       0.88911647       0.44401845       0.04460000 </v>
    <v>       0.77735180       0.88911647       0.95539999 </v>
    <v>       0.88911647       0.77735180       0.04460000 </v>
   </varray>
  </structure>
  <varray name="forces" >
   <v>       0.36508494       0.19904347       0.10415106 </v>
   <v>      -0.14064328      -0.14495369      -0.01462807 </v>
   <v>      -0.23314430      -0.05447806      -0.11879726 </v>
   <v>      -0.00496220       0.27061896      -0.07666025 </v>
   <v>       0.26486219      -0.12134334       0.10080559 </v>
   <v>      -0.21570743      -0.16567750      -0.02233409 </v>
   <v>      -0.27178677      -0.20672589       0.01904481 </v>
   <v>       0.12857486      -0.07225054      -0.02351057 </v>
   <v>       0.10587044       0.27465119       0.04916544 </v>
   <v>       0.07999338      -0.11900519      -2.92829855 </v>
   <v>      -0.05888364      -0.15347983       2.85136832 </v>
   <v>      -0.23707710       0.51614229      -1.39210292 </v>
   <v>      -0.64015445       0.57542701       2.15874476 </v>
   <v>       0.45422199      -0.56213649      -2.15397000 </v>
   <v>       0.25085280      -0.51659694       1.40959072 </v>
   <v>       0.61461266       0.57468966      -2.20841435 </v>
   <v>      -0.60160899       0.53669501       2.14786839 </v>
   <v>      -0.73201027      -0.00648445      -2.13617892 </v>
   <v>       0.74361008       0.01465055       2.11223092 </v>
   <v>       0.35782234      -0.70698109      -2.14163508 </v>
   <v>      -0.54861901      -0.71244243       2.19744086 </v>
   <v>      -0.69053730       0.16149826      -2.09122553 </v>
   <v>      -0.05046728       0.11394368       2.95832994 </v>
   <v>       0.91412018      -0.02206786      -1.46265622 </v>
   <v>      -0.74232435      -0.00268379       1.45574593 </v>
   <v>       0.23051961       0.16368699      -2.89561955 </v>
   <v>       0.65778089       0.16626002       2.10154461 </v>
  </varray>
  <varray name="stress" >
   <v>       7.43251326       0.00215525      -1.61709921 </v>
   <v>       0.00215517       4.30859219       0.01840604 </v>
   <v>      -1.61709917       0.01840608      30.31161262 </v>
  </varray>
  <energy>
   <i name="e_fr_energy">   -186.87378371 </i>
   <i name="e_wo_entrp">   -186.70211323 </i>
   <i name="e_0_energy">     -0.34334096 </i>
  </energy>
  <time name="totalsc">  861.67  864.36</time>
 </calculation>
 <calculation>
  <scstep>
   <time name="dav">   23.20   23.25</time>
   <time name="total">   23.74   23.80</time>
   <energy>
    <i name="alphaZ">     78.92463062 </i>
    <i name="ewald">  39381.34759569 </i>
    <i name="hartreedc"> -45338.91097504 </i>
    <i name="XCdc">   -239.05452896 </i>
    <i name="pawpsdc">   4192.08573232 </i>
    <i name="pawaedc">  -3610.10358215 </i>
    <i name="eentropy">     -0.27942277 </i>
    <i name="bandstr">  -1412.95119778 </i>
    <i name="atom">   6761.44252427 </i>
    <i name="e_fr_energy">   -187.49922380 </i>
    <i name="e_wo_entrp">   -187.21980103 </i>
    <i name="e_0_energy">   -187.35951242 </i>
   </energy>
  </scstep>
  <scstep>
   <time name="dav">   32.30   32.38</time>
   <time name="total">   32.84   32.92</time>
   <energy>
    <i name="e_fr_energy">   -189.50035812 </i>
    <i name="e_wo_entrp">   -189.16658282 </i>
    <i name="e_0_energy">   -189.33347047 </i>
   </energy>
  </scstep>
  <scstep>
   <time name="dav">   32.59   32.66</time>
   <time name="total">   33.14   33.22</time>
   <energy>
    <i name="e_fr_energy">   -189.34058196 </i>
    <i name="e_wo_entrp">   -189.07695002 </i>
    <i name="e_0_energy">   -189.20876599 </i>
   </energy>
  </scstep>
  <scstep>
   <time name="dav">   31.44   31.52</time>
   <time name="total">   31.99   32.07</time>
   <energy>
    <i name="e_fr_energy">   -188.76737171 </i>
    <i name="e_wo_entrp">   -188.48482003 </i>
    <i name="e_0_energy">   -188.62609587 </i>
   </energy>
  </scstep>
  <scstep>
   <time name="dav">   31.99   32.06</time>
   <time name="total">   32.53   32.62</time>
   <energy>
    <i name="e_fr_energy">   -188.89981311 </i>
    <i name="e_wo_entrp">   -188.61316116 </i>
    <i name="e_0_energy">   -188.75648714 </i>
   </energy>
  </scstep>
  <scstep>
   <time name="dav">   33.12   33.20</time>
   <time name="total">   33.67   33.76</time>
   <energy>
    <i name="e_fr_energy">   -188.74260609 </i>
    <i name="e_wo_entrp">   -188.45878147 </i>
    <i name="e_0_energy">   -188.60069378 </i>
   </energy>
  </scstep>
  <scstep>
   <time name="dav">   31.02   31.10</time>
   <time name="total">   31.57   31.65</time>
   <energy>
    <i name="e_fr_energy">   -188.71208073 </i>
    <i name="e_wo_entrp">   -188.42717589 </i>
    <i name="e_0_energy">   -188.56962831 </i>
   </energy>
  </scstep>
  <scstep>
   <time name="dav">   33.61   33.69</time>
   <time name="total">   34.15   34.24</time>
   <energy>
    <i name="e_fr_energy">   -188.69559503 </i>
    <i name="e_wo_entrp">   -188.41505276 </i>
    <i name="e_0_energy">   -188.55532389 </i>
   </energy>
  </scstep>
  <scstep>
   <time name="dav">   31.65   31.73</time>
   <time name="total">   32.20   32.28</time>
   <energy>
    <i name="e_fr_energy">   -188.67040263 </i>
    <i name="e_wo_entrp">   -188.38868821 </i>
    <i name="e_0_energy">   -188.52954542 </i>
   </energy>
  </scstep>
  <scstep>
   <time name="dav">   29.72   29.79</time>
   <time name="total">   30.26   30.35</time>
   <energy>
    <i name="e_fr_energy">   -188.66872697 </i>
    <i name="e_wo_entrp">   -188.38842335 </i>
    <i name="e_0_energy">   -188.52857516 </i>
   </energy>
  </scstep>
  <scstep>
   <time name="dav">   34.23   34.31</time>
   <time name="total">   34.78   34.87</time>
   <energy>
    <i name="e_fr_energy">   -188.66817504 </i>
    <i name="e_wo_entrp">   -188.38860989 </i>
    <i name="e_0_energy">   -188.52839246 </i>
   </energy>
  </scstep>
  <scstep>
   <time name="dav">   31.29   31.36</time>
   <time name="total">   31.83   31.92</time>
   <energy>
    <i name="e_fr_energy">   -188.66811267 </i>
    <i name="e_wo_entrp">   -188.38871580 </i>
    <i name="e_0_energy">   -188.52841423 </i>
   </energy>
  </scstep>
  <scstep>
   <time name="dav">   22.20   22.25</time>
   <time name="total">   22.24   22.30</time>
   <energy>
    <i name="alphaZ">     78.92463062 </i>
    <i name="ewald">  39381.34759569 </i>
    <i name="hartreedc"> -45349.62100559 </i>
    <i name="XCdc">   -237.97297807 </i>
    <i name="pawpsdc">   3950.53743310 </i>
    <i name="pawaedc">  -3365.05044154 </i>
    <i name="eentropy">     -0.27973074 </i>
    <i name="bandstr">  -1407.99612109 </i>
    <i name="atom">   6761.44252427 </i>
    <i name="e_fr_energy">   -188.66809334 </i>
    <i name="e_wo_entrp">   -188.38836260 </i>
    <i name="e_0_energy">   -188.52822797 </i>
   </energy>
  </scstep>
  <structure>
   <crystal>
    <varray name="basis" >
     <v>       8.85844543       5.10354721       0.00000000 </v>
     <v>      -8.85838177       5.10343818       0.00000000 </v>
     <v>       0.00000000       0.00000000      30.00000000 </v>
    </varray>
    <i name="volume">   2712.53094583 </i>
    <varray name="rec_basis" >
     <v>       0.05644291       0.09797177       0.00000000 </v>
     <v>      -0.05644412       0.09797247       0.00000000 </v>
     <v>       0.00000000       0.00000000       0.03333333 </v>
    </varray>
   </crystal>
   <varray name="positions" >
    <v>       0.33530169       0.66660358       0.00016748 </v>
    <v>      -0.00108504       0.66636423      -0.00002352 </v>
    <v>       0.66575731       0.33372126      -0.00019104 </v>
    <v>       0.33461471       0.33464233      -0.00012328 </v>
    <v>       0.66682283      -0.00131764       0.00016210 </v>
    <v>       0.66527363       0.66647389      -0.00003592 </v>
    <v>      -0.00174554      -0.00023323       0.00003063 </v>
    <v>       1.00001193       0.33262984      -0.00003781 </v>
    <v>       0.33494237       0.00101993       0.00007906 </v>
    <v>       0.11033811       0.22165770       0.95069103 </v>
    <v>       0.22155143       0.11011438       0.04918525 </v>
    <v>       0.11249577       0.55891298       0.95316137 </v>
    <v>       0.22342278       0.44855345       0.04807145 </v>
    <v>       0.10925846       0.88516238       0.95193622 </v>
    <v>       0.22067530       0.77418146       0.04686675 </v>
    <v>       0.44847886       0.22349031       0.95184866 </v>
    <v>       0.55667799       0.11492749       0.04805396 </v>
    <v>       0.44195085       0.55778869       0.95196483 </v>
    <v>       0.55792211       0.44201973       0.04799665 </v>
    <v>       0.44163038       0.88473735       0.95195605 </v>
    <v>       0.55084707       0.77546841       0.04813368 </v>
    <v>       0.77620354       0.22514392       0.95203711 </v>
    <v>       0.88952139       0.11137085       0.04935725 </v>
    <v>       0.77978941       0.55313431       0.95304791 </v>
    <v>       0.88703836       0.44607087       0.04694097 </v>
    <v>       0.77877654       0.88925853       0.95074358 </v>
    <v>       0.89174223       0.77631746       0.04797947 </v>
   </varray>
  </structure>
  <varray name="forces" >
   <v>       0.32210321       0.21150782       0.03050845 </v>
   <v>      -0.13311573      -0.08430063      -0.01710177 </v>
   <v>      -0.24548254      -0.11252805      -0.04123859 </v>
   <v>       0.03477963       0.12557984       0.04213080 </v>
   <v>       0.40924222      -0.00451270      -0.03633478 </v>
   <v>      -0.31048467      -0.06273255       0.00494941 </v>
   <v>      -0.43129784      -0.11827782       0.00559829 </v>
   <v>       0.37318844      -0.22927483      -0.09927297 </v>
   <v>      -0.02660848       0.27834527       0.08585966 </v>
   <v>      -0.06617726      -0.09752582      -0.02524368 </v>
   <v>       0.07471111      -0.10371433      -0.11169724 </v>
   <v>       0.06625838      -0.06999245       0.22880921 </v>
   <v>      -0.09472495      -0.03820690      -0.02214076 </v>
   <v>      -0.05410582       0.07032612       0.16852257 </v>
   <v>      -0.05101041       0.07717320      -0.19081235 </v>
   <v>       0.08942745      -0.02640377      -0.09652203 </v>
   <v>      -0.07651254      -0.04462976      -0.03227594 </v>
   <v>      -0.07214454       0.00008532      -0.16490113 </v>
   <v>       0.06109207       0.01506713       0.05403114 </v>
   <v>      -0.10833878      -0.06530850       0.07333585 </v>
   <v>      -0.02845498      -0.09211893       0.19754128 </v>
   <v>       0.02740088       0.10942183       0.09294044 </v>
   <v>       0.07398419       0.09181024       0.14256812 </v>
   <v>       0.02919942      -0.01257993       0.06087980 </v>
   <v>       0.10204496      -0.00445386      -0.17962699 </v>
   <v>       0.05507665       0.09753459      -0.14596632 </v>
   <v>      -0.02005009       0.08970949      -0.02454048 </v>
  </varray>
  <varray name="stress" >
   <v>     -19.94127411       0.01048543       0.06869168 </v>
   <v>       0.01048543     -19.46685836      -0.01178883 </v>
   <v>       0.06869174      -0.01178889      -1.73857970 </v>
  </varray>
  <energy>
   <i name="e_fr_energy">   -188.66809334 </i>
   <i name="e_wo_entrp">   -188.52822797 </i>
   <i name="e_0_energy">     -0.27973074 </i>
  </energy>
  <time name="totalsc">  449.56  450.74</time>
 </calculation>
 <calculation>
  <scstep>
   <time name="dav">   25.44   25.50</time>
   <time name="total">   25.98   26.05</time>
   <energy>
    <i name="alphaZ">     82.35844848 </i>
    <i name="ewald">  41309.99573167 </i>
    <i name="hartreedc"> -47308.95068304 </i>
    <i name="XCdc">   -233.83838063 </i>
    <i name="pawpsdc">   3950.05764027 </i>
    <i name="pawaedc">  -3364.56592506 </i>
    <i name="eentropy">     -0.23298371 </i>
    <i name="bandstr">  -1386.85687664 </i>
    <i name="atom">   6761.44252427 </i>
    <i name="e_fr_energy">   -190.59050439 </i>
    <i name="e_wo_entrp">   -190.35752068 </i>
    <i name="e_0_energy">   -190.47401253 </i>
   </energy>
  </scstep>
  <scstep>
   <time name="dav">   29.69   29.77</time>
   <time name="total">   30.22   30.30</time>
   <energy>
    <i name="e_fr_energy">   -190.57311737 </i>
    <i name="e_wo_entrp">   -190.34512920 </i>
    <i name="e_0_energy">   -190.45912329 </i>
   </energy>
  </scstep>
  <scstep>
   <time name="dav">   32.19   32.27</time>
   <time name="total">   32.72   32.81</time>
   <energy>
    <i name="e_fr_energy">   -190.06242784 </i>
    <i name="e_wo_entrp">   -189.81383084 </i>
    <i name="e_0_energy">   -189.93812934 </i>
   </energy>
  </scstep>
  <scstep>
   <time name="dav">   33.29   33.37</time>
   <time name="total">   33.82   33.91</time>
   <energy>
    <i name="e_fr_energy">   -189.85619866 </i>
    <i name="e_wo_entrp">   -189.62780016 </i>
    <i name="e_0_energy">   -189.74199941 </i>
   </energy>
  </scstep>
  <scstep>
   <time name="dav">   29.53   29.60</time>
   <time name="total">   30.06   30.14</time>
   <energy>
    <i name="e_fr_energy">   -189.79230432 </i>
    <i name="e_wo_entrp">   -189.54972048 </i>
    <i name="e_0_energy">   -189.67101240 </i>
   </energy>
  </scstep>
  <scstep>
   <time name="dav">   33.22   33.30</time>
   <time name="total">   33.76   33.85</time>
   <energy>
    <i name="e_fr_energy">   -189.75977098 </i>
    <i name="e_wo_entrp">   -189.52723243 </i>
    <i name="e_0_energy">   -189.64350171 </i>
   </energy>
  </scstep>
  <scstep>
   <time name="dav">   32.74   32.82</time>
   <time name="total">   33.27   33.36</time>
   <energy>
    <i name="e_fr_energy">   -189.75232601 </i>
    <i name="e_wo_entrp">   -189.51765901 </i>
    <i name="e_0_energy">   -189.63499251 </i>
   </energy>
  </scstep>
  <scstep>
   <time name="dav">   27.74   27.81</time>
   <time name="total">   28.28   28.35</time>
   <energy>
    <i name="e_fr_energy">   -189.75234190 </i>
    <i name="e_wo_entrp">   -189.51788459 </i>
    <i name="e_0_energy">   -189.63511325 </i>
   </energy>
  </scstep>
  <scstep>
   <time name="dav">   28.12   28.19</time>
   <time name="total">   28.66   28.73</time>
   <energy>
    <i name="e_fr_energy">   -189.75256034 </i>
    <i name="e_wo_entrp">   -189.51801262 </i>
    <i name="e_0_energy">   -189.63528648 </i>
   </energy>
  </scstep>
  <scstep>
   <time name="dav">   25.18   25.24</time>
   <time name="total">   25.72   25.79</time>
   <energy>
    <i name="e_fr_energy">   -189.75243104 </i>
    <i name="e_wo_entrp">   -189.51770297 </i>
    <i name="e_0_energy">   -189.63506700 </i>
   </energy>
  </scstep>
  <scstep>
   <time name="dav">   20.96   21.01</time>
   <time name="total">   21.00   21.06</time>
   <energy>
    <i name="alphaZ">     82.35844848 </i>
    <i name="ewald">  41309.99573167 </i>
    <i name="hartreedc"> -47282.18036494 </i>
    <i name="XCdc">   -235.23572175 </i>
    <i name="pawpsdc">   4038.74024671 </i>
    <i name="pawaedc">  -3454.44816649 </i>
    <i name="eentropy">     -0.23466411 </i>
    <i name="bandstr">  -1410.19048105 </i>
    <i name="atom">   6761.44252427 </i>
    <i name="e_fr_energy">   -189.75244723 </i>
    <i name="e_wo_entrp">   -189.51778311 </i>
    <i name="e_0_energy">   -189.63511517 </i>
   </energy>
  </scstep>
  <structure>
   <crystal>
    <varray name="basis" >
     <v>       8.66961991       4.99741587       0.00000000 </v>
     <v>      -8.66944317       4.99711048       0.00000000 </v>
     <v>       0.00000000       0.00000000      30.00000000 </v>
    </varray>
    <i name="volume">   2599.43584282 </i>
    <varray name="rec_basis" >
     <v>       0.05767148       0.10005375       0.00000000 </v>
     <v>      -0.05767501       0.10005579       0.00000000 </v>
     <v>       0.00000000       0.00000000       0.03333333 </v>
    </varray>
   </crystal>
   <varray name="positions" >
    <v>       0.33596506       0.66664691       0.00018483 </v>
    <v>      -0.00135399       0.66635152      -0.00003324 </v>
    <v>       0.66533305       0.33376954      -0.00021448 </v>
    <v>       0.33485799       0.33481865      -0.00009933 </v>
    <v>       0.66720918      -0.00171907       0.00014145 </v>
    <v>       0.66486999       0.66666793      -0.00003310 </v>
    <v>      -0.00235825      -0.00001571       0.00003381 </v>
    <v>       0.99998808       0.33188761      -0.00009423 </v>
    <v>       0.33538177       0.00151055       0.00012787 </v>
    <v>       0.11011148       0.22155846       0.95067668 </v>
    <v>       0.22145007       0.10986920       0.04912176 </v>
    <v>       0.11244261       0.55873228       0.95329142 </v>
    <v>       0.22326778       0.44858079       0.04805887 </v>
    <v>       0.10932387       0.88533194       0.95203201 </v>
    <v>       0.22075513       0.77435949       0.04675829 </v>
    <v>       0.44852082       0.22336013       0.95179380 </v>
    <v>       0.55652979       0.11492658       0.04803562 </v>
    <v>       0.44188155       0.55785827       0.95187109 </v>
    <v>       0.55800608       0.44198610       0.04802736 </v>
    <v>       0.44141700       0.88473252       0.95199774 </v>
    <v>       0.55066579       0.77534190       0.04824596 </v>
    <v>       0.77641272       0.22530035       0.95208994 </v>
    <v>       0.88974598       0.11145302       0.04943829 </v>
    <v>       0.77979650       0.55308519       0.95308251 </v>
    <v>       0.88712913       0.44596521       0.04683887 </v>
    <v>       0.77899250       0.88936846       0.95066061 </v>
    <v>       0.89187281       0.77648663       0.04796552 </v>
   </varray>
  </structure>
  <varray name="forces" >
   <v>       0.32513066       0.21381510       0.00518743 </v>
   <v>      -0.14707772      -0.05626486      -0.01239395 </v>
   <v>      -0.25991713      -0.15952405      -0.01288747 </v>
   <v>       0.05459245       0.06836679       0.05264704 </v>
   <v>       0.46282384       0.04547505      -0.05122308 </v>
   <v>      -0.33466440      -0.02332036       0.01141170 </v>
   <v>      -0.48289407      -0.08611624       0.00278878 </v>
   <v>       0.45308907      -0.28567527      -0.08533129 </v>
   <v>      -0.08298225       0.27713622       0.06805301 </v>
   <v>      -0.00983473      -0.02900736      -0.59455164 </v>
   <v>       0.02915555      -0.04847975       0.42958744 </v>
   <v>      -0.00669835       0.06604549      -0.21608592 </v>
   <v>      -0.09407194       0.08389774       0.47786370 </v>
   <v>       0.01471486      -0.04206541      -0.32174016 </v>
   <v>       0.02711904      -0.05684969       0.26106327 </v>
   <v>       0.08173219       0.10545546      -0.61758985 </v>
   <v>      -0.05672945       0.10609689       0.46371662 </v>
   <v>      -0.14538733       0.00056876      -0.66445673 </v>
   <v>       0.13301160       0.02716410       0.54079741 </v>
   <v>       0.00540520      -0.12311937      -0.41724394 </v>
   <v>      -0.06091678      -0.15119636       0.71446653 </v>
   <v>      -0.08450759       0.03287069      -0.40004515 </v>
   <v>       0.02512434       0.02906399       0.73609027 </v>
   <v>       0.08779722      -0.01311786      -0.39096377 </v>
   <v>      -0.04281806      -0.00951242       0.26622988 </v>
   <v>       0.02619190       0.01609093      -0.71362899 </v>
   <v>       0.08261188       0.01220178       0.46823887 </v>
  </varray>
  <varray name="stress" >
   <v>     -10.17714268      -0.00005125       0.07198096 </v>
   <v>      -0.00005136      -9.78971806      -0.01313231 </v>
   <v>       0.07198101      -0.01313242       6.55382975 </v>
  </varray>
  <energy>
   <i name="e_fr_energy">   -189.75244723 </i>
   <i name="e_wo_entrp">   -189.63511517 </i>
   <i name="e_0_energy">     -0.23466411 </i>
  </energy>
  <time name="totalsc">  368.15  369.12</time>
 </calculation>
 <calculation>
  <scstep>
   <time name="dav">   23.20   23.25</time>
   <time name="total">   23.72   23.78</time>
   <energy>
    <i name="alphaZ">     85.83447003 </i>
    <i name="ewald">  42838.29681568 </i>
    <i name="hartreedc"> -48854.99946495 </i>
    <i name="XCdc">   -232.95852996 </i>
    <i name="pawpsdc">   4038.91062752 </i>
    <i name="pawaedc">  -3454.61768060 </i>
    <i name="eentropy">     -0.19133559 </i>
    <i name="bandstr">  -1373.01415908 </i>
    <i name="atom">   6761.44252427 </i>
    <i name="e_fr_energy">   -191.29673268 </i>
    <i name="e_wo_entrp">   -191.10539709 </i>
    <i name="e_0_energy">   -191.20106488 </i>
   </energy>
  </scstep>
  <scstep>
   <time name="dav">   34.79   34.87</time>
   <time name="total">   35.30   35.40</time>
   <energy>
    <i name="e_fr_energy">   -191.18640965 </i>
    <i name="e_wo_entrp">   -190.98820240 </i>
    <i name="e_0_energy">   -191.08730603 </i>
   </energy>
  </scstep>
  <scstep>
   <time name="dav">   31.09   31.17</time>
   <time name="total">   31.61   31.69</time>
   <energy>
    <i name="e_fr_energy">   -191.23644682 </i>
    <i name="e_wo_entrp">   -191.02465318 </i>
    <i name="e_0_energy">   -191.13055000 </i>
   </energy>
  </scstep>
  <scstep>
   <time name="dav">   32.92   33.00</time>
   <time name="total">   33.44   33.53</time>
   <energy>
    <i name="e_fr_energy">   -190.90747179 </i>
    <i name="e_wo_entrp">   -190.69845470 </i>
    <i name="e_0_energy">   -190.80296324 </i>
   </energy>
  </scstep>
  <scstep>
   <time name="dav">   29.78   29.85</time>
   <time name="total">   30.30   30.38</time>
   <energy>
    <i name="e_fr_energy">   -190.89644113 </i>
    <i name="e_wo_entrp">   -190.71096391 </i>
    <i name="e_0_energy">   -190.80370252 </i>
   </energy>
  </scstep>
  <scstep>
   <time name="dav">   29.72   29.79</time>
   <time name="total">   30.24   30.32</time>
   <energy>
    <i name="e_fr_energy">   -190.71305964 </i>
    <i name="e_wo_entrp">   -190.51564780 </i>
    <i name="e_0_energy">   -190.61435372 </i>
   </energy>
  </scstep>
  <scstep>
   <time name="dav">   30.17   30.24</time>
   <time name="total">   30.69   30.77</time>
   <energy>
    <i name="e_fr_energy">   -190.71202477 </i>
    <i name="e_wo_entrp">   -190.51578584 </i>
    <i name="e_0_energy">   -190.61390531 </i>
   </energy>
  </scstep>
  <scstep>
   <time name="dav">   30.33   30.41</time>
   <time name="total">   30.85   30.93</time>
   <energy>
    <i name="e_fr_energy">   -190.71057478 </i>
    <i name="e_wo_entrp">   -190.51375924 </i>
    <i name="e_0_energy">   -190.61216701 </i>
   </energy>
  </scstep>
  <scstep>
   <time name="dav">   29.83   29.90</time>
   <time name="total">   30.35   30.43</time>
   <energy>
    <i name="e_fr_energy">   -190.70820523 </i>
    <i name="e_wo_entrp">   -190.51138285 </i>
    <i name="e_0_energy">   -190.60979404 </i>
   </energy>
  </scstep>
  <scstep>
   <time name="dav">   28.33   28.40</time>
   <time name="total">   28.85   28.93</time>
   <energy>
    <i name="e_fr_energy">   -190.70844099 </i>
    <i name="e_wo_entrp">   -190.51166254 </i>
    <i name="e_0_energy">   -190.61005176 </i>
   </energy>
  </scstep>
  <scstep>
   <time name="dav">   26.10   26.17</time>
   <time name="total">   26.14   26.21</time>
   <energy>
    <i name="alphaZ">     85.83447003 </i>
    <i name="ewald">  42838.29681568 </i>
    <i name="hartreedc"> -48826.26404991 </i>
    <i name="XCdc">   -234.29322139 </i>
    <i name="pawpsdc">   4062.70573404 </i>
    <i name="pawaedc">  -3478.57560202 </i>
    <i name="eentropy">     -0.19678778 </i>
    <i name="bandstr">  -1399.65824204 </i>
    <i name="atom">   6761.44252427 </i>
    <i name="e_fr_energy">   -190.70835912 </i>
    <i name="e_wo_entrp">   -190.51157134 </i>
    <i name="e_0_energy">   -190.60996523 </i>
   </energy>
  </scstep>
  <structure>
   <crystal>
    <varray name="basis" >
     <v>       8.48675831       4.89814939       0.00000000 </v>
     <v>      -8.48676204       4.89815667       0.00000000 </v>
     <v>       0.00000000       0.00000000      30.00000000 </v>
    </varray>
    <i name="volume">   2494.16700393 </i>
    <varray name="rec_basis" >
     <v>       0.05891534       0.10207932       0.00000000 </v>
     <v>      -0.05891525       0.10207927       0.00000000 </v>
     <v>       0.00000000       0.00000000       0.03333333 </v>
    </varray>
   </crystal>
   <varray name="positions" >
    <v>       0.33849026       0.66681355       0.00017414 </v>
    <v>      -0.00218845       0.66662009      -0.00005492 </v>
    <v>       0.66325634       0.33361275      -0.00021718 </v>
    <v>       0.33536991       0.33487924       0.00001858 </v>
    <v>       0.66936778      -0.00305911       0.00002279 </v>
    <v>       0.66357781       0.66786386      -0.00000401 </v>
    <v>      -0.00463700       0.00134355       0.00003721 </v>
    <v>       0.99980898       0.32820476      -0.00025913 </v>
    <v>       0.33673525       0.00362536       0.00025371 </v>
    <v>       0.11014522       0.22150185       0.94896392 </v>
    <v>       0.22132364       0.10966257       0.05046923 </v>
    <v>       0.11306615       0.55961328       0.95246758 </v>
    <v>       0.22375828       0.44974935       0.04947138 </v>
    <v>       0.10893249       0.88463701       0.95095101 </v>
    <v>       0.22027545       0.77345993       0.04768116 </v>
    <v>       0.44979404       0.22406469       0.95007415 </v>
    <v>       0.55739296       0.11614310       0.04941544 </v>
    <v>       0.44125601       0.55849339       0.95007260 </v>
    <v>       0.55879013       0.44160272       0.04955899 </v>
    <v>       0.44068400       0.88363453       0.95071872 </v>
    <v>       0.54930453       0.77451391       0.05016270 </v>
    <v>       0.77596269       0.22578177       0.95084451 </v>
    <v>       0.88979292       0.11145837       0.05146461 </v>
    <v>       0.78011415       0.55260038       0.95189069 </v>
    <v>       0.88669467       0.44625529       0.04776735 </v>
    <v>       0.77894410       0.88921352       0.94870267 </v>
    <v>       0.89220216       0.77592475       0.04935199 </v>
   </varray>
  </structure>
  <varray name="forces" >
   <v>       0.27638124       0.19019193      -0.04788871 </v>
   <v>      -0.12419182      -0.02946274      -0.00359172 </v>
   <v>      -0.31692929      -0.17860197       0.04310266 </v>
   <v>       0.08653819       0.03357441       0.03115693 </v>
   <v>       0.53454448       0.10552770      -0.02449008 </v>
   <v>      -0.32694202       0.01603631       0.01258994 </v>
   <v>      -0.52949564      -0.09105887      -0.01049130 </v>
   <v>       0.46452934      -0.31332134      -0.02169202 </v>
   <v>      -0.11261841       0.25961318       0.01979384 </v>
   <v>       0.06908258       0.01452566      -0.46015142 </v>
   <v>      -0.03254798      -0.02970477       0.26860544 </v>
   <v>       0.05557870       0.00452303      -0.09492234 </v>
   <v>      -0.02616291       0.02232749       0.30220996 </v>
   <v>      -0.03666485       0.01088944      -0.16787707 </v>
   <v>       0.02484904       0.00249903       0.17760271 </v>
   <v>       0.00235784       0.07190929      -0.46663377 </v>
   <v>       0.04461089       0.07372141       0.25823601 </v>
   <v>      -0.03755286       0.00050656      -0.44251267 </v>
   <v>       0.00706026       0.04375760       0.37231049 </v>
   <v>       0.02800721      -0.00464657      -0.21636425 </v>
   <v>      -0.02271832      -0.03372990       0.54576534 </v>
   <v>       0.00242367      -0.02120051      -0.24411814 </v>
   <v>      -0.02042985      -0.03151251       0.59898802 </v>
   <v>      -0.03298137      -0.02610706      -0.31931903 </v>
   <v>       0.02297619      -0.02993714       0.13459114 </v>
   <v>       0.03645265      -0.04202203      -0.54404111 </v>
   <v>      -0.03615695      -0.01829763       0.29914113 </v>
  </varray>
  <varray name="stress" >
   <v>      -5.74074842       0.02002977      -0.12571273 </v>
   <v>       0.02003001      -5.94849891      -0.00813426 </v>
   <v>      -0.12571266      -0.00813442       4.55051696 </v>
  </varray>
  <energy>
   <i name="e_fr_energy">   -190.70835912 </i>
   <i name="e_wo_entrp">   -190.60996523 </i>
   <i name="e_0_energy">     -0.19678778 </i>
  </energy>
  <time name="totalsc">  375.66  376.64</time>
 </calculation>
 <calculation>
  <scstep>
   <time name="dav">   23.19   23.24</time>
   <time name="total">   23.70   23.75</time>
   <energy>
    <i name="alphaZ">     90.31951681 </i>
    <i name="ewald">  44738.47116575 </i>
    <i name="hartreedc"> -50783.01812590 </i>
    <i name="XCdc">   -231.71017213 </i>
    <i name="pawpsdc">   4063.11278669 </i>
    <i name="pawaedc">  -3478.98178138 </i>
    <i name="eentropy">     -0.17736708 </i>
    <i name="bandstr">  -1351.59057341 </i>
    <i name="atom">   6761.44252427 </i>
    <i name="e_fr_energy">   -192.13202638 </i>
    <i name="e_wo_entrp">   -191.95465930 </i>
    <i name="e_0_energy">   -192.04334284 </i>
   </energy>
  </scstep>
  <scstep>
   <time name="dav">   32.01   32.08</time>
   <time name="total">   32.51   32.60</time>
   <energy>
    <i name="e_fr_energy">   -191.96103841 </i>
    <i name="e_wo_entrp">   -191.76231667 </i>
    <i name="e_0_energy">   -191.86167754 </i>
   </energy>
  </scstep>
  <scstep>
   <time name="dav">   32.10   32.17</time>
   <time name="total">   32.60   32.69</time>
   <energy>
    <i name="e_fr_energy">   -192.41050614 </i>
    <i name="e_wo_entrp">   -192.21917182 </i>
    <i name="e_0_energy">   -192.31483898 </i>
   </energy>
  </scstep>
  <scstep>
   <time name="dav">   32.28   32.36</time>
   <time name="total">   32.79   32.88</time>
   <energy>
    <i name="e_fr_energy">   -191.53948669 </i>
    <i name="e_wo_entrp">   -191.35930175 </i>
    <i name="e_0_energy">   -191.44939422 </i>
   </energy>
  </scstep>
  <scstep>
   <time name="dav">   31.22   31.29</time>
   <time name="total">   31.73   31.81</time>
   <energy>
    <i name="e_fr_energy">   -191.50983063 </i>
    <i name="e_wo_entrp">   -191.31300691 </i>
    <i name="e_0_energy">   -191.41141877 </i>
   </energy>
  </scstep>
  <scstep>
   <time name="dav">   32.03   32.11</time>
   <time name="total">   32.54   32.62</time>
   <energy>
    <i name="e_fr_energy">   -191.37296736 </i>
    <i name="e_wo_entrp">   -191.19055920 </i>
    <i name="e_0_energy">   -191.28176328 </i>
   </energy>
  </scstep>
  <scstep>
   <time name="dav">   31.37   31.44</time>
   <time name="total">   31.88   31.96</time>
   <energy>
    <i name="e_fr_energy">   -191.34830637 </i>
    <i name="e_wo_entrp">   -191.16328109 </i>
    <i name="e_0_energy">   -191.25579373 </i>
   </energy>
  </scstep>
  <scstep>
   <time name="dav">   31.76   31.84</time>
   <time name="total">   32.27   32.36</time>
   <energy>
    <i name="e_fr_energy">   -191.34692408 </i>
    <i name="e_wo_entrp">   -191.16027195 </i>
    <i name="e_0_energy">   -191.25359801 </i>
   </energy>
  </scstep>
  <scstep>
   <time name="dav">   30.29   30.36</time>
   <time name="total">   30.80   30.88</time>
   <energy>
    <i name="e_fr_energy">   -191.34146667 </i>
    <i name="e_wo_entrp">   -191.15568691 </i>
    <i name="e_0_energy">   -191.24857679 </i>
   </energy>
  </scstep>
  <scstep>
   <time name="dav">   30.52   30.60</time>
   <time name="total">   31.03   31.11</time>
   <energy>
    <i name="e_fr_energy">   -191.34158978 </i>
    <i name="e_wo_entrp">   -191.15548912 </i>
    <i name="e_0_energy">   -191.24853945 </i>
   </energy>
  </scstep>
  <scstep>
   <time name="dav">   28.81   28.88</time>
   <time name="total">   29.32   29.40</time>
   <energy>
    <i name="e_fr_energy">   -191.34144885 </i>
    <i name="e_wo_entrp">   -191.15506104 </i>
    <i name="e_0_energy">   -191.24825494 </i>
   </energy>
  </scstep>
  <scstep>
   <time name="dav">   21.36   21.41</time>
   <time name="total">   21.40   21.45</time>
   <energy>
    <i name="alphaZ">     90.31951681 </i>
    <i name="ewald">  44738.47116575 </i>
    <i name="hartreedc"> -50748.14251783 </i>
    <i name="XCdc">   -233.29777646 </i>
    <i name="pawpsdc">   4086.58548908 </i>
    <i name="pawaedc">  -3502.55138258 </i>
    <i name="eentropy">     -0.18628247 </i>
    <i name="bandstr">  -1383.98215185 </i>
    <i name="atom">   6761.44252427 </i>
    <i name="e_fr_energy">   -191.34141528 </i>
    <i name="e_wo_entrp">   -191.15513281 </i>
    <i name="e_0_energy">   -191.24827405 </i>
   </energy>
  </scstep>
  <structure>
   <crystal>
    <varray name="basis" >
     <v>       8.27858859       4.77310236       0.00000000 </v>
     <v>      -8.27761112       4.77140996       0.00000000 </v>
     <v>       0.00000000       0.00000000      30.00000000 </v>
    </varray>
    <i name="volume">   2370.31275733 </i>
    <varray name="rec_basis" >
     <v>       0.06038963       0.10476606       0.00000000 </v>
     <v>      -0.06041105       0.10477843       0.00000000 </v>
     <v>       0.00000000       0.00000000       0.03333333 </v>
    </varray>
   </crystal>
   <varray name="positions" >
    <v>       0.34291606       0.66718726      -0.00001523 </v>
    <v>      -0.00344908       0.66722441      -0.00006951 </v>
    <v>       0.65871015       0.33353019      -0.00004567 </v>
    <v>       0.33629760       0.33456679       0.00016621 </v>
    <v>       0.67455465      -0.00554632      -0.00010513 </v>
    <v>       0.66144192       0.67049323       0.00005250 </v>
    <v>      -0.00948383       0.00414092      -0.00000068 </v>
    <v>       0.99925464       0.32077070      -0.00036721 </v>
    <v>       0.33910361       0.00773341       0.00034199 </v>
    <v>       0.11096185       0.22129655       0.94647282 </v>
    <v>       0.22083641       0.10967282       0.05217488 </v>
    <v>       0.11383565       0.55995481       0.95157899 </v>
    <v>       0.22424184       0.45073651       0.05127956 </v>
    <v>       0.10855445       0.88445190       0.94970574 </v>
    <v>       0.22012696       0.77269021       0.04888953 </v>
    <v>       0.45120513       0.22531347       0.94759572 </v>
    <v>       0.55905136       0.11729528       0.05105854 </v>
    <v>       0.44076796       0.55899702       0.94767427 </v>
    <v>       0.55963224       0.44185783       0.05163275 </v>
    <v>       0.44062719       0.88284038       0.94925225 </v>
    <v>       0.54826343       0.77398040       0.05296560 </v>
    <v>       0.77531399       0.22564277       0.94928811 </v>
    <v>       0.88913915       0.11117153       0.05454077 </v>
    <v>       0.77979169       0.55231747       0.95011751 </v>
    <v>       0.88620122       0.44604738       0.04882246 </v>
    <v>       0.77848710       0.88835273       0.94585602 </v>
    <v>       0.89183113       0.77549482       0.05113710 </v>
   </varray>
  </structure>
  <varray name="forces" >
   <v>       0.15941267       0.11628738       0.00226311 </v>
   <v>      -0.08215931      -0.03021940       0.00083853 </v>
   <v>      -0.41054898      -0.06723807       0.01256089 </v>
   <v>       0.11906125       0.00190391      -0.03114152 </v>
   <v>       0.32774636       0.08531854       0.05726949 </v>
   <v>      -0.09112682       0.05227098      -0.02047394 </v>
   <v>      -0.23796988      -0.07764578      -0.07976728 </v>
   <v>       0.27031384      -0.19887531       0.02194745 </v>
   <v>      -0.16472708       0.12994285       0.01155802 </v>
   <v>       0.12983215       0.01415018      -0.19404721 </v>
   <v>      -0.08964945      -0.07642404       0.01160024 </v>
   <v>       0.14428075      -0.09526289       0.12046243 </v>
   <v>       0.04776105      -0.06182385       0.01393048 </v>
   <v>      -0.15199104       0.08397330       0.06544050 </v>
   <v>       0.01649542       0.08648289      -0.06031069 </v>
   <v>      -0.07115835       0.02594337      -0.17366364 </v>
   <v>       0.14725232       0.02936979      -0.07499962 </v>
   <v>       0.05509675      -0.00287028      -0.09817516 </v>
   <v>      -0.13668724       0.05099983       0.12117083 </v>
   <v>       0.03233143       0.16056262       0.06342599 </v>
   <v>       0.01390138       0.08166657       0.16866794 </v>
   <v>       0.11064604      -0.06111879       0.08444151 </v>
   <v>      -0.02079995      -0.07714252       0.35153948 </v>
   <v>      -0.13066164      -0.05370333      -0.04593650 </v>
   <v>       0.10563592      -0.06862477      -0.10374132 </v>
   <v>       0.07928762      -0.05821299      -0.25199066 </v>
   <v>      -0.17157521       0.01028980       0.02713063 </v>
  </varray>
  <varray name="stress" >
   <v>       0.36934524      -0.03129094      -0.31838794 </v>
   <v>      -0.03129092      -0.13280717      -0.04228711 </v>
   <v>      -0.31838791      -0.04228713      -0.20390220 </v>
  </varray>
  <energy>
   <i name="e_fr_energy">   -191.34141528 </i>
   <i name="e_wo_entrp">   -191.24827405 </i>
   <i name="e_0_energy">     -0.18628247 </i>
  </energy>
  <time name="totalsc">  406.62  407.69</time>
 </calculation>
 <calculation>
  <scstep>
   <time name="dav">   23.22   23.27</time>
   <time name="total">   23.72   23.78</time>
   <energy>
    <i name="alphaZ">     90.22239078 </i>
    <i name="ewald">  44671.31236129 </i>
    <i name="hartreedc"> -50680.73189066 </i>
    <i name="XCdc">   -233.45891708 </i>
    <i name="pawpsdc">   4086.46857297 </i>
    <i name="pawaedc">  -3502.42992691 </i>
    <i name="eentropy">     -0.18943296 </i>
    <i name="bandstr">  -1384.02395832 </i>
    <i name="atom">   6761.44252427 </i>
    <i name="e_fr_energy">   -191.38827661 </i>
    <i name="e_wo_entrp">   -191.19884365 </i>
    <i name="e_0_energy">   -191.29356013 </i>
   </energy>
  </scstep>
  <scstep>
   <time name="dav">   32.49   32.56</time>
   <time name="total">   32.99   33.08</time>
   <energy>
    <i name="e_fr_energy">   -191.44677156 </i>
    <i name="e_wo_entrp">   -191.24610347 </i>
    <i name="e_0_energy">   -191.34643752 </i>
   </energy>
  </scstep>
  <scstep>
   <time name="dav">   31.74   31.82</time>
   <time name="total">   32.25   32.33</time>
   <energy>
    <i name="e_fr_energy">   -191.39713395 </i>
    <i name="e_wo_entrp">   -191.20732310 </i>
    <i name="e_0_energy">   -191.30222853 </i>
   </energy>
  </scstep>
  <scstep>
   <time name="dav">   30.45   30.52</time>
   <time name="total">   30.95   31.03</time>
   <energy>
    <i name="e_fr_energy">   -191.39744910 </i>
    <i name="e_wo_entrp">   -191.20605434 </i>
    <i name="e_0_energy">   -191.30175172 </i>
   </energy>
  </scstep>
  <scstep>
   <time name="dav">   30.54   30.61</time>
   <time name="total">   31.05   31.13</time>
   <energy>
    <i name="e_fr_energy">   -191.39451407 </i>
    <i name="e_wo_entrp">   -191.20342341 </i>
    <i name="e_0_energy">   -191.29896874 </i>
   </energy>
  </scstep>
  <scstep>
   <time name="dav">   30.47   30.54</time>
   <time name="total">   30.98   31.06</time>
   <energy>
    <i name="e_fr_energy">   -191.39463128 </i>
    <i name="e_wo_entrp">   -191.20336821 </i>
    <i name="e_0_energy">   -191.29899974 </i>
   </energy>
  </scstep>
  <scstep>
   <time name="dav">   29.33   29.40</time>
   <time name="total">   29.84   29.92</time>
   <energy>
    <i name="e_fr_energy">   -191.39448859 </i>
    <i name="e_wo_entrp">   -191.20350989 </i>
    <i name="e_0_energy">   -191.29899924 </i>
   </energy>
  </scstep>
  <scstep>
   <time name="dav">   25.17   25.23</time>
   <time name="total">   25.68   25.75</time>
   <energy>
    <i name="e_fr_energy">   -191.39409247 </i>
    <i name="e_wo_entrp">   -191.20312014 </i>
    <i name="e_0_energy">   -191.29860630 </i>
   </energy>
  </scstep>
  <scstep>
   <time name="dav">   19.59   19.63</time>
   <time name="total">   19.63   19.68</time>
   <energy>
    <i name="alphaZ">     90.22239078 </i>
    <i name="ewald">  44671.31236129 </i>
    <i name="hartreedc"> -50682.46243799 </i>
    <i name="XCdc">   -233.40479668 </i>
    <i name="pawpsdc">   4082.53173929 </i>
    <i name="pawaedc">  -3498.43587228 </i>
    <i name="eentropy">     -0.19100953 </i>
    <i name="bandstr">  -1382.40900709 </i>
    <i name="atom">   6761.44252427 </i>
    <i name="e_fr_energy">   -191.39410795 </i>
    <i name="e_wo_entrp">   -191.20309841 </i>
    <i name="e_0_energy">   -191.29860318 </i>
   </energy>
  </scstep>
  <structure>
   <crystal>
    <varray name="basis" >
     <v>       8.28794865       4.77194251       0.00000000 </v>
     <v>      -8.28775064       4.77160434       0.00000000 </v>
     <v>       0.00000000       0.00000000      30.00000000 </v>
    </varray>
    <i name="volume">   2372.86444183 </i>
    <varray name="rec_basis" >
     <v>       0.06032714       0.10478159       0.00000000 </v>
     <v>      -0.06033142       0.10478410       0.00000000 </v>
     <v>       0.00000000       0.00000000       0.03333333 </v>
    </varray>
   </crystal>
   <varray name="positions" >
    <v>       0.34387195       0.66730161      -0.00000880 </v>
    <v>      -0.00381158       0.66729872      -0.00006797 </v>
    <v>       0.65728451       0.33436751      -0.00002861 </v>
    <v>       0.33663171       0.33424401       0.00011492 </v>
    <v>       0.67582449      -0.00601867      -0.00001313 </v>
    <v>       0.66147361       0.67096789       0.00001949 </v>
    <v>      -0.01046756       0.00438964      -0.00012512 </v>
    <v>       0.99905109       0.31914075      -0.00033094 </v>
    <v>       0.33923978       0.00877685       0.00035865 </v>
    <v>       0.11138602       0.22099963       0.94621366 </v>
    <v>       0.22021193       0.10954935       0.05216041 </v>
    <v>       0.11376097       0.55906368       0.95178660 </v>
    <v>       0.22406147       0.45027581       0.05126749 </v>
    <v>       0.10854493       0.88530588       0.94983328 </v>
    <v>       0.22060561       0.77308755       0.04877138 </v>
    <v>       0.45110398       0.22562021       0.94736791 </v>
    <v>       0.55958404       0.11699830       0.05090955 </v>
    <v>       0.44092007       0.55881631       0.94756368 </v>
    <v>       0.55947984       0.44249563       0.05178480 </v>
    <v>       0.44151259       0.88355711       0.94938030 </v>
    <v>       0.54872584       0.77435422       0.05318053 </v>
    <v>       0.77534122       0.22502826       0.94945025 </v>
    <v>       0.88871150       0.11085551       0.05503742 </v>
    <v>       0.77915888       0.55243037       0.95007782 </v>
    <v>       0.88617368       0.44540929       0.04863842 </v>
    <v>       0.77843456       0.88785497       0.94551173 </v>
    <v>       0.89139933       0.77604406       0.05114618 </v>
   </varray>
  </structure>
  <varray name="forces" >
   <v>       0.15810550       0.12549623      -0.00572611 </v>
   <v>      -0.07675746      -0.03753210       0.02111917 </v>
   <v>      -0.42543515      -0.04599865       0.01998176 </v>
   <v>       0.12687947       0.00290525      -0.01497481 </v>
   <v>       0.37851197       0.07029454       0.01607158 </v>
   <v>      -0.09682934       0.04478864      -0.01391471 </v>
   <v>      -0.28068523      -0.07771196      -0.02900452 </v>
   <v>       0.31853093      -0.20583290       0.00599142 </v>
   <v>      -0.18777923       0.14061675       0.03066130 </v>
   <v>       0.08121175       0.00713248      -0.12075874 </v>
   <v>      -0.06079283      -0.05928365      -0.01482751 </v>
   <v>       0.10127621      -0.06708251       0.14472077 </v>
   <v>       0.04294931      -0.03600516      -0.00910223 </v>
   <v>      -0.09462176       0.05280001       0.04608513 </v>
   <v>       0.00881586       0.06305678      -0.09574949 </v>
   <v>      -0.05032655       0.02471978      -0.14941766 </v>
   <v>       0.08346237       0.03631681      -0.11185403 </v>
   <v>       0.02547997      -0.00524571      -0.06086140 </v>
   <v>      -0.09755307       0.02924129       0.09804387 </v>
   <v>       0.01102337       0.11376115       0.10192632 </v>
   <v>       0.02484463       0.04433352       0.12826195 </v>
   <v>       0.05796485      -0.04890771       0.12551113 </v>
   <v>       0.02554873      -0.04728373       0.23231267 </v>
   <v>      -0.08271569      -0.03759902      -0.04074192 </v>
   <v>       0.06452611      -0.05480023      -0.12711418 </v>
   <v>       0.05032836      -0.04552220      -0.18144954 </v>
   <v>      -0.10596306       0.01334231       0.00480977 </v>
  </varray>
  <varray name="stress" >
   <v>      -0.18531661       0.01553618      -0.12181526 </v>
   <v>       0.01553625      -0.26837640      -0.00596168 </v>
   <v>      -0.12181512      -0.00596167      -0.98663529 </v>
  </varray>
  <energy>
   <i name="e_fr_energy">   -191.39410795 </i>
   <i name="e_wo_entrp">   -191.29860318 </i>
   <i name="e_0_energy">     -0.19100953 </i>
  </energy>
  <time name="totalsc">  301.90  302.69</time>
 </calculation>
 <calculation>
  <scstep>
   <time name="dav">   23.22   23.28</time>
   <time name="total">   23.73   23.79</time>
   <energy>
    <i name="alphaZ">     90.45931632 </i>
    <i name="ewald">  44767.96220772 </i>
    <i name="hartreedc"> -50781.97206682 </i>
    <i name="XCdc">   -233.28726407 </i>
    <i name="pawpsdc">   4082.36920445 </i>
    <i name="pawaedc">  -3498.27109396 </i>
    <i name="eentropy">     -0.19068086 </i>
    <i name="bandstr">  -1379.97605194 </i>
    <i name="atom">   6761.44252427 </i>
    <i name="e_fr_energy">   -191.46390489 </i>
    <i name="e_wo_entrp">   -191.27322403 </i>
    <i name="e_0_energy">   -191.36856446 </i>
   </energy>
  </scstep>
  <scstep>
   <time name="dav">   32.71   32.79</time>
   <time name="total">   33.22   33.30</time>
   <energy>
    <i name="e_fr_energy">   -191.56490171 </i>
    <i name="e_wo_entrp">   -191.34843923 </i>
    <i name="e_0_energy">   -191.45667047 </i>
   </energy>
  </scstep>
  <scstep>
   <time name="dav">   31.51   31.58</time>
   <time name="total">   32.01   32.10</time>
   <energy>
    <i name="e_fr_energy">   -191.47922243 </i>
    <i name="e_wo_entrp">   -191.28768579 </i>
    <i name="e_0_energy">   -191.38345411 </i>
   </energy>
  </scstep>
  <scstep>
   <time name="dav">   30.37   30.44</time>
   <time name="total">   30.87   30.96</time>
   <energy>
    <i name="e_fr_energy">   -191.47865594 </i>
    <i name="e_wo_entrp">   -191.28540908 </i>
    <i name="e_0_energy">   -191.38203251 </i>
   </energy>
  </scstep>
  <scstep>
   <time name="dav">   30.93   31.00</time>
   <time name="total">   31.43   31.52</time>
   <energy>
    <i name="e_fr_energy">   -191.47024275 </i>
    <i name="e_wo_entrp">   -191.27629069 </i>
    <i name="e_0_energy">   -191.37326672 </i>
   </energy>
  </scstep>
  <scstep>
   <time name="dav">   30.38   30.45</time>
   <time name="total">   30.89   30.97</time>
   <energy>
    <i name="e_fr_energy">   -191.47007754 </i>
    <i name="e_wo_entrp">   -191.27530732 </i>
    <i name="e_0_energy">   -191.37269243 </i>
   </energy>
  </scstep>
  <scstep>
   <time name="dav">   29.76   29.83</time>
   <time name="total">   30.27   30.35</time>
   <energy>
    <i name="e_fr_energy">   -191.46945898 </i>
    <i name="e_wo_entrp">   -191.27493081 </i>
    <i name="e_0_energy">   -191.37219489 </i>
   </energy>
  </scstep>
  <scstep>
   <time name="dav">   27.90   27.97</time>
   <time name="total">   28.41   28.49</time>
   <energy>
    <i name="e_fr_energy">   -191.46863552 </i>
    <i name="e_wo_entrp">   -191.27383044 </i>
    <i name="e_0_energy">   -191.37123298 </i>
   </energy>
  </scstep>
  <scstep>
[...]
      <set comment="kpoint 31">
       <r>  -17.5451    1.0000 </r>
       <r>  -17.2347    1.0000 </r>
       <r>  -16.9153    1.0000 </r>
       <r>  -16.6509    1.0000 </r>
       <r>  -16.5067    1.0000 </r>
       <r>  -16.4334    1.0000 </r>
       <r>  -16.2724    1.0000 </r>
       <r>  -16.2272    1.0000 </r>
       <r>  -16.0786    1.0000 </r>
       <r>  -16.0055    1.0000 </r>
       <r>  -15.9061    1.0000 </r>
       <r>  -15.8614    1.0000 </r>
       <r>  -15.7896    1.0000 </r>
       <r>  -15.6907    1.0000 </r>
       <r>  -15.6195    1.0000 </r>
       <r>  -15.5334    1.0000 </r>
       <r>  -15.4211    1.0000 </r>
       <r>  -15.2713    1.0000 </r>
       <r>   -9.7608    1.0000 </r>
       <r>   -9.4484    1.0000 </r>
       <r>   -9.3400    1.0000 </r>
       <r>   -9.0299    1.0000 </r>
       <r>   -8.8286    1.0000 </r>
       <r>   -8.6912    1.0000 </r>
       <r>   -8.5593    1.0000 </r>
       <r>   -8.4817    1.0000 </r>
       <r>   -8.4048    1.0000 </r>
       <r>   -8.3223    1.0000 </r>
       <r>   -8.2757    1.0000 </r>
       <r>   -8.1962    1.0000 </r>
       <r>   -8.1448    1.0000 </r>
       <r>   -8.0976    1.0000 </r>
       <r>   -7.9955    1.0000 </r>
       <r>   -7.8930    1.0000 </r>
       <r>   -7.8091    1.0000 </r>
       <r>   -7.6477    1.0000 </r>
       <r>   -7.5718    1.0000 </r>
       <r>   -7.4912    1.0000 </r>
       <r>   -7.3481    1.0000 </r>
       <r>   -7.1889    1.0000 </r>
       <r>   -7.1123    1.0000 </r>
       <r>   -7.0351    1.0000 </r>
       <r>   -7.0113    1.0000 </r>
       <r>   -6.9805    1.0000 </r>
       <r>   -6.9022    1.0000 </r>
       <r>   -6.8409    1.0000 </r>
       <r>   -6.6891    1.0000 </r>
       <r>   -6.6156    1.0000 </r>
       <r>   -6.5758    1.0000 </r>
       <r>   -6.5385    1.0000 </r>
       <r>   -6.4306    1.0000 </r>
       <r>   -6.3018    1.0000 </r>
       <r>   -6.2394    1.0000 </r>
       <r>   -6.1761    1.0000 </r>
       <r>   -6.1036    1.0000 </r>
       <r>   -6.0159    1.0000 </r>
       <r>   -5.9381    1.0000 </r>
       <r>   -5.8885    1.0000 </r>
       <r>   -5.8614    1.0000 </r>
       <r>   -5.7781    1.0000 </r>
       <r>   -5.7221    1.0000 </r>
       <r>   -5.6130    1.0000 </r>
       <r>   -5.5349    1.0000 </r>
       <r>   -5.3352    1.0000 </r>
       <r>   -5.3122    1.0000 </r>
       <r>   -5.1813    1.0000 </r>
       <r>   -5.1032    1.0000 </r>
       <r>   -4.8743    1.0000 </r>
       <r>   -4.7895    1.0000 </r>
       <r>   -4.7206    1.0000 </r>
       <r>   -4.5292    1.0000 </r>
       <r>   -4.4374    1.0000 </r>
       <r>   -4.3873    1.0000 </r>
       <r>   -4.2289    1.0000 </r>
       <r>   -4.0549    1.0000 </r>
       <r>   -3.9998    1.0000 </r>
       <r>   -3.7947    0.9989 </r>
       <r>   -3.7448    0.9965 </r>
       <r>   -3.5931    0.9483 </r>
       <r>   -3.3764    0.5385 </r>
       <r>   -3.0711    0.0196 </r>
       <r>   -2.8486    0.0001 </r>
       <r>   -2.7856    0.0000 </r>
       <r>   -2.6887    0.0000 </r>
       <r>   -2.4912    0.0000 </r>
       <r>   -2.3652    0.0000 </r>
       <r>   -2.3313    0.0000 </r>
       <r>   -2.1208    0.0000 </r>
       <r>   -2.0503    0.0000 </r>
       <r>   -1.9762    0.0000 </r>
       <r>   -1.7426    0.0000 </r>
       <r>   -1.5634    0.0000 </r>
       <r>   -1.3840    0.0000 </r>
       <r>   -1.3148    0.0000 </r>
       <r>   -1.2618    0.0000 </r>
       <r>   -1.1966    0.0000 </r>
       <r>   -1.0986    0.0000 </r>
       <r>   -1.0535    0.0000 </r>
       <r>   -0.9639    0.0000 </r>
       <r>   -0.8984    0.0000 </r>
       <r>   -0.8032    0.0000 </r>
       <r>   -0.7400    0.0000 </r>
       <r>   -0.6555    0.0000 </r>
       <r>   -0.5153    0.0000 </r>
       <r>   -0.4654    0.0000 </r>
       <r>   -0.2712    0.0000 </r>
       <r>   -0.1911    0.0000 </r>
       <r>   -0.1288    0.0000 </r>
       <r>   -0.0537    0.0000 </r>
       <r>    0.0483    0.0000 </r>
       <r>    0.2999    0.0000 </r>
       <r>    0.5521    0.0000 </r>
       <r>    0.6718    0.0000 </r>
       <r>    1.0356    0.0000 </r>
       <r>    1.1149    0.0000 </r>
       <r>    1.2908    0.0000 </r>
       <r>    1.4492    0.0000 </r>
       <r>    2.1289    0.0000 </r>
       <r>    2.2980    0.0000 </r>
       <r>    2.3875    0.0000 </r>
      </set>
      <set comment="kpoint 32">
       <r>  -17.5532    1.0000 </r>
       <r>  -17.1614    1.0000 </r>
       <r>  -17.0358    1.0000 </r>
       <r>  -16.6561    1.0000 </r>
       <r>  -16.4314    1.0000 </r>
       <r>  -16.3799    1.0000 </r>
       <r>  -16.2778    1.0000 </r>
       <r>  -16.2143    1.0000 </r>
       <r>  -16.1206    1.0000 </r>
       <r>  -15.9945    1.0000 </r>
       <r>  -15.9379    1.0000 </r>
       <r>  -15.8770    1.0000 </r>
       <r>  -15.7957    1.0000 </r>
       <r>  -15.7040    1.0000 </r>
       <r>  -15.6141    1.0000 </r>
       <r>  -15.5380    1.0000 </r>
       <r>  -15.4344    1.0000 </r>
       <r>  -15.2375    1.0000 </r>
       <r>   -9.6786    1.0000 </r>
       <r>   -9.5337    1.0000 </r>
       <r>   -9.4384    1.0000 </r>
       <r>   -9.0495    1.0000 </r>
       <r>   -8.7475    1.0000 </r>
       <r>   -8.5235    1.0000 </r>
       <r>   -8.4954    1.0000 </r>
       <r>   -8.4523    1.0000 </r>
       <r>   -8.3727    1.0000 </r>
       <r>   -8.3504    1.0000 </r>
       <r>   -8.2877    1.0000 </r>
       <r>   -8.2380    1.0000 </r>
       <r>   -8.2072    1.0000 </r>
       <r>   -8.1114    1.0000 </r>
       <r>   -8.0271    1.0000 </r>
       <r>   -7.9591    1.0000 </r>
       <r>   -7.8769    1.0000 </r>
       <r>   -7.6520    1.0000 </r>
       <r>   -7.5261    1.0000 </r>
       <r>   -7.4690    1.0000 </r>
       <r>   -7.3365    1.0000 </r>
       <r>   -7.2238    1.0000 </r>
       <r>   -7.0830    1.0000 </r>
       <r>   -7.0477    1.0000 </r>
       <r>   -7.0337    1.0000 </r>
       <r>   -6.9655    1.0000 </r>
       <r>   -6.9352    1.0000 </r>
       <r>   -6.8431    1.0000 </r>
       <r>   -6.7104    1.0000 </r>
       <r>   -6.5982    1.0000 </r>
       <r>   -6.5270    1.0000 </r>
       <r>   -6.4659    1.0000 </r>
       <r>   -6.3963    1.0000 </r>
       <r>   -6.3572    1.0000 </r>
       <r>   -6.2789    1.0000 </r>
       <r>   -6.2017    1.0000 </r>
       <r>   -6.1430    1.0000 </r>
       <r>   -6.0052    1.0000 </r>
       <r>   -5.9749    1.0000 </r>
       <r>   -5.8864    1.0000 </r>
       <r>   -5.8015    1.0000 </r>
       <r>   -5.7347    1.0000 </r>
       <r>   -5.6461    1.0000 </r>
       <r>   -5.5928    1.0000 </r>
       <r>   -5.5255    1.0000 </r>
       <r>   -5.4204    1.0000 </r>
       <r>   -5.2911    1.0000 </r>
       <r>   -5.2008    1.0000 </r>
       <r>   -5.1426    1.0000 </r>
       <r>   -4.9939    1.0000 </r>
       <r>   -4.7726    1.0000 </r>
       <r>   -4.6166    1.0000 </r>
       <r>   -4.5054    1.0000 </r>
       <r>   -4.4502    1.0000 </r>
       <r>   -4.3592    1.0000 </r>
       <r>   -4.2250    1.0000 </r>
       <r>   -4.1318    1.0000 </r>
       <r>   -4.0832    1.0000 </r>
       <r>   -3.8387    0.9996 </r>
       <r>   -3.7124    0.9933 </r>
       <r>   -3.5503    0.9076 </r>
       <r>   -3.3800    0.5488 </r>
       <r>   -2.9739    0.0030 </r>
       <r>   -2.8522    0.0002 </r>
       <r>   -2.7964    0.0000 </r>
       <r>   -2.6285    0.0000 </r>
       <r>   -2.4926    0.0000 </r>
       <r>   -2.3938    0.0000 </r>
       <r>   -2.2802    0.0000 </r>
       <r>   -2.0906    0.0000 </r>
       <r>   -2.0385    0.0000 </r>
       <r>   -1.9643    0.0000 </r>
       <r>   -1.7047    0.0000 </r>
       <r>   -1.5924    0.0000 </r>
       <r>   -1.4379    0.0000 </r>
       <r>   -1.3573    0.0000 </r>
       <r>   -1.3270    0.0000 </r>
       <r>   -1.2097    0.0000 </r>
       <r>   -1.0819    0.0000 </r>
       <r>   -1.0545    0.0000 </r>
       <r>   -0.9988    0.0000 </r>
       <r>   -0.9234    0.0000 </r>
       <r>   -0.7962    0.0000 </r>
       <r>   -0.7146    0.0000 </r>
       <r>   -0.6275    0.0000 </r>
       <r>   -0.5465    0.0000 </r>
       <r>   -0.4081    0.0000 </r>
       <r>   -0.2744    0.0000 </r>
       <r>   -0.1896    0.0000 </r>
       <r>   -0.1221    0.0000 </r>
       <r>    0.0057    0.0000 </r>
       <r>    0.1016    0.0000 </r>
       <r>    0.3454    0.0000 </r>
       <r>    0.5282    0.0000 </r>
       <r>    0.6612    0.0000 </r>
       <r>    1.0407    0.0000 </r>
       <r>    1.0783    0.0000 </r>
       <r>    1.2404    0.0000 </r>
       <r>    1.3340    0.0000 </r>
       <r>    2.0934    0.0000 </r>
       <r>    2.2701    0.0000 </r>
       <r>    2.5644    0.0000 </r>
      </set>
      <set comment="kpoint 33">
       <r>  -17.5378    1.0000 </r>
       <r>  -17.2605    1.0000 </r>
       <r>  -16.8982    1.0000 </r>
       <r>  -16.6602    1.0000 </r>
       <r>  -16.4896    1.0000 </r>
       <r>  -16.4046    1.0000 </r>
       <r>  -16.3162    1.0000 </r>
       <r>  -16.1907    1.0000 </r>
       <r>  -16.0833    1.0000 </r>
       <r>  -15.9665    1.0000 </r>
       <r>  -15.9244    1.0000 </r>
       <r>  -15.8661    1.0000 </r>
       <r>  -15.8133    1.0000 </r>
       <r>  -15.7037    1.0000 </r>
       <r>  -15.6230    1.0000 </r>
       <r>  -15.5647    1.0000 </r>
       <r>  -15.4347    1.0000 </r>
       <r>  -15.2274    1.0000 </r>
       <r>   -9.7259    1.0000 </r>
       <r>   -9.4479    1.0000 </r>
       <r>   -9.3690    1.0000 </r>
       <r>   -9.0547    1.0000 </r>
       <r>   -8.8926    1.0000 </r>
       <r>   -8.6961    1.0000 </r>
       <r>   -8.4799    1.0000 </r>
       <r>   -8.4359    1.0000 </r>
       <r>   -8.3631    1.0000 </r>
       <r>   -8.3231    1.0000 </r>
       <r>   -8.2698    1.0000 </r>
       <r>   -8.2338    1.0000 </r>
       <r>   -8.1673    1.0000 </r>
       <r>   -8.0717    1.0000 </r>
       <r>   -8.0078    1.0000 </r>
       <r>   -7.9145    1.0000 </r>
       <r>   -7.8030    1.0000 </r>
       <r>   -7.6865    1.0000 </r>
       <r>   -7.5978    1.0000 </r>
       <r>   -7.4128    1.0000 </r>
       <r>   -7.2839    1.0000 </r>
       <r>   -7.2407    1.0000 </r>
       <r>   -7.1210    1.0000 </r>
       <r>   -7.0743    1.0000 </r>
       <r>   -7.0150    1.0000 </r>
       <r>   -6.9547    1.0000 </r>
       <r>   -6.8752    1.0000 </r>
       <r>   -6.8089    1.0000 </r>
       <r>   -6.6770    1.0000 </r>
       <r>   -6.6331    1.0000 </r>
       <r>   -6.5382    1.0000 </r>
       <r>   -6.4499    1.0000 </r>
       <r>   -6.4028    1.0000 </r>
       <r>   -6.3574    1.0000 </r>
       <r>   -6.3187    1.0000 </r>
       <r>   -6.2355    1.0000 </r>
       <r>   -6.1341    1.0000 </r>
       <r>   -6.0557    1.0000 </r>
       <r>   -5.9631    1.0000 </r>
       <r>   -5.9334    1.0000 </r>
       <r>   -5.8751    1.0000 </r>
       <r>   -5.8101    1.0000 </r>
       <r>   -5.6615    1.0000 </r>
       <r>   -5.6321    1.0000 </r>
       <r>   -5.5797    1.0000 </r>
       <r>   -5.4020    1.0000 </r>
       <r>   -5.2338    1.0000 </r>
       <r>   -5.1674    1.0000 </r>
       <r>   -5.0291    1.0000 </r>
       <r>   -4.8737    1.0000 </r>
       <r>   -4.8046    1.0000 </r>
       <r>   -4.5911    1.0000 </r>
       <r>   -4.5151    1.0000 </r>
       <r>   -4.3864    1.0000 </r>
       <r>   -4.3548    1.0000 </r>
       <r>   -4.2477    1.0000 </r>
       <r>   -4.2100    1.0000 </r>
       <r>   -4.1299    1.0000 </r>
       <r>   -3.8856    0.9999 </r>
       <r>   -3.7181    0.9940 </r>
       <r>   -3.5596    0.9181 </r>
       <r>   -3.3689    0.5174 </r>
       <r>   -2.9802    0.0034 </r>
       <r>   -2.8063    0.0000 </r>
       <r>   -2.7424    0.0000 </r>
       <r>   -2.5931    0.0000 </r>
       <r>   -2.5034    0.0000 </r>
       <r>   -2.4112    0.0000 </r>
       <r>   -2.2412    0.0000 </r>
       <r>   -2.0624    0.0000 </r>
       <r>   -2.0002    0.0000 </r>
       <r>   -1.9296    0.0000 </r>
       <r>   -1.6690    0.0000 </r>
       <r>   -1.5823    0.0000 </r>
       <r>   -1.4714    0.0000 </r>
       <r>   -1.4143    0.0000 </r>
       <r>   -1.3945    0.0000 </r>
       <r>   -1.2366    0.0000 </r>
       <r>   -1.1432    0.0000 </r>
       <r>   -1.1094    0.0000 </r>
       <r>   -0.9792    0.0000 </r>
       <r>   -0.9096    0.0000 </r>
       <r>   -0.7865    0.0000 </r>
       <r>   -0.6718    0.0000 </r>
       <r>   -0.5921    0.0000 </r>
       <r>   -0.5552    0.0000 </r>
       <r>   -0.4474    0.0000 </r>
       <r>   -0.3135    0.0000 </r>
       <r>   -0.2173    0.0000 </r>
       <r>   -0.0702    0.0000 </r>
       <r>    0.0221    0.0000 </r>
       <r>    0.1899    0.0000 </r>
       <r>    0.3799    0.0000 </r>
       <r>    0.5579    0.0000 </r>
       <r>    0.6562    0.0000 </r>
       <r>    1.0111    0.0000 </r>
       <r>    1.0856    0.0000 </r>
       <r>    1.1589    0.0000 </r>
       <r>    1.3196    0.0000 </r>
       <r>    2.1182    0.0000 </r>
       <r>    2.3033    0.0000 </r>
       <r>    2.3760    0.0000 </r>
      </set>
      <set comment="kpoint 34">
       <r>  -17.5202    1.0000 </r>
       <r>  -17.3173    1.0000 </r>
       <r>  -16.7408    1.0000 </r>
       <r>  -16.6599    1.0000 </r>
       <r>  -16.6431    1.0000 </r>
       <r>  -16.4158    1.0000 </r>
       <r>  -16.2986    1.0000 </r>
       <r>  -16.2102    1.0000 </r>
       <r>  -16.0502    1.0000 </r>
       <r>  -15.9639    1.0000 </r>
       <r>  -15.9178    1.0000 </r>
       <r>  -15.8380    1.0000 </r>
       <r>  -15.7950    1.0000 </r>
       <r>  -15.7004    1.0000 </r>
       <r>  -15.6619    1.0000 </r>
       <r>  -15.5718    1.0000 </r>
       <r>  -15.4321    1.0000 </r>
       <r>  -15.2287    1.0000 </r>
       <r>   -9.7614    1.0000 </r>
       <r>   -9.3689    1.0000 </r>
       <r>   -9.2694    1.0000 </r>
       <r>   -9.0313    1.0000 </r>
       <r>   -9.0127    1.0000 </r>
       <r>   -8.8642    1.0000 </r>
       <r>   -8.4884    1.0000 </r>
       <r>   -8.4420    1.0000 </r>
       <r>   -8.3742    1.0000 </r>
       <r>   -8.3140    1.0000 </r>
       <r>   -8.2455    1.0000 </r>
       <r>   -8.2341    1.0000 </r>
       <r>   -8.1341    1.0000 </r>
       <r>   -8.0453    1.0000 </r>
       <r>   -7.9401    1.0000 </r>
       <r>   -7.9374    1.0000 </r>
       <r>   -7.7899    1.0000 </r>
       <r>   -7.7106    1.0000 </r>
       <r>   -7.4983    1.0000 </r>
       <r>   -7.4052    1.0000 </r>
       <r>   -7.2952    1.0000 </r>
       <r>   -7.2126    1.0000 </r>
       <r>   -7.1352    1.0000 </r>
       <r>   -7.0811    1.0000 </r>
       <r>   -7.0470    1.0000 </r>
       <r>   -6.9242    1.0000 </r>
       <r>   -6.8853    1.0000 </r>
       <r>   -6.8090    1.0000 </r>
       <r>   -6.6597    1.0000 </r>
       <r>   -6.6090    1.0000 </r>
       <r>   -6.5704    1.0000 </r>
       <r>   -6.4521    1.0000 </r>
       <r>   -6.4115    1.0000 </r>
       <r>   -6.3777    1.0000 </r>
       <r>   -6.2488    1.0000 </r>
       <r>   -6.2328    1.0000 </r>
       <r>   -6.2028    1.0000 </r>
       <r>   -6.1069    1.0000 </r>
       <r>   -6.0022    1.0000 </r>
       <r>   -5.9283    1.0000 </r>
       <r>   -5.9135    1.0000 </r>
       <r>   -5.7954    1.0000 </r>
       <r>   -5.7540    1.0000 </r>
       <r>   -5.6030    1.0000 </r>
       <r>   -5.5690    1.0000 </r>
       <r>   -5.4669    1.0000 </r>
       <r>   -5.2098    1.0000 </r>
       <r>   -5.1705    1.0000 </r>
       <r>   -4.8822    1.0000 </r>
       <r>   -4.8088    1.0000 </r>
       <r>   -4.7420    1.0000 </r>
       <r>   -4.5870    1.0000 </r>
       <r>   -4.5536    1.0000 </r>
       <r>   -4.4842    1.0000 </r>
       <r>   -4.3062    1.0000 </r>
       <r>   -4.2737    1.0000 </r>
       <r>   -4.2176    1.0000 </r>
       <r>   -4.1093    1.0000 </r>
       <r>   -3.9059    0.9999 </r>
       <r>   -3.7333    0.9956 </r>
       <r>   -3.5891    0.9453 </r>
       <r>   -3.3604    0.4936 </r>
       <r>   -2.9953    0.0047 </r>
       <r>   -2.8059    0.0000 </r>
       <r>   -2.6830    0.0000 </r>
       <r>   -2.5874    0.0000 </r>
       <r>   -2.5104    0.0000 </r>
       <r>   -2.4052    0.0000 </r>
       <r>   -2.2378    0.0000 </r>
       <r>   -2.0466    0.0000 </r>
       <r>   -1.9821    0.0000 </r>
       <r>   -1.9127    0.0000 </r>
       <r>   -1.6260    0.0000 </r>
       <r>   -1.5775    0.0000 </r>
       <r>   -1.4850    0.0000 </r>
       <r>   -1.4579    0.0000 </r>
       <r>   -1.4116    0.0000 </r>
       <r>   -1.2530    0.0000 </r>
       <r>   -1.1872    0.0000 </r>
       <r>   -1.1321    0.0000 </r>
       <r>   -0.9748    0.0000 </r>
       <r>   -0.8817    0.0000 </r>
       <r>   -0.7872    0.0000 </r>
       <r>   -0.6496    0.0000 </r>
       <r>   -0.6026    0.0000 </r>
       <r>   -0.5474    0.0000 </r>
       <r>   -0.4812    0.0000 </r>
       <r>   -0.2931    0.0000 </r>
       <r>   -0.2640    0.0000 </r>
       <r>   -0.0496    0.0000 </r>
       <r>    0.0340    0.0000 </r>
       <r>    0.2004    0.0000 </r>
       <r>    0.4144    0.0000 </r>
       <r>    0.5803    0.0000 </r>
       <r>    0.6532    0.0000 </r>
       <r>    1.0020    0.0000 </r>
       <r>    1.0625    0.0000 </r>
       <r>    1.1562    0.0000 </r>
       <r>    1.3323    0.0000 </r>
       <r>    2.1778    0.0000 </r>
       <r>    2.2488    0.0000 </r>
       <r>    2.3915    0.0000 </r>
      </set>
     </set>
    </set>
   </array>
  </eigenvalues>
  <separator name="orbital magnetization" >
   <v name="MAGDIPOLOUT">      0.00000000      0.00000000      0.00000000</v>
  </separator>
 </calculation>
 <structure name="finalpos" >
  <crystal>
   <varray name="basis" >
    <v>       8.35926021       4.80433617       0.00000000 </v>
    <v>      -8.36508870       4.81463283       0.00000000 </v>
    <v>       0.00000000       0.00000000      30.00000000 </v>
   </varray>
   <i name="volume">   2413.06400677 </i>
   <varray name="rec_basis" >
    <v>       0.05985709       0.10399752       0.00000000 </v>
    <v>      -0.05972908       0.10392505       0.00000000 </v>
    <v>       0.00000000       0.00000000       0.03333333 </v>
   </varray>
  </crystal>
  <varray name="positions" >
   <v>       0.36124574       0.66064477       0.00185805 </v>
   <v>      -0.02333473       0.63594371       0.00147018 </v>
   <v>       0.63974358       0.34522928      -0.00176651 </v>
   <v>       0.32794665       0.32758339      -0.00024325 </v>
   <v>       0.68916299      -0.01795998       0.00252788 </v>
   <v>       0.66343654       0.67187591      -0.00054056 </v>
   <v>       0.00162582       0.02242015      -0.00083867 </v>
   <v>       1.00766365       0.31395328       0.00063740 </v>
   <v>       0.32010423       0.02740195      -0.00225745 </v>
   <v>       0.11454860       0.22627609       0.94330419 </v>
   <v>       0.21771238       0.11513366       0.05489651 </v>
   <v>       0.11905313       0.55799196       0.95469854 </v>
   <v>       0.22353023       0.45165708       0.05289436 </v>
   <v>       0.10475110       0.88406785       0.94973610 </v>
   <v>       0.22494618       0.77845737       0.04237016 </v>
   <v>       0.44678659       0.23328969       0.94359533 </v>
   <v>       0.55659852       0.11358046       0.04404265 </v>
   <v>       0.44567642       0.56110984       0.94667771 </v>
   <v>       0.55358565       0.44507547       0.05226468 </v>
   <v>       0.44545340       0.89013767       0.95642460 </v>
   <v>       0.55704182       0.77294800       0.05615193 </v>
   <v>       0.77130519       0.22098935       0.95556212 </v>
   <v>       0.89286496       0.11092233       0.05766661 </v>
   <v>       0.77860654       0.55084106       0.94803916 </v>
   <v>       0.87274985       0.43138012       0.04824873 </v>
   <v>       0.78628908       0.88764124       0.94507888 </v>
   <v>       0.89912034       0.77962275       0.04750056 </v>
  </varray>
 </structure>
</modeling>
