unknown system                          
           1
     8.858445    5.103547    0.000000
    -8.858382    5.103438    0.000000
     0.000000    0.000000   30.000000
   V    Mo   W    S 
   3   3   3  18
Direct configuration=     1
   0.33333334  0.66666669  0.00000000
   0.00000000  0.66666669  0.00000000
   0.66666669  0.33333334  0.00000000
   0.33333334  0.33333334  0.00000000
   0.66666669  0.00000000  0.00000000
   0.66666669  0.66666669  0.00000000
   0.00000000  0.00000000  0.00000000
   1.00000000  0.33333334  0.00000000
   0.33333334  0.00000000  0.00000000
   0.11068511  0.22244981  0.95539999
   0.22244981  0.11068511  0.04460000
   0.11068511  0.55578315  0.95539999
   0.22244981  0.44401845  0.04460000
   0.11068511  0.88911647  0.95539999
   0.22244981  0.77735180  0.04460000
   0.44401845  0.22244981  0.95539999
   0.55578315  0.11068511  0.04460000
   0.44401845  0.55578315  0.95539999
   0.55578315  0.44401845  0.04460000
   0.44401845  0.88911647  0.95539999
   0.55578315  0.77735180  0.04460000
   0.77735180  0.22244981  0.95539999
   0.88911647  0.11068511  0.04460000
   0.77735180  0.55578315  0.95539999
   0.88911647  0.44401845  0.04460000
   0.77735180  0.88911647  0.95539999
   0.88911647  0.77735180  0.04460000
unknown system                          
           1
     8.669620    4.997416    0.000000
    -8.669443    4.997110    0.000000
     0.000000    0.000000   30.000000
   V    Mo   W    S 
   3   3   3  18
Direct configuration=     2
   0.33530169  0.66660358  0.00016748
  -0.00108504  0.66636423 -0.00002352
   0.66575731  0.33372126 -0.00019104
   0.33461471  0.33464233 -0.00012328
   0.66682283 -0.00131764  0.00016210
   0.66527363  0.66647389 -0.00003592
  -0.00174554 -0.00023323  0.00003063
   1.00001193  0.33262984 -0.00003781
   0.33494237  0.00101993  0.00007906
   0.11033811  0.22165770  0.95069103
   0.22155143  0.11011438  0.04918525
   0.11249577  0.55891298  0.95316137
   0.22342278  0.44855345  0.04807145
   0.10925846  0.88516238  0.95193622
   0.22067530  0.77418146  0.04686675
   0.44847886  0.22349031  0.95184866
   0.55667799  0.11492749  0.04805396
   0.44195085  0.55778869  0.95196483
   0.55792211  0.44201973  0.04799665
   0.44163038  0.88473735  0.95195605
   0.55084707  0.77546841  0.04813368
   0.77620354  0.22514392  0.95203711
   0.88952139  0.11137085  0.04935725
   0.77978941  0.55313431  0.95304791
   0.88703836  0.44607087  0.04694097
   0.77877654  0.88925853  0.95074358
   0.89174223  0.77631746  0.04797947
unknown system                          
           1
     8.486758    4.898149    0.000000
    -8.486762    4.898157    0.000000
     0.000000    0.000000   30.000000
   V    Mo   W    S 
   3   3   3  18
Direct configuration=     3
   0.33596506  0.66664691  0.00018483
  -0.00135399  0.66635152 -0.00003324
   0.66533305  0.33376954 -0.00021448
   0.33485799  0.33481865 -0.00009933
   0.66720918 -0.00171907  0.00014145
   0.66486999  0.66666793 -0.00003310
  -0.00235825 -0.00001571  0.00003381
   0.99998808  0.33188761 -0.00009423
   0.33538177  0.00151055  0.00012787
   0.11011148  0.22155846  0.95067668
   0.22145007  0.10986920  0.04912176
   0.11244261  0.55873228  0.95329142
   0.22326778  0.44858079  0.04805887
   0.10932387  0.88533194  0.95203201
   0.22075513  0.77435949  0.04675829
   0.44852082  0.22336013  0.95179380
   0.55652979  0.11492658  0.04803562
   0.44188155  0.55785827  0.95187109
   0.55800608  0.44198610  0.04802736
   0.44141700  0.88473252  0.95199774
   0.55066579  0.77534190  0.04824596
   0.77641272  0.22530035  0.95208994
   0.88974598  0.11145302  0.04943829
   0.77979650  0.55308519  0.95308251
   0.88712913  0.44596521  0.04683887
   0.77899250  0.88936846  0.95066061
   0.89187281  0.77648663  0.04796552
unknown system                          
           1
     8.278589    4.773102    0.000000
    -8.277611    4.771410    0.000000
     0.000000    0.000000   30.000000
   V    Mo   W    S 
   3   3   3  18
Direct configuration=     4
   0.33849026  0.66681355  0.00017414
  -0.00218845  0.66662009 -0.00005492
   0.66325634  0.33361275 -0.00021718
   0.33536991  0.33487924  0.00001858
   0.66936778 -0.00305911  0.00002279
   0.66357781  0.66786386 -0.00000401
  -0.00463700  0.00134355  0.00003721
   0.99980898  0.32820476 -0.00025913
   0.33673525  0.00362536  0.00025371
   0.11014522  0.22150185  0.94896392
   0.22132364  0.10966257  0.05046923
   0.11306615  0.55961328  0.95246758
   0.22375828  0.44974935  0.04947138
   0.10893249  0.88463701  0.95095101
   0.22027545  0.77345993  0.04768116
   0.44979404  0.22406469  0.95007415
   0.55739296  0.11614310  0.04941544
   0.44125601  0.55849339  0.95007260
   0.55879013  0.44160272  0.04955899
   0.44068400  0.88363453  0.95071872
   0.54930453  0.77451391  0.05016270
   0.77596269  0.22578177  0.95084451
   0.88979292  0.11145837  0.05146461
   0.78011415  0.55260038  0.95189069
   0.88669467  0.44625529  0.04776735
   0.77894410  0.88921352  0.94870267
   0.89220216  0.77592475  0.04935199
unknown system                          
           1
     8.287949    4.771943    0.000000
    -8.287751    4.771604    0.000000
     0.000000    0.000000   30.000000
   V    Mo   W    S 
   3   3   3  18
Direct configuration=     5
   0.34291606  0.66718726 -0.00001523
  -0.00344908  0.66722441 -0.00006951
   0.65871015  0.33353019 -0.00004567
   0.33629760  0.33456679  0.00016621
   0.67455465 -0.00554632 -0.00010513
   0.66144192  0.67049323  0.00005250
  -0.00948383  0.00414092 -0.00000068
   0.99925464  0.32077070 -0.00036721
   0.33910361  0.00773341  0.00034199
   0.11096185  0.22129655  0.94647282
   0.22083641  0.10967282  0.05217488
   0.11383565  0.55995481  0.95157899
   0.22424184  0.45073651  0.05127956
   0.10855445  0.88445190  0.94970574
   0.22012696  0.77269021  0.04888953
   0.45120513  0.22531347  0.94759572
   0.55905136  0.11729528  0.05105854
   0.44076796  0.55899702  0.94767427
   0.55963224  0.44185783  0.05163275
   0.44062719  0.88284038  0.94925225
   0.54826343  0.77398040  0.05296560
   0.77531399  0.22564277  0.94928811
   0.88913915  0.11117153  0.05454077
   0.77979169  0.55231747  0.95011751
   0.88620122  0.44604738  0.04882246
   0.77848710  0.88835273  0.94585602
   0.89183113  0.77549482  0.05113710
unknown system                          
           1
     8.279061    4.765177    0.000000
    -8.278324    4.763903    0.000000
     0.000000    0.000000   30.000000
   V    Mo   W    S 
   3   3   3  18
Direct configuration=     6
   0.34387195  0.66730161 -0.00000880
  -0.00381158  0.66729872 -0.00006797
   0.65728451  0.33436751 -0.00002861
   0.33663171  0.33424401  0.00011492
   0.67582449 -0.00601867 -0.00001313
   0.66147361  0.67096789  0.00001949
  -0.01046756  0.00438964 -0.00012512
   0.99905109  0.31914075 -0.00033094
   0.33923978  0.00877685  0.00035865
   0.11138602  0.22099963  0.94621366
   0.22021193  0.10954935  0.05216041
   0.11376097  0.55906368  0.95178660
   0.22406147  0.45027581  0.05126749
   0.10854493  0.88530588  0.94983328
   0.22060561  0.77308755  0.04877138
   0.45110398  0.22562021  0.94736791
   0.55958404  0.11699830  0.05090955
   0.44092007  0.55881631  0.94756368
   0.55947984  0.44249563  0.05178480
   0.44151259  0.88355711  0.94938030
   0.54872584  0.77435422  0.05318053
   0.77534122  0.22502826  0.94945025
   0.88871150  0.11085551  0.05503742
   0.77915888  0.55243037  0.95007782
   0.88617368  0.44540929  0.04863842
   0.77843456  0.88785497  0.94551173
   0.89139933  0.77604406  0.05114618
unknown system                          
           1
     8.289895    4.769496    0.000000
    -8.288973    4.767900    0.000000
     0.000000    0.000000   30.000000
   V    Mo   W    S 
   3   3   3  18
Direct configuration=     7
   0.34562166  0.66756701 -0.00002754
  -0.00445831  0.66737169 -0.00002013
   0.65497222  0.33583486  0.00002339
   0.33722236  0.33371084  0.00008319
   0.67812934 -0.00718318  0.00002376
   0.66132796  0.67180154 -0.00001211
  -0.01239248  0.00509815 -0.00019913
   0.99886141  0.31601551 -0.00031923
   0.33955568  0.01075212  0.00043257
   0.11182481  0.22069501  0.94583054
   0.21948851  0.10937188  0.05219380
   0.11372548  0.55814144  0.95208886
   0.22399481  0.44985811  0.05131668
   0.10851489  0.88610328  0.94989324
   0.22110789  0.77348699  0.04859571
   0.45112412  0.22607018  0.94692224
   0.56028053  0.11694710  0.05071174
   0.44097534  0.55868476  0.94732871
   0.55931083  0.44314598  0.05209558
   0.44241597  0.88432951  0.94956015
   0.54912817  0.77456667  0.05358773
   0.77520172  0.22440331  0.94968336
   0.88843130  0.11038348  0.05570729
   0.77850799  0.55249512  0.94991539
   0.88602354  0.44471540  0.04838311
   0.77829409  0.88726421  0.94497368
   0.89102460  0.77658349  0.05122730
unknown system                          
           1
     8.294771    4.769472    0.000000
    -8.293295    4.766915    0.000000
     0.000000    0.000000   30.000000
   V    Mo   W    S 
   3   3   3  18
Direct configuration=     8
   0.34580665  0.66758386 -0.00002457
  -0.00458434  0.66734262 -0.00001391
   0.65481801  0.33621603  0.00001680
   0.33732277  0.33366056  0.00008008
   0.67812702 -0.00736435  0.00004771
   0.66138329  0.67172831 -0.00002656
  -0.01236392  0.00497475 -0.00024442
   0.99896015  0.31591973 -0.00030753
   0.33945501  0.01101719  0.00043441
   0.11185034  0.22063646  0.94586040
   0.21939082  0.10935065  0.05216058
   0.11370048  0.55804899  0.95218698
   0.22396340  0.44981576  0.05126150
   0.10851613  0.88611250  0.94993835
   0.22114263  0.77355338  0.04850993
   0.45109348  0.22607776  0.94693346
   0.56033002  0.11698339  0.05059873
   0.44097157  0.55865981  0.94737719
   0.55923006  0.44320141  0.05208895
   0.44249270  0.88442135  0.94965460
   0.54917552  0.77457920  0.05355066
   0.77515700  0.22437595  0.94979915
   0.88840689  0.11033408  0.05570416
   0.77850489  0.55249494  0.94993676
   0.88598274  0.44465943  0.04829559
   0.77833434  0.88719238  0.94498864
   0.89104678  0.77663833  0.05119225
unknown system                          
           1
     8.297398    4.770217    0.000000
    -8.295788    4.767428    0.000000
     0.000000    0.000000   30.000000
   V    Mo   W    S 
   3   3   3  18
Direct configuration=     9
   0.34700903  0.66773307 -0.00003244
  -0.00511951  0.66735579  0.00002964
   0.65356574  0.33754121  0.00002151
   0.33773303  0.33333841  0.00006684
   0.67919881 -0.00830595  0.00008801
   0.66135007  0.67199898 -0.00005688
  -0.01319183  0.00512311 -0.00032253
   0.99908650  0.31431585 -0.00029254
   0.33935626  0.01239905  0.00048097
   0.11206809  0.22042506  0.94573162
   0.21895145  0.10925785  0.05214321
   0.11366756  0.55755492  0.95248111
   0.22389596  0.44960891  0.05121412
   0.10851199  0.88639938  0.95000447
   0.22140906  0.77383925  0.04828643
   0.45105551  0.22629631  0.94673245
   0.56070781  0.11706987  0.05032428
   0.44097016  0.55857888  0.94732876
   0.55903060  0.44355146  0.05224580
   0.44292908  0.88486486  0.94988871
   0.54939168  0.77463227  0.05369335
   0.77501651  0.22409718  0.95010752
   0.88828214  0.11001496  0.05596843
   0.77825352  0.55252578  0.94986351
   0.88582955  0.44426237  0.04804884
   0.77831531  0.88681817  0.94477083
   0.89094039  0.77691745  0.05118389
unknown system                          
           1
     8.302328    4.771752    0.000000
    -8.300680    4.768897    0.000000
     0.000000    0.000000   30.000000
   V    Mo   W    S 
   3   3   3  18
Direct configuration=    10
   0.34728001  0.66775077 -0.00003371
  -0.00527854  0.66736220  0.00003948
   0.65330944  0.33784428  0.00002015
   0.33783059  0.33327357  0.00006624
   0.67940128 -0.00851049  0.00010047
   0.66136525  0.67203474 -0.00006463
  -0.01333036  0.00512168 -0.00034581
   0.99913376  0.31399293 -0.00028642
   0.33930657  0.01272786  0.00048974
   0.11212292  0.22037977  0.94569406
   0.21885761  0.10925031  0.05215455
   0.11366253  0.55746074  0.95254339
   0.22388092  0.44957414  0.05121320
   0.10850737  0.88643523  0.95000841
   0.22145933  0.77389757  0.04823967
   0.45105235  0.22635203  0.94668051
   0.56079957  0.11710324  0.05026417
   0.44096867  0.55855750  0.94730712
   0.55898461  0.44362690  0.05228834
   0.44301742  0.88495499  0.94993533
   0.54943458  0.77463743  0.05373639
   0.77497113  0.22404390  0.95017223
   0.88824992  0.10994197  0.05603487
   0.77820540  0.55253290  0.94983735
   0.88578768  0.44417894  0.04799754
   0.77831430  0.88672532  0.94471358
   0.89092015  0.77696401  0.05119367
unknown system                          
           1
     8.303045    4.772546    0.000000
    -8.302555    4.771705    0.000000
     0.000000    0.000000   30.000000
   V    Mo   W    S 
   3   3   3  18
Direct configuration=    11
   0.34788806  0.66783464 -0.00003569
  -0.00553035  0.66732321  0.00005920
   0.65271552  0.33848437  0.00001717
   0.33808935  0.33318172  0.00006516
   0.67976470 -0.00901072  0.00012570
   0.66129896  0.67208801 -0.00007914
  -0.01363500  0.00514391 -0.00039148
   0.99923696  0.31334649 -0.00027417
   0.33926932  0.01341172  0.00050816
   0.11223207  0.22028194  0.94562062
   0.21865182  0.10921434  0.05216258
   0.11369177  0.55726707  0.95267849
   0.22386298  0.44952483  0.05119384
   0.10850822  0.88653941  0.95002478
   0.22159639  0.77401180  0.04813540
   0.45106414  0.22647181  0.94658199
   0.56100348  0.11720343  0.05012599
   0.44094661  0.55853255  0.94727718
   0.55889615  0.44377037  0.05236870
   0.44319497  0.88512123  0.95004596
   0.54949243  0.77463323  0.05381409
   0.77486126  0.22394467  0.95032575
   0.88818599  0.10979718  0.05617194
   0.77807973  0.55251585  0.94979320
   0.88566359  0.44397613  0.04788554
   0.77830850  0.88653245  0.94459452
   0.89087685  0.77707282  0.05120443
unknown system                          
           1
     8.309040    4.773088    0.000000
    -8.306475    4.768640    0.000000
     0.000000    0.000000   30.000000
   V    Mo   W    S 
   3   3   3  18
Direct configuration=    12
   0.34947229  0.66834572 -0.00000480
  -0.00589574  0.66672519  0.00009231
   0.65101294  0.33940663 -0.00004732
   0.33929874  0.33336717  0.00008513
   0.67983398 -0.01026720  0.00018898
   0.66064471  0.67188441 -0.00011749
  -0.01426696  0.00516724 -0.00049033
   0.99940006  0.31235011 -0.00023706
   0.33985864  0.01511196  0.00054718
   0.11232206  0.22009596  0.94553026
   0.21831441  0.10911058  0.05212389
   0.11408551  0.55695728  0.95295541
   0.22385827  0.44967899  0.05107088
   0.10863258  0.88681739  0.95007455
   0.22215153  0.77428992  0.04787000
   0.45136612  0.22683373  0.94646633
   0.56156395  0.11781226  0.04974907
   0.44079266  0.55861992  0.94724088
   0.55887676  0.44387095  0.05247474
   0.44343994  0.88521946  0.95032442
   0.54936056  0.77451208  0.05393576
   0.77443897  0.22390679  0.95078652
   0.88806512  0.10951090  0.05635542
   0.77756722  0.55210308  0.94977284
   0.88496310  0.44329525  0.04763119
   0.77828355  0.88618655  0.94441418
   0.89077350  0.77730213  0.05120697
unknown system                          
           1
     8.315561    4.774293    0.000000
    -8.312423    4.768850    0.000000
     0.000000    0.000000   30.000000
   V    Mo   W    S 
   3   3   3  18
Direct configuration=    13
   0.34903099  0.66787342 -0.00003676
  -0.00636854  0.66738186  0.00011351
   0.65173259  0.33980276 -0.00000626
   0.33848709  0.33285383  0.00006499
   0.68061181 -0.00983975  0.00017344
   0.66149699  0.67219788 -0.00011489
  -0.01414055  0.00505383 -0.00047653
   0.99947119  0.31202182 -0.00025024
   0.33892365  0.01488246  0.00055509
   0.11240985  0.22010571  0.94553533
   0.21831262  0.10921876  0.05218655
   0.11362389  0.55688070  0.95298363
   0.22376313  0.44935863  0.05116220
   0.10850632  0.88660375  0.95005192
   0.22179277  0.77432612  0.04788234
   0.45101770  0.22668932  0.94641376
   0.56133377  0.11735224  0.04980734
   0.44096316  0.55842200  0.94722062
   0.55868147  0.44406617  0.05251493
   0.44351812  0.88552403  0.95029221
   0.54971467  0.77464149  0.05394416
   0.77468626  0.22374661  0.95066863
   0.88809972  0.10944704  0.05632904
   0.77792130  0.55255803  0.94970316
   0.88548909  0.44363137  0.04762658
   0.77831261  0.88617010  0.94444501
   0.89082276  0.77724428  0.05121011
unknown system                          
           1
     8.308436    4.772825    0.000000
    -8.305832    4.768309    0.000000
     0.000000    0.000000   30.000000
   V    Mo   W    S 
   3   3   3  18
Direct configuration=    14
   0.35034620  0.66773660 -0.00004304
  -0.00739647  0.66760622  0.00016424
   0.65097793  0.34108587 -0.00002985
   0.33878123  0.33268032  0.00007886
   0.68130329 -0.01076912  0.00022676
   0.66159565  0.67225964 -0.00014317
  -0.01439302  0.00482423 -0.00057841
   0.99988586  0.31085071 -0.00022481
   0.33827682  0.01637001  0.00059047
   0.11262167  0.21992729  0.94543950
   0.21798609  0.10930565  0.05227086
   0.11356965  0.55655361  0.95332602
   0.22369231  0.44925640  0.05114346
   0.10852313  0.88657148  0.95002579
   0.22198761  0.77464361  0.04759988
   0.45092859  0.22690403  0.94621770
   0.56164652  0.11748497  0.04947046
   0.44099019  0.55832114  0.94716767
   0.55843309  0.44439252  0.05267406
   0.44377927  0.88589052  0.95057544
   0.54991666  0.77458942  0.05406491
   0.77449836  0.22359169  0.95100976
   0.88803492  0.10906450  0.05649157
   0.77780922  0.55266099  0.94955787
   0.88531549  0.44326366  0.04736803
   0.77833163  0.88578486  0.94428896
   0.89077254  0.77736364  0.05126690
unknown system                          
           1
     8.316904    4.774446    0.000000
    -8.313712    4.768908    0.000000
     0.000000    0.000000   30.000000
   V    Mo   W    S 
   3   3   3  18
Direct configuration=    15
   0.34875511  0.66811578 -0.00004394
  -0.00586663  0.66709941  0.00010990
   0.65174695  0.33970295  0.00001783
   0.33849470  0.33281846  0.00005372
   0.68049521 -0.00976399  0.00016349
   0.66138373  0.67223125 -0.00010559
  -0.01433277  0.00526043 -0.00047257
   0.99933887  0.31214552 -0.00026183
   0.33933894  0.01456883  0.00055780
   0.11238554  0.22013911  0.94555572
   0.21831186  0.10909344  0.05211382
   0.11364419  0.55688418  0.95288473
   0.22376993  0.44930731  0.05113179
   0.10846534  0.88670487  0.95012748
   0.22176470  0.77426031  0.04797347
   0.45101728  0.22662213  0.94641620
   0.56135949  0.11737771  0.04990707
   0.44091760  0.55843979  0.94725890
   0.55870920  0.44404182  0.05251240
   0.44353886  0.88548088  0.95020127
   0.54969021  0.77467244  0.05391413
   0.77470141  0.22374381  0.95060269
   0.88804706  0.10955082  0.05634829
   0.77792173  0.55253685  0.94975046
   0.88548498  0.44369317  0.04768684
   0.77828570  0.88621307  0.94445147
   0.89084528  0.77727413  0.05114436
unknown system                          
           1
     8.311091    4.770465    0.000000
    -8.308147    4.765361    0.000000
     0.000000    0.000000   30.000000
   V    Mo   W    S 
   3   3   3  18
Direct configuration=    16
   0.34878358  0.66896395 -0.00004415
  -0.00500292  0.66603005  0.00012946
   0.65130994  0.34024150 -0.00000927
   0.33882698  0.33256965  0.00005322
   0.68043436 -0.01002949  0.00019549
   0.66115588  0.67229106 -0.00010513
  -0.01510987  0.00569789 -0.00047660
   0.99912222  0.31178144 -0.00023525
   0.34041826  0.01477651  0.00055407
   0.11250411  0.22012688  0.94549876
   0.21798509  0.10873220  0.05194713
   0.11371199  0.55664187  0.95281159
   0.22372156  0.44914223  0.05100284
   0.10838810  0.88697017  0.95036558
   0.22189984  0.77431463  0.04805579
   0.45103816  0.22660991  0.94636280
   0.56166997  0.11762413  0.04992520
   0.44077218  0.55842132  0.94731136
   0.55854212  0.44424418  0.05261668
   0.44380036  0.88558857  0.95011950
   0.54963616  0.77465296  0.05394139
   0.77457011  0.22370251  0.95071276
   0.88782681  0.10954212  0.05646575
   0.77781349  0.55253574  0.94982284
   0.88527624  0.44355353  0.04769516
   0.77819074  0.88598897  0.94433048
   0.89092901  0.77749997  0.05095245
unknown system                          
           1
     8.320059    4.774017    0.000000
    -8.316845    4.768444    0.000000
     0.000000    0.000000   30.000000
   V    Mo   W    S 
   3   3   3  18
Direct configuration=    17
   0.34855686  0.66996614 -0.00003834
  -0.00384765  0.66461135  0.00013924
   0.65120301  0.34052415 -0.00000998
   0.33901809  0.33230503  0.00004921
   0.68018206 -0.01021459  0.00017421
   0.66082787  0.67244181 -0.00009454
  -0.01584833  0.00624207 -0.00052027
   0.99890345  0.31172956 -0.00025842
   0.34156151  0.01461433  0.00054417
   0.11248674  0.22017209  0.94554555
   0.21781118  0.10833771  0.05173206
   0.11381065  0.55649603  0.95264321
   0.22366605  0.44900809  0.05086664
   0.10836209  0.88721387  0.95066144
   0.22202834  0.77435862  0.04819635
   0.45101669  0.22656253  0.94635150
   0.56185648  0.11786557  0.05001883
   0.44061218  0.55840168  0.94740858
   0.55842555  0.44435824  0.05264529
   0.44396936  0.88563603  0.94996334
   0.54954135  0.77461107  0.05393017
   0.77450201  0.22373878  0.95076471
   0.88758590  0.10956665  0.05651696
   0.77776440  0.55260472  0.94991948
   0.88508988  0.44346662  0.04780017
   0.77808187  0.88594101  0.94433924
   0.89104686  0.77765531  0.05071109
unknown system                          
           1
     8.327876    4.776472    0.000000
    -8.324348    4.770354    0.000000
     0.000000    0.000000   30.000000
   V    Mo   W    S 
   3   3   3  18
Direct configuration=    18
   0.34992265  0.66946837 -0.00002989
  -0.00539088  0.66518383  0.00017981
   0.65067449  0.34156655 -0.00005090
   0.33921337  0.33227801  0.00007432
   0.68079349 -0.01101726  0.00023366
   0.66104333  0.67242454 -0.00012376
  -0.01564982  0.00573047 -0.00059997
   0.99941592  0.31079288 -0.00021930
   0.34039935  0.01610231  0.00056427
   0.11267337  0.22000650  0.94544274
   0.21761234  0.10862119  0.05192656
   0.11376526  0.55630530  0.95302037
   0.22361632  0.44904358  0.05092015
   0.10842531  0.88699488  0.95050623
   0.22219003  0.77466362  0.04786250
   0.45096274  0.22683309  0.94618576
   0.56204913  0.11792747  0.04965091
   0.44069532  0.55830587  0.94730085
   0.55825480  0.44459544  0.05276105
   0.44409482  0.88593593  0.95028765
   0.54972352  0.77454754  0.05406798
   0.77432636  0.22363856  0.95107542
   0.88762006  0.10914370  0.05660824
   0.77770155  0.55270100  0.94972992
   0.88496757  0.44312916  0.04754471
   0.77813433  0.88562947  0.94421330
   0.89097969  0.77766246  0.05086731
unknown system                          
           1
     8.329286    4.776928    0.000000
    -8.325742    4.770782    0.000000
     0.000000    0.000000   30.000000
   V    Mo   W    S 
   3   3   3  18
Direct configuration=    19
   0.35134625  0.66942113 -0.00002848
  -0.00658909  0.66487951  0.00024807
   0.65008333  0.34282582 -0.00010931
   0.33953051  0.33213393  0.00009613
   0.68127145 -0.01196682  0.00030101
   0.66115531  0.67247218 -0.00015022
  -0.01575856  0.00545744 -0.00069001
   0.99984392  0.30978577 -0.00018384
   0.33970160  0.01773325  0.00058652
   0.11287961  0.21986496  0.94535622
   0.21731869  0.10875255  0.05203951
   0.11381575  0.55603463  0.95334066
   0.22352187  0.44903327  0.05091443
   0.10846127  0.88683228  0.95047500
   0.22244012  0.77505036  0.04755855
   0.45091416  0.22715064  0.94600545
   0.56237463  0.11815910  0.04928035
   0.44069467  0.55820935  0.94723574
   0.55802730  0.44490995  0.05289822
   0.44431357  0.88627565  0.95056473
   0.54987746  0.77446306  0.05421842
   0.77407592  0.22356189  0.95146039
   0.88753605  0.10865909  0.05670282
   0.77759989  0.55284407  0.94956920
   0.88466882  0.44267616  0.04733277
   0.77812193  0.88525431  0.94407898
   0.89098803  0.77774091  0.05089857
unknown system                          
           1
     8.320034    4.772391    0.000000
    -8.317150    4.767396    0.000000
     0.000000    0.000000   30.000000
   V    Mo   W    S 
   3   3   3  18
Direct configuration=    20
   0.35148685  0.66946757 -0.00002531
  -0.00667920  0.66471207  0.00025570
   0.65002565  0.34296370 -0.00011913
   0.33957285  0.33211084  0.00010150
   0.68129405 -0.01207093  0.00030934
   0.66115162  0.67248232 -0.00015183
  -0.01578931  0.00545169 -0.00070514
   0.99987718  0.30970022 -0.00017937
   0.33967599  0.01790720  0.00058307
   0.11290355  0.21985410  0.94534768
   0.21727833  0.10875849  0.05204700
   0.11383580  0.55600272  0.95336338
   0.22350824  0.44903307  0.05090720
   0.10846442  0.88681303  0.95048863
   0.22247704  0.77510126  0.04753043
   0.45091409  0.22719247  0.94598371
   0.56241903  0.11819906  0.04924432
   0.44068987  0.55820019  0.94723113
   0.55800000  0.44495174  0.05291347
   0.44434256  0.88631588  0.95058641
   0.54988768  0.77445136  0.05423600
   0.77404019  0.22356141  0.95150540
   0.88751280  0.10860351  0.05671569
   0.77759110  0.55286785  0.94955542
   0.88461466  0.44261459  0.04732182
   0.77811848  0.88521488  0.94406509
   0.89100093  0.77775417  0.05088829
unknown system                          
           1
     8.323609    4.773430    0.000000
    -8.320550    4.768132    0.000000
     0.000000    0.000000   30.000000
   V    Mo   W    S 
   3   3   3  18
Direct configuration=    21
   0.35184343  0.66904982 -0.00004296
  -0.00689254  0.66603755  0.00023096
   0.65000708  0.34286413 -0.00009201
   0.33955522  0.33244497  0.00010013
   0.68119108 -0.01226523  0.00029500
   0.66101698  0.67242790 -0.00015928
  -0.01556595  0.00509343 -0.00071481
   1.00004482  0.30970999 -0.00018443
   0.33927403  0.01774958  0.00060956
   0.11288279  0.21978860  0.94531959
   0.21735811  0.10883391  0.05210825
   0.11380095  0.55610049  0.95346143
   0.22359960  0.44916122  0.05094982
   0.10850529  0.88683221  0.95034132
   0.22242182  0.77492180  0.04750933
   0.45090971  0.22707595  0.94599461
   0.56236609  0.11810620  0.04925082
   0.44066398  0.55825228  0.94720532
   0.55805739  0.44484984  0.05291540
   0.44423221  0.88614186  0.95064004
   0.54979412  0.77440557  0.05422210
   0.77410295  0.22354580  0.95144384
   0.88760817  0.10869740  0.05674477
   0.77759215  0.55276981  0.94952152
   0.88478734  0.44273495  0.04724324
   0.77815929  0.88523319  0.94404830
   0.89089834  0.77765123  0.05103805
unknown system                          
           1
     8.332484    4.778851    0.000000
    -8.328234    4.771477    0.000000
     0.000000    0.000000   30.000000
   V    Mo   W    S 
   3   3   3  18
Direct configuration=    22
   0.35196905  0.66931649 -0.00003458
  -0.00705013  0.66495348  0.00026484
   0.64988298  0.34321557 -0.00012045
   0.33964354  0.33219856  0.00011001
   0.68135178 -0.01241747  0.00031508
   0.66110413  0.67250896 -0.00015693
  -0.01572285  0.00529080 -0.00075041
   1.00004241  0.30950947 -0.00017680
   0.33934327  0.01826177  0.00058710
   0.11293310  0.21980080  0.94533057
   0.21724791  0.10881927  0.05209501
   0.11384434  0.55597517  0.95346871
   0.22351123  0.44907226  0.05090601
   0.10848747  0.88677851  0.95045125
   0.22251535  0.77513975  0.04744371
   0.45090457  0.22723321  0.94595069
   0.56245264  0.11821641  0.04915164
   0.44068817  0.55821918  0.94723422
   0.55796739  0.44497288  0.05292781
   0.44435578  0.88633838  0.95068766
   0.54989341  0.77441270  0.05424044
   0.77401916  0.22355242  0.95157617
   0.88753350  0.10853645  0.05675225
   0.77757392  0.55286811  0.94951182
   0.88458309  0.44253720  0.04725501
   0.77815502  0.88516732  0.94404633
   0.89098424  0.77773682  0.05093274
unknown system                          
           1
     8.335042    4.778797    0.000000
    -8.330611    4.771107    0.000000
     0.000000    0.000000   30.000000
   V    Mo   W    S 
   3   3   3  18
Direct configuration=    23
   0.35286430  0.66857911 -0.00002543
  -0.00811294  0.66689586  0.00025973
   0.64966460  0.34355842 -0.00014678
   0.33963895  0.33245278  0.00011688
   0.68173392 -0.01264374  0.00033936
   0.66127545  0.67232660 -0.00019947
  -0.01546011  0.00459950 -0.00074624
   1.00043102  0.30887432 -0.00016557
   0.33840649  0.01883894  0.00065615
   0.11302095  0.21963706  0.94525289
   0.21722571  0.10910755  0.05224475
   0.11377135  0.55593699  0.95378874
   0.22356970  0.44920806  0.05102089
   0.10859374  0.88665378  0.95016639
   0.22259121  0.77520068  0.04724522
   0.45083469  0.22726416  0.94586906
   0.56255425  0.11816255  0.04896959
   0.44072762  0.55811361  0.94704301
   0.55792302  0.44510534  0.05304566
   0.44429856  0.88636782  0.95085289
   0.54994611  0.77435256  0.05440405
   0.77394266  0.22343188  0.95171965
   0.88761496  0.10829538  0.05676437
   0.77752314  0.55288417  0.94936249
   0.88471923  0.44245958  0.04701239
   0.77813669  0.88491966  0.94395725
   0.89077919  0.77763183  0.05119200
unknown system                          
           1
     8.333585    4.777888    0.000000
    -8.328866    4.769697    0.000000
     0.000000    0.000000   30.000000
   V    Mo   W    S 
   3   3   3  18
Direct configuration=    24
   0.35364858  0.66851426 -0.00001190
  -0.00912108  0.66615804  0.00030684
   0.64931498  0.34431585 -0.00019349
   0.33988509  0.33235781  0.00014499
   0.68211286 -0.01318113  0.00038837
   0.66141964  0.67234116 -0.00020314
  -0.01548359  0.00444528 -0.00083884
   1.00070119  0.30834187 -0.00013912
   0.33787874  0.02000137  0.00062913
   0.11313845  0.21955394  0.94523712
   0.21705719  0.10928397  0.05232933
   0.11381594  0.55574361  0.95399784
   0.22345793  0.44915654  0.05099328
   0.10863657  0.88648046  0.95020146
   0.22277054  0.77557156  0.04699559
   0.45081274  0.22756175  0.94576967
   0.56268405  0.11829000  0.04868441
   0.44082470  0.55806299  0.94703906
   0.55777608  0.44531039  0.05307483
   0.44444761  0.88667095  0.95107937