   27   27  100    1
  0.9710400E+02  0.1002848E-08  0.1002848E-08  0.3000000E-08  0.5000000E-15
  1.000000000000000E-004
  CAR 
 unknown system                          
    159     34    120
 
  0.0000000E+00  0.0000000E+00  0.0000000E+00  0.1562500E-01
    1      -17.772984   1.000000
    2      -16.674718   1.000000
    3      -16.620565   1.000000
    4      -16.590774   1.000000
    5      -16.485292   1.000000
    6      -16.424838   1.000000
    7      -16.386950   1.000000
    8      -16.346930   1.000000
    9      -16.155505   1.000000
   10      -16.106562   1.000000
   11      -15.959421   1.000000
   12      -15.905781   1.000000
   13      -15.849249   1.000000
   14      -15.762588   1.000000
   15      -15.605098   1.000000
   16      -15.540082   1.000000
   17      -15.460440   1.000000
   18      -15.379079   1.000000
   19       -9.342326   1.000000
   20       -8.962895   1.000000
   21       -8.873978   1.000000
   22       -8.833183   1.000000
   23       -8.716115   1.000000
   24       -8.638195   1.000000
   25       -8.568890   1.000000
   26       -8.552326   1.000000
   27       -8.503791   1.000000
   28       -8.445746   1.000000
   29       -8.411500   1.000000
   30       -8.343499   1.000000
   31       -8.255831   1.000000
   32       -8.157349   1.000000
   33       -8.122650   1.000000
   34       -8.040245   1.000000
   35       -7.910598   1.000000
   36       -7.750501   1.000000
   37       -7.723674   1.000000
   38       -7.580825   1.000000
   39       -7.506218   1.000000
   40       -7.466317   1.000000
   41       -7.263958   1.000000
   42       -7.246216   1.000000
   43       -7.200513   1.000000
   44       -6.868600   1.000000
   45       -6.823503   1.000000
   46       -6.766760   1.000000
   47       -6.713278   1.000000
   48       -6.643195   1.000000
   49       -6.547943   1.000000
   50       -6.492738   1.000000
   51       -6.471119   1.000000
   52       -6.337859   1.000000
   53       -6.285408   1.000000
   54       -6.237442   1.000000
   55       -6.220369   1.000000
   56       -6.127095   1.000000
   57       -5.976973   1.000000
   58       -5.811686   1.000000
   59       -5.751443   1.000000
   60       -5.519253   1.000000
   61       -5.443700   1.000000
   62       -5.420181   1.000000
   63       -5.322779   1.000000
   64       -5.209479   1.000000
   65       -5.195847   1.000000
   66       -5.079359   1.000000
   67       -4.924588   1.000000
   68       -4.878035   1.000000
   69       -4.849411   1.000000
   70       -4.813098   1.000000
   71       -4.724104   1.000000
   72       -4.650183   1.000000
   73       -4.535693   1.000000
   74       -4.356873   1.000000
   75       -4.115802   1.000000
   76       -3.947018   0.999961
   77       -3.859968   0.999569
   78       -3.710726   0.988596
   79       -3.591162   0.923811
   80       -3.555853   0.881301
   81       -3.310710   0.290505
   82       -2.760057   0.000004
   83       -2.660069   0.000000
   84       -2.566848   0.000000
   85       -2.505714   0.000000
   86       -2.444654   0.000000
   87       -2.421437   0.000000
   88       -2.299076   0.000000
   89       -2.266799   0.000000
   90       -2.141430   0.000000
   91       -1.796249   0.000000
   92       -1.684309   0.000000
   93       -1.501568   0.000000
   94       -1.301601   0.000000
   95       -1.254822   0.000000
   96       -1.027123   0.000000
   97       -0.996922   0.000000
   98       -0.873768   0.000000
   99       -0.710229   0.000000
  100       -0.650216   0.000000
  101       -0.600755   0.000000
  102       -0.559961   0.000000
  103       -0.552788   0.000000
  104       -0.375773   0.000000
  105       -0.332593   0.000000
  106       -0.207503   0.000000
  107       -0.114598   0.000000
  108        0.018909   0.000000
  109        0.089111   0.000000
  110        0.235552   0.000000
  111        0.318430   0.000000
  112        0.353548   0.000000
  113        0.601925   0.000000
  114        0.689914   0.000000
  115        0.850661   0.000000
  116        1.042410   0.000000
  117        1.065336   0.000000
  118        1.629575   0.000000
  119        1.824025   0.000000
  120        2.123558   0.000000
 
  0.1250000E+00  0.2775558E-16  0.0000000E+00  0.3125000E-01
    1      -17.748249   1.000000
    2      -16.774463   1.000000
    3      -16.634250   1.000000
    4      -16.597423   1.000000
    5      -16.512942   1.000000
    6      -16.440838   1.000000
    7      -16.381401   1.000000
    8      -16.253864   1.000000
    9      -16.137794   1.000000
   10      -16.092725   1.000000
   11      -15.964210   1.000000
   12      -15.914006   1.000000
   13      -15.823582   1.000000
   14      -15.721064   1.000000
   15      -15.611695   1.000000
   16      -15.540406   1.000000
   17      -15.468870   1.000000
   18      -15.397449   1.000000
   19       -9.338662   1.000000
   20       -9.127718   1.000000
   21       -8.937270   1.000000
   22       -8.878978   1.000000
   23       -8.796555   1.000000
   24       -8.710907   1.000000
   25       -8.607484   1.000000
   26       -8.556388   1.000000
   27       -8.484884   1.000000
   28       -8.430467   1.000000
   29       -8.344008   1.000000
   30       -8.269789   1.000000
   31       -8.209175   1.000000
   32       -8.073045   1.000000
   33       -8.045587   1.000000
   34       -7.936099   1.000000
   35       -7.842508   1.000000
   36       -7.760434   1.000000
   37       -7.607226   1.000000
   38       -7.589183   1.000000
   39       -7.500657   1.000000
   40       -7.442700   1.000000
   41       -7.325142   1.000000
   42       -7.216688   1.000000
   43       -7.165805   1.000000
   44       -6.958716   1.000000
   45       -6.881246   1.000000
   46       -6.832932   1.000000
   47       -6.734095   1.000000
   48       -6.626097   1.000000
   49       -6.516202   1.000000
   50       -6.501819   1.000000
   51       -6.402325   1.000000
   52       -6.369355   1.000000
   53       -6.288809   1.000000
   54       -6.222338   1.000000
   55       -6.204945   1.000000
   56       -6.121877   1.000000
   57       -5.956194   1.000000
   58       -5.808563   1.000000
   59       -5.694690   1.000000
   60       -5.597250   1.000000
   61       -5.541508   1.000000
   62       -5.399920   1.000000
   63       -5.317522   1.000000
   64       -5.259538   1.000000
   65       -5.120168   1.000000
   66       -5.093689   1.000000
   67       -5.019323   1.000000
   68       -4.985919   1.000000
   69       -4.864496   1.000000
   70       -4.782213   1.000000
   71       -4.670140   1.000000
   72       -4.570112   1.000000
   73       -4.510044   1.000000
   74       -4.330952   1.000000
   75       -4.090592   1.000000
   76       -3.950207   0.999964
   77       -3.888168   0.999793
   78       -3.747214   0.994372
   79       -3.706800   0.987740
   80       -3.458861   0.689939
   81       -3.283972   0.229353
   82       -2.750326   0.000003
   83       -2.652117   0.000000
   84       -2.578452   0.000000
   85       -2.531316   0.000000
   86       -2.449747   0.000000
   87       -2.364251   0.000000
   88       -2.307818   0.000000
   89       -2.228098   0.000000
   90       -2.121390   0.000000
   91       -1.812545   0.000000
   92       -1.696268   0.000000
   93       -1.495646   0.000000
   94       -1.299368   0.000000
   95       -1.240210   0.000000
   96       -1.046339   0.000000
   97       -0.985619   0.000000
   98       -0.858946   0.000000
   99       -0.752302   0.000000
  100       -0.661579   0.000000
  101       -0.637331   0.000000
  102       -0.604881   0.000000
  103       -0.588835   0.000000
  104       -0.403876   0.000000
  105       -0.378130   0.000000
  106       -0.264455   0.000000
  107       -0.128069   0.000000
  108       -0.037963   0.000000
  109        0.038581   0.000000
  110        0.194931   0.000000
  111        0.272050   0.000000
  112        0.471549   0.000000
  113        0.620138   0.000000
  114        0.731128   0.000000
  115        0.893666   0.000000
  116        1.011580   0.000000
  117        1.132653   0.000000
  118        1.674274   0.000000
  119        1.861858   0.000000
  120        2.158797   0.000000
 
  0.2500000E+00  0.5551115E-16  0.0000000E+00  0.3125000E-01
    1      -17.675590   1.000000
    2      -16.962723   1.000000
    3      -16.700193   1.000000
    4      -16.613456   1.000000
    5      -16.546914   1.000000
    6      -16.433775   1.000000
    7      -16.321333   1.000000
    8      -16.177644   1.000000
    9      -16.116864   1.000000
   10      -16.061940   1.000000
   11      -15.942523   1.000000
   12      -15.900147   1.000000
   13      -15.799377   1.000000
   14      -15.663729   1.000000
   15      -15.595768   1.000000
   16      -15.540805   1.000000
   17      -15.496817   1.000000
   18      -15.437246   1.000000
   19       -9.475170   1.000000
   20       -9.238977   1.000000
   21       -9.118661   1.000000
   22       -8.974177   1.000000
   23       -8.863796   1.000000
   24       -8.766235   1.000000
   25       -8.661698   1.000000
   26       -8.537536   1.000000
   27       -8.454054   1.000000
   28       -8.386598   1.000000
   29       -8.265193   1.000000
   30       -8.146377   1.000000
   31       -8.123655   1.000000
   32       -8.063518   1.000000
   33       -7.981888   1.000000
   34       -7.853462   1.000000
   35       -7.744265   1.000000
   36       -7.639206   1.000000
   37       -7.590960   1.000000
   38       -7.472821   1.000000
   39       -7.415012   1.000000
   40       -7.376776   1.000000
   41       -7.272321   1.000000
   42       -7.216551   1.000000
   43       -7.080128   1.000000
   44       -7.019786   1.000000
   45       -6.980335   1.000000
   46       -6.825073   1.000000
   47       -6.782813   1.000000
   48       -6.679073   1.000000
   49       -6.558469   1.000000
   50       -6.486774   1.000000
   51       -6.404790   1.000000
   52       -6.312727   1.000000
   53       -6.268403   1.000000
   54       -6.213870   1.000000
   55       -6.147496   1.000000
   56       -6.059774   1.000000
   57       -5.942732   1.000000
   58       -5.880338   1.000000
   59       -5.771501   1.000000
   60       -5.670390   1.000000
   61       -5.587975   1.000000
   62       -5.505603   1.000000
   63       -5.410082   1.000000
   64       -5.279594   1.000000
   65       -5.236999   1.000000
   66       -5.154678   1.000000
   67       -5.010611   1.000000
   68       -4.919023   1.000000
   69       -4.814553   1.000000
   70       -4.750114   1.000000
   71       -4.640532   1.000000
   72       -4.514168   1.000000
   73       -4.383457   1.000000
   74       -4.302472   1.000000
   75       -4.243522   1.000000
   76       -4.096928   1.000000
   77       -3.924235   0.999924
   78       -3.732284   0.992431
   79       -3.599132   0.931564
   80       -3.403863   0.542518
   81       -3.229986   0.130779
   82       -2.758874   0.000004
   83       -2.653829   0.000000
   84       -2.602729   0.000000
   85       -2.570127   0.000000
   86       -2.430934   0.000000
   87       -2.325065   0.000000
   88       -2.237330   0.000000
   89       -2.162360   0.000000
   90       -2.076840   0.000000
   91       -1.849449   0.000000
   92       -1.709043   0.000000
   93       -1.498155   0.000000
   94       -1.273923   0.000000
   95       -1.223396   0.000000
   96       -1.091031   0.000000
   97       -0.989215   0.000000
   98       -0.895050   0.000000
   99       -0.831113   0.000000
  100       -0.726881   0.000000
  101       -0.686102   0.000000
  102       -0.664480   0.000000
  103       -0.608686   0.000000
  104       -0.520922   0.000000
  105       -0.454892   0.000000
  106       -0.351098   0.000000
  107       -0.215197   0.000000
  108       -0.155664   0.000000
  109       -0.043131   0.000000
  110        0.134678   0.000000
  111        0.221731   0.000000
  112        0.612513   0.000000
  113        0.640878   0.000000
  114        0.794761   0.000000
  115        0.967039   0.000000
  116        1.033950   0.000000
  117        1.263699   0.000000
  118        1.798221   0.000000
  119        1.970553   0.000000
  120        2.263271   0.000000
 
  0.3750000E+00  0.0000000E+00  0.0000000E+00  0.3125000E-01
    1      -17.562110   1.000000
    2      -17.164790   1.000000
    3      -16.745987   1.000000
    4      -16.650152   1.000000
    5      -16.528564   1.000000
    6      -16.451447   1.000000
    7      -16.266688   1.000000
    8      -16.156234   1.000000
    9      -16.107940   1.000000
   10      -16.021202   1.000000
   11      -15.879429   1.000000
   12      -15.872856   1.000000
   13      -15.786456   1.000000
   14      -15.656761   1.000000
   15      -15.597428   1.000000
   16      -15.563775   1.000000
   17      -15.513792   1.000000
   18      -15.432032   1.000000
   19       -9.676623   1.000000
   20       -9.280867   1.000000
   21       -9.185188   1.000000
   22       -9.068073   1.000000
   23       -8.890058   1.000000
   24       -8.783905   1.000000
   25       -8.663675   1.000000
   26       -8.499477   1.000000
   27       -8.423727   1.000000
   28       -8.335525   1.000000
   29       -8.283642   1.000000
   30       -8.144418   1.000000
   31       -8.074223   1.000000
   32       -8.001665   1.000000
   33       -7.941694   1.000000
   34       -7.843042   1.000000
   35       -7.773024   1.000000
   36       -7.656425   1.000000
   37       -7.523756   1.000000
   38       -7.434516   1.000000
   39       -7.358948   1.000000
   40       -7.251945   1.000000
   41       -7.187718   1.000000
   42       -7.145143   1.000000
   43       -7.046075   1.000000
   44       -7.008658   1.000000
   45       -6.880528   1.000000
   46       -6.792925   1.000000
   47       -6.709713   1.000000
   48       -6.651941   1.000000
   49       -6.577608   1.000000
   50       -6.478666   1.000000
   51       -6.405177   1.000000
   52       -6.268895   1.000000
   53       -6.249000   1.000000
   54       -6.198256   1.000000
   55       -6.156783   1.000000
   56       -6.065958   1.000000
   57       -6.017817   1.000000
   58       -5.927260   1.000000
   59       -5.881428   1.000000
   60       -5.779346   1.000000
   61       -5.677481   1.000000
   62       -5.606920   1.000000
   63       -5.494550   1.000000
   64       -5.315035   1.000000
   65       -5.259917   1.000000
   66       -5.176729   1.000000
   67       -4.973927   1.000000
   68       -4.889796   1.000000
   69       -4.778341   1.000000
   70       -4.701974   1.000000
   71       -4.654710   1.000000
   72       -4.604287   1.000000
   73       -4.389628   1.000000
   74       -4.329919   1.000000
   75       -4.229432   1.000000
   76       -4.097807   1.000000
   77       -3.909862   0.999886
   78       -3.772691   0.996684
   79       -3.472944   0.724165
   80       -3.329291   0.337051
   81       -3.159058   0.052161
   82       -2.843225   0.000057
   83       -2.656146   0.000000
   84       -2.621110   0.000000
   85       -2.581089   0.000000
   86       -2.415853   0.000000
   87       -2.284724   0.000000
   88       -2.189362   0.000000
   89       -2.113031   0.000000
   90       -2.013945   0.000000
   91       -1.878898   0.000000
   92       -1.680739   0.000000
   93       -1.511300   0.000000
   94       -1.270138   0.000000
   95       -1.247437   0.000000
   96       -1.107381   0.000000
   97       -1.038064   0.000000
   98       -0.988804   0.000000
   99       -0.841188   0.000000
  100       -0.810633   0.000000
  101       -0.767308   0.000000
  102       -0.677684   0.000000
  103       -0.630240   0.000000
  104       -0.556201   0.000000
  105       -0.493833   0.000000
  106       -0.471667   0.000000
  107       -0.318024   0.000000
  108       -0.250727   0.000000
  109       -0.110243   0.000000
  110        0.091219   0.000000
  111        0.183424   0.000000
  112        0.642906   0.000000
  113        0.687150   0.000000
  114        0.851989   0.000000
  115        1.020757   0.000000
  116        1.094648   0.000000
  117        1.388230   0.000000
  118        1.983188   0.000000
  119        2.140655   0.000000
  120        2.433047   0.000000
 
  0.5000000E+00  0.1110223E-15  0.0000000E+00  0.1562500E-01
    1      -17.464351   1.000000
    2      -17.294580   1.000000
    3      -16.761853   1.000000
    4      -16.663842   1.000000
    5      -16.513328   1.000000
    6      -16.466128   1.000000
    7      -16.247118   1.000000
    8      -16.156656   1.000000
    9      -16.103372   1.000000
   10      -16.000786   1.000000
   11      -15.865462   1.000000
   12      -15.846168   1.000000
   13      -15.748084   1.000000
   14      -15.673249   1.000000
   15      -15.640835   1.000000
   16      -15.569184   1.000000
   17      -15.523705   1.000000
   18      -15.406632   1.000000
   19       -9.752792   1.000000
   20       -9.315413   1.000000
   21       -9.194697   1.000000
   22       -9.100454   1.000000
   23       -8.896279   1.000000
   24       -8.730224   1.000000
   25       -8.677122   1.000000
   26       -8.549700   1.000000
   27       -8.379914   1.000000
   28       -8.312700   1.000000
   29       -8.305398   1.000000
   30       -8.142517   1.000000
   31       -8.057176   1.000000
   32       -7.972909   1.000000
   33       -7.903513   1.000000
   34       -7.863694   1.000000
   35       -7.752730   1.000000
   36       -7.730215   1.000000
   37       -7.533978   1.000000
   38       -7.447092   1.000000
   39       -7.397498   1.000000
   40       -7.212931   1.000000
   41       -7.115395   1.000000
   42       -7.058395   1.000000
   43       -7.013488   1.000000
   44       -6.864616   1.000000
   45       -6.797941   1.000000
   46       -6.764250   1.000000
   47       -6.715079   1.000000
   48       -6.660988   1.000000
   49       -6.609420   1.000000
   50       -6.500235   1.000000
   51       -6.418897   1.000000
   52       -6.344406   1.000000
   53       -6.278995   1.000000
   54       -6.189705   1.000000
   55       -6.126546   1.000000
   56       -6.058377   1.000000
   57       -6.038635   1.000000
   58       -5.894577   1.000000
   59       -5.829432   1.000000
   60       -5.768511   1.000000
   61       -5.695501   1.000000
   62       -5.658989   1.000000
   63       -5.547401   1.000000
   64       -5.494658   1.000000
   65       -5.259057   1.000000
   66       -5.163205   1.000000
   67       -5.062832   1.000000
   68       -4.873949   1.000000
   69       -4.806672   1.000000
   70       -4.713691   1.000000
   71       -4.593006   1.000000
   72       -4.516117   1.000000
   73       -4.478192   1.000000
   74       -4.326700   1.000000
   75       -4.210356   1.000000
   76       -4.057238   0.999999
   77       -3.891707   0.999812
   78       -3.810640   0.998573
   79       -3.445307   0.655360
   80       -3.277618   0.215961
   81       -3.099331   0.020349
   82       -2.916548   0.000420
   83       -2.655726   0.000000
   84       -2.631902   0.000000
   85       -2.577512   0.000000
   86       -2.408995   0.000000
   87       -2.271576   0.000000
   88       -2.182416   0.000000
   89       -2.090666   0.000000
   90       -1.988352   0.000000
   91       -1.880959   0.000000
   92       -1.653212   0.000000
   93       -1.517446   0.000000
   94       -1.313167   0.000000
   95       -1.240114   0.000000
   96       -1.114805   0.000000
   97       -1.078625   0.000000
   98       -0.980024   0.000000
   99       -0.888139   0.000000
  100       -0.836713   0.000000
  101       -0.793750   0.000000
  102       -0.687389   0.000000
  103       -0.629063   0.000000
  104       -0.571659   0.000000
  105       -0.535077   0.000000
  106       -0.483979   0.000000
  107       -0.347177   0.000000
  108       -0.302550   0.000000
  109       -0.132073   0.000000
  110        0.074170   0.000000
  111        0.168666   0.000000
  112        0.647286   0.000000
  113        0.702287   0.000000
  114        0.875426   0.000000
  115        1.046739   0.000000
  116        1.117381   0.000000
  117        1.434432   0.000000
  118        2.200135   0.000000
  119        2.236289   0.000000
  120        2.355122   0.000000
 
  0.0000000E+00  0.1250000E+00  0.0000000E+00  0.3125000E-01
    1      -17.748270   1.000000
    2      -16.791788   1.000000
    3      -16.650582   1.000000
    4      -16.565374   1.000000
    5      -16.508787   1.000000
    6      -16.426380   1.000000
    7      -16.367913   1.000000
    8      -16.266645   1.000000
    9      -16.155169   1.000000
   10      -16.110161   1.000000
   11      -15.938708   1.000000
   12      -15.889392   1.000000
   13      -15.837803   1.000000
   14      -15.740142   1.000000
   15      -15.619475   1.000000
   16      -15.539311   1.000000
   17      -15.474668   1.000000
   18      -15.385811   1.000000
   19       -9.332220   1.000000
   20       -9.164862   1.000000
   21       -8.917679   1.000000
   22       -8.884205   1.000000
   23       -8.762171   1.000000
   24       -8.653103   1.000000
   25       -8.596618   1.000000
   26       -8.574544   1.000000
   27       -8.504880   1.000000
   28       -8.405427   1.000000
   29       -8.349211   1.000000
   30       -8.291162   1.000000
   31       -8.215036   1.000000
   32       -8.097528   1.000000
   33       -8.051224   1.000000
   34       -7.910269   1.000000
   35       -7.885273   1.000000
   36       -7.731906   1.000000
   37       -7.659381   1.000000
   38       -7.615541   1.000000
   39       -7.479560   1.000000
   40       -7.449951   1.000000
   41       -7.310857   1.000000
   42       -7.254910   1.000000
   43       -7.169610   1.000000
   44       -6.913709   1.000000
   45       -6.875082   1.000000
   46       -6.826413   1.000000
   47       -6.671985   1.000000
   48       -6.607088   1.000000
   49       -6.518854   1.000000
   50       -6.476607   1.000000
   51       -6.437515   1.000000
   52       -6.370482   1.000000
   53       -6.282342   1.000000
   54       -6.223375   1.000000
   55       -6.209148   1.000000
   56       -6.136320   1.000000
   57       -6.002962   1.000000
   58       -5.799360   1.000000
   59       -5.778196   1.000000
   60       -5.598863   1.000000
   61       -5.515490   1.000000
   62       -5.410041   1.000000
   63       -5.315391   1.000000
   64       -5.255218   1.000000
   65       -5.154955   1.000000
   66       -5.044327   1.000000
   67       -5.005743   1.000000
   68       -4.938410   1.000000
   69       -4.864452   1.000000
   70       -4.778050   1.000000
   71       -4.655121   1.000000
   72       -4.631975   1.000000
   73       -4.496204   1.000000
   74       -4.299095   1.000000
   75       -4.120609   1.000000
   76       -3.950692   0.999965
   77       -3.840266   0.999295
   78       -3.786567   0.997545
   79       -3.696429   0.985205
   80       -3.527982   0.837550
   81       -3.198294   0.089020
   82       -2.753619   0.000004
   83       -2.686199   0.000000
   84       -2.554367   0.000000
   85       -2.513995   0.000000
   86       -2.433193   0.000000
   87       -2.390668   0.000000
   88       -2.314308   0.000000
   89       -2.233947   0.000000
   90       -2.122891   0.000000
   91       -1.808620   0.000000
   92       -1.685781   0.000000
   93       -1.495408   0.000000
   94       -1.308356   0.000000
   95       -1.254774   0.000000
   96       -1.054587   0.000000
   97       -0.967815   0.000000
   98       -0.851889   0.000000
   99       -0.767372   0.000000
  100       -0.725243   0.000000
  101       -0.652017   0.000000
  102       -0.585978   0.000000
  103       -0.534793   0.000000
  104       -0.413466   0.000000
  105       -0.343391   0.000000
  106       -0.253160   0.000000
  107       -0.140185   0.000000
  108       -0.051122   0.000000
  109        0.042521   0.000000
  110        0.211427   0.000000
  111        0.314530   0.000000
  112        0.434641   0.000000
  113        0.649164   0.000000
  114        0.716626   0.000000
  115        0.849204   0.000000
  116        1.011986   0.000000
  117        1.131403   0.000000
  118        1.673650   0.000000
  119        1.861889   0.000000
  120        2.158267   0.000000
 
  0.1250000E+00  0.1250000E+00  0.0000000E+00  0.3125000E-01
    1      -17.698156   1.000000
    2      -16.921579   1.000000
    3      -16.712196   1.000000
    4      -16.578395   1.000000
    5      -16.525484   1.000000
    6      -16.384449   1.000000
    7      -16.353191   1.000000
    8      -16.209726   1.000000
    9      -16.141083   1.000000
   10      -16.108765   1.000000
   11      -15.925446   1.000000
   12      -15.893548   1.000000
   13      -15.790763   1.000000
   14      -15.682097   1.000000
   15      -15.625080   1.000000
   16      -15.533866   1.000000
   17      -15.485687   1.000000
   18      -15.426791   1.000000
   19       -9.408295   1.000000
   20       -9.227503   1.000000
   21       -9.130997   1.000000
   22       -8.943719   1.000000
   23       -8.815096   1.000000
   24       -8.678488   1.000000
   25       -8.619197   1.000000
   26       -8.538137   1.000000
   27       -8.482171   1.000000
   28       -8.401505   1.000000
   29       -8.357276   1.000000
   30       -8.206438   1.000000
   31       -8.161955   1.000000
   32       -8.057823   1.000000
   33       -7.982608   1.000000
   34       -7.853943   1.000000
   35       -7.744056   1.000000
   36       -7.664780   1.000000
   37       -7.607972   1.000000
   38       -7.502061   1.000000
   39       -7.414591   1.000000
   40       -7.385161   1.000000
   41       -7.341361   1.000000
   42       -7.235323   1.000000
   43       -7.131348   1.000000
   44       -7.009668   1.000000
   45       -6.948004   1.000000
   46       -6.862977   1.000000
   47       -6.744564   1.000000
   48       -6.614146   1.000000
   49       -6.531739   1.000000
   50       -6.489004   1.000000
   51       -6.435957   1.000000
   52       -6.323169   1.000000
   53       -6.279724   1.000000
   54       -6.181233   1.000000
   55       -6.146056   1.000000
   56       -6.116641   1.000000
   57       -5.972416   1.000000
   58       -5.843267   1.000000
   59       -5.717816   1.000000
   60       -5.658438   1.000000
   61       -5.594921   1.000000
   62       -5.511075   1.000000
   63       -5.402427   1.000000
   64       -5.278507   1.000000
   65       -5.198633   1.000000
   66       -5.100758   1.000000
   67       -4.991414   1.000000
   68       -4.931667   1.000000
   69       -4.853508   1.000000
   70       -4.722005   1.000000
   71       -4.672803   1.000000
   72       -4.574108   1.000000
   73       -4.406059   1.000000
   74       -4.269637   1.000000
   75       -4.165127   1.000000
   76       -4.091138   1.000000
   77       -3.900140   0.999850
   78       -3.738150   0.993255
   79       -3.650429   0.967862
   80       -3.460192   0.693250
   81       -3.164799   0.056636
   82       -2.750568   0.000003
   83       -2.680341   0.000000
   84       -2.592753   0.000000
   85       -2.551605   0.000000
   86       -2.423075   0.000000
   87       -2.332848   0.000000
   88       -2.289977   0.000000
   89       -2.184211   0.000000
   90       -2.095019   0.000000
   91       -1.840646   0.000000
   92       -1.702526   0.000000
   93       -1.498549   0.000000
   94       -1.290868   0.000000
   95       -1.233957   0.000000
   96       -1.098784   0.000000
   97       -0.939026   0.000000
   98       -0.860643   0.000000
   99       -0.796678   0.000000
  100       -0.768739   0.000000
  101       -0.702524   0.000000
  102       -0.625728   0.000000
  103       -0.583383   0.000000
  104       -0.501782   0.000000
  105       -0.389427   0.000000
  106       -0.285489   0.000000
  107       -0.234267   0.000000
  108       -0.145802   0.000000
  109       -0.036841   0.000000
  110        0.201374   0.000000
  111        0.254793   0.000000
  112        0.509467   0.000000
  113        0.676470   0.000000
  114        0.752479   0.000000
  115        0.904706   0.000000
  116        1.040627   0.000000
  117        1.246560   0.000000
  118        1.759738   0.000000
  119        1.934055   0.000000
  120        2.228346   0.000000
 
  0.2500000E+00  0.1250000E+00  0.0000000E+00  0.3125000E-01
    1      -17.602724   1.000000
    2      -17.084003   1.000000
    3      -16.836745   1.000000
    4      -16.561836   1.000000
    5      -16.505461   1.000000
    6      -16.412833   1.000000
    7      -16.280987   1.000000
    8      -16.186221   1.000000
    9      -16.122291   1.000000
   10      -16.069731   1.000000
   11      -15.898013   1.000000
   12      -15.883373   1.000000
   13      -15.766628   1.000000
   14      -15.668166   1.000000
   15      -15.597073   1.000000
   16      -15.537783   1.000000
   17      -15.493522   1.000000
   18      -15.459876   1.000000
   19       -9.597068   1.000000
   20       -9.322244   1.000000
   21       -9.201315   1.000000
   22       -9.047871   1.000000
   23       -8.798830   1.000000
   24       -8.713894   1.000000
   25       -8.657521   1.000000
   26       -8.509078   1.000000
   27       -8.430376   1.000000
   28       -8.333698   1.000000
   29       -8.317865   1.000000
   30       -8.191874   1.000000
   31       -8.102733   1.000000
   32       -8.043040   1.000000
   33       -7.946152   1.000000
   34       -7.849366   1.000000
   35       -7.791912   1.000000
   36       -7.628222   1.000000
   37       -7.533217   1.000000
   38       -7.421180   1.000000
   39       -7.352008   1.000000
   40       -7.288408   1.000000
   41       -7.209308   1.000000
   42       -7.129698   1.000000
   43       -7.101566   1.000000
   44       -7.051113   1.000000
   45       -6.897639   1.000000
   46       -6.840558   1.000000
   47       -6.710876   1.000000