       N       E                     dE             d eps       ncg     rms          rms(c)
DAV:   1     0.112375303988E+04    0.11238E+04   -0.35872E+04  8160   0.577E+02
DAV:   2     0.404127247951E+00   -0.11233E+04   -0.10765E+04 11320   0.173E+02
DAV:   3    -0.199716040002E+03   -0.20012E+03   -0.19215E+03 10880   0.824E+01
DAV:   4    -0.208958380822E+03   -0.92423E+01   -0.89885E+01 12040   0.264E+01
DAV:   5    -0.209298934276E+03   -0.34055E+00   -0.33969E+00 11400   0.378E+00    0.275E+01
DAV:   6    -0.237718328957E+03   -0.28419E+02   -0.10729E+02 12320   0.599E+01    0.595E+01
DAV:   7    -0.196630625661E+03    0.41088E+02   -0.17690E+02 13520   0.152E+02    0.201E+01
DAV:   8    -0.189654488611E+03    0.69761E+01   -0.17608E+01 12000   0.128E+01    0.129E+01
DAV:   9    -0.188220895934E+03    0.14336E+01   -0.31140E+00 13000   0.615E+00    0.941E+00
DAV:  10    -0.186955214943E+03    0.12657E+01   -0.17567E+00 13400   0.798E+00    0.216E+00
DAV:  11    -0.187024292516E+03   -0.69078E-01   -0.54879E-01 13280   0.248E+00    0.322E+00
DAV:  12    -0.186941139565E+03    0.83153E-01   -0.45447E-01 12880   0.321E+00    0.296E+00
DAV:  13    -0.186885138569E+03    0.56001E-01   -0.24624E-01 12960   0.293E+00    0.203E+00
DAV:  14    -0.186845346664E+03    0.39792E-01   -0.99690E-02 12880   0.171E+00    0.621E-01
DAV:  15    -0.186841392029E+03    0.39546E-02   -0.15404E-02 12560   0.531E-01    0.567E-01
DAV:  16    -0.186840480952E+03    0.91108E-03   -0.10433E-02 13480   0.538E-01    0.484E-01
DAV:  17    -0.186837965673E+03    0.25153E-02   -0.65157E-03 12640   0.397E-01    0.193E-01
DAV:  18    -0.186837679932E+03    0.28574E-03   -0.15922E-03 12360   0.158E-01    0.106E-01
DAV:  19    -0.186837631660E+03    0.48272E-04   -0.63950E-04  9560   0.712E-02
   1 F= -.18683763E+03 E0= -.18666579E+03  d E =-.186838E+03
       N       E                     dE             d eps       ncg     rms          rms(c)
DAV:   1    -0.187492078681E+03   -0.65440E+00   -0.27409E+02  8160   0.351E+01    0.469E+00
DAV:   2    -0.189512289543E+03   -0.20202E+01   -0.20306E+01 11840   0.155E+01    0.103E+01
DAV:   3    -0.189329012953E+03    0.18328E+00   -0.53950E+00 12240   0.130E+01    0.624E+00
DAV:   4    -0.188784400303E+03    0.54461E+00   -0.62038E-01 12200   0.486E+00    0.277E+00
DAV:   5    -0.188829840264E+03   -0.45440E-01   -0.44698E-01 10880   0.400E+00    0.477E+00
DAV:   6    -0.188713453450E+03    0.11639E+00   -0.65327E-01 12280   0.377E+00    0.215E+00
DAV:   7    -0.188701220082E+03    0.12233E-01   -0.23777E-01 11960   0.230E+00    0.246E+00
DAV:   8    -0.188670137240E+03    0.31083E-01   -0.14215E-01 11720   0.213E+00    0.169E+00
DAV:   9    -0.188646995354E+03    0.23142E-01   -0.53321E-02 11640   0.107E+00    0.662E-01
DAV:  10    -0.188644043733E+03    0.29516E-02   -0.70732E-03 10360   0.303E-01    0.325E-01
DAV:  11    -0.188643544500E+03    0.49923E-03   -0.30969E-03 13040   0.253E-01    0.139E-01
DAV:  12    -0.188643557975E+03   -0.13475E-04   -0.11014E-03 10920   0.111E-01    0.107E-01
DAV:  13    -0.188643694840E+03   -0.13687E-03   -0.28497E-04  6880   0.723E-02    0.198E-02
DAV:  14    -0.188643929489E+03   -0.23465E-03   -0.76362E-05  6800   0.290E-02    0.208E-02
DAV:  15    -0.188643992526E+03   -0.63037E-04   -0.25572E-05  8120   0.180E-02
   2 F= -.18864399E+03 E0= -.18850378E+03  d E =-.180636E+01
       N       E                     dE             d eps       ncg     rms          rms(c)
DAV:   1    -0.190595373807E+03   -0.19514E+01   -0.31730E+01  9200   0.143E+01    0.447E+00
DAV:   2    -0.190532940512E+03    0.62433E-01   -0.28065E+00 12040   0.946E+00    0.717E+00
DAV:   3    -0.190072592162E+03    0.46035E+00   -0.13193E+00 12360   0.863E+00    0.425E+00
DAV:   4    -0.189856829129E+03    0.21576E+00   -0.70140E-01 13120   0.435E+00    0.250E+00
DAV:   5    -0.189808851541E+03    0.47978E-01   -0.34677E-01 12280   0.282E+00    0.237E+00
DAV:   6    -0.189755963348E+03    0.52888E-01   -0.11589E-01 12520   0.220E+00    0.718E-01
DAV:   7    -0.189750425574E+03    0.55378E-02   -0.13251E-02 11960   0.538E-01    0.264E-01
DAV:   8    -0.189751335921E+03   -0.91035E-03   -0.51014E-03 11600   0.412E-01    0.419E-01
DAV:   9    -0.189750022321E+03    0.13136E-02   -0.27970E-03 11600   0.324E-01    0.126E-01
DAV:  10    -0.189750414549E+03   -0.39223E-03   -0.92504E-04 10160   0.117E-01    0.127E-01
DAV:  11    -0.189750138745E+03    0.27580E-03   -0.50018E-04 10440   0.758E-02    0.224E-02
DAV:  12    -0.189750185955E+03   -0.47210E-04   -0.66914E-05  6720   0.254E-02
   3 F= -.18975019E+03 E0= -.18963211E+03  d E =-.110619E+01
       N       E                     dE             d eps       ncg     rms          rms(c)
DAV:   1    -0.191358108502E+03   -0.16080E+01   -0.77705E+01  8160   0.201E+01    0.467E+00
DAV:   2    -0.191175489043E+03    0.18262E+00   -0.54464E+00 12960   0.785E+00    0.470E+00
DAV:   3    -0.191324861941E+03   -0.14937E+00   -0.15178E+00 12200   0.919E+00    0.715E+00
DAV:   4    -0.190952324074E+03    0.37254E+00   -0.17343E+00 12200   0.851E+00    0.386E+00
DAV:   5    -0.190932469582E+03    0.19854E-01   -0.77147E-01 11240   0.566E+00    0.357E+00
DAV:   6    -0.190757599542E+03    0.17487E+00   -0.22295E-01 11360   0.319E+00    0.768E-01
DAV:   7    -0.190755655156E+03    0.19444E-02   -0.45879E-02 12640   0.101E+00    0.771E-01
DAV:   8    -0.190754245901E+03    0.14093E-02   -0.23260E-02 12040   0.104E+00    0.681E-01
DAV:   9    -0.190749235737E+03    0.50102E-02   -0.66641E-03 11040   0.561E-01    0.158E-01
DAV:  10    -0.190749595285E+03   -0.35955E-03   -0.15680E-03 10600   0.134E-01    0.134E-01
DAV:  11    -0.190749383745E+03    0.21154E-03   -0.85236E-04 10800   0.113E-01    0.422E-02
DAV:  12    -0.190749406980E+03   -0.23235E-04   -0.13490E-04  6560   0.422E-02
   4 F= -.19074941E+03 E0= -.19064827E+03  d E =-.999221E+00
       N       E                     dE             d eps       ncg     rms          rms(c)
DAV:   1    -0.192074660235E+03   -0.13253E+01   -0.15760E+02  8160   0.280E+01    0.559E+00
DAV:   2    -0.191859047363E+03    0.21561E+00   -0.91273E+00 11600   0.841E+00    0.426E+00
DAV:   3    -0.192343578161E+03   -0.48453E+00   -0.26442E+00 12040   0.102E+01    0.105E+01
DAV:   4    -0.191638969333E+03    0.70461E+00   -0.30705E+00 11760   0.119E+01    0.364E+00
DAV:   5    -0.191590790847E+03    0.48178E-01   -0.69235E-01 12080   0.564E+00    0.403E+00
DAV:   6    -0.191423671728E+03    0.16712E+00   -0.42925E-01 12520   0.443E+00    0.161E+00
DAV:   7    -0.191409983141E+03    0.13689E-01   -0.89966E-02 12440   0.201E+00    0.132E+00
DAV:   8    -0.191397807344E+03    0.12176E-01   -0.52350E-02 11440   0.162E+00    0.656E-01
DAV:   9    -0.191392146149E+03    0.56612E-02   -0.68334E-03 11720   0.482E-01    0.230E-01
DAV:  10    -0.191392133254E+03    0.12896E-04   -0.26230E-03 12120   0.230E-01    0.790E-02
DAV:  11    -0.191392197053E+03   -0.63799E-04   -0.48386E-04 10920   0.869E-02
   5 F= -.19139220E+03 E0= -.19129402E+03  d E =-.642790E+00
       N       E                     dE             d eps       ncg     rms          rms(c)
DAV:   1    -0.191431370206E+03   -0.39237E-01   -0.38921E+00  8160   0.415E+00    0.525E-01
DAV:   2    -0.191471862805E+03   -0.40493E-01   -0.20568E-01 12880   0.221E+00    0.173E+00
DAV:   3    -0.191443071924E+03    0.28791E-01   -0.65692E-02 12440   0.182E+00    0.427E-01
DAV:   4    -0.191442996996E+03    0.74928E-04   -0.88966E-03 11040   0.620E-01    0.431E-01
DAV:   5    -0.191441066500E+03    0.19305E-02   -0.43863E-03 11000   0.500E-01    0.185E-01
DAV:   6    -0.191441021949E+03    0.44551E-04   -0.18413E-03 11480   0.233E-01    0.172E-01
DAV:   7    -0.191441393720E+03   -0.37177E-03   -0.25744E-03 10400   0.330E-01    0.262E-01
DAV:   8    -0.191440693715E+03    0.70000E-03   -0.11512E-03  8960   0.220E-01    0.219E-02
DAV:   9    -0.191440735810E+03   -0.42094E-04   -0.76502E-05  5680   0.304E-02
   6 F= -.19144074E+03 E0= -.19134036E+03  d E =-.485388E-01
       N       E                     dE             d eps       ncg     rms          rms(c)
DAV:   1    -0.191484051788E+03   -0.43358E-01   -0.62907E+00  8160   0.527E+00    0.633E-01
DAV:   2    -0.191536313585E+03   -0.52262E-01   -0.23593E-01 13400   0.239E+00    0.212E+00
DAV:   3    -0.191494161326E+03    0.42152E-01   -0.10233E-01 12480   0.221E+00    0.527E-01
DAV:   4    -0.191493298181E+03    0.86315E-03   -0.12519E-02 11000   0.673E-01    0.468E-01
DAV:   5    -0.191491302872E+03    0.19953E-02   -0.66854E-03 11240   0.608E-01    0.276E-01
DAV:   6    -0.191490891647E+03    0.41123E-03   -0.35070E-03 11400   0.347E-01    0.226E-01
DAV:   7    -0.191491374226E+03   -0.48258E-03   -0.40180E-03 11280   0.410E-01    0.312E-01
DAV:   8    -0.191490368882E+03    0.10053E-02   -0.16721E-03  9560   0.265E-01    0.272E-02
DAV:   9    -0.191490400539E+03   -0.31656E-04   -0.83902E-05  5600   0.341E-02
   7 F= -.19149040E+03 E0= -.19138755E+03  d E =-.496647E-01
       N       E                     dE             d eps       ncg     rms          rms(c)
DAV:   1    -0.191507256693E+03   -0.16888E-01   -0.65391E-01  8160   0.172E+00    0.238E-01
DAV:   2    -0.191513526436E+03   -0.62697E-02   -0.29431E-02 13000   0.921E-01    0.758E-01
DAV:   3    -0.191507917892E+03    0.56085E-02   -0.12299E-02 11560   0.776E-01    0.174E-01
DAV:   4    -0.191508031286E+03   -0.11339E-03   -0.18281E-03 10120   0.289E-01    0.208E-01
DAV:   5    -0.191507604666E+03    0.42662E-03   -0.12169E-03 10440   0.259E-01    0.103E-01
DAV:   6    -0.191507510948E+03    0.93718E-04   -0.43031E-04  7720   0.116E-01
   8 F= -.19150751E+03 E0= -.19140384E+03  d E =-.171104E-01
       N       E                     dE             d eps       ncg     rms          rms(c)
DAV:   1    -0.191523866614E+03   -0.16262E-01   -0.62440E-01  8160   0.169E+00    0.261E-01
DAV:   2    -0.191533968594E+03   -0.10102E-01   -0.37806E-02 13160   0.109E+00    0.103E+00
DAV:   3    -0.191524393391E+03    0.95752E-02   -0.22097E-02 11040   0.929E-01    0.203E-01
DAV:   4    -0.191524724992E+03   -0.33160E-03   -0.29482E-03 10720   0.363E-01    0.265E-01
DAV:   5    -0.191523995481E+03    0.72951E-03   -0.17211E-03  9800   0.282E-01    0.107E-01
DAV:   6    -0.191524094731E+03   -0.99250E-04   -0.77583E-04  9120   0.188E-01
   9 F= -.19152409E+03 E0= -.19141973E+03  d E =-.165838E-01
       N       E                     dE             d eps       ncg     rms          rms(c)
DAV:   1    -0.191536812077E+03   -0.12817E-01   -0.35535E-01  8160   0.127E+00    0.149E-01
DAV:   2    -0.191538834619E+03   -0.20225E-02   -0.12177E-02 13560   0.521E-01    0.394E-01
DAV:   3    -0.191537259459E+03    0.15752E-02   -0.39016E-03 11320   0.434E-01    0.115E-01
DAV:   4    -0.191537424350E+03   -0.16489E-03   -0.84716E-04  9400   0.206E-01    0.169E-01
DAV:   5    -0.191537127461E+03    0.29689E-03   -0.57581E-04  8320   0.180E-01    0.478E-02
DAV:   6    -0.191537185256E+03   -0.57795E-04   -0.23756E-04  6680   0.877E-02
  10 F= -.19153719E+03 E0= -.19143301E+03  d E =-.130905E-01
       N       E                     dE             d eps       ncg     rms          rms(c)
DAV:   1    -0.191545852669E+03   -0.87252E-02   -0.19937E-01  8160   0.947E-01    0.103E-01
DAV:   2    -0.191546314652E+03   -0.46198E-03   -0.56561E-03 12240   0.221E-01    0.135E-01
DAV:   3    -0.191546290413E+03    0.24239E-04   -0.13604E-03 10360   0.237E-01    0.159E-01
DAV:   4    -0.191546104074E+03    0.18634E-03   -0.66727E-04  8240   0.166E-01    0.754E-02
DAV:   5    -0.191546080537E+03    0.23537E-04   -0.24789E-04  6600   0.104E-01
  11 F= -.19154608E+03 E0= -.19144172E+03  d E =-.889528E-02
       N       E                     dE             d eps       ncg     rms          rms(c)
DAV:   1    -0.191577221128E+03   -0.31117E-01   -0.20196E+00  8160   0.300E+00    0.366E-01
DAV:   2    -0.191595856132E+03   -0.18635E-01   -0.72208E-02 13600   0.150E+00    0.132E+00
DAV:   3    -0.191578889194E+03    0.16967E-01   -0.34013E-02 12240   0.129E+00    0.221E-01
DAV:   4    -0.191578553639E+03    0.33555E-03   -0.21621E-03 11400   0.227E-01    0.166E-01
DAV:   5    -0.191578592940E+03   -0.39301E-04   -0.18938E-03 11480   0.292E-01    0.213E-01
DAV:   6    -0.191578378986E+03    0.21395E-03   -0.17939E-03  9920   0.264E-01    0.146E-01
DAV:   7    -0.191578354488E+03    0.24498E-04   -0.97111E-04  8160   0.211E-01
  12 F= -.19157835E+03 E0= -.19147461E+03  d E =-.322740E-01
       N       E                     dE             d eps       ncg     rms          rms(c)
DAV:   1    -0.191542924534E+03    0.35454E-01   -0.21950E+00  8160   0.314E+00    0.400E-01
DAV:   2    -0.191567366559E+03   -0.24442E-01   -0.91753E-02 13600   0.168E+00    0.149E+00
DAV:   3    -0.191545115051E+03    0.22252E-01   -0.41566E-02 12320   0.144E+00    0.243E-01
DAV:   4    -0.191545493374E+03   -0.37832E-03   -0.38837E-03 11280   0.409E-01    0.319E-01
DAV:   5    -0.191544481366E+03    0.10120E-02   -0.30252E-03 11760   0.392E-01    0.157E-01
DAV:   6    -0.191544661309E+03   -0.17994E-03   -0.17736E-03 10080   0.254E-01    0.213E-01
DAV:   7    -0.191544369864E+03    0.29144E-03   -0.14559E-03  9720   0.247E-01    0.107E-01
DAV:   8    -0.191544218923E+03    0.15094E-03   -0.25806E-04  6840   0.948E-02    0.146E-02
DAV:   9    -0.191544226151E+03   -0.72271E-05   -0.45859E-05  7200   0.233E-02
  13 F= -.19154423E+03 E0= -.19144028E+03  d E =0.341283E-01
       N       E                     dE             d eps       ncg     rms          rms(c)
DAV:   1    -0.191542079721E+03    0.21392E-02   -0.64958E-01  8160   0.171E+00    0.210E-01
DAV:   2    -0.191547450682E+03   -0.53710E-02   -0.25040E-02 13560   0.850E-01    0.686E-01
DAV:   3    -0.191542762128E+03    0.46886E-02   -0.95713E-03 11960   0.690E-01    0.158E-01
DAV:   4    -0.191542879300E+03   -0.11717E-03   -0.14844E-03 10120   0.263E-01    0.195E-01
DAV:   5    -0.191542498222E+03    0.38108E-03   -0.10860E-03 10440   0.235E-01    0.926E-02
DAV:   6    -0.191542519097E+03   -0.20875E-04   -0.57869E-04  8360   0.136E-01
  14 F= -.19154252E+03 E0= -.19143852E+03  d E =0.170705E-02
       N       E                     dE             d eps       ncg     rms          rms(c)
DAV:   1    -0.191464996042E+03    0.77502E-01   -0.17037E+01  8160   0.876E+00    0.114E+00
DAV:   2    -0.191656922427E+03   -0.19193E+00   -0.70727E-01 13600   0.464E+00    0.436E+00
DAV:   3    -0.191486424233E+03    0.17050E+00   -0.39589E-01 12160   0.417E+00    0.919E-01
DAV:   4    -0.191489138008E+03   -0.27138E-02   -0.48110E-02 11240   0.154E+00    0.122E+00
DAV:   5    -0.191477678996E+03    0.11459E-01   -0.42981E-02 12320   0.136E+00    0.645E-01
DAV:   6    -0.191476223647E+03    0.14553E-02   -0.17148E-02 10400   0.832E-01    0.522E-01
DAV:   7    -0.191474004369E+03    0.22193E-02   -0.81839E-03 12960   0.609E-01    0.215E-01
DAV:   8    -0.191473186856E+03    0.81751E-03   -0.18103E-03 11360   0.199E-01    0.478E-02
DAV:   9    -0.191473179489E+03    0.73670E-05   -0.25247E-04  9200   0.524E-02
  15 F= -.19147318E+03 E0= -.19137305E+03  d E =0.693396E-01
       N       E                     dE             d eps       ncg     rms          rms(c)
DAV:   1    -0.191469300721E+03    0.38861E-02   -0.39988E+00  8160   0.419E+00    0.522E-01
DAV:   2    -0.191510299773E+03   -0.40999E-01   -0.14120E-01 12360   0.207E+00    0.207E+00
DAV:   3    -0.191472656742E+03    0.37643E-01   -0.90029E-02 11680   0.196E+00    0.407E-01
DAV:   4    -0.191472829048E+03   -0.17231E-03   -0.88485E-03 11440   0.595E-01    0.439E-01
DAV:   5    -0.191471092297E+03    0.17368E-02   -0.55358E-03 11560   0.529E-01    0.237E-01
DAV:   6    -0.191470884612E+03    0.20768E-03   -0.27087E-03 10520   0.312E-01    0.233E-01
DAV:   7    -0.191470697566E+03    0.18705E-03   -0.20920E-03  9680   0.313E-01    0.161E-01
DAV:   8    -0.191470403967E+03    0.29360E-03   -0.46073E-04  8400   0.139E-01    0.158E-02
DAV:   9    -0.191470417736E+03   -0.13769E-04   -0.46046E-05  6840   0.239E-02
  16 F= -.19147042E+03 E0= -.19137219E+03  d E =0.276175E-02
       N       E                     dE             d eps       ncg     rms          rms(c)
DAV:   1    -0.191500560361E+03   -0.30156E-01   -0.31428E+00  8160   0.375E+00    0.453E-01
DAV:   2    -0.191529680329E+03   -0.29120E-01   -0.11456E-01 13600   0.183E+00    0.162E+00
DAV:   3    -0.191503946884E+03    0.25733E-01   -0.50788E-02 12560   0.161E+00    0.304E-01
DAV:   4    -0.191503371801E+03    0.57508E-03   -0.41652E-03 10960   0.318E-01    0.219E-01
DAV:   5    -0.191503005275E+03    0.36653E-03   -0.22852E-03 12600   0.332E-01    0.207E-01
DAV:   6    -0.191502718555E+03    0.28672E-03   -0.16339E-03  9960   0.288E-01    0.120E-01
DAV:   7    -0.191502730483E+03   -0.11929E-04   -0.81504E-04  9280   0.174E-01
  17 F= -.19150273E+03 E0= -.19140366E+03  d E =-.323127E-01
       N       E                     dE             d eps       ncg     rms          rms(c)
DAV:   1    -0.191463600188E+03    0.39118E-01   -0.61817E+00  8160   0.527E+00    0.672E-01
DAV:   2    -0.191524288821E+03   -0.60689E-01   -0.23849E-01 13600   0.267E+00    0.239E+00
DAV:   3    -0.191470026747E+03    0.54262E-01   -0.12058E-01 12240   0.236E+00    0.528E-01
DAV:   4    -0.191469996584E+03    0.30164E-04   -0.14139E-02 11240   0.804E-01    0.589E-01
DAV:   5    -0.191467449608E+03    0.25470E-02   -0.11949E-02 12320   0.766E-01    0.393E-01
DAV:   6    -0.191466728531E+03    0.72108E-03   -0.58627E-03 10040   0.478E-01    0.312E-01
DAV:   7    -0.191466084455E+03    0.64408E-03   -0.33089E-03 11480   0.397E-01    0.162E-01
DAV:   8    -0.191465736874E+03    0.34758E-03   -0.75289E-04 10520   0.152E-01    0.314E-02
DAV:   9    -0.191465731410E+03    0.54644E-05   -0.88872E-05  6880   0.342E-02
  18 F= -.19146573E+03 E0= -.19136840E+03  d E =0.369991E-01
       N       E                     dE             d eps       ncg     rms          rms(c)
DAV:   1    -0.191390020438E+03    0.75716E-01   -0.27073E+01  8160   0.110E+01    0.131E+00
DAV:   2    -0.191627964088E+03   -0.23794E+00   -0.96846E-01 13600   0.500E+00    0.492E+00
DAV:   3    -0.191430508735E+03    0.19746E+00   -0.54892E-01 12120   0.477E+00    0.121E+00
DAV:   4    -0.191426040390E+03    0.44683E-02   -0.65625E-02 11480   0.171E+00    0.130E+00
DAV:   5    -0.191415303236E+03    0.10737E-01   -0.54134E-02 12160   0.159E+00    0.815E-01
DAV:   6    -0.191410339444E+03    0.49638E-02   -0.21153E-02 11120   0.917E-01    0.534E-01
DAV:   7    -0.191408910919E+03    0.14285E-02   -0.11316E-02 12480   0.778E-01    0.364E-01
DAV:   8    -0.191407256297E+03    0.16546E-02   -0.34950E-03 12520   0.357E-01    0.722E-02
DAV:   9    -0.191407199147E+03    0.57150E-04   -0.43262E-04  9280   0.772E-02
  19 F= -.19140720E+03 E0= -.19131180E+03  d E =0.585323E-01
       N       E                     dE             d eps       ncg     rms          rms(c)
DAV:   1    -0.191403863511E+03    0.33928E-02   -0.59425E+00  8160   0.510E+00    0.560E-01
DAV:   2    -0.191439797835E+03   -0.35934E-01   -0.17328E-01 13160   0.200E+00    0.183E+00
DAV:   3    -0.191411780035E+03    0.28018E-01   -0.82308E-02 12000   0.188E+00    0.552E-01
DAV:   4    -0.191409643606E+03    0.21364E-02   -0.11250E-02 11360   0.626E-01    0.384E-01
DAV:   5    -0.191408939400E+03    0.70421E-03   -0.63302E-03 11320   0.565E-01    0.345E-01
DAV:   6    -0.191407946452E+03    0.99295E-03   -0.39499E-03 11320   0.393E-01    0.206E-01
DAV:   7    -0.191408259596E+03   -0.31314E-03   -0.26365E-03 10480   0.366E-01    0.244E-01
DAV:   8    -0.191407599845E+03    0.65975E-03   -0.10230E-03  9840   0.229E-01    0.333E-02
DAV:   9    -0.191407596323E+03    0.35216E-05   -0.72316E-05  6360   0.370E-02
  20 F= -.19140760E+03 E0= -.19131179E+03  d E =-.397176E-03
       N       E                     dE             d eps       ncg     rms          rms(c)
DAV:   1    -0.191412609234E+03   -0.50094E-02   -0.70882E-01  8160   0.176E+00    0.190E-01
DAV:   2    -0.191415988757E+03   -0.33795E-02   -0.19224E-02 13600   0.689E-01    0.501E-01
DAV:   3    -0.191413442146E+03    0.25466E-02   -0.62635E-03 11560   0.572E-01    0.174E-01
DAV:   4    -0.191413441404E+03    0.74160E-06   -0.14780E-03  9640   0.256E-01    0.180E-01
DAV:   5    -0.191413182478E+03    0.25893E-03   -0.87641E-04  9000   0.220E-01    0.954E-02
DAV:   6    -0.191413093770E+03    0.88708E-04   -0.31750E-04  7240   0.107E-01
  21 F= -.19141309E+03 E0= -.19131714E+03  d E =-.549745E-02
       N       E                     dE             d eps       ncg     rms          rms(c)
DAV:   1    -0.191416694645E+03   -0.35122E-02   -0.67795E+00  8160   0.548E+00    0.616E-01
DAV:   2    -0.191460506941E+03   -0.43812E-01   -0.20332E-01 13600   0.218E+00    0.193E+00
DAV:   3    -0.191425158555E+03    0.35348E-01   -0.86211E-02 12160   0.206E+00    0.571E-01
DAV:   4    -0.191422325627E+03    0.28329E-02   -0.11967E-02 10480   0.608E-01    0.360E-01
DAV:   5    -0.191422552225E+03   -0.22660E-03   -0.81167E-03 12680   0.602E-01    0.465E-01
DAV:   6    -0.191420628928E+03    0.19233E-02   -0.51466E-03 11000   0.462E-01    0.164E-01
DAV:   7    -0.191421169818E+03   -0.54089E-03   -0.21642E-03 11240   0.336E-01    0.247E-01
DAV:   8    -0.191420432639E+03    0.73718E-03   -0.11904E-03 10040   0.268E-01    0.429E-02
DAV:   9    -0.191420417741E+03    0.14898E-04   -0.80646E-05  6320   0.443E-02
  22 F= -.19142042E+03 E0= -.19132450E+03  d E =-.732397E-02
       N       E                     dE             d eps       ncg     rms          rms(c)
DAV:   1    -0.191438028504E+03   -0.17596E-01   -0.17128E+00  8160   0.274E+00    0.326E-01
DAV:   2    -0.191448448672E+03   -0.10420E-01   -0.53913E-02 13600   0.125E+00    0.887E-01
DAV:   3    -0.191439724288E+03    0.87244E-02   -0.18642E-02 12480   0.101E+00    0.242E-01
DAV:   4    -0.191440383419E+03   -0.65913E-03   -0.47039E-03 10640   0.430E-01    0.366E-01
DAV:   5    -0.191439210745E+03    0.11727E-02   -0.32656E-03 10200   0.394E-01    0.157E-01
DAV:   6    -0.191439008578E+03    0.20217E-03   -0.91362E-04  9760   0.169E-01    0.838E-02
DAV:   7    -0.191439220653E+03   -0.21208E-03   -0.83292E-04  9720   0.200E-01    0.171E-01
DAV:   8    -0.191438913458E+03    0.30720E-03   -0.47541E-04  8720   0.157E-01    0.196E-02
DAV:   9    -0.191438926491E+03   -0.13033E-04   -0.32720E-05  5960   0.235E-02
  23 F= -.19143893E+03 E0= -.19134268E+03  d E =-.185087E-01
       N       E                     dE             d eps       ncg     rms          rms(c)
DAV:   1    -0.191431881126E+03    0.70323E-02   -0.72812E-01  8160   0.177E+00    0.190E-01
DAV:   2    -0.191434743840E+03   -0.28627E-02   -0.17247E-02 13240   0.648E-01    0.448E-01
DAV:   3    -0.191432471813E+03    0.22720E-02   -0.52677E-03 11600   0.536E-01    0.162E-01
DAV:   4    -0.191432501121E+03   -0.29308E-04   -0.14536E-03  9600   0.243E-01    0.179E-01
DAV:   5    -0.191432292747E+03    0.20837E-03   -0.95233E-04  9480   0.225E-01    0.113E-01
DAV:   6    -0.191432141418E+03    0.15133E-03   -0.32149E-04  7080   0.117E-01    0.308E-02
DAV:   7    -0.191432188961E+03   -0.47544E-04   -0.13858E-04  6600   0.753E-02
  24 F= -.19143219E+03 E0= -.19133590E+03  d E =0.673753E-02
       N       E                     dE             d eps       ncg     rms          rms(c)
DAV:   1    -0.191414082715E+03    0.18059E-01   -0.56234E+00  8160   0.491E+00    0.503E-01
DAV:   2    -0.191431622285E+03   -0.17540E-01   -0.11710E-01 12440   0.149E+00    0.105E+00
DAV:   3    -0.191419363003E+03    0.12259E-01   -0.34329E-02 12600   0.134E+00    0.491E-01
DAV:   4    -0.191418983601E+03    0.37940E-03   -0.11470E-02 12000   0.671E-01    0.471E-01
DAV:   5    -0.191417662641E+03    0.13210E-02   -0.70154E-03 10480   0.594E-01    0.320E-01
DAV:   6    -0.191416505336E+03    0.11573E-02   -0.25961E-03 10800   0.340E-01    0.109E-01
DAV:   7    -0.191417127138E+03   -0.62180E-03   -0.19035E-03 10440   0.283E-01    0.265E-01
DAV:   8    -0.191416429030E+03    0.69811E-03   -0.12155E-03  9000   0.239E-01    0.415E-02
DAV:   9    -0.191416431497E+03   -0.24667E-05   -0.70041E-05  5840   0.399E-02
  25 F= -.19141643E+03 E0= -.19131996E+03  d E =0.157575E-01
       N       E                     dE             d eps       ncg     rms          rms(c)
DAV:   1    -0.191427330958E+03   -0.10902E-01   -0.22671E+00  8160   0.315E+00    0.347E-01
DAV:   2    -0.191440335161E+03   -0.13004E-01   -0.64142E-02 13600   0.119E+00    0.103E+00
DAV:   3    -0.191430006014E+03    0.10329E-01   -0.26082E-02 12240   0.112E+00    0.335E-01
DAV:   4    -0.191429000476E+03    0.10055E-02   -0.38537E-03 11000   0.323E-01    0.161E-01
DAV:   5    -0.191429084233E+03   -0.83758E-04   -0.18770E-03 11360   0.268E-01    0.240E-01
DAV:   6    -0.191428645706E+03    0.43853E-03   -0.15985E-03  9680   0.267E-01    0.103E-01
DAV:   7    -0.191428593179E+03    0.52527E-04   -0.28551E-04  7160   0.925E-02
  26 F= -.19142859E+03 E0= -.19133144E+03  d E =-.121617E-01
       N       E                     dE             d eps       ncg     rms          rms(c)
DAV:   1    -0.191426937284E+03    0.17084E-02   -0.46519E+00  8160   0.446E+00    0.446E-01
DAV:   2    -0.191440051642E+03   -0.13114E-01   -0.92130E-02 12200   0.123E+00    0.990E-01
DAV:   3    -0.191432497280E+03    0.75544E-02   -0.36155E-02 11880   0.127E+00    0.566E-01
DAV:   4    -0.191429774137E+03    0.27231E-02   -0.86743E-03 11640   0.575E-01    0.263E-01
DAV:   5    -0.191429741809E+03    0.32328E-04   -0.38067E-03 11440   0.431E-01    0.312E-01
DAV:   6    -0.191428841839E+03    0.89997E-03   -0.28710E-03 10000   0.369E-01    0.145E-01
DAV:   7    -0.191429252097E+03   -0.41026E-03   -0.17884E-03 10000   0.286E-01    0.238E-01
DAV:   8    -0.191428669834E+03    0.58226E-03   -0.90449E-04  8400   0.220E-01    0.325E-02
DAV:   9    -0.191428677022E+03   -0.71875E-05   -0.56136E-05  5640   0.363E-02
  27 F= -.19142868E+03 E0= -.19133230E+03  d E =-.838429E-04
       N       E                     dE             d eps       ncg     rms          rms(c)
DAV:   1    -0.191445830956E+03   -0.17161E-01   -0.69401E+00  8160   0.552E+00    0.614E-01
DAV:   2    -0.191485108366E+03   -0.39277E-01   -0.19955E-01 13600   0.222E+00    0.182E+00
DAV:   3    -0.191453894537E+03    0.31214E-01   -0.79718E-02 12240   0.199E+00    0.567E-01
DAV:   4    -0.191450850944E+03    0.30436E-02   -0.11659E-02 11280   0.571E-01    0.291E-01
DAV:   5    -0.191450369724E+03    0.48122E-03   -0.46297E-03 12200   0.446E-01    0.316E-01
DAV:   6    -0.191449616329E+03    0.75340E-03   -0.36361E-03 11680   0.447E-01    0.187E-01
DAV:   7    -0.191449863595E+03   -0.24727E-03   -0.21277E-03  9640   0.293E-01    0.248E-01
DAV:   8    -0.191449265277E+03    0.59832E-03   -0.11708E-03  9080   0.231E-01    0.486E-02
DAV:   9    -0.191449253643E+03    0.11633E-04   -0.83225E-05  5600   0.468E-02
  28 F= -.19144925E+03 E0= -.19135159E+03  d E =-.205766E-01
       N       E                     dE             d eps       ncg     rms          rms(c)
DAV:   1    -0.191451912170E+03   -0.26469E-02   -0.44034E+00  8160   0.433E+00    0.441E-01
DAV:   2    -0.191464984558E+03   -0.13072E-01   -0.86911E-02 12160   0.126E+00    0.997E-01
DAV:   3    -0.191456623337E+03    0.83612E-02   -0.34776E-02 11800   0.125E+00    0.530E-01
DAV:   4    -0.191454677696E+03    0.19456E-02   -0.88992E-03 11360   0.599E-01    0.327E-01
DAV:   5    -0.191454323227E+03    0.35447E-03   -0.45132E-03 10680   0.501E-01    0.297E-01
DAV:   6    -0.191453291709E+03    0.10315E-02   -0.23095E-03 11280   0.330E-01    0.103E-01
DAV:   7    -0.191453844662E+03   -0.55295E-03   -0.16912E-03 10280   0.269E-01    0.255E-01
DAV:   8    -0.191453217377E+03    0.62729E-03   -0.10366E-03  8760   0.221E-01    0.319E-02
DAV:   9    -0.191453230576E+03   -0.13198E-04   -0.53298E-05  5840   0.336E-02
  29 F= -.19145323E+03 E0= -.19135630E+03  d E =-.397693E-02
       N       E                     dE             d eps       ncg     rms          rms(c)
DAV:   1    -0.191470569853E+03   -0.17352E-01   -0.91911E+00  8160   0.633E+00    0.655E-01
DAV:   2    -0.191509405382E+03   -0.38836E-01   -0.21706E-01 13600   0.212E+00    0.173E+00
DAV:   3    -0.191480478240E+03    0.28927E-01   -0.77973E-02 12240   0.198E+00    0.663E-01
DAV:   4    -0.191476520656E+03    0.39576E-02   -0.14143E-02 11560   0.659E-01    0.305E-01
DAV:   5    -0.191475398724E+03    0.11219E-02   -0.41373E-03 12440   0.390E-01    0.248E-01
DAV:   6    -0.191475441990E+03   -0.43266E-04   -0.34233E-03 11840   0.454E-01    0.233E-01
DAV:   7    -0.191474814375E+03    0.62761E-03   -0.12056E-03  9920   0.246E-01    0.568E-02
DAV:   8    -0.191474829869E+03   -0.15494E-04   -0.24427E-04  7400   0.984E-02
  30 F= -.19147483E+03 E0= -.19137689E+03  d E =-.215993E-01
       N       E                     dE             d eps       ncg     rms          rms(c)
DAV:   1    -0.191436647909E+03    0.38166E-01   -0.50703E+00  8160   0.473E+00    0.556E-01
DAV:   2    -0.191467886146E+03   -0.31238E-01   -0.15207E-01 13360   0.210E+00    0.157E+00
DAV:   3    -0.191441101017E+03    0.26785E-01   -0.55047E-02 12240   0.171E+00    0.471E-01
DAV:   4    -0.191441586088E+03   -0.48507E-03   -0.12550E-02 10640   0.735E-01    0.549E-01
DAV:   5    -0.191438993211E+03    0.25929E-02   -0.81998E-03 10640   0.646E-01    0.272E-01
DAV:   6    -0.191438526868E+03    0.46634E-03   -0.32126E-03 11680   0.346E-01    0.230E-01
DAV:   7    -0.191438569667E+03   -0.42799E-04   -0.29240E-03 10040   0.359E-01    0.230E-01
DAV:   8    -0.191438035947E+03    0.53372E-03   -0.10488E-03  9320   0.203E-01    0.368E-02
DAV:   9    -0.191438030119E+03    0.58287E-05   -0.81198E-05  6200   0.377E-02
  31 F= -.19143803E+03 E0= -.19134050E+03  d E =0.367998E-01
       N       E                     dE             d eps       ncg     rms          rms(c)
DAV:   1    -0.191422714533E+03    0.15321E-01   -0.34423E+01  8160   0.122E+01    0.123E+00
DAV:   2    -0.191548810163E+03   -0.12610E+00   -0.75419E-01 12240   0.376E+00    0.335E+00
DAV:   3    -0.191465471710E+03    0.83338E-01   -0.34915E-01 12040   0.380E+00    0.138E+00
DAV:   4    -0.191449412003E+03    0.16060E-01   -0.58360E-02 12360   0.147E+00    0.837E-01
DAV:   5    -0.191449996595E+03   -0.58459E-03   -0.39893E-02 10960   0.138E+00    0.104E+00
DAV:   6    -0.191440665078E+03    0.93315E-02   -0.29551E-02 11200   0.106E+00    0.464E-01
DAV:   7    -0.191442216422E+03   -0.15513E-02   -0.13418E-02 11080   0.846E-01    0.545E-01
DAV:   8    -0.191438782467E+03    0.34340E-02   -0.48291E-03 10400   0.535E-01    0.767E-02
DAV:   9    -0.191438719562E+03    0.62905E-04   -0.42835E-04  9840   0.861E-02
  32 F= -.19143872E+03 E0= -.19134271E+03  d E =-.689443E-03
       N       E                     dE             d eps       ncg     rms          rms(c)
DAV:   1    -0.191451473667E+03   -0.12691E-01   -0.12430E+00  8160   0.235E+00    0.295E-01
DAV:   2    -0.191461828991E+03   -0.10355E-01   -0.45366E-02 13600   0.114E+00    0.955E-01
DAV:   3    -0.191452817989E+03    0.90110E-02   -0.19135E-02 12240   0.998E-01    0.243E-01
DAV:   4    -0.191452793141E+03    0.24848E-04   -0.30999E-03 10800   0.347E-01    0.242E-01
DAV:   5    -0.191452248169E+03    0.54497E-03   -0.17130E-03 10920   0.311E-01    0.139E-01
DAV:   6    -0.191452048314E+03    0.19985E-03   -0.70226E-04  9960   0.167E-01    0.723E-02
DAV:   7    -0.191452211911E+03   -0.16360E-03   -0.67530E-04  9480   0.171E-01    0.151E-01
DAV:   8    -0.191451982414E+03    0.22950E-03   -0.40260E-04  7680   0.136E-01    0.211E-02
DAV:   9    -0.191451989345E+03   -0.69304E-05   -0.26019E-05  5600   0.230E-02
  33 F= -.19145199E+03 E0= -.19135563E+03  d E =-.132698E-01
       N       E                     dE             d eps       ncg     rms          rms(c)
DAV:   1    -0.191459332331E+03   -0.73499E-02   -0.12648E+00  8160   0.233E+00    0.227E-01
DAV:   2    -0.191462706248E+03   -0.33739E-02   -0.24396E-02 12320   0.625E-01    0.490E-01
DAV:   3    -0.191460742571E+03    0.19637E-02   -0.88298E-03 12160   0.637E-01    0.284E-01
DAV:   4    -0.191460138188E+03    0.60438E-03   -0.21807E-03 10720   0.294E-01    0.148E-01
DAV:   5    -0.191460078488E+03    0.59700E-04   -0.97948E-04  9960   0.234E-01
  34 F= -.19146008E+03 E0= -.19136383E+03  d E =-.808914E-02
       N       E                     dE             d eps       ncg     rms          rms(c)
DAV:   1    -0.191473400353E+03   -0.13262E-01   -0.23147E+00  8160   0.320E+00    0.373E-01
DAV:   2    -0.191491683455E+03   -0.18283E-01   -0.76743E-02 13600   0.137E+00    0.126E+00
DAV:   3    -0.191476206136E+03    0.15477E-01   -0.33851E-02 12200   0.130E+00    0.317E-01
DAV:   4    -0.191475779698E+03    0.42644E-03   -0.45609E-03 11440   0.378E-01    0.262E-01
DAV:   5    -0.191475362590E+03    0.41711E-03   -0.25738E-03 11560   0.366E-01    0.212E-01
DAV:   6    -0.191475018469E+03    0.34412E-03   -0.14120E-03  9720   0.246E-01    0.133E-01
DAV:   7    -0.191475119426E+03   -0.10096E-03   -0.10705E-03  9760   0.232E-01    0.150E-01
DAV:   8    -0.191474872033E+03    0.24739E-03   -0.43118E-04  8280   0.149E-01    0.246E-02
DAV:   9    -0.191474870406E+03    0.16270E-05   -0.40683E-05  6360   0.269E-02
  35 F= -.19147487E+03 E0= -.19137867E+03  d E =-.147919E-01
       N       E                     dE             d eps       ncg     rms          rms(c)
DAV:   1    -0.191454180864E+03    0.20691E-01   -0.33780E+00  8160   0.386E+00    0.444E-01
DAV:   2    -0.191476497442E+03   -0.22317E-01   -0.10073E-01 13600   0.165E+00    0.138E+00
DAV:   3    -0.191457881985E+03    0.18615E-01   -0.42746E-02 12320   0.146E+00    0.405E-01
DAV:   4    -0.191457423276E+03    0.45871E-03   -0.72303E-03 10960   0.538E-01    0.367E-01
DAV:   5    -0.191456383897E+03    0.10394E-02   -0.43021E-03 12040   0.489E-01    0.241E-01
DAV:   6    -0.191456014519E+03    0.36938E-03   -0.21953E-03  9960   0.305E-01    0.191E-01
DAV:   7    -0.191455971808E+03    0.42711E-04   -0.17309E-03  9800   0.287E-01    0.162E-01
DAV:   8    -0.191455690822E+03    0.28099E-03   -0.54244E-04  8520   0.152E-01    0.283E-02
DAV:   9    -0.191455684288E+03    0.65348E-05   -0.53843E-05  6560   0.311E-02
  36 F= -.19145568E+03 E0= -.19135978E+03  d E =0.191861E-01
       N       E                     dE             d eps       ncg     rms          rms(c)
DAV:   1    -0.191431107013E+03    0.24584E-01   -0.57503E+00  8160   0.503E+00    0.554E-01
DAV:   2    -0.191458337982E+03   -0.27231E-01   -0.15120E-01 13400   0.180E+00    0.145E+00
DAV:   3    -0.191438379963E+03    0.19958E-01   -0.56704E-02 12280   0.169E+00    0.592E-01
DAV:   4    -0.191436458431E+03    0.19215E-02   -0.12584E-02 11480   0.692E-01    0.433E-01
DAV:   5    -0.191435243101E+03    0.12153E-02   -0.66879E-03 11480   0.603E-01    0.327E-01
DAV:   6    -0.191434397844E+03    0.84526E-03   -0.35418E-03 11200   0.397E-01    0.218E-01
DAV:   7    -0.191434584293E+03   -0.18645E-03   -0.28434E-03 10440   0.367E-01    0.241E-01
DAV:   8    -0.191433996385E+03    0.58791E-03   -0.11935E-03  9880   0.233E-01    0.457E-02
DAV:   9    -0.191433965059E+03    0.31326E-04   -0.90265E-05  6280   0.437E-02
  37 F= -.19143397E+03 E0= -.19133777E+03  d E =0.217192E-01
       N       E                     dE             d eps       ncg     rms          rms(c)
DAV:   1    -0.191459630764E+03   -0.25634E-01   -0.25846E+00  8160   0.343E+00    0.495E-01
DAV:   2    -0.191481382573E+03   -0.21752E-01   -0.10704E-01 13600   0.178E+00    0.141E+00
DAV:   3    -0.191461448726E+03    0.19934E-01   -0.44336E-02 12240   0.155E+00    0.415E-01
DAV:   4    -0.191462410744E+03   -0.96202E-03   -0.11761E-02 11640   0.713E-01    0.542E-01
DAV:   5    -0.191459587067E+03    0.28237E-02   -0.70780E-03 10680   0.605E-01    0.237E-01
DAV:   6    -0.191459157723E+03    0.42934E-03   -0.27035E-03 11240   0.302E-01    0.184E-01
DAV:   7    -0.191459261126E+03   -0.10340E-03   -0.21929E-03  9880   0.320E-01    0.216E-01
DAV:   8    -0.191458767520E+03    0.49361E-03   -0.84822E-04  8240   0.196E-01    0.314E-02
DAV:   9    -0.191458765156E+03    0.23647E-05   -0.68814E-05  6240   0.344E-02
  38 F= -.19145877E+03 E0= -.19136260E+03  d E =-.248001E-01
       N       E                     dE             d eps       ncg     rms          rms(c)
DAV:   1    -0.191458772818E+03   -0.52976E-05   -0.47052E+00  8160   0.455E+00    0.458E-01
DAV:   2    -0.191473321289E+03   -0.14548E-01   -0.10332E-01 13480   0.141E+00    0.103E+00
DAV:   3    -0.191464458358E+03    0.88629E-02   -0.33540E-02 12280   0.130E+00    0.537E-01
DAV:   4    -0.191462208693E+03    0.22497E-02   -0.83182E-03 12040   0.565E-01    0.289E-01
DAV:   5    -0.191461992044E+03    0.21665E-03   -0.42746E-03 11280   0.463E-01    0.312E-01
DAV:   6    -0.191461230557E+03    0.76149E-03   -0.29059E-03 11160   0.378E-01    0.175E-01
DAV:   7    -0.191461458821E+03   -0.22826E-03   -0.19575E-03 10200   0.303E-01    0.218E-01
DAV:   8    -0.191460964956E+03    0.49387E-03   -0.90751E-04  9200   0.215E-01    0.396E-02
DAV:   9    -0.191460950942E+03    0.14014E-04   -0.65991E-05  5960   0.391E-02
  39 F= -.19146095E+03 E0= -.19136512E+03  d E =-.218579E-02
       N       E                     dE             d eps       ncg     rms          rms(c)
DAV:   1    -0.191483649429E+03   -0.22684E-01   -0.42255E+00  8160   0.430E+00    0.489E-01
DAV:   2    -0.191505144551E+03   -0.21495E-01   -0.11521E-01 12960   0.164E+00    0.130E+00
DAV:   3    -0.191488748889E+03    0.16396E-01   -0.43350E-02 12400   0.153E+00    0.493E-01
DAV:   4    -0.191487885657E+03    0.86323E-03   -0.10277E-02 11280   0.637E-01    0.413E-01
DAV:   5    -0.191486425254E+03    0.14604E-02   -0.50800E-03 11000   0.535E-01    0.250E-01
DAV:   6    -0.191485721101E+03    0.70415E-03   -0.20193E-03 12360   0.291E-01    0.109E-01
DAV:   7    -0.191486122123E+03   -0.40102E-03   -0.15173E-03 10440   0.253E-01    0.228E-01
DAV:   8    -0.191485627022E+03    0.49510E-03   -0.10351E-03  9040   0.222E-01    0.532E-02
DAV:   9    -0.191485600364E+03    0.26657E-04   -0.75658E-05  5640   0.473E-02
  40 F= -.19148560E+03 E0= -.19139039E+03  d E =-.246494E-01
       N       E                     dE             d eps       ncg     rms          rms(c)
DAV:   1    -0.191464948905E+03    0.20678E-01   -0.25942E+00  8160   0.337E+00    0.385E-01
DAV:   2    -0.191478157207E+03   -0.13208E-01   -0.70053E-02 12920   0.129E+00    0.993E-01
DAV:   3    -0.191467885904E+03    0.10271E-01   -0.24442E-02 12280   0.117E+00    0.387E-01
DAV:   4    -0.191467404145E+03    0.48176E-03   -0.61665E-03 11080   0.499E-01    0.330E-01
DAV:   5    -0.191466562159E+03    0.84199E-03   -0.33232E-03 10480   0.428E-01    0.205E-01
DAV:   6    -0.191466203509E+03    0.35865E-03   -0.14501E-03 10400   0.251E-01    0.137E-01
DAV:   7    -0.191466377745E+03   -0.17424E-03   -0.13919E-03 10040   0.253E-01    0.184E-01
DAV:   8    -0.191466039850E+03    0.33789E-03   -0.63365E-04  8320   0.169E-01    0.307E-02
DAV:   9    -0.191466036259E+03    0.35909E-05   -0.45448E-05  5880   0.312E-02
  41 F= -.19146604E+03 E0= -.19137033E+03  d E =0.195641E-01
       N       E                     dE             d eps       ncg     rms          rms(c)
DAV:   1    -0.191462890751E+03    0.31491E-02   -0.59325E+00  8160   0.512E+00    0.530E-01
DAV:   2    -0.191480820852E+03   -0.17930E-01   -0.13283E-01 13400   0.145E+00    0.115E+00
DAV:   3    -0.191470746619E+03    0.10074E-01   -0.44933E-02 12240   0.149E+00    0.658E-01
DAV:   4    -0.191466812201E+03    0.39344E-02   -0.11148E-02 12400   0.641E-01    0.274E-01
DAV:   5    -0.191466476526E+03    0.33567E-03   -0.45603E-03 11880   0.402E-01    0.334E-01
DAV:   6    -0.191465986709E+03    0.48982E-03   -0.44873E-03 11400   0.456E-01    0.243E-01
DAV:   7    -0.191465585349E+03    0.40136E-03   -0.15843E-03  9760   0.242E-01    0.106E-01
DAV:   8    -0.191465485487E+03    0.99862E-04   -0.45842E-04  9280   0.170E-01
  42 F= -.19146549E+03 E0= -.19136940E+03  d E =0.550772E-03
       N       E                     dE             d eps       ncg     rms          rms(c)
DAV:   1    -0.191477112103E+03   -0.11527E-01   -0.64134E-01  8160   0.168E+00    0.152E-01
DAV:   2    -0.191478009168E+03   -0.89707E-03   -0.11736E-02 12200   0.346E-01    0.198E-01
DAV:   3    -0.191478117755E+03   -0.10859E-03   -0.28981E-03 12600   0.358E-01    0.246E-01
DAV:   4    -0.191477602278E+03    0.51548E-03   -0.11876E-03  9480   0.232E-01    0.874E-02
DAV:   5    -0.191477600615E+03    0.16635E-05   -0.39422E-04  8320   0.134E-01
  43 F= -.19147760E+03 E0= -.19138160E+03  d E =-.121151E-01
       N       E                     dE             d eps       ncg     rms          rms(c)
DAV:   1    -0.191494892694E+03   -0.17290E-01   -0.11091E+00  8160   0.222E+00    0.232E-01
DAV:   2    -0.191499166473E+03   -0.42738E-02   -0.28181E-02 13520   0.664E-01    0.498E-01
DAV:   3    -0.191496207817E+03    0.29587E-02   -0.73923E-03 11720   0.650E-01    0.184E-01
DAV:   4    -0.191496015068E+03    0.19275E-03   -0.12515E-03  9720   0.213E-01    0.130E-01
DAV:   5    -0.191496070869E+03   -0.55801E-04   -0.10578E-03 10560   0.224E-01    0.176E-01
DAV:   6    -0.191495845230E+03    0.22564E-03   -0.82400E-04  8320   0.194E-01    0.730E-02
DAV:   7    -0.191495814664E+03    0.30566E-04   -0.19138E-04  5840   0.790E-02
  44 F= -.19149581E+03 E0= -.19140100E+03  d E =-.182140E-01
       N       E                     dE             d eps       ncg     rms          rms(c)
DAV:   1    -0.191477736649E+03    0.18109E-01   -0.22331E+00  8160   0.313E+00    0.360E-01
DAV:   2    -0.191490683779E+03   -0.12947E-01   -0.63003E-02 12360   0.119E+00    0.965E-01
DAV:   3    -0.191480273802E+03    0.10410E-01   -0.20636E-02 11640   0.111E+00    0.332E-01
DAV:   4    -0.191479976803E+03    0.29700E-03   -0.47416E-03 11000   0.441E-01    0.291E-01
DAV:   5    -0.191479252024E+03    0.72478E-03   -0.25026E-03 11280   0.378E-01    0.161E-01
DAV:   6    -0.191478961383E+03    0.29064E-03   -0.87032E-04 10520   0.187E-01    0.622E-02
DAV:   7    -0.191478976196E+03   -0.14814E-04   -0.33765E-04  7880   0.910E-02
  45 F= -.19147898E+03 E0= -.19138297E+03  d E =0.168385E-01
       N       E                     dE             d eps       ncg     rms          rms(c)
DAV:   1    -0.191483426855E+03   -0.44655E-02   -0.63007E+00  8160   0.528E+00    0.557E-01
DAV:   2    -0.191505906702E+03   -0.22480E-01   -0.14493E-01 13600   0.162E+00    0.129E+00
DAV:   3    -0.191490937237E+03    0.14969E-01   -0.47214E-02 12360   0.161E+00    0.611E-01
DAV:   4    -0.191487768324E+03    0.31689E-02   -0.10412E-02 11600   0.603E-01    0.288E-01
DAV:   5    -0.191487025380E+03    0.74294E-03   -0.41022E-03 12680   0.420E-01    0.263E-01
DAV:   6    -0.191486747673E+03    0.27771E-03   -0.31801E-03 11880   0.435E-01    0.210E-01
DAV:   7    -0.191486609634E+03    0.13804E-03   -0.18745E-03 10640   0.284E-01    0.194E-01
DAV:   8    -0.191486290110E+03    0.31952E-03   -0.94919E-04  8800   0.213E-01    0.759E-02
DAV:   9    -0.191486224848E+03    0.65262E-04   -0.11197E-04  5640   0.647E-02
  46 F= -.19148622E+03 E0= -.19138843E+03  d E =-.724865E-02
       N       E                     dE             d eps       ncg     rms          rms(c)
DAV:   1    -0.191491187035E+03   -0.48969E-02   -0.34716E-01  8160   0.124E+00    0.121E-01
DAV:   2    -0.191492049798E+03   -0.86276E-03   -0.67628E-03 13320   0.327E-01    0.250E-01
DAV:   3    -0.191491566185E+03    0.48361E-03   -0.21662E-03 10760   0.332E-01    0.149E-01
DAV:   4    -0.191491399658E+03    0.16653E-03   -0.53463E-04  8280   0.143E-01    0.700E-02
DAV:   5    -0.191491413329E+03   -0.13671E-04   -0.29179E-04  8040   0.119E-01
  47 F= -.19149141E+03 E0= -.19139349E+03  d E =-.518848E-02
       N       E                     dE             d eps       ncg     rms          rms(c)
DAV:   1    -0.191509258660E+03   -0.17859E-01   -0.34244E+00  8160   0.390E+00    0.427E-01
DAV:   2    -0.191525830516E+03   -0.16572E-01   -0.10326E-01 12400   0.151E+00    0.107E+00
DAV:   3    -0.191514793989E+03    0.11037E-01   -0.32160E-02 12280   0.129E+00    0.429E-01
DAV:   4    -0.191514363811E+03    0.43018E-03   -0.79390E-03 11400   0.587E-01    0.399E-01
DAV:   5    -0.191512968233E+03    0.13956E-02   -0.41360E-03 10360   0.477E-01    0.205E-01
DAV:   6    -0.191512608167E+03    0.36007E-03   -0.17419E-03 10760   0.252E-01    0.134E-01
DAV:   7    -0.191512997120E+03   -0.38895E-03   -0.17228E-03 10440   0.296E-01    0.236E-01
DAV:   8    -0.191512427546E+03    0.56957E-03   -0.84607E-04  8760   0.214E-01    0.326E-02
DAV:   9    -0.191512423627E+03    0.39190E-05   -0.58436E-05  5600   0.341E-02
  48 F= -.19151242E+03 E0= -.19141667E+03  d E =-.210103E-01
       N       E                     dE             d eps       ncg     rms          rms(c)
DAV:   1    -0.191536534657E+03   -0.24107E-01   -0.23699E+00  8160   0.327E+00    0.319E-01
DAV:   2    -0.191543058437E+03   -0.65238E-02   -0.54835E-02 13360   0.963E-01    0.678E-01
DAV:   3    -0.191539579778E+03    0.34787E-02   -0.14633E-02 11680   0.840E-01    0.358E-01
DAV:   4    -0.191539031238E+03    0.54854E-03   -0.41974E-03 10960   0.439E-01    0.281E-01
DAV:   5    -0.191538398788E+03    0.63245E-03   -0.25966E-03 10040   0.388E-01    0.186E-01
DAV:   6    -0.191538205441E+03    0.19335E-03   -0.13233E-03 10320   0.236E-01    0.132E-01
DAV:   7    -0.191538240225E+03   -0.34784E-04   -0.86754E-04  9480   0.229E-01
  49 F= -.19153824E+03 E0= -.19144243E+03  d E =-.258166E-01
       N       E                     dE             d eps       ncg     rms          rms(c)
DAV:   1    -0.191513773756E+03    0.24432E-01   -0.11603E+00  8160   0.228E+00    0.219E-01
DAV:   2    -0.191517249547E+03   -0.34758E-02   -0.26675E-02 12080   0.634E-01    0.459E-01
DAV:   3    -0.191515178431E+03    0.20711E-02   -0.58248E-03 12240   0.582E-01    0.210E-01
DAV:   4    -0.191515221301E+03   -0.42870E-04   -0.19605E-03  9600   0.307E-01    0.226E-01
DAV:   5    -0.191514752328E+03    0.46897E-03   -0.13530E-03  9760   0.272E-01    0.108E-01
DAV:   6    -0.191514732082E+03    0.20246E-04   -0.57069E-04  9280   0.144E-01
  50 F= -.19151473E+03 E0= -.19141825E+03  d E =0.235081E-01
       N       E                     dE             d eps       ncg     rms          rms(c)
DAV:   1    -0.191480698700E+03    0.34054E-01   -0.27662E+00  8160   0.355E+00    0.470E-01
DAV:   2    -0.191501715176E+03   -0.21016E-01   -0.10453E-01 13320   0.181E+00    0.130E+00
DAV:   3    -0.191482955899E+03    0.18759E-01   -0.31677E-02 12320   0.141E+00    0.344E-01
DAV:   4    -0.191484509798E+03   -0.15539E-02   -0.83069E-03 10080   0.679E-01    0.538E-01
DAV:   5    -0.191481598051E+03    0.29117E-02   -0.65775E-03 10080   0.580E-01    0.190E-01
DAV:   6    -0.191482261510E+03   -0.66346E-03   -0.32691E-03 11320   0.371E-01    0.323E-01
DAV:   7    -0.191481293532E+03    0.96798E-03   -0.21147E-03  9560   0.322E-01    0.787E-02
DAV:   8    -0.191481233325E+03    0.60207E-04   -0.21824E-04  6000   0.739E-02
  51 F= -.19148123E+03 E0= -.19138330E+03  d E =0.334988E-01
       N       E                     dE             d eps       ncg     rms          rms(c)
DAV:   1    -0.191542573999E+03   -0.61280E-01   -0.98238E+00  8160   0.666E+00    0.716E-01
DAV:   2    -0.191585658887E+03   -0.43085E-01   -0.27247E-01 12560   0.253E+00    0.182E+00
DAV:   3    -0.191554494529E+03    0.31164E-01   -0.77942E-02 12280   0.210E+00    0.583E-01
DAV:   4    -0.191556022687E+03   -0.15282E-02   -0.18908E-02 12160   0.100E+00    0.730E-01
DAV:   5    -0.191550081209E+03    0.59415E-02   -0.11640E-02 11000   0.854E-01    0.280E-01
DAV:   6    -0.191549735106E+03    0.34610E-03   -0.46908E-03 11720   0.349E-01    0.177E-01
DAV:   7    -0.191549385915E+03    0.34919E-03   -0.19977E-03 12520   0.250E-01    0.177E-01
DAV:   8    -0.191549106475E+03    0.27944E-03   -0.76586E-04  8440   0.193E-01    0.668E-02
DAV:   9    -0.191549064578E+03    0.41897E-04   -0.11319E-04  5640   0.606E-02
  52 F= -.19154906E+03 E0= -.19145368E+03  d E =-.678313E-01
       N       E                     dE             d eps       ncg     rms          rms(c)
DAV:   1    -0.191582908841E+03   -0.33802E-01   -0.24987E+00  8160   0.337E+00    0.348E-01
DAV:   2    -0.191589778933E+03   -0.68701E-02   -0.63315E-02 12880   0.106E+00    0.638E-01
DAV:   3    -0.191585984936E+03    0.37940E-02   -0.12661E-02 12200   0.869E-01    0.318E-01
DAV:   4    -0.191586094311E+03   -0.10937E-03   -0.48607E-03 11840   0.492E-01    0.373E-01
DAV:   5    -0.191584912055E+03    0.11823E-02   -0.35470E-03 11040   0.447E-01    0.195E-01
DAV:   6    -0.191584692542E+03    0.21951E-03   -0.15552E-03 10120   0.236E-01    0.117E-01
DAV:   7    -0.191584745317E+03   -0.52775E-04   -0.98051E-04  9640   0.218E-01
  53 F= -.19158475E+03 E0= -.19149070E+03  d E =-.356807E-01
       N       E                     dE             d eps       ncg     rms          rms(c)
DAV:   1    -0.191618951282E+03   -0.34259E-01   -0.26477E+00  8160   0.347E+00    0.331E-01
DAV:   2    -0.191624769840E+03   -0.58186E-02   -0.61890E-02 12200   0.861E-01    0.506E-01
DAV:   3    -0.191623384390E+03    0.13854E-02   -0.11247E-02 12320   0.786E-01    0.413E-01
DAV:   4    -0.191622561374E+03    0.82302E-03   -0.49277E-03 11320   0.502E-01    0.304E-01
DAV:   5    -0.191621743209E+03    0.81816E-03   -0.26278E-03 10200   0.391E-01    0.185E-01
DAV:   6    -0.191621561246E+03    0.18196E-03   -0.14499E-03 10520   0.253E-01    0.110E-01
DAV:   7    -0.191621555158E+03    0.60887E-05   -0.76100E-04  9600   0.182E-01
  54 F= -.19162156E+03 E0= -.19152818E+03  d E =-.368098E-01
       N       E                     dE             d eps       ncg     rms          rms(c)
DAV:   1    -0.191627553976E+03   -0.59927E-02   -0.75141E-02  8160   0.607E-01    0.675E-02
DAV:   2    -0.191627855619E+03   -0.30164E-03   -0.22150E-03 11920   0.174E-01    0.139E-01
DAV:   3    -0.191627683411E+03    0.17221E-03   -0.52126E-04  8800   0.182E-01    0.744E-02
DAV:   4    -0.191627657335E+03    0.26076E-04   -0.15215E-04  5840   0.826E-02
  55 F= -.19162766E+03 E0= -.19153397E+03  d E =-.610218E-02
       N       E                     dE             d eps       ncg     rms          rms(c)
DAV:   1    -0.191631538893E+03   -0.38555E-02   -0.14134E-01  8160   0.813E-01    0.167E-01
DAV:   2    -0.191635247414E+03   -0.37085E-02   -0.12535E-02 12080   0.718E-01    0.602E-01
DAV:   3    -0.191631504225E+03    0.37432E-02   -0.56517E-03 11120   0.587E-01    0.111E-01
DAV:   4    -0.191631596061E+03   -0.91837E-04   -0.70888E-04  9040   0.210E-01
  56 F= -.19163160E+03 E0= -.19153788E+03  d E =-.393873E-02
       N       E                     dE             d eps       ncg     rms          rms(c)
DAV:   1    -0.191593841722E+03    0.37663E-01   -0.33891E+00  8160   0.402E+00    0.628E-01
DAV:   2    -0.191615441377E+03   -0.21600E-01   -0.13634E-01 13080   0.199E+00    0.148E+00
DAV:   3    -0.191593148339E+03    0.22293E-01   -0.44352E-02 12240   0.170E+00    0.519E-01
DAV:   4    -0.191593382391E+03   -0.23405E-03   -0.14279E-02 11040   0.894E-01    0.609E-01
DAV:   5    -0.191590079929E+03    0.33025E-02   -0.10841E-02 11280   0.816E-01    0.341E-01
DAV:   6    -0.191589627456E+03    0.45247E-03   -0.50973E-03 11440   0.493E-01    0.331E-01
DAV:   7    -0.191588702755E+03    0.92470E-03   -0.26551E-03 11040   0.379E-01    0.122E-01
DAV:   8    -0.191588569349E+03    0.13341E-03   -0.37173E-04  8720   0.118E-01    0.370E-02
DAV:   9    -0.191588555982E+03    0.13367E-04   -0.71035E-05  7520   0.363E-02
  57 F= -.19158856E+03 E0= -.19149570E+03  d E =0.430401E-01
       N       E                     dE             d eps       ncg     rms          rms(c)
DAV:   1    -0.191698579693E+03   -0.11001E+00   -0.18666E+01  8160   0.943E+00    0.126E+00
DAV:   2    -0.191801150956E+03   -0.10257E+00   -0.63335E-01 12920   0.395E+00    0.333E+00
DAV:   3    -0.191708552360E+03    0.92599E-01   -0.27640E-01 12160   0.369E+00    0.101E+00
DAV:   4    -0.191705895500E+03    0.26569E-02   -0.54347E-02 12240   0.161E+00    0.109E+00
DAV:   5    -0.191695227593E+03    0.10668E-01   -0.35763E-02 11120   0.152E+00    0.750E-01
DAV:   6    -0.191693006837E+03    0.22208E-02   -0.22094E-02 12400   0.103E+00    0.649E-01
DAV:   7    -0.191690005000E+03    0.30018E-02   -0.12049E-02 11800   0.823E-01    0.343E-01
DAV:   8    -0.191688597785E+03    0.14072E-02   -0.25815E-03 10920   0.354E-01    0.895E-02
DAV:   9    -0.191688461778E+03    0.13601E-03   -0.47489E-04 10760   0.876E-02    0.432E-02
DAV:  10    -0.191688446235E+03    0.15543E-04   -0.14623E-04  6920   0.444E-02
  58 F= -.19168845E+03 E0= -.19159420E+03  d E =-.998903E-01
       N       E                     dE             d eps       ncg     rms          rms(c)
DAV:   1    -0.191738868611E+03   -0.50407E-01   -0.66261E+00  8160   0.555E+00    0.590E-01
DAV:   2    -0.191752831586E+03   -0.13963E-01   -0.18152E-01 11840   0.142E+00    0.776E-01
DAV:   3    -0.191752338985E+03    0.49260E-03   -0.29483E-02 12240   0.136E+00    0.812E-01
DAV:   4    -0.191746680063E+03    0.56589E-02   -0.14686E-02 12320   0.917E-01    0.397E-01
DAV:   5    -0.191745462041E+03    0.12180E-02   -0.67539E-03 11240   0.590E-01    0.342E-01
DAV:   6    -0.191744945595E+03    0.51645E-03   -0.49154E-03 12360   0.522E-01    0.256E-01
DAV:   7    -0.191744698169E+03    0.24743E-03   -0.28588E-03 10840   0.381E-01    0.236E-01
DAV:   8    -0.191744098050E+03    0.60012E-03   -0.88509E-04 10000   0.239E-01    0.487E-02
DAV:   9    -0.191744071071E+03    0.26980E-04   -0.87264E-05  6280   0.513E-02
  59 F= -.19174407E+03 E0= -.19164873E+03  d E =-.556248E-01
       N       E                     dE             d eps       ncg     rms          rms(c)
DAV:   1    -0.191801016164E+03   -0.56918E-01   -0.13727E+01  8160   0.803E+00    0.848E-01
DAV:   2    -0.191829941211E+03   -0.28925E-01   -0.41852E-01 12000   0.185E+00    0.849E-01
DAV:   3    -0.191838039951E+03   -0.80987E-02   -0.59634E-02 12280   0.180E+00    0.134E+00
DAV:   4    -0.191821723928E+03    0.16316E-01   -0.32949E-02 12160   0.144E+00    0.513E-01
DAV:   5    -0.191818372749E+03    0.33512E-02   -0.11453E-02 10680   0.565E-01    0.324E-01
DAV:   6    -0.191819196658E+03   -0.82391E-03   -0.73942E-03 12840   0.693E-01    0.396E-01
DAV:   7    -0.191816999574E+03    0.21971E-02   -0.32513E-03 11680   0.468E-01    0.883E-02
DAV:   8    -0.191817029309E+03   -0.29735E-04   -0.52422E-04  9200   0.166E-01
  60 F= -.19181703E+03 E0= -.19171986E+03  d E =-.729582E-01
       N       E                     dE             d eps       ncg     rms          rms(c)
DAV:   1    -0.191847815499E+03   -0.30816E-01   -0.42989E+00  8160   0.448E+00    0.499E-01
DAV:   2    -0.191858611709E+03   -0.10796E-01   -0.14709E-01 12240   0.114E+00    0.575E-01
DAV:   3    -0.191860453917E+03   -0.18422E-02   -0.26509E-02 12240   0.116E+00    0.754E-01
DAV:   4    -0.191854879354E+03    0.55746E-02   -0.96874E-03 12280   0.787E-01    0.269E-01
DAV:   5    -0.191853939873E+03    0.93948E-03   -0.33361E-03 11040   0.285E-01    0.184E-01
DAV:   6    -0.191854674713E+03   -0.73484E-03   -0.28995E-03 10880   0.423E-01    0.313E-01
DAV:   7    -0.191853610512E+03    0.10642E-02   -0.15134E-03 10240   0.321E-01    0.882E-02
DAV:   8    -0.191853557537E+03    0.52975E-04   -0.26495E-04  8680   0.132E-01
  61 F= -.19185356E+03 E0= -.19175509E+03  d E =-.365282E-01
       N       E                     dE             d eps       ncg     rms          rms(c)
DAV:   1    -0.191882795559E+03   -0.29185E-01   -0.50624E+00  8160   0.486E+00    0.533E-01
DAV:   2    -0.191892959323E+03   -0.10164E-01   -0.15862E-01 12240   0.111E+00    0.501E-01
DAV:   3    -0.191895930182E+03   -0.29709E-02   -0.26566E-02 12320   0.111E+00    0.785E-01
DAV:   4    -0.191889995084E+03    0.59351E-02   -0.11796E-02 12120   0.886E-01    0.324E-01
DAV:   5    -0.191888573714E+03    0.14214E-02   -0.39330E-03 11320   0.324E-01    0.170E-01
DAV:   6    -0.191889508929E+03   -0.93522E-03   -0.31693E-03 10680   0.421E-01    0.335E-01
DAV:   7    -0.191888255175E+03    0.12538E-02   -0.16280E-03 10280   0.339E-01    0.678E-02
DAV:   8    -0.191888246391E+03    0.87834E-05   -0.18929E-04  7520   0.108E-01
  62 F= -.19188825E+03 E0= -.19178870E+03  d E =-.346889E-01
       N       E                     dE             d eps       ncg     rms          rms(c)
DAV:   1    -0.191904580745E+03   -0.16326E-01   -0.16295E+00  8160   0.273E+00    0.305E-01
DAV:   2    -0.191909407192E+03   -0.48264E-02   -0.55022E-02 12560   0.773E-01    0.445E-01
DAV:   3    -0.191908714215E+03    0.69298E-03   -0.10728E-02 12200   0.758E-01    0.403E-01
DAV:   4    -0.191907163746E+03    0.15505E-02   -0.30821E-03 11840   0.416E-01    0.154E-01
DAV:   5    -0.191906876094E+03    0.28765E-03   -0.11458E-03 10240   0.176E-01    0.121E-01
DAV:   6    -0.191907157745E+03   -0.28165E-03   -0.11544E-03 10800   0.270E-01    0.195E-01
DAV:   7    -0.191906747829E+03    0.40992E-03   -0.57917E-04  8760   0.192E-01    0.500E-02
DAV:   8    -0.191906734305E+03    0.13524E-04   -0.81627E-05  5880   0.771E-02
  63 F= -.19190673E+03 E0= -.19180705E+03  d E =-.184879E-01
       N       E                     dE             d eps       ncg     rms          rms(c)
DAV:   1    -0.191934933598E+03   -0.28186E-01   -0.17155E+01  8160   0.896E+00    0.976E-01
DAV:   2    -0.191981787855E+03   -0.46854E-01   -0.55568E-01 12360   0.240E+00    0.140E+00
DAV:   3    -0.191975422881E+03    0.63650E-02   -0.11582E-01 12160   0.241E+00    0.123E+00
DAV:   4    -0.191959589866E+03    0.15833E-01   -0.30215E-02 12040   0.130E+00    0.495E-01
DAV:   5    -0.191956217767E+03    0.33721E-02   -0.13204E-02 12240   0.598E-01    0.397E-01
DAV:   6    -0.191958244891E+03   -0.20271E-02   -0.12083E-02 11400   0.870E-01    0.562E-01
DAV:   7    -0.191954793010E+03    0.34519E-02   -0.59236E-03 11680   0.598E-01    0.211E-01
DAV:   8    -0.191954339861E+03    0.45315E-03   -0.11995E-03 10160   0.274E-01    0.734E-02
DAV:   9    -0.191954277257E+03    0.62604E-04   -0.25586E-04  9480   0.917E-02
  64 F= -.19195428E+03 E0= -.19185429E+03  d E =-.475430E-01
       N       E                     dE             d eps       ncg     rms          rms(c)
DAV:   1    -0.191959596834E+03   -0.52570E-02   -0.33278E-01  8160   0.123E+00    0.139E-01
DAV:   2    -0.191961171187E+03   -0.15744E-02   -0.12746E-02 12440   0.419E-01    0.291E-01
DAV:   3    -0.191960435089E+03    0.73610E-03   -0.28040E-03 12240   0.397E-01    0.148E-01
DAV:   4    -0.191960230181E+03    0.20491E-03   -0.42422E-04  8560   0.143E-01    0.666E-02
DAV:   5    -0.191960239083E+03   -0.89019E-05   -0.26734E-04  9080   0.121E-01
  65 F= -.19196024E+03 E0= -.19186020E+03  d E =-.596183E-02
       N       E                     dE             d eps       ncg     rms          rms(c)
DAV:   1    -0.191965757067E+03   -0.55269E-02   -0.26546E-01  8160   0.111E+00    0.149E-01
DAV:   2    -0.191967357089E+03   -0.16000E-02   -0.10255E-02 13080   0.481E-01    0.355E-01
DAV:   3    -0.191966096625E+03    0.12605E-02   -0.30811E-03 12400   0.431E-01    0.114E-01
DAV:   4    -0.191965958005E+03    0.13862E-03   -0.36521E-04  8960   0.117E-01    0.596E-02
DAV:   5    -0.191965984770E+03   -0.26765E-04   -0.28111E-04  9160   0.127E-01
  66 F= -.19196598E+03 E0= -.19186610E+03  d E =-.574569E-02
       N       E                     dE             d eps       ncg     rms          rms(c)
DAV:   1    -0.191974736847E+03   -0.87788E-02   -0.73038E-01  8160   0.185E+00    0.243E-01
DAV:   2    -0.191977591374E+03   -0.28545E-02   -0.27613E-02 13240   0.701E-01    0.450E-01
DAV:   3    -0.191975815699E+03    0.17757E-02   -0.67191E-03 12200   0.624E-01    0.228E-01
DAV:   4    -0.191975460533E+03    0.35517E-03   -0.17383E-03 10560   0.303E-01    0.173E-01
DAV:   5    -0.191975210993E+03    0.24954E-03   -0.11059E-03 10520   0.269E-01    0.123E-01
DAV:   6    -0.191975121627E+03    0.89365E-04   -0.67626E-04  9960   0.185E-01
  67 F= -.19197512E+03 E0= -.19187549E+03  d E =-.913686E-02
       N       E                     dE             d eps       ncg     rms          rms(c)
DAV:   1    -0.191982828894E+03   -0.76179E-02   -0.66922E-01  8160   0.176E+00    0.216E-01
DAV:   2    -0.191987003496E+03   -0.41746E-02   -0.25383E-02 13120   0.683E-01    0.554E-01
DAV:   3    -0.191983991858E+03    0.30116E-02   -0.75112E-03 12160   0.652E-01    0.186E-01
DAV:   4    -0.191983766138E+03    0.22572E-03   -0.98774E-04  9840   0.184E-01    0.106E-01
DAV:   5    -0.191983677366E+03    0.88772E-04   -0.58827E-04 10360   0.167E-01
  68 F= -.19198368E+03 E0= -.19188419E+03  d E =-.855574E-02
       N       E                     dE             d eps       ncg     rms          rms(c)
DAV:   1    -0.191987057798E+03   -0.32917E-02   -0.11446E-01  8160   0.745E-01    0.114E-01
DAV:   2    -0.191988131085E+03   -0.10733E-02   -0.46819E-03 12720   0.376E-01    0.299E-01
DAV:   3    -0.191987149707E+03    0.98138E-03   -0.18610E-03 10400   0.349E-01    0.831E-02
DAV:   4    -0.191987214002E+03   -0.64295E-04   -0.37648E-04  8600   0.158E-01
  69 F= -.19198721E+03 E0= -.19188812E+03  d E =-.353664E-02
       N       E                     dE             d eps       ncg     rms          rms(c)
DAV:   1    -0.191993611870E+03   -0.64622E-02   -0.46207E-01  8160   0.147E+00    0.189E-01
DAV:   2    -0.191995695378E+03   -0.20835E-02   -0.16220E-02 12760   0.502E-01    0.389E-01
DAV:   3    -0.191994371867E+03    0.13235E-02   -0.49286E-03 12240   0.521E-01    0.199E-01
DAV:   4    -0.191994029425E+03    0.34244E-03   -0.86731E-04  9720   0.197E-01    0.851E-02
DAV:   5    -0.191993953778E+03    0.75647E-04   -0.39431E-04  9240   0.127E-01
  70 F= -.19199395E+03 E0= -.19189526E+03  d E =-.673978E-02
       N       E                     dE             d eps       ncg     rms          rms(c)
DAV:   1    -0.191996218416E+03   -0.21890E-02   -0.45991E-02  8160   0.504E-01    0.122E-01
DAV:   2    -0.191998621083E+03   -0.24027E-02   -0.59736E-03 12360   0.579E-01    0.469E-01
DAV:   3    -0.191996108303E+03    0.25128E-02   -0.34796E-03 10760   0.485E-01    0.489E-02
DAV:   4    -0.191996167922E+03   -0.59620E-04   -0.20041E-04  7160   0.102E-01
  71 F= -.19199617E+03 E0= -.19189753E+03  d E =-.221414E-02
       N       E                     dE             d eps       ncg     rms          rms(c)
DAV:   1    -0.191999108132E+03   -0.29998E-02   -0.10140E-01  8160   0.694E-01    0.106E-01
DAV:   2    -0.192000411384E+03   -0.13033E-02   -0.53421E-03 12720   0.397E-01    0.340E-01
DAV:   3    -0.191999198281E+03    0.12131E-02   -0.21748E-03 10720   0.359E-01    0.668E-02
DAV:   4    -0.191999180927E+03    0.17354E-04   -0.14285E-04  5840   0.689E-02
  72 F= -.19199918E+03 E0= -.19190105E+03  d E =-.301300E-02
       N       E                     dE             d eps       ncg     rms          rms(c)
DAV:   1    -0.192006144001E+03   -0.69457E-02   -0.55045E-01  8160   0.161E+00    0.212E-01
DAV:   2    -0.192009175534E+03   -0.30315E-02   -0.19576E-02 12760   0.648E-01    0.484E-01
DAV:   3    -0.192006907606E+03    0.22679E-02   -0.65398E-03 12320   0.627E-01    0.198E-01
DAV:   4    -0.192006641104E+03    0.26650E-03   -0.10860E-03  9800   0.232E-01    0.128E-01
DAV:   5    -0.192006578585E+03    0.62519E-04   -0.79845E-04 10400   0.231E-01
  73 F= -.19200658E+03 E0= -.19190903E+03  d E =-.739766E-02
       N       E                     dE             d eps       ncg     rms          rms(c)
DAV:   1    -0.192006842668E+03   -0.20156E-03   -0.47153E-03 12560   0.244E-01    0.858E-02
DAV:   2    -0.192007851702E+03   -0.10090E-02   -0.23048E-03 10160   0.370E-01    0.316E-01
DAV:   3    -0.192006705254E+03    0.11464E-02   -0.16487E-03 10000   0.325E-01    0.477E-02
DAV:   4    -0.192006714198E+03   -0.89445E-05   -0.12096E-04  6480   0.783E-02
  74 F= -.19200671E+03 E0= -.19190917E+03  d E =-.135614E-03
       N       E                     dE             d eps       ncg     rms          rms(c)
DAV:   1    -0.192012595556E+03   -0.58903E-02   -0.41016E-01  8160   0.143E+00    0.223E-01
DAV:   2    -0.192013409926E+03   -0.81437E-03   -0.17150E-02 12360   0.491E-01    0.312E-01
DAV:   3    -0.192013022009E+03    0.38792E-03   -0.48743E-03 12280   0.535E-01    0.259E-01
DAV:   4    -0.192012183315E+03    0.83869E-03   -0.18124E-03 12120   0.290E-01    0.896E-02
DAV:   5    -0.192012164288E+03    0.19027E-04   -0.75770E-04 10160   0.149E-01
  75 F= -.19201216E+03 E0= -.19191477E+03  d E =-.545009E-02
       N       E                     dE             d eps       ncg     rms          rms(c)
DAV:   1    -0.192015284946E+03   -0.31016E-02   -0.14226E-01  8160   0.819E-01    0.134E-01
DAV:   2    -0.192017311638E+03   -0.20267E-02   -0.79319E-03 12520   0.488E-01    0.428E-01
DAV:   3    -0.192015400586E+03    0.19111E-02   -0.31735E-03 11360   0.451E-01    0.802E-02
DAV:   4    -0.192015406976E+03   -0.63898E-05   -0.26905E-04  8800   0.112E-01
  76 F= -.19201541E+03 E0= -.19191876E+03  d E =-.324269E-02
       N       E                     dE             d eps       ncg     rms          rms(c)
DAV:   1    -0.192017293425E+03   -0.18928E-02   -0.56845E-02  8160   0.527E-01    0.139E-01
DAV:   2    -0.192020343908E+03   -0.30505E-02   -0.81985E-03 11800   0.648E-01    0.526E-01
DAV:   3    -0.192017100164E+03    0.32437E-02   -0.45521E-03 10160   0.535E-01    0.701E-02
DAV:   4    -0.192017144478E+03   -0.44315E-04   -0.31055E-04  8440   0.142E-01
  77 F= -.19201714E+03 E0= -.19192034E+03  d E =-.173750E-02
       N       E                     dE             d eps       ncg     rms          rms(c)
DAV:   1    -0.192023549368E+03   -0.64492E-02   -0.49720E-01  8160   0.153E+00    0.231E-01
DAV:   2    -0.192027460250E+03   -0.39109E-02   -0.21811E-02 12720   0.725E-01    0.582E-01
DAV:   3    -0.192024024194E+03    0.34361E-02   -0.85953E-03 12200   0.713E-01    0.216E-01
DAV:   4    -0.192023588949E+03    0.43524E-03   -0.13352E-03 10440   0.229E-01    0.988E-02
DAV:   5    -0.192023442046E+03    0.14690E-03   -0.50968E-04 10600   0.135E-01    0.645E-02
DAV:   6    -0.192023498297E+03   -0.56251E-04   -0.37891E-04  9840   0.159E-01
  78 F= -.19202350E+03 E0= -.19192770E+03  d E =-.635382E-02
       N       E                     dE             d eps       ncg     rms          rms(c)
DAV:   1    -0.192024822890E+03   -0.13808E-02   -0.27538E-02  8160   0.369E-01    0.763E-02
DAV:   2    -0.192024977221E+03   -0.15433E-03   -0.16874E-03 11640   0.210E-01    0.142E-01
DAV:   3    -0.192024775888E+03    0.20133E-03   -0.53813E-04  9200   0.191E-01    0.647E-02
DAV:   4    -0.192024777279E+03   -0.13908E-05   -0.20743E-04  7400   0.115E-01
  79 F= -.19202478E+03 E0= -.19192918E+03  d E =-.127898E-02
       N       E                     dE             d eps       ncg     rms          rms(c)
DAV:   1    -0.192032674972E+03   -0.78991E-02   -0.94967E-01  8160   0.212E+00    0.277E-01
DAV:   2    -0.192036503751E+03   -0.38288E-02   -0.35947E-02 12680   0.731E-01    0.512E-01
DAV:   3    -0.192034469369E+03    0.20344E-02   -0.92829E-03 11880   0.737E-01    0.307E-01
DAV:   4    -0.192033559599E+03    0.90977E-03   -0.20631E-03 11160   0.326E-01    0.135E-01
DAV:   5    -0.192033455646E+03    0.10395E-03   -0.11591E-03 10400   0.220E-01    0.142E-01
DAV:   6    -0.192033333444E+03    0.12220E-03   -0.88622E-04 10680   0.229E-01    0.964E-02
DAV:   7    -0.192033281156E+03    0.52288E-04   -0.33445E-04  8400   0.136E-01
  80 F= -.19203328E+03 E0= -.19193874E+03  d E =-.850388E-02
       N       E                     dE             d eps       ncg     rms          rms(c)
DAV:   1    -0.192032974513E+03    0.35893E-03   -0.13408E-02  8160   0.267E-01    0.602E-02
DAV:   2    -0.192033146361E+03   -0.17185E-03   -0.97635E-04 11720   0.212E-01    0.137E-01
DAV:   3    -0.192032911940E+03    0.23442E-03   -0.35397E-04  8960   0.171E-01    0.354E-02
DAV:   4    -0.192032929910E+03   -0.17970E-04   -0.11337E-04  6520   0.804E-02
  81 F= -.19203293E+03 E0= -.19193845E+03  d E =0.351246E-03
       N       E                     dE             d eps       ncg     rms          rms(c)
DAV:   1    -0.192036682889E+03   -0.37709E-02   -0.21110E-01  8160   0.994E-01    0.133E-01
DAV:   2    -0.192037896111E+03   -0.12132E-02   -0.84626E-03 11960   0.395E-01    0.299E-01
DAV:   3    -0.192037038630E+03    0.85748E-03   -0.24374E-03 12160   0.390E-01    0.131E-01
DAV:   4    -0.192036895661E+03    0.14297E-03   -0.43084E-04  8280   0.144E-01    0.631E-02
DAV:   5    -0.192036857898E+03    0.37763E-04   -0.20136E-04  7760   0.110E-01
  82 F= -.19203686E+03 E0= -.19194318E+03  d E =-.392799E-02
       N       E                     dE             d eps       ncg     rms          rms(c)
DAV:   1    -0.192036794621E+03    0.10104E-03   -0.21935E-04  8160   0.101E-01    0.463E-02
DAV:   2    -0.192037131747E+03   -0.33713E-03   -0.66488E-04 11120   0.216E-01    0.161E-01
DAV:   3    -0.192036768758E+03    0.36299E-03   -0.41091E-04  8800   0.179E-01    0.242E-02
DAV:   4    -0.192036770977E+03   -0.22192E-05   -0.28611E-05  5600   0.330E-02
  83 F= -.19203677E+03 E0= -.19194299E+03  d E =0.869207E-04
       N       E                     dE             d eps       ncg     rms          rms(c)
DAV:   1    -0.192036622824E+03    0.14593E-03   -0.65007E-03  8240   0.182E-01    0.442E-02
DAV:   2    -0.192036653736E+03   -0.30912E-04   -0.50105E-04 10200   0.123E-01
  84 F= -.19203665E+03 E0= -.19194267E+03  d E =0.117241E-03
       N       E                     dE             d eps       ncg     rms          rms(c)
DAV:   1    -0.192041164665E+03   -0.45418E-02   -0.32390E-01  8160   0.124E+00    0.175E-01
DAV:   2    -0.192044088091E+03   -0.29234E-02   -0.15189E-02 11880   0.624E-01    0.488E-01
DAV:   3    -0.192041615480E+03    0.24726E-02   -0.51185E-03 12440   0.566E-01    0.133E-01
DAV:   4    -0.192041451234E+03    0.16425E-03   -0.56047E-04  9360   0.140E-01    0.671E-02
DAV:   5    -0.192041409414E+03    0.41820E-04   -0.25370E-04  8320   0.970E-02
  85 F= -.19204141E+03 E0= -.19194870E+03  d E =-.475568E-02
       N       E                     dE             d eps       ncg     rms          rms(c)
DAV:   1    -0.192047048612E+03   -0.55974E-02   -0.51380E-01  8160   0.155E+00    0.211E-01
DAV:   2    -0.192049884133E+03   -0.28355E-02   -0.20178E-02 12760   0.603E-01    0.456E-01
DAV:   3    -0.192047848310E+03    0.20358E-02   -0.60634E-03 12080   0.593E-01    0.188E-01
DAV:   4    -0.192047555973E+03    0.29234E-03   -0.84384E-04  9640   0.207E-01    0.107E-01
DAV:   5    -0.192047536532E+03    0.19441E-04   -0.55798E-04 10320   0.201E-01
  86 F= -.19204754E+03 E0= -.19195621E+03  d E =-.612712E-02
       N       E                     dE             d eps       ncg     rms          rms(c)
DAV:   1    -0.192046037728E+03    0.15182E-02   -0.44535E-02  8160   0.508E-01    0.110E-01
DAV:   2    -0.192047711180E+03   -0.16735E-02   -0.50047E-03 11920   0.498E-01    0.385E-01
DAV:   3    -0.192045983010E+03    0.17282E-02   -0.25139E-03 11320   0.431E-01    0.710E-02
DAV:   4    -0.192045937825E+03    0.45184E-04   -0.20346E-04  7680   0.945E-02
  87 F= -.19204594E+03 E0= -.19195382E+03  d E =0.159871E-02
       N       E                     dE             d eps       ncg     rms          rms(c)
DAV:   1    -0.192049797658E+03   -0.38146E-02   -0.19772E-01  8160   0.100E+00    0.158E-01
DAV:   2    -0.192049922545E+03   -0.12489E-03   -0.78062E-03 12120   0.281E-01    0.168E-01
DAV:   3    -0.192050153633E+03   -0.23109E-03   -0.21237E-03 12120   0.376E-01    0.236E-01
DAV:   4    -0.192049506627E+03    0.64701E-03   -0.95990E-04  9840   0.253E-01    0.644E-02
DAV:   5    -0.192049528127E+03   -0.21500E-04   -0.29994E-04  7640   0.138E-01
  88 F= -.19204953E+03 E0= -.19195783E+03  d E =-.359030E-02
       N       E                     dE             d eps       ncg     rms          rms(c)
DAV:   1    -0.192048143923E+03    0.13627E-02   -0.10286E-01  8160   0.744E-01    0.148E-01
DAV:   2    -0.192048760404E+03   -0.61648E-03   -0.70666E-03 12000   0.374E-01    0.276E-01
DAV:   3    -0.192048116482E+03    0.64392E-03   -0.22763E-03 11560   0.390E-01    0.149E-01
DAV:   4    -0.192047869293E+03    0.24719E-03   -0.55972E-04  8800   0.175E-01    0.679E-02
DAV:   5    -0.192047840244E+03    0.29049E-04   -0.32662E-04  9280   0.139E-01
  89 F= -.19204784E+03 E0= -.19195547E+03  d E =0.168788E-02
       N       E                     dE             d eps       ncg     rms          rms(c)
DAV:   1    -0.192051508086E+03   -0.36388E-02   -0.17411E-01  8160   0.939E-01    0.162E-01
DAV:   2    -0.192052285474E+03   -0.77739E-03   -0.86058E-03 11640   0.420E-01    0.300E-01
DAV:   3    -0.192051513746E+03    0.77173E-03   -0.29020E-03 12280   0.432E-01    0.174E-01
DAV:   4    -0.192051218892E+03    0.29485E-03   -0.80729E-04  9440   0.211E-01    0.846E-02
DAV:   5    -0.192051154932E+03    0.63960E-04   -0.39782E-04  8520   0.154E-01
  90 F= -.19205115E+03 E0= -.19195985E+03  d E =-.331469E-02
       N       E                     dE             d eps       ncg     rms          rms(c)
DAV:   1    -0.192052298977E+03   -0.10801E-02   -0.26388E-02  8160   0.370E-01    0.645E-02
DAV:   2    -0.192052677106E+03   -0.37813E-03   -0.15079E-03 11440   0.239E-01    0.170E-01
DAV:   3    -0.192052310863E+03    0.36624E-03   -0.53817E-04  9440   0.208E-01    0.420E-02
DAV:   4    -0.192052333731E+03   -0.22868E-04   -0.89817E-05  5600   0.843E-02
  91 F= -.19205233E+03 E0= -.19196105E+03  d E =-.117880E-02
       N       E                     dE             d eps       ncg     rms          rms(c)
DAV:   1    -0.192055752650E+03   -0.34418E-02   -0.18514E-01  8160   0.931E-01    0.123E-01
DAV:   2    -0.192056271950E+03   -0.51930E-03   -0.64909E-03 11360   0.266E-01    0.176E-01
DAV:   3    -0.192056180453E+03    0.91497E-04   -0.15800E-03 11320   0.309E-01    0.163E-01
DAV:   4    -0.192055907709E+03    0.27274E-03   -0.38256E-04  8320   0.159E-01    0.464E-02
DAV:   5    -0.192055886424E+03    0.21286E-04   -0.11422E-04  6280   0.616E-02
  92 F= -.19205589E+03 E0= -.19196539E+03  d E =-.355269E-02
       N       E                     dE             d eps       ncg     rms          rms(c)
DAV:   1    -0.192059419471E+03   -0.35118E-02   -0.20585E-01  8160   0.988E-01    0.139E-01
DAV:   2    -0.192060783915E+03   -0.13644E-02   -0.85142E-03 11640   0.434E-01    0.312E-01
DAV:   3    -0.192059741475E+03    0.10424E-02   -0.24536E-03 12000   0.413E-01    0.120E-01
DAV:   4    -0.192059749070E+03   -0.75952E-05   -0.48310E-04  8560   0.190E-01
  93 F= -.19205975E+03 E0= -.19196976E+03  d E =-.386265E-02
       N       E                     dE             d eps       ncg     rms          rms(c)
DAV:   1    -0.192059540267E+03    0.20121E-03   -0.36094E-04  9320   0.161E-01    0.389E-02
DAV:   2    -0.192059696993E+03   -0.15673E-03   -0.32166E-04  9040   0.144E-01    0.113E-01
DAV:   3    -0.192059536595E+03    0.16040E-03   -0.21245E-04  7920   0.134E-01    0.293E-02
DAV:   4    -0.192059539450E+03   -0.28542E-05   -0.39975E-05  5720   0.478E-02
  94 F= -.19205954E+03 E0= -.19196978E+03  d E =0.209621E-03
       N       E                     dE             d eps       ncg     rms          rms(c)
DAV:   1    -0.192062889157E+03   -0.33526E-02   -0.19197E-01  8160   0.948E-01    0.132E-01
DAV:   2    -0.192063799062E+03   -0.90991E-03   -0.72383E-03 11320   0.364E-01    0.259E-01
DAV:   3    -0.192063171171E+03    0.62789E-03   -0.20866E-03 11760   0.366E-01    0.134E-01
DAV:   4    -0.192063045786E+03    0.12539E-03   -0.43271E-04  8360   0.167E-01    0.831E-02
DAV:   5    -0.192062999748E+03    0.46038E-04   -0.25056E-04  9000   0.143E-01
  95 F= -.19206300E+03 E0= -.19197408E+03  d E =-.346030E-02
       N       E                     dE             d eps       ncg     rms          rms(c)
DAV:   1    -0.192065263553E+03   -0.22178E-02   -0.93785E-02  8160   0.667E-01    0.974E-02
DAV:   2    -0.192065795727E+03   -0.53217E-03   -0.38149E-03 11600   0.275E-01    0.204E-01
DAV:   3    -0.192065372188E+03    0.42354E-03   -0.11508E-03 10960   0.267E-01    0.839E-02
DAV:   4    -0.192065368923E+03    0.32653E-05   -0.20790E-04  7080   0.123E-01
  96 F= -.19206537E+03 E0= -.19197660E+03  d E =-.236917E-02
       N       E                     dE             d eps       ncg     rms          rms(c)
DAV:   1    -0.192065923895E+03   -0.55171E-03   -0.59405E-03  8160   0.186E-01    0.509E-02
DAV:   2    -0.192066106891E+03   -0.18300E-03   -0.56449E-04  9440   0.178E-01    0.136E-01
DAV:   3    -0.192065889059E+03    0.21783E-03   -0.31131E-04  9040   0.159E-01    0.349E-02
DAV:   4    -0.192065900434E+03   -0.11376E-04   -0.56419E-05  6200   0.724E-02
  97 F= -.19206590E+03 E0= -.19197735E+03  d E =-.531512E-03
       N       E                     dE             d eps       ncg     rms          rms(c)
DAV:   1    -0.192069653746E+03   -0.37647E-02   -0.26738E-01  8160   0.113E+00    0.148E-01
DAV:   2    -0.192070273027E+03   -0.61928E-03   -0.91094E-03 11200   0.303E-01    0.190E-01
DAV:   3    -0.192070263867E+03    0.91605E-05   -0.21741E-03 11960   0.363E-01    0.207E-01
DAV:   4    -0.192069821010E+03    0.44286E-03   -0.65443E-04  9720   0.209E-01    0.598E-02
DAV:   5    -0.192069791488E+03    0.29523E-04   -0.21174E-04  7520   0.934E-02
  98 F= -.19206979E+03 E0= -.19198186E+03  d E =-.389105E-02
       N       E                     dE             d eps       ncg     rms          rms(c)
DAV:   1    -0.192073565895E+03   -0.37449E-02   -0.27050E-01  8160   0.114E+00    0.171E-01
DAV:   2    -0.192075490245E+03   -0.19244E-02   -0.12189E-02 12000   0.516E-01    0.372E-01
DAV:   3    -0.192073916233E+03    0.15740E-02   -0.37160E-03 11480   0.493E-01    0.141E-01
DAV:   4    -0.192073968394E+03   -0.52161E-04   -0.77865E-04  9640   0.232E-01
  99 F= -.19207397E+03 E0= -.19198625E+03  d E =-.417691E-02
       N       E                     dE             d eps       ncg     rms          rms(c)
DAV:   1    -0.192071670683E+03    0.22455E-02   -0.64246E-02  8160   0.601E-01    0.609E-02
DAV:   2    -0.192071935179E+03   -0.26450E-03   -0.24420E-03 11480   0.168E-01    0.953E-02
DAV:   3    -0.192071852381E+03    0.82799E-04   -0.37882E-04  9400   0.165E-01
 100 F= -.19207185E+03 E0= -.19198431E+03  d E =0.211601E-02
