<?xml version="1.0" encoding="ISO-8859-1"?>
<modeling>
 <generator>
  <i name="program" type="string">vasp </i>
  <i name="version" type="string">5.4.1  </i>
  <i name="subversion" type="string">05Feb16 (build Jul 05 2020 17:13:04) complex                          parallel </i>
  <i name="platform" type="string">IFC91_ompi </i>
  <i name="date" type="string">2024 04 26 </i>
  <i name="time" type="string">09:06:59 </i>
 </generator>
 <incar>
  <i type="int" name="ISTART">     0</i>
  <i type="string" name="PREC">normal</i>
  <i type="string" name="ALGO"> Normal</i>
  <i type="int" name="ISPIN">     1</i>
  <i type="int" name="ICHARG">     2</i>
  <i type="int" name="IBRION">     1</i>
  <i type="int" name="NSW">   100</i>
  <i type="int" name="ISIF">     3</i>
  <i type="int" name="ISYM">     0</i>
  <i name="SYMPREC">      0.00000001</i>
  <i name="POTIM">      0.50000000</i>
  <i type="logical" name="LREAL"> F  </i>
  <i type="logical" name="LPLANE"> F  </i>
  <i type="int" name="ISMEAR">     0</i>
  <i type="logical" name="LWAVE"> F  </i>
  <i type="logical" name="LCHARG"> F  </i>
  <v type="int" name="KPOINT_BSE">    -1     0     0     0</v>
 </incar>
 <kpoints>
  <generation param="Gamma">
   <v type="int" name="divisions">       8        8        1 </v>
   <v name="usershift">      0.00000000       0.00000000       0.00000000 </v>
   <v name="genvec1">      0.12500000       0.00000000       0.00000000 </v>
   <v name="genvec2">     -0.00000000       0.12500000       0.00000000 </v>
   <v name="genvec3">      0.00000000       0.00000000       1.00000000 </v>
   <v name="shift">      0.00000000       0.00000000       0.00000000 </v>
  </generation>
  <varray name="kpointlist" >
   <v>       0.00000000       0.00000000       0.00000000 </v>
   <v>       0.12500000       0.00000000       0.00000000 </v>
   <v>       0.25000000       0.00000000       0.00000000 </v>
   <v>       0.37500000       0.00000000       0.00000000 </v>
   <v>       0.50000000       0.00000000       0.00000000 </v>
   <v>       0.00000000       0.12500000       0.00000000 </v>
   <v>       0.12500000       0.12500000       0.00000000 </v>
   <v>       0.25000000       0.12500000       0.00000000 </v>
   <v>       0.37500000       0.12500000       0.00000000 </v>
   <v>       0.50000000       0.12500000       0.00000000 </v>
   <v>      -0.37500000       0.12500000       0.00000000 </v>
   <v>      -0.25000000       0.12500000       0.00000000 </v>
   <v>      -0.12500000       0.12500000       0.00000000 </v>
   <v>       0.00000000       0.25000000       0.00000000 </v>
   <v>       0.12500000       0.25000000       0.00000000 </v>
   <v>       0.25000000       0.25000000       0.00000000 </v>
   <v>       0.37500000       0.25000000       0.00000000 </v>
   <v>       0.50000000       0.25000000       0.00000000 </v>
   <v>      -0.37500000       0.25000000       0.00000000 </v>
   <v>      -0.25000000       0.25000000       0.00000000 </v>
   <v>      -0.12500000       0.25000000       0.00000000 </v>
   <v>      -0.00000000       0.37500000       0.00000000 </v>
   <v>       0.12500000       0.37500000       0.00000000 </v>
   <v>       0.25000000       0.37500000       0.00000000 </v>
   <v>       0.37500000       0.37500000       0.00000000 </v>
   <v>       0.50000000       0.37500000       0.00000000 </v>
   <v>      -0.37500000       0.37500000       0.00000000 </v>
   <v>      -0.25000000       0.37500000       0.00000000 </v>
   <v>      -0.12500000       0.37500000       0.00000000 </v>
   <v>       0.00000000       0.50000000       0.00000000 </v>
   <v>       0.12500000       0.50000000       0.00000000 </v>
   <v>       0.25000000       0.50000000       0.00000000 </v>
   <v>       0.37500000       0.50000000       0.00000000 </v>
   <v>       0.50000000       0.50000000       0.00000000 </v>
  </varray>
  <varray name="weights" >
   <v>       0.01562500 </v>
   <v>       0.03125000 </v>
   <v>       0.03125000 </v>
   <v>       0.03125000 </v>
   <v>       0.01562500 </v>
   <v>       0.03125000 </v>
   <v>       0.03125000 </v>
   <v>       0.03125000 </v>
   <v>       0.03125000 </v>
   <v>       0.03125000 </v>
   <v>       0.03125000 </v>
   <v>       0.03125000 </v>
   <v>       0.03125000 </v>
   <v>       0.03125000 </v>
   <v>       0.03125000 </v>
   <v>       0.03125000 </v>
   <v>       0.03125000 </v>
   <v>       0.03125000 </v>
   <v>       0.03125000 </v>
   <v>       0.03125000 </v>
   <v>       0.03125000 </v>
   <v>       0.03125000 </v>
   <v>       0.03125000 </v>
   <v>       0.03125000 </v>
   <v>       0.03125000 </v>
   <v>       0.03125000 </v>
   <v>       0.03125000 </v>
   <v>       0.03125000 </v>
   <v>       0.03125000 </v>
   <v>       0.01562500 </v>
   <v>       0.03125000 </v>
   <v>       0.03125000 </v>
   <v>       0.03125000 </v>
   <v>       0.01562500 </v>
  </varray>
 </kpoints>
 <parameters>
  <separator name="general" >
   <i type="string" name="SYSTEM">unknown system</i>
   <i type="logical" name="LCOMPAT"> F  </i>
  </separator>
  <separator name="electronic" >
   <i type="string" name="PREC">normal</i>
   <i name="ENMAX">    280.00000000</i>
   <i name="ENAUG">    373.43800000</i>
   <i name="EDIFF">      0.00010000</i>
   <i type="int" name="IALGO">    38</i>
   <i type="int" name="IWAVPR">    11</i>
   <i type="int" name="NBANDS">   120</i>
   <i name="NELECT">    159.00000000</i>
   <i type="int" name="TURBO">     0</i>
   <i type="int" name="IRESTART">     0</i>
   <i type="int" name="NREBOOT">     0</i>
   <i type="int" name="NMIN">     0</i>
   <i name="EREF">      0.00000000</i>
   <separator name="electronic smearing" >
    <i type="int" name="ISMEAR">     0</i>
    <i name="SIGMA">      0.20000000</i>
    <i name="KSPACING">      0.50000000</i>
    <i type="logical" name="KGAMMA"> T  </i>
   </separator>
   <separator name="electronic projectors" >
    <i type="logical" name="LREAL"> F  </i>
    <v name="ROPT">      0.00000000      0.00000000      0.00000000      0.00000000</v>
    <i type="int" name="LMAXPAW">  -100</i>
    <i type="int" name="LMAXMIX">     2</i>
    <i type="logical" name="NLSPLINE"> F  </i>
   </separator>
   <separator name="electronic startup" >
    <i type="int" name="ISTART">     0</i>
    <i type="int" name="ICHARG">     2</i>
    <i type="int" name="INIWAV">     1</i>
   </separator>
   <separator name="electronic spin" >
    <i type="int" name="ISPIN">     1</i>
    <i type="logical" name="LNONCOLLINEAR"> F  </i>
    <v name="MAGMOM">      1.00000000      1.00000000      1.00000000      1.00000000      1.00000000      1.00000000      1.00000000      1.00000000      1.00000000      1.00000000      1.00000000      1.00000000      1.00000000      1.00000000      1.00000000      1.00000000      1.00000000      1.00000000      1.00000000      1.00000000
      1.00000000      1.00000000      1.00000000      1.00000000      1.00000000      1.00000000      1.00000000</v>
    <i name="NUPDOWN">     -1.00000000</i>
    <i type="logical" name="LSORBIT"> F  </i>
    <v name="SAXIS">      0.00000000      0.00000000      1.00000000</v>
    <i type="logical" name="LSPIRAL"> F  </i>
    <v name="QSPIRAL">      0.00000000      0.00000000      0.00000000</v>
    <i type="logical" name="LZEROZ"> F  </i>
   </separator>
   <separator name="electronic exchange-correlation" >
    <i type="logical" name="LASPH"> F  </i>
    <i type="logical" name="LMETAGGA"> F  </i>
   </separator>
   <separator name="electronic convergence" >
    <i type="int" name="NELM">    60</i>
    <i type="int" name="NELMDL">    -5</i>
    <i type="int" name="NELMIN">     2</i>
    <i name="ENINI">    280.00000000</i>
    <separator name="electronic convergence detail" >
     <i type="logical" name="LDIAG"> T  </i>
     <i type="logical" name="LSUBROT"> F  </i>
     <i name="WEIMIN">      0.00100000</i>
     <i name="EBREAK">      0.00000021</i>
     <i name="DEPER">      0.30000000</i>
     <i type="int" name="NRMM">     4</i>
     <i name="TIME">      0.40000000</i>
    </separator>
   </separator>
   <separator name="electronic mixer" >
    <i name="AMIX">      0.40000000</i>
    <i name="BMIX">      1.00000000</i>
    <i name="AMIN">      0.10000000</i>
    <i name="AMIX_MAG">      1.60000000</i>
    <i name="BMIX_MAG">      1.00000000</i>
    <separator name="electronic mixer details" >
     <i type="int" name="IMIX">     4</i>
     <i type="logical" name="MIXFIRST"> F  </i>
     <i type="int" name="MAXMIX">   -45</i>
     <i name="WC">    100.00000000</i>
     <i type="int" name="INIMIX">     1</i>
     <i type="int" name="MIXPRE">     1</i>
     <i type="int" name="MREMOVE">     5</i>
    </separator>
   </separator>
   <separator name="electronic dipolcorrection" >
    <i type="logical" name="LDIPOL"> F  </i>
    <i type="logical" name="LMONO"> F  </i>
    <i type="int" name="IDIPOL">     0</i>
    <i name="EPSILON">      1.00000000</i>
    <v name="DIPOL">   -100.00000000   -100.00000000   -100.00000000</v>
    <i name="EFIELD">      0.00000000</i>
   </separator>
  </separator>
  <separator name="grids" >
   <i type="int" name="NGX">    42</i>
   <i type="int" name="NGY">    42</i>
   <i type="int" name="NGZ">   126</i>
   <i type="int" name="NGXF">    84</i>
   <i type="int" name="NGYF">    84</i>
   <i type="int" name="NGZF">   252</i>
   <i type="logical" name="ADDGRID"> F  </i>
  </separator>
  <separator name="ionic" >
   <i type="int" name="NSW">   100</i>
   <i type="int" name="IBRION">     1</i>
   <i type="int" name="ISIF">     3</i>
   <i name="PSTRESS">      0.00000000</i>
   <i name="EDIFFG">      0.00100000</i>
   <i type="int" name="NFREE">     0</i>
   <i name="POTIM">      0.50000000</i>
   <i name="SMASS">     -3.00000000</i>
   <i name="SCALEE">      1.00000000</i>
  </separator>
  <separator name="ionic md" >
   <i name="TEBEG">      0.00010000</i>
   <i name="TEEND">      0.00010000</i>
   <i type="int" name="NBLOCK">     1</i>
   <i type="int" name="KBLOCK">   100</i>
   <i type="int" name="NPACO">   256</i>
   <i name="APACO">     16.00000000</i>
  </separator>
  <separator name="symmetry" >
   <i type="int" name="ISYM">     0</i>
   <i name="SYMPREC">      0.00000001</i>
  </separator>
  <separator name="dos" >
   <i type="logical" name="LORBIT"> F  </i>
   <v name="RWIGS">     -1.00000000     -1.00000000     -1.00000000     -1.00000000</v>
   <i type="int" name="NEDOS">   301</i>
   <i name="EMIN">     10.00000000</i>
   <i name="EMAX">    -10.00000000</i>
   <i name="EFERMI">      0.00000000</i>
  </separator>
  <separator name="writing" >
   <i type="int" name="NWRITE">     2</i>
   <i type="logical" name="LWAVE"> F  </i>
   <i type="logical" name="LCHARG"> F  </i>
   <i type="logical" name="LPARD"> F  </i>
   <i type="logical" name="LVTOT"> F  </i>
   <i type="logical" name="LVHAR"> F  </i>
   <i type="logical" name="LELF"> F  </i>
   <i type="logical" name="LOPTICS"> F  </i>
   <v name="STM">      0.00000000      0.00000000      0.00000000      0.00000000      0.00000000      0.00000000      0.00000000</v>
  </separator>
  <separator name="performance" >
   <i type="int" name="NPAR">    40</i>
   <i type="int" name="NSIM">     4</i>
   <i type="int" name="NBLK">    -1</i>
   <i type="logical" name="LPLANE"> F  </i>
   <i type="logical" name="LSCALAPACK"> T  </i>
   <i type="logical" name="LSCAAWARE"> F  </i>
   <i type="logical" name="LSCALU"> F  </i>
   <i type="logical" name="LASYNC"> F  </i>
   <i type="logical" name="LORBITALREAL"> F  </i>
  </separator>
  <separator name="miscellaneous" >
   <i type="int" name="IDIOT">     3</i>
   <i type="logical" name="LMUSIC"> F  </i>
   <v name="POMASS">     50.94100000     95.94000000    183.85000000     32.06600000</v>
   <v name="DARWINR">      0.00000000      0.00000000      0.00000000      0.00000000</v>
   <v name="DARWINV">      1.00000000      1.00000000      1.00000000      1.00000000</v>
   <i type="logical" name="LCORR"> T  </i>
  </separator>
  <i type="logical" name="GGA_COMPAT"> T  </i>
  <i type="logical" name="LBERRY"> F  </i>
  <i type="int" name="ICORELEVEL">     0</i>
  <i type="logical" name="LDAU"> F  </i>
  <i type="int" name="I_CONSTRAINED_M">     0</i>
  <separator name="electronic exchange-correlation" >
   <i type="string" name="GGA">--</i>
   <i type="int" name="VOSKOWN">     0</i>
   <i type="logical" name="LHFCALC"> F  </i>
   <i type="string" name="PRECFOCK"></i>
   <i type="logical" name="LSYMGRAD"> F  </i>
   <i type="logical" name="LHFONE"> F  </i>
   <i type="logical" name="LRHFCALC"> F  </i>
   <i type="logical" name="LTHOMAS"> F  </i>
   <i type="logical" name="LMODELHF"> F  </i>
   <i name="ENCUT4O">     -1.00000000</i>
   <i type="int" name="EXXOEP">     0</i>
   <i type="int" name="FOURORBIT">     0</i>
   <i name="AEXX">      0.00000000</i>
   <i name="HFALPHA">      0.00000000</i>
   <i name="MCALPHA">      0.00000000</i>
   <i name="ALDAX">      1.00000000</i>
   <i name="AGGAX">      1.00000000</i>
   <i name="ALDAC">      1.00000000</i>
   <i name="AGGAC">      1.00000000</i>
   <i type="int" name="NKREDX">     1</i>
   <i type="int" name="NKREDY">     1</i>
   <i type="int" name="NKREDZ">     1</i>
   <i type="logical" name="SHIFTRED"> F  </i>
   <i type="logical" name="ODDONLY"> F  </i>
   <i type="logical" name="EVENONLY"> F  </i>
   <i type="int" name="LMAXFOCK">     0</i>
   <i type="int" name="NMAXFOCKAE">     0</i>
   <i type="logical" name="LFOCKAEDFT"> F  </i>
   <i name="HFSCREEN">      0.00000000</i>
   <i name="HFSCREENC">      0.00000000</i>
   <i type="int" name="NBANDSGWLOW">     0</i>
  </separator>
  <separator name="vdW DFT" >
   <i type="logical" name="LUSE_VDW"> F  </i>
   <i name="Zab_VDW">     -0.84910000</i>
   <i name="PARAM1">      0.12340000</i>
   <i name="PARAM2">      1.00000000</i>
   <i name="PARAM3">      0.00000000</i>
  </separator>
  <separator name="model GW" >
   <i type="int" name="MODEL_GW">     0</i>
   <i name="MODEL_EPS0">     58.26239943</i>
   <i name="MODEL_ALPHA">      1.00000000</i>
  </separator>
  <separator name="linear response parameters" >
   <i type="logical" name="LEPSILON"> F  </i>
   <i type="logical" name="LRPA"> F  </i>
   <i type="logical" name="LNABLA"> F  </i>
   <i type="logical" name="LVEL"> F  </i>
   <i type="int" name="KINTER">     0</i>
   <i name="CSHIFT">      0.10000000</i>
   <i name="OMEGAMAX">     -1.00000000</i>
   <i name="DEG_THRESHOLD">      0.00200000</i>
  </separator>
  <separator name="orbital magnetization" >
   <i type="logical" name="NUCIND"> F  </i>
   <v name="MAGPOS">      0.00000000      0.00000000      0.00000000</v>
   <i type="logical" name="LNICSALL"> T  </i>
   <i type="logical" name="ORBITALMAG"> F  </i>
   <i type="logical" name="LMAGBLOCH"> F  </i>
   <i type="logical" name="LCHIMAG"> F  </i>
   <i type="logical" name="LGAUGE"> T  </i>
   <i type="int" name="MAGATOM">     0</i>
   <v name="MAGDIPOL">      0.00000000      0.00000000      0.00000000</v>
   <v name="AVECCONST">      0.00000000      0.00000000      0.00000000</v>
  </separator>
  <separator name="response functions" >
   <i type="logical" name="LADDER"> F  </i>
   <i type="logical" name="LFXC"> F  </i>
   <i type="logical" name="LHARTREE"> T  </i>
   <i type="int" name="IBSE">     0</i>
   <v type="int" name="KPOINT">    -1     0     0     0</v>
   <i type="logical" name="LTCTE"> F  </i>
   <i type="logical" name="LTETE"> F  </i>
   <i type="logical" name="LTRIPLET"> F  </i>
   <i type="logical" name="LFXCEPS"> F  </i>
   <i type="logical" name="LFXHEG"> F  </i>
   <i type="int" name="NATURALO">     0</i>
   <i type="logical" name="L2ORDER"> F  </i>
   <i type="logical" name="LUSEW"> F  </i>
   <i name="ENCUTGW">     -2.00000000</i>
   <i name="ENCUTGWSOFT">     -2.00000000</i>
   <i name="ENCUTLF">     -1.00000000</i>
   <i type="int" name="LMAXMP2">    -1</i>
   <i name="SCISSOR">      0.00000000</i>
   <i type="int" name="NOMEGA">     0</i>
   <i type="int" name="NOMEGAR">     0</i>
   <i type="int" name="NBANDSGW">    -1</i>
   <i type="int" name="NBANDSO">    -1</i>
   <i type="int" name="NBANDSV">    -1</i>
   <i type="int" name="NELM">     1</i>
   <i type="int" name="NELMHF">     1</i>
   <i type="int" name="DIM">     3</i>
   <i type="int" name="ANTIRES">     0</i>
   <i name="OMEGAMAX">    -30.00000000</i>
   <i name="OMEGAMIN">    -30.00000000</i>
   <i name="OMEGATL">   -200.00000000</i>
   <i type="int" name="OMEGAGRID">     0</i>
   <i name="CSHIFT">     -0.10000000</i>
   <i type="logical" name="SELFENERGY"> F  </i>
   <i type="logical" name="LSPECTRAL"> F  </i>
   <i type="logical" name="LSPECTRALGW"> F  </i>
   <i type="logical" name="LSINGLES"> F  </i>
   <i type="logical" name="LFERMIGW"> F  </i>
   <i type="logical" name="ODDONLYGW"> F  </i>
   <i type="logical" name="EVENONLYGW"> F  </i>
   <i type="int" name="NKREDLFX">     1</i>
   <i type="int" name="NKREDLFY">     1</i>
   <i type="int" name="NKREDLFZ">     1</i>
   <i type="int" name="MAXMEM">  1800</i>
   <i type="int" name="TELESCOPE">     0</i>
   <i type="int" name="TAUPAR">     1</i>
   <i type="int" name="OMEGAPAR">    -1</i>
   <i name="LAMBDA">      1.00000000</i>
  </separator>
  <separator name="External order field" >
   <i name="OFIELD_KAPPA">      0.00000000</i>
   <v name="OFIELD_K">      0.00000000      0.00000000      0.00000000</v>
   <i name="OFIELD_Q6_NEAR">      0.00000000</i>
   <i name="OFIELD_Q6_FAR">      0.00000000</i>
   <i name="OFIELD_A">      0.00000000</i>
  </separator>
 </parameters>
 <atominfo>
  <atoms>      27 </atoms>
  <types>       4 </types>
  <array name="atoms" >
   <dimension dim="1">ion</dimension>
   <field type="string">element</field>
   <field type="int">atomtype</field>
   <set>
    <rc><c>V </c><c>   1</c></rc>
    <rc><c>V </c><c>   1</c></rc>
    <rc><c>V </c><c>   1</c></rc>
    <rc><c>Mo</c><c>   2</c></rc>
    <rc><c>Mo</c><c>   2</c></rc>
    <rc><c>Mo</c><c>   2</c></rc>
    <rc><c>W </c><c>   3</c></rc>
    <rc><c>W </c><c>   3</c></rc>
    <rc><c>W </c><c>   3</c></rc>
    <rc><c>S </c><c>   4</c></rc>
    <rc><c>S </c><c>   4</c></rc>
    <rc><c>S </c><c>   4</c></rc>
    <rc><c>S </c><c>   4</c></rc>
    <rc><c>S </c><c>   4</c></rc>
    <rc><c>S </c><c>   4</c></rc>
    <rc><c>S </c><c>   4</c></rc>
    <rc><c>S </c><c>   4</c></rc>
    <rc><c>S </c><c>   4</c></rc>
    <rc><c>S </c><c>   4</c></rc>
    <rc><c>S </c><c>   4</c></rc>
    <rc><c>S </c><c>   4</c></rc>
    <rc><c>S </c><c>   4</c></rc>
    <rc><c>S </c><c>   4</c></rc>
    <rc><c>S </c><c>   4</c></rc>
    <rc><c>S </c><c>   4</c></rc>
    <rc><c>S </c><c>   4</c></rc>
    <rc><c>S </c><c>   4</c></rc>
   </set>
  </array>
  <array name="atomtypes" >
   <dimension dim="1">type</dimension>
   <field type="int">atomspertype</field>
   <field type="string">element</field>
   <field>mass</field>
   <field>valence</field>
   <field type="string">pseudopotential</field>
   <set>
    <rc><c>   3</c><c>V </c><c>     50.94100000</c><c>      5.00000000</c><c> PAW_PBE V 08Apr2002                    </c></rc>
    <rc><c>   3</c><c>Mo</c><c>     95.94000000</c><c>      6.00000000</c><c> PAW_PBE Mo 08Apr2002                   </c></rc>
    <rc><c>   3</c><c>W </c><c>    183.85000000</c><c>      6.00000000</c><c> PAW_PBE W 08Apr2002                    </c></rc>
    <rc><c>  18</c><c>S </c><c>     32.06600000</c><c>      6.00000000</c><c>  PAW_PBE S 17Jan2003                   </c></rc>
   </set>
  </array>
 </atominfo>
 <structure name="initialpos" >
  <crystal>
   <varray name="basis" >
    <v>       8.66999996       5.03999989       0.00000000 </v>
    <v>      -8.66999982       5.04000013       0.00000000 </v>
    <v>       0.00000000       0.00000000      30.00000000 </v>
   </varray>
   <i name="volume">   2621.80797419 </i>
   <varray name="rec_basis" >
    <v>       0.05767013       0.09920635       0.00000000 </v>
    <v>      -0.05767013       0.09920635       0.00000000 </v>
    <v>       0.00000000       0.00000000       0.03333333 </v>
   </varray>
  </crystal>
  <varray name="positions" >
   <v>       0.66666669       0.33333334       0.00000000 </v>
   <v>       1.00000000       0.33333334       0.00000000 </v>
   <v>       0.66666669       0.00000000       0.00000000 </v>
   <v>       0.00000000       0.66666669       0.00000000 </v>
   <v>       0.66666669       0.66666669       0.00000000 </v>
   <v>       0.33333334       0.00000000       0.00000000 </v>
   <v>       0.00000000       0.00000000       0.00000000 </v>
   <v>       0.33333334       0.33333334       0.00000000 </v>
   <v>       0.33333334       0.66666669       0.00000000 </v>
   <v>       0.11068511       0.22244981       0.95539999 </v>
   <v>       0.22244981       0.11068511       0.04460000 </v>
   <v>       0.11068511       0.55578315       0.95539999 </v>
   <v>       0.22244981       0.44401845       0.04460000 </v>
   <v>       0.11068511       0.88911647       0.95539999 </v>
   <v>       0.22244981       0.77735180       0.04460000 </v>
   <v>       0.44401845       0.22244981       0.95539999 </v>
   <v>       0.55578315       0.11068511       0.04460000 </v>
   <v>       0.44401845       0.55578315       0.95539999 </v>
   <v>       0.55578315       0.44401845       0.04460000 </v>
   <v>       0.44401845       0.88911647       0.95539999 </v>
   <v>       0.55578315       0.77735180       0.04460000 </v>
   <v>       0.77735180       0.22244981       0.95539999 </v>
   <v>       0.88911647       0.11068511       0.04460000 </v>
   <v>       0.77735180       0.55578315       0.95539999 </v>
   <v>       0.88911647       0.44401845       0.04460000 </v>
   <v>       0.77735180       0.88911647       0.95539999 </v>
   <v>       0.88911647       0.77735180       0.04460000 </v>
  </varray>
 </structure>
 <calculation>
  <scstep>
   <time name="dav">   22.90   22.96</time>
   <time name="total">   22.95   23.01</time>
   <energy>
    <i name="alphaZ">     81.65567618 </i>
    <i name="ewald">  41891.17178115 </i>
    <i name="hartreedc"> -47723.81657175 </i>
    <i name="XCdc">   -242.92509165 </i>
    <i name="pawpsdc">   3467.42045192 </i>
    <i name="pawaedc">  -2871.19716117 </i>
    <i name="eentropy">     -0.53696573 </i>
    <i name="bandstr">   -239.46160333 </i>
    <i name="atom">   6761.44252427 </i>
    <i name="e_fr_energy">   1123.75303988 </i>
    <i name="e_wo_entrp">   1124.29000561 </i>
    <i name="e_0_energy">   1124.02152275 </i>
   </energy>
  </scstep>
  <scstep>
   <time name="dav">   29.86   29.93</time>
   <time name="total">   29.86   29.94</time>
   <energy>
    <i name="e_fr_energy">      0.40412725 </i>
    <i name="e_wo_entrp">      0.60367355 </i>
    <i name="e_0_energy">      0.50390040 </i>
   </energy>
  </scstep>
  <scstep>
   <time name="dav">   28.89   28.96</time>
   <time name="total">   28.89   28.97</time>
   <energy>
    <i name="e_fr_energy">   -199.71604000 </i>
    <i name="e_wo_entrp">   -199.44932487 </i>
    <i name="e_0_energy">   -199.58268243 </i>
   </energy>
  </scstep>
  <scstep>
   <time name="dav">   31.38   31.46</time>
   <time name="total">   31.38   31.46</time>
   <energy>
    <i name="e_fr_energy">   -208.95838082 </i>
    <i name="e_wo_entrp">   -208.66454368 </i>
    <i name="e_0_energy">   -208.81146225 </i>
   </energy>
  </scstep>
  <scstep>
   <time name="dav">   29.96   30.03</time>
   <time name="total">   30.42   30.50</time>
   <energy>
    <i name="e_fr_energy">   -209.29893428 </i>
    <i name="e_wo_entrp">   -209.00862942 </i>
    <i name="e_0_energy">   -209.15378185 </i>
   </energy>
  </scstep>
  <scstep>
   <time name="dav">   31.83   31.91</time>
   <time name="total">   32.33   32.42</time>
   <energy>
    <i name="e_fr_energy">   -237.71832896 </i>
    <i name="e_wo_entrp">   -237.45776026 </i>
    <i name="e_0_energy">   -237.58804461 </i>
   </energy>
  </scstep>
  <scstep>
   <time name="dav">   34.48   34.56</time>
   <time name="total">   34.99   35.08</time>
   <energy>
    <i name="e_fr_energy">   -196.63062566 </i>
    <i name="e_wo_entrp">   -196.30675116 </i>
    <i name="e_0_energy">   -196.46868841 </i>
   </energy>
  </scstep>
  <scstep>
   <time name="dav">   31.17   31.24</time>
   <time name="total">   31.68   31.78</time>
   <energy>
    <i name="e_fr_energy">   -189.65448861 </i>
    <i name="e_wo_entrp">   -189.34750457 </i>
    <i name="e_0_energy">   -189.50099659 </i>
   </energy>
  </scstep>
  <scstep>
   <time name="dav">   33.32   33.40</time>
   <time name="total">   33.84   33.93</time>
   <energy>
    <i name="e_fr_energy">   -188.22089593 </i>
    <i name="e_wo_entrp">   -187.89136832 </i>
    <i name="e_0_energy">   -188.05613213 </i>
   </energy>
  </scstep>
  <scstep>
   <time name="dav">   34.22   34.30</time>
   <time name="total">   34.75   34.84</time>
   <energy>
    <i name="e_fr_energy">   -186.95521494 </i>
    <i name="e_wo_entrp">   -186.60263156 </i>
    <i name="e_0_energy">   -186.77892325 </i>
   </energy>
  </scstep>
  <scstep>
   <time name="dav">   33.94   34.02</time>
   <time name="total">   34.48   34.57</time>
   <energy>
    <i name="e_fr_energy">   -187.02429252 </i>
    <i name="e_wo_entrp">   -186.68255179 </i>
    <i name="e_0_energy">   -186.85342215 </i>
   </energy>
  </scstep>
  <scstep>
   <time name="dav">   33.09   33.17</time>
   <time name="total">   33.63   33.71</time>
   <energy>
    <i name="e_fr_energy">   -186.94113956 </i>
    <i name="e_wo_entrp">   -186.60440456 </i>
    <i name="e_0_energy">   -186.77277206 </i>
   </energy>
  </scstep>
  <scstep>
   <time name="dav">   33.21   33.29</time>
   <time name="total">   33.75   33.84</time>
   <energy>
    <i name="e_fr_energy">   -186.88513857 </i>
    <i name="e_wo_entrp">   -186.54835219 </i>
    <i name="e_0_energy">   -186.71674538 </i>
   </energy>
  </scstep>
  <scstep>
   <time name="dav">   33.07   33.15</time>
   <time name="total">   33.60   33.69</time>
   <energy>
    <i name="e_fr_energy">   -186.84534666 </i>
    <i name="e_wo_entrp">   -186.50013805 </i>
    <i name="e_0_energy">   -186.67274236 </i>
   </energy>
  </scstep>
  <scstep>
   <time name="dav">   32.36   32.43</time>
   <time name="total">   32.89   32.98</time>
   <energy>
    <i name="e_fr_energy">   -186.84139203 </i>
    <i name="e_wo_entrp">   -186.49627931 </i>
    <i name="e_0_energy">   -186.66883567 </i>
   </energy>
  </scstep>
  <scstep>
   <time name="dav">   34.42   34.50</time>
   <time name="total">   34.95   35.05</time>
   <energy>
    <i name="e_fr_energy">   -186.84048095 </i>
    <i name="e_wo_entrp">   -186.49603222 </i>
    <i name="e_0_energy">   -186.66825658 </i>
   </energy>
  </scstep>
  <scstep>
   <time name="dav">   32.47   32.55</time>
   <time name="total">   33.01   33.09</time>
   <energy>
    <i name="e_fr_energy">   -186.83796567 </i>
    <i name="e_wo_entrp">   -186.49486506 </i>
    <i name="e_0_energy">   -186.66641537 </i>
   </energy>
  </scstep>
  <scstep>
   <time name="dav">   31.91   31.99</time>
   <time name="total">   32.45   32.53</time>
   <energy>
    <i name="e_fr_energy">   -186.83767993 </i>
    <i name="e_wo_entrp">   -186.49399526 </i>
    <i name="e_0_energy">   -186.66583759 </i>
   </energy>
  </scstep>
  <scstep>
   <time name="dav">   25.93   26.00</time>
   <time name="total">   25.98   26.04</time>
   <energy>
    <i name="alphaZ">     81.65567618 </i>
    <i name="ewald">  41891.17178115 </i>
    <i name="hartreedc"> -47818.58435799 </i>
    <i name="XCdc">   -231.69459568 </i>
    <i name="pawpsdc">   4194.33560387 </i>
    <i name="pawaedc">  -3612.35476970 </i>
    <i name="eentropy">     -0.34368176 </i>
    <i name="bandstr">  -1452.46581200 </i>
    <i name="atom">   6761.44252427 </i>
    <i name="e_fr_energy">   -186.83763166 </i>
    <i name="e_wo_entrp">   -186.49394990 </i>
    <i name="e_0_energy">   -186.66579078 </i>
   </energy>
  </scstep>
  <structure>
   <crystal>
    <varray name="basis" >
     <v>       8.66999996       5.03999989       0.00000000 </v>
     <v>      -8.66999982       5.04000013       0.00000000 </v>
     <v>       0.00000000       0.00000000      30.00000000 </v>
    </varray>
    <i name="volume">   2621.80797419 </i>
    <varray name="rec_basis" >
     <v>       0.05767013       0.09920635       0.00000000 </v>
     <v>      -0.05767013       0.09920635       0.00000000 </v>
     <v>       0.00000000       0.00000000       0.03333333 </v>
    </varray>
   </crystal>
   <varray name="positions" >
    <v>       0.66666669       0.33333334       0.00000000 </v>
    <v>       1.00000000       0.33333334       0.00000000 </v>
    <v>       0.66666669       0.00000000       0.00000000 </v>
    <v>       0.00000000       0.66666669       0.00000000 </v>
    <v>       0.66666669       0.66666669       0.00000000 </v>
    <v>       0.33333334       0.00000000       0.00000000 </v>
    <v>       0.00000000       0.00000000       0.00000000 </v>
    <v>       0.33333334       0.33333334       0.00000000 </v>
    <v>       0.33333334       0.66666669       0.00000000 </v>
    <v>       0.11068511       0.22244981       0.95539999 </v>
    <v>       0.22244981       0.11068511       0.04460000 </v>
    <v>       0.11068511       0.55578315       0.95539999 </v>
    <v>       0.22244981       0.44401845       0.04460000 </v>
    <v>       0.11068511       0.88911647       0.95539999 </v>
    <v>       0.22244981       0.77735180       0.04460000 </v>
    <v>       0.44401845       0.22244981       0.95539999 </v>
    <v>       0.55578315       0.11068511       0.04460000 </v>
    <v>       0.44401845       0.55578315       0.95539999 </v>
    <v>       0.55578315       0.44401845       0.04460000 </v>
    <v>       0.44401845       0.88911647       0.95539999 </v>
    <v>       0.55578315       0.77735180       0.04460000 </v>
    <v>       0.77735180       0.22244981       0.95539999 </v>
    <v>       0.88911647       0.11068511       0.04460000 </v>
    <v>       0.77735180       0.55578315       0.95539999 </v>
    <v>       0.88911647       0.44401845       0.04460000 </v>
    <v>       0.77735180       0.88911647       0.95539999 </v>
    <v>       0.88911647       0.77735180       0.04460000 </v>
   </varray>
  </structure>
  <varray name="forces" >
   <v>      -0.02804582       0.11533499      -0.00079951 </v>
   <v>      -0.29781844      -0.00866596      -0.00942433 </v>
   <v>      -0.11084545      -0.10560264       0.01403446 </v>
   <v>      -0.24782835       0.08105481      -0.10384250 </v>
   <v>       0.27944769       0.14442210       0.05573495 </v>
   <v>       0.01880891      -0.23484858      -0.03557048 </v>
   <v>       0.44094519      -0.33973520      -0.09671835 </v>
   <v>       0.32739889       0.14978074       0.09607015 </v>
   <v>      -0.30493851       0.17996887       0.11030533 </v>
   <v>      -0.59699766      -0.01230897      -2.08044772 </v>
   <v>      -0.30237617       0.03608787       2.87250514 </v>
   <v>       0.59600575      -0.55492542      -2.13806771 </v>
   <v>      -0.45571718      -0.54718607       2.16307512 </v>
   <v>      -0.05930537       0.00736415      -2.97258458 </v>
   <v>       0.07978973      -0.00147603       2.88062675 </v>
   <v>       0.37218811       0.68399957      -2.16626959 </v>
   <v>       0.32768839       0.67043925       1.38921754 </v>
   <v>       0.05425975      -0.12912870      -2.84006244 </v>
   <v>       0.63940896      -0.15417942       2.14922880 </v>
   <v>       0.59527335       0.55514728      -2.17556334 </v>
   <v>      -0.60364764       0.52192107       2.15396607 </v>
   <v>       0.06588972       0.00312617      -0.77790356 </v>
   <v>      -0.76148386      -0.00012387       1.42671676 </v>
   <v>       0.54130167      -0.68410073      -2.14452224 </v>
   <v>       0.32490450      -0.68019173       1.40339109 </v>
   <v>      -0.66399752       0.17919936      -2.09684770 </v>
   <v>      -0.23030866       0.12462709       2.92375187 </v>
  </varray>
  <varray name="stress" >
   <v>       7.45107103      -0.08565190      -1.53915257 </v>
   <v>      -0.08565193       4.53915104      -0.06452731 </v>
   <v>      -1.53915262      -0.06452731      31.15478011 </v>
  </varray>
  <energy>
   <i name="e_fr_energy">   -186.83763166 </i>
   <i name="e_wo_entrp">   -186.66579078 </i>
   <i name="e_0_energy">     -0.34368176 </i>
  </energy>
  <time name="totalsc">  649.57  651.29</time>
 </calculation>
 <calculation>
  <scstep>
   <time name="dav">   22.81   22.87</time>
   <time name="total">   23.36   23.42</time>
   <energy>
    <i name="alphaZ">     78.86793888 </i>
    <i name="ewald">  39350.42886251 </i>
    <i name="hartreedc"> -45297.81248210 </i>
    <i name="XCdc">   -239.17948818 </i>
    <i name="pawpsdc">   4193.12063205 </i>
    <i name="pawaedc">  -3611.12246741 </i>
    <i name="eentropy">     -0.28172989 </i>
    <i name="bandstr">  -1422.95586883 </i>
    <i name="atom">   6761.44252427 </i>
    <i name="e_fr_energy">   -187.49207868 </i>
    <i name="e_wo_entrp">   -187.21034879 </i>
    <i name="e_0_energy">   -187.35121374 </i>
   </energy>
  </scstep>
  <scstep>
   <time name="dav">   30.82   30.89</time>
   <time name="total">   31.35   31.44</time>
   <energy>
    <i name="e_fr_energy">   -189.51228954 </i>
    <i name="e_wo_entrp">   -189.17600331 </i>
    <i name="e_0_energy">   -189.34414643 </i>
   </energy>
  </scstep>
  <scstep>
   <time name="dav">   31.57   31.65</time>
   <time name="total">   32.14   32.22</time>
   <energy>
    <i name="e_fr_energy">   -189.32901295 </i>
    <i name="e_wo_entrp">   -189.06739249 </i>
    <i name="e_0_energy">   -189.19820272 </i>
   </energy>
  </scstep>
  <scstep>
   <time name="dav">   31.48   31.56</time>
   <time name="total">   32.03   32.12</time>
   <energy>
    <i name="e_fr_energy">   -188.78440030 </i>
    <i name="e_wo_entrp">   -188.50099166 </i>
    <i name="e_0_energy">   -188.64269598 </i>
   </energy>
  </scstep>
  <scstep>
   <time name="dav">   28.63   28.70</time>
   <time name="total">   29.17   29.25</time>
   <energy>
    <i name="e_fr_energy">   -188.82984026 </i>
    <i name="e_wo_entrp">   -188.54249201 </i>
    <i name="e_0_energy">   -188.68616614 </i>
   </energy>
  </scstep>
  <scstep>
   <time name="dav">   31.66   31.74</time>
   <time name="total">   32.21   32.29</time>
   <energy>
    <i name="e_fr_energy">   -188.71345345 </i>
    <i name="e_wo_entrp">   -188.42983506 </i>
    <i name="e_0_energy">   -188.57164426 </i>
   </energy>
  </scstep>
  <scstep>
   <time name="dav">   31.02   31.10</time>
   <time name="total">   31.57   31.66</time>
   <energy>
    <i name="e_fr_energy">   -188.70122008 </i>
    <i name="e_wo_entrp">   -188.41581066 </i>
    <i name="e_0_energy">   -188.55851537 </i>
   </energy>
  </scstep>
  <scstep>
   <time name="dav">   30.47   30.54</time>
   <time name="total">   31.02   31.10</time>
   <energy>
    <i name="e_fr_energy">   -188.67013724 </i>
    <i name="e_wo_entrp">   -188.38632882 </i>
    <i name="e_0_energy">   -188.52823303 </i>
   </energy>
  </scstep>
  <scstep>
   <time name="dav">   30.32   30.39</time>
   <time name="total">   30.87   30.95</time>
   <energy>
    <i name="e_fr_energy">   -188.64699535 </i>
    <i name="e_wo_entrp">   -188.36473049 </i>
    <i name="e_0_energy">   -188.50586292 </i>
   </energy>
  </scstep>
  <scstep>
   <time name="dav">   27.54   27.60</time>
   <time name="total">   28.09   28.16</time>
   <energy>
    <i name="e_fr_energy">   -188.64404373 </i>
    <i name="e_wo_entrp">   -188.36263008 </i>
    <i name="e_0_energy">   -188.50333691 </i>
   </energy>
  </scstep>
  <scstep>
   <time name="dav">   33.41   33.49</time>
   <time name="total">   33.96   34.05</time>
   <energy>
    <i name="e_fr_energy">   -188.64354450 </i>
    <i name="e_wo_entrp">   -188.36336443 </i>
    <i name="e_0_energy">   -188.50345446 </i>
   </energy>
  </scstep>
  <scstep>
   <time name="dav">   28.79   28.86</time>
   <time name="total">   29.34   29.42</time>
   <energy>
    <i name="e_fr_energy">   -188.64355797 </i>
    <i name="e_wo_entrp">   -188.36342051 </i>
    <i name="e_0_energy">   -188.50348924 </i>
   </energy>
  </scstep>
  <scstep>
   <time name="dav">   20.22   20.26</time>
   <time name="total">   20.76   20.82</time>
   <energy>
    <i name="e_fr_energy">   -188.64369484 </i>
    <i name="e_wo_entrp">   -188.36328648 </i>
    <i name="e_0_energy">   -188.50349066 </i>
   </energy>
  </scstep>
  <scstep>
   <time name="dav">   20.07   20.11</time>
   <time name="total">   20.62   20.68</time>
   <energy>
    <i name="e_fr_energy">   -188.64392949 </i>
    <i name="e_wo_entrp">   -188.36354249 </i>
    <i name="e_0_energy">   -188.50373599 </i>
   </energy>
  </scstep>
  <scstep>
   <time name="dav">   23.03   23.08</time>
   <time name="total">   23.06   23.13</time>
   <energy>
    <i name="alphaZ">     78.86793888 </i>
    <i name="ewald">  39350.42886251 </i>
    <i name="hartreedc"> -45315.77018645 </i>
    <i name="XCdc">   -238.03152337 </i>
    <i name="pawpsdc">   3948.19623758 </i>
    <i name="pawaedc">  -3362.67441371 </i>
    <i name="eentropy">     -0.28042898 </i>
    <i name="bandstr">  -1410.82300327 </i>
    <i name="atom">   6761.44252427 </i>
    <i name="e_fr_energy">   -188.64399253 </i>
    <i name="e_wo_entrp">   -188.36356355 </i>
    <i name="e_0_energy">   -188.50377804 </i>
   </energy>
  </scstep>
  <structure>
   <crystal>
    <varray name="basis" >
     <v>       8.85762192       5.10471889       0.00000000 </v>
     <v>      -8.86014617       5.10906167       0.00000000 </v>
     <v>       0.00000000       0.00000000      30.00000000 </v>
    </varray>
    <i name="volume">   2714.48076320 </i>
    <varray name="rec_basis" >
     <v>       0.05646452       0.09792089       0.00000000 </v>
     <v>      -0.05641652       0.09789300       0.00000000 </v>
     <v>       0.00000000       0.00000000       0.03333333 </v>
    </varray>
   </crystal>
   <varray name="positions" >
    <v>       0.66714065       0.33396336      -0.00000129 </v>
    <v>       0.99912995       0.33412045      -0.00001516 </v>
    <v>       0.66585288      -0.00019702       0.00002257 </v>
    <v>      -0.00030157       0.66774411      -0.00016699 </v>
    <v>       0.66813536       0.66658042       0.00008963 </v>
    <v>       0.33226169      -0.00117631      -0.00005720 </v>
    <v>      -0.00039918      -0.00285275      -0.00015553 </v>
    <v>       0.33496107       0.33313931       0.00015449 </v>
    <v>       0.33334628       0.66837640       0.00017738 </v>
    <v>       0.10896526       0.22405184       0.95205445 </v>
    <v>       0.22178127       0.11169908       0.04921924 </v>
    <v>       0.10968743       0.55146911       0.95196179 </v>
    <v>       0.21856311       0.44266751       0.04807841 </v>
    <v>       0.11055536       0.88931671       0.95061981 </v>
    <v>       0.22266473       0.77712274       0.04923230 </v>
    <v>       0.44832755       0.22468793       0.95191644 </v>
    <v>       0.55990354       0.11298214       0.04683398 </v>
    <v>       0.44355141       0.55501419       0.95083292 </v>
    <v>       0.55682419       0.44150162       0.04805615 </v>
    <v>       0.44833152       0.89011724       0.95190149 </v>
    <v>       0.55660161       0.78152914       0.04806377 </v>
    <v>       0.77755007       0.22228146       0.95414905 </v>
    <v>       0.88699730       0.11280309       0.04689429 </v>
    <v>       0.77558369       0.55100307       0.95195141 </v>
    <v>       0.88676502       0.43985913       0.04685678 </v>
    <v>       0.77636209       0.89182146       0.95202807 </v>
    <v>       0.88907217       0.77858901       0.04930165 </v>
   </varray>
  </structure>
  <varray name="forces" >
   <v>      -0.12450298       0.08401546       0.01137547 </v>
   <v>      -0.18264430       0.06195658       0.01423525 </v>
   <v>      -0.05941874      -0.15029589       0.10069341 </v>
   <v>      -0.40758358       0.37235522      -0.03863234 </v>
   <v>       0.24521104       0.12299126      -0.06338642 </v>
   <v>      -0.12320199      -0.47182246       0.05077460 </v>
   <v>       0.62334049      -0.31144251      -0.05264586 </v>
   <v>       0.22481373       0.18409292      -0.07109441 </v>
   <v>      -0.23478661       0.13307662       0.03604765 </v>
   <v>       0.10616823      -0.00856938       0.24056593 </v>
   <v>      -0.12567233      -0.00229806      -0.00160030 </v>
   <v>       0.06230278       0.05573926       0.04689863 </v>
   <v>       0.05652439       0.07569553      -0.13453049 </v>
   <v>      -0.14064363      -0.01168809      -0.30356750 </v>
   <v>       0.13426129      -0.01666467       0.12936662 </v>
   <v>      -0.09746425       0.05064308       0.04235992 </v>
   <v>       0.01397795       0.05175090      -0.15273164 </v>
   <v>      -0.07689795      -0.10843667       0.16034514 </v>
   <v>       0.00047150      -0.10048547       0.10820311 </v>
   <v>       0.07035100      -0.04434512      -0.04580044 </v>
   <v>      -0.07935659      -0.05492914      -0.02357381 </v>
   <v>       0.00338711      -0.00292232       0.13726056 </v>
   <v>       0.09638719      -0.00592044      -0.27464307 </v>
   <v>       0.04429610      -0.06868748      -0.07550805 </v>
   <v>      -0.00218630      -0.05362538      -0.08534738 </v>
   <v>       0.02368991       0.11914049       0.02471343 </v>
   <v>      -0.05082345       0.10067577       0.22022200 </v>
  </varray>
  <varray name="stress" >
   <v>     -19.98472253       0.00501876       0.04153506 </v>
   <v>       0.00501876     -19.57476054       0.01804965 </v>
   <v>       0.04153519       0.01804959      -1.69388161 </v>
  </varray>
  <energy>
   <i name="e_fr_energy">   -188.64399253 </i>
   <i name="e_wo_entrp">   -188.50377804 </i>
   <i name="e_0_energy">     -0.28042898 </i>
  </energy>
  <time name="totalsc">  473.17  474.43</time>
 </calculation>
 <calculation>
  <scstep>
   <time name="dav">   25.06   25.12</time>
   <time name="total">   25.59   25.65</time>
   <energy>
    <i name="alphaZ">     82.31606214 </i>
    <i name="ewald">  41287.77473010 </i>
    <i name="hartreedc"> -47284.14019525 </i>
    <i name="XCdc">   -233.87270649 </i>
    <i name="pawpsdc">   3948.11969734 </i>
    <i name="pawaedc">  -3362.59799466 </i>
    <i name="eentropy">     -0.23483477 </i>
    <i name="bandstr">  -1389.40265648 </i>
    <i name="atom">   6761.44252427 </i>
    <i name="e_fr_energy">   -190.59537381 </i>
    <i name="e_wo_entrp">   -190.36053904 </i>
    <i name="e_0_energy">   -190.47795642 </i>
   </energy>
  </scstep>
  <scstep>
   <time name="dav">   31.26   31.33</time>
   <time name="total">   31.78   31.87</time>
   <energy>
    <i name="e_fr_energy">   -190.53294051 </i>
    <i name="e_wo_entrp">   -190.30935645 </i>
    <i name="e_0_energy">   -190.42114848 </i>
   </energy>
  </scstep>
  <scstep>
   <time name="dav">   31.83   31.91</time>
   <time name="total">   32.36   32.45</time>
   <energy>
    <i name="e_fr_energy">   -190.07259216 </i>
    <i name="e_wo_entrp">   -189.82103902 </i>
    <i name="e_0_energy">   -189.94681559 </i>
   </energy>
  </scstep>
  <scstep>
   <time name="dav">   33.57   33.65</time>
   <time name="total">   34.10   34.19</time>
   <energy>
    <i name="e_fr_energy">   -189.85682913 </i>
    <i name="e_wo_entrp">   -189.62938932 </i>
    <i name="e_0_energy">   -189.74310922 </i>
   </energy>
  </scstep>
  <scstep>
   <time name="dav">   31.67   31.74</time>
   <time name="total">   32.20   32.29</time>
   <energy>
    <i name="e_fr_energy">   -189.80885154 </i>
    <i name="e_wo_entrp">   -189.56664974 </i>
    <i name="e_0_energy">   -189.68775064 </i>
   </energy>
  </scstep>
  <scstep>
   <time name="dav">   32.21   32.28</time>
   <time name="total">   32.74   32.82</time>
   <energy>
    <i name="e_fr_energy">   -189.75596335 </i>
    <i name="e_wo_entrp">   -189.52189601 </i>
    <i name="e_0_energy">   -189.63892968 </i>
   </energy>
  </scstep>
  <scstep>
   <time name="dav">   31.04   31.11</time>
   <time name="total">   31.57   31.65</time>
   <energy>
    <i name="e_fr_energy">   -189.75042557 </i>
    <i name="e_wo_entrp">   -189.51397670 </i>
    <i name="e_0_energy">   -189.63220114 </i>
   </energy>
  </scstep>
  <scstep>
   <time name="dav">   30.22   30.29</time>
   <time name="total">   30.75   30.83</time>
   <energy>
    <i name="e_fr_energy">   -189.75133592 </i>
    <i name="e_wo_entrp">   -189.51573181 </i>
    <i name="e_0_energy">   -189.63353387 </i>
   </energy>
  </scstep>
  <scstep>
   <time name="dav">   30.24   30.31</time>
   <time name="total">   30.77   30.86</time>
   <energy>
    <i name="e_fr_energy">   -189.75002232 </i>
    <i name="e_wo_entrp">   -189.51401741 </i>
    <i name="e_0_energy">   -189.63201987 </i>
   </energy>
  </scstep>
  <scstep>
   <time name="dav">   27.11   27.17</time>
   <time name="total">   27.64   27.72</time>
   <energy>
    <i name="e_fr_energy">   -189.75041455 </i>
    <i name="e_wo_entrp">   -189.51443866 </i>
    <i name="e_0_energy">   -189.63242660 </i>
   </energy>
  </scstep>
  <scstep>
   <time name="dav">   27.85   27.91</time>
   <time name="total">   28.38   28.45</time>
   <energy>
    <i name="e_fr_energy">   -189.75013875 </i>
    <i name="e_wo_entrp">   -189.51398571 </i>
    <i name="e_0_energy">   -189.63206223 </i>
   </energy>
  </scstep>
  <scstep>
   <time name="dav">   19.88   19.92</time>
   <time name="total">   19.92   19.97</time>
   <energy>
    <i name="alphaZ">     82.31606214 </i>
    <i name="ewald">  41287.77473010 </i>
    <i name="hartreedc"> -47259.07057398 </i>
    <i name="XCdc">   -235.26733973 </i>
    <i name="pawpsdc">   4038.30954740 </i>
    <i name="pawaedc">  -3454.00335148 </i>
    <i name="eentropy">     -0.23614995 </i>
    <i name="bandstr">  -1411.01563472 </i>
    <i name="atom">   6761.44252427 </i>
    <i name="e_fr_energy">   -189.75018595 </i>
    <i name="e_wo_entrp">   -189.51403600 </i>
    <i name="e_0_energy">   -189.63211098 </i>
   </energy>
  </scstep>
  <structure>
   <crystal>
    <varray name="basis" >
     <v>       8.66820418       4.99782736       0.00000000 </v>
     <v>      -8.67061958       5.00198400       0.00000000 </v>
     <v>       0.00000000       0.00000000      30.00000000 </v>
    </varray>
    <i name="volume">   2600.77434911 </i>
    <varray name="rec_basis" >
     <v>       0.05769802       0.10001582       0.00000000 </v>
     <v>      -0.05765007       0.09998796       0.00000000 </v>
     <v>       0.00000000       0.00000000       0.03333333 </v>
    </varray>
   </crystal>
   <varray name="positions" >
    <v>       0.66716106       0.33422343       0.00000518 </v>
    <v>       0.99905753       0.33439963      -0.00000706 </v>
    <v>       0.66554466      -0.00039078       0.00007981 </v>
    <v>      -0.00007222       0.66875796      -0.00018895 </v>
    <v>       0.66857690       0.66654982       0.00005359 </v>
    <v>       0.33135508      -0.00184551      -0.00002833 </v>
    <v>      -0.00031903      -0.00397250      -0.00018546 </v>
    <v>       0.33548501       0.33323036       0.00011407 </v>
    <v>       0.33334243       0.66882449       0.00019787 </v>
    <v>       0.10905319       0.22393538       0.95219121 </v>
    <v>       0.22165640       0.11181617       0.04921833 </v>
    <v>       0.10984052       0.55150222       0.95198845 </v>
    <v>       0.21874396       0.44273950       0.04800193 </v>
    <v>       0.11040040       0.88943252       0.95044723 </v>
    <v>       0.22276620       0.77696574       0.04930585 </v>
    <v>       0.44831826       0.22486626       0.95194052 </v>
    <v>       0.56000343       0.11305509       0.04674715 </v>
    <v>       0.44329626       0.55490713       0.95092408 </v>
    <v>       0.55665683       0.44133339       0.04811766 </v>
    <v>       0.44832521       0.88997551       0.95187545 </v>
    <v>       0.55643345       0.78151379       0.04805036 </v>
    <v>       0.77754846       0.22227332       0.95422709 </v>
    <v>       0.88708024       0.11270046       0.04673815 </v>
    <v>       0.77551164       0.55084577       0.95190848 </v>
    <v>       0.88667336       0.43977171       0.04680826 </v>
    <v>       0.77658388       0.89199758       0.95204212 </v>
    <v>       0.88919136       0.77880600       0.04942685 </v>
   </varray>
  </structure>
  <varray name="forces" >
   <v>      -0.19829820       0.07113094       0.01691513 </v>
   <v>      -0.13301419       0.11430706       0.01999547 </v>
   <v>      -0.02771859      -0.19991601       0.10024726 </v>
   <v>      -0.45084159       0.46731257      -0.01326299 </v>
   <v>       0.23656245       0.10607487      -0.06582437 </v>
   <v>      -0.16583229      -0.55287202       0.05075401 </v>
   <v>       0.68604999      -0.28884932      -0.01944056 </v>
   <v>       0.18796329       0.18896629      -0.09005215 </v>
   <v>      -0.20458554       0.10943646       0.00089642 </v>
   <v>      -0.03069995      -0.02116289      -0.23925418 </v>
   <v>      -0.06088156      -0.01407573       0.54900960 </v>
   <v>       0.04674264      -0.06733519      -0.44348149 </v>
   <v>      -0.01505647      -0.04677107       0.36993066 </v>
   <v>      -0.04635992      -0.01024741      -0.90830388 </v>
   <v>       0.03959753      -0.03130779       0.69479035 </v>
   <v>       0.04750590       0.10664343      -0.45407694 </v>
   <v>       0.03817760       0.10858128       0.28056901 </v>
   <v>      -0.05214742      -0.03697130      -0.37637010 </v>
   <v>       0.12629516      -0.01552144       0.62756465 </v>
   <v>       0.05804894       0.09350622      -0.54855808 </v>
   <v>      -0.06380427       0.08178527       0.47439189 </v>
   <v>       0.00020598      -0.01013102      -0.28149568 </v>
   <v>      -0.03096210      -0.00538998       0.16065228 </v>
   <v>       0.09771394      -0.12924491      -0.57083709 </v>
   <v>       0.01655197      -0.09785034       0.35235098 </v>
   <v>      -0.09487125       0.05133283      -0.47560835 </v>
   <v>      -0.00634204       0.02856920       0.78849813 </v>
  </varray>
  <varray name="stress" >
   <v>     -10.22665752       0.01738019       0.01593415 </v>
   <v>       0.01738021      -9.92418531       0.03005421 </v>
   <v>       0.01593409       0.03005410       6.47674399 </v>
  </varray>
  <energy>
   <i name="e_fr_energy">   -189.75018595 </i>
   <i name="e_wo_entrp">   -189.63211098 </i>
   <i name="e_0_energy">     -0.23614995 </i>
  </energy>
  <time name="totalsc">  401.36  402.42</time>
 </calculation>
 <calculation>
  <scstep>
   <time name="dav">   22.83   22.88</time>
   <time name="total">   23.35   23.40</time>
   <energy>
    <i name="alphaZ">     85.84290745 </i>
    <i name="ewald">  42846.26082292 </i>
    <i name="hartreedc"> -48862.48288530 </i>
    <i name="XCdc">   -232.92664733 </i>
    <i name="pawpsdc">   4038.32442203 </i>
    <i name="pawaedc">  -3454.01551794 </i>
    <i name="eentropy">     -0.19691126 </i>
    <i name="bandstr">  -1373.60682335 </i>
    <i name="atom">   6761.44252427 </i>
    <i name="e_fr_energy">   -191.35810850 </i>
    <i name="e_wo_entrp">   -191.16119724 </i>
    <i name="e_0_energy">   -191.25965287 </i>
   </energy>
  </scstep>
  <scstep>
   <time name="dav">   33.21   33.29</time>
   <time name="total">   33.73   33.82</time>
   <energy>
    <i name="e_fr_energy">   -191.17548904 </i>
    <i name="e_wo_entrp">   -190.98083517 </i>
    <i name="e_0_energy">   -191.07816211 </i>
   </energy>
  </scstep>
  <scstep>
   <time name="dav">   31.48   31.56</time>
   <time name="total">   32.00   32.08</time>
   <energy>
    <i name="e_fr_energy">   -191.32486194 </i>
    <i name="e_wo_entrp">   -191.10727305 </i>
    <i name="e_0_energy">   -191.21606749 </i>
   </energy>
  </scstep>
  <scstep>
   <time name="dav">   31.53   31.60</time>
   <time name="total">   32.05   32.13</time>
   <energy>
    <i name="e_fr_energy">   -190.95232407 </i>
    <i name="e_wo_entrp">   -190.74164586 </i>
    <i name="e_0_energy">   -190.84698497 </i>
   </energy>
  </scstep>
  <scstep>
   <time name="dav">   29.45   29.52</time>
   <time name="total">   29.97   30.05</time>
   <energy>
    <i name="e_fr_energy">   -190.93246958 </i>
    <i name="e_wo_entrp">   -190.74447283 </i>
    <i name="e_0_energy">   -190.83847121 </i>
   </energy>
  </scstep>
  <scstep>
   <time name="dav">   29.71   29.78</time>
   <time name="total">   30.23   30.31</time>
   <energy>
    <i name="e_fr_energy">   -190.75759954 </i>
    <i name="e_wo_entrp">   -190.55586622 </i>
    <i name="e_0_energy">   -190.65673288 </i>
   </energy>
  </scstep>
  <scstep>
   <time name="dav">   32.50   32.58</time>
   <time name="total">   33.02   33.11</time>
   <energy>
    <i name="e_fr_energy">   -190.75565516 </i>
    <i name="e_wo_entrp">   -190.55331895 </i>
    <i name="e_0_energy">   -190.65448706 </i>
   </energy>
  </scstep>
  <scstep>
   <time name="dav">   31.18   31.25</time>
   <time name="total">   31.70   31.78</time>
   <energy>
    <i name="e_fr_energy">   -190.75424590 </i>
    <i name="e_wo_entrp">   -190.55197490 </i>
    <i name="e_0_energy">   -190.65311040 </i>
   </energy>
  </scstep>
  <scstep>
   <time name="dav">   29.07   29.14</time>
   <time name="total">   29.59   29.67</time>
   <energy>
    <i name="e_fr_energy">   -190.74923574 </i>
    <i name="e_wo_entrp">   -190.54718272 </i>
    <i name="e_0_energy">   -190.64820923 </i>
   </energy>
  </scstep>
  <scstep>
   <time name="dav">   28.04   28.10</time>
   <time name="total">   28.56   28.63</time>
   <energy>
    <i name="e_fr_energy">   -190.74959529 </i>
    <i name="e_wo_entrp">   -190.54753377 </i>
    <i name="e_0_energy">   -190.64856453 </i>
   </energy>
  </scstep>
  <scstep>
   <time name="dav">   28.59   28.66</time>
   <time name="total">   29.11   29.18</time>
   <energy>
    <i name="e_fr_energy">   -190.74938374 </i>
    <i name="e_wo_entrp">   -190.54722294 </i>
    <i name="e_0_energy">   -190.64830334 </i>
   </energy>
  </scstep>
  <scstep>
   <time name="dav">   19.53   19.57</time>
   <time name="total">   19.56   19.62</time>
   <energy>
    <i name="alphaZ">     85.84290745 </i>
    <i name="ewald">  42846.26082292 </i>
    <i name="hartreedc"> -48834.00551634 </i>
    <i name="XCdc">   -234.27517850 </i>
    <i name="pawpsdc">   4064.41649880 </i>
    <i name="pawaedc">  -3480.30610020 </i>
    <i name="eentropy">     -0.20228079 </i>
    <i name="bandstr">  -1399.92308460 </i>
    <i name="atom">   6761.44252427 </i>
    <i name="e_fr_energy">   -190.74940698 </i>
    <i name="e_wo_entrp">   -190.54712619 </i>
    <i name="e_0_energy">   -190.64826659 </i>
   </energy>
  </scstep>
  <structure>
   <crystal>
    <varray name="basis" >
     <v>       8.48474393       4.89708006       0.00000000 </v>
     <v>      -8.48627472       4.89970730       0.00000000 </v>
     <v>       0.00000000       0.00000000      30.00000000 </v>
    </varray>
    <i name="volume">   2493.92185432 </i>
    <varray name="rec_basis" >
     <v>       0.05893979       0.10208349       0.00000000 </v>
     <v>      -0.05890818       0.10206507       0.00000000 </v>
     <v>       0.00000000       0.00000000       0.03333333 </v>
    </varray>
   </crystal>
   <varray name="positions" >
    <v>       0.66675052       0.33546166       0.00004499 </v>
    <v>       0.99949606       0.33565780       0.00003932 </v>
    <v>       0.66411085      -0.00171501       0.00028737 </v>
    <v>       0.00140364       0.67362233      -0.00019484 </v>
    <v>       0.67004473       0.66632952      -0.00008502 </v>
    <v>       0.32701937      -0.00485636       0.00007692 </v>
    <v>       0.00049974      -0.00830190      -0.00019748 </v>
    <v>       0.33731100       0.33380136      -0.00008888 </v>
    <v>       0.33327281       0.67014891       0.00016977 </v>
    <v>       0.10857998       0.22407961       0.95128592 </v>
    <v>       0.22141160       0.11182520       0.05082648 </v>
    <v>       0.10925647       0.55062484       0.95065054 </v>
    <v>       0.21798579       0.44229716       0.04919929 </v>
    <v>       0.11030791       0.88940357       0.94804768 </v>
    <v>       0.22253973       0.77672588       0.05122901 </v>
    <v>       0.44950933       0.22529463       0.95057547 </v>
    <v>       0.56100056       0.11370569       0.04769849 </v>
    <v>       0.44309000       0.55500704       0.94968587 </v>
    <v>       0.55741128       0.44081010       0.04986211 </v>
    <v>       0.44944987       0.89071509       0.95030904 </v>
    <v>       0.55708056       0.78257776       0.04945886 </v>
    <v>       0.77746296       0.22219554       0.95328623 </v>
    <v>       0.88675170       0.11296375       0.04744245 </v>
    <v>       0.77497973       0.54945239       0.95030218 </v>
    <v>       0.88603538       0.43895999       0.04791223 </v>
    <v>       0.77622149       0.89266436       0.95062910 </v>
    <v>       0.88923140       0.77876355       0.05154681 </v>
   </varray>
  </structure>
  <varray name="forces" >
   <v>      -0.23055539       0.07193815       0.02317840 </v>
   <v>      -0.11467386       0.13568268       0.03106598 </v>
   <v>      -0.01903508      -0.19053986       0.06552850 </v>
   <v>      -0.42525151       0.52780384       0.02363869 </v>
   <v>       0.22629431       0.06215294      -0.04380736 </v>
   <v>      -0.17383711      -0.62875957       0.01488793 </v>
   <v>       0.67944697      -0.25735133       0.02850688 </v>
   <v>       0.13231008       0.23021455      -0.06741504 </v>
   <v>      -0.19416912       0.06877827      -0.04468206 </v>
   <v>       0.04358023      -0.06106565      -0.09811849 </v>
   <v>      -0.01936567      -0.03271242       0.34326674 </v>
   <v>      -0.06479012      -0.00373096      -0.29052909 </v>
   <v>      -0.00613517       0.00780134       0.26016130 </v>
   <v>       0.02871015      -0.00945617      -0.80030658 </v>
   <v>      -0.02957805      -0.04831352       0.52044547 </v>
   <v>       0.10543677       0.00291774      -0.27872947 </v>
   <v>      -0.04945600      -0.03127101       0.18402559 </v>
   <v>      -0.02434417       0.04524576      -0.23312933 </v>
   <v>       0.07218521       0.03042272       0.45454437 </v>
   <v>      -0.03212443       0.04324688      -0.35242606 </v>
   <v>       0.00518421       0.02441648       0.32837037 </v>
   <v>      -0.01595943      -0.01442897      -0.26279232 </v>
   <v>       0.07205197      -0.01736926       0.07597464 </v>
   <v>       0.08294010       0.00522513      -0.40670151 </v>
   <v>      -0.06929120       0.03339020       0.24499148 </v>
   <v>       0.00650333       0.03288512      -0.30472768 </v>
   <v>       0.01392300      -0.02712308       0.58477866 </v>
  </varray>
  <varray name="stress" >
   <v>      -5.66981164      -0.09677583      -0.13915860 </v>
   <v>      -0.09677594      -5.73252971      -0.10271686 </v>
   <v>      -0.13915857      -0.10271690       4.62570426 </v>
  </varray>
  <energy>
   <i name="e_fr_energy">   -190.74940698 </i>
   <i name="e_wo_entrp">   -190.64826659 </i>
   <i name="e_0_energy">     -0.20228079 </i>
  </energy>
  <time name="totalsc">  396.52  397.56</time>
 </calculation>
 <calculation>
  <scstep>
   <time name="dav">   22.82   22.87</time>
   <time name="total">   23.33   23.39</time>
   <energy>
    <i name="alphaZ">     90.09117603 </i>
    <i name="ewald">  44630.80673706 </i>
    <i name="hartreedc"> -50672.61534518 </i>
    <i name="XCdc">   -231.89396967 </i>
    <i name="pawpsdc">   4064.41313182 </i>
    <i name="pawaedc">  -3480.29878788 </i>
    <i name="eentropy">     -0.18679723 </i>
    <i name="bandstr">  -1353.83332946 </i>
    <i name="atom">   6761.44252427 </i>
    <i name="e_fr_energy">   -192.07466024 </i>
    <i name="e_wo_entrp">   -191.88786301 </i>
    <i name="e_0_energy">   -191.98126162 </i>
   </energy>
  </scstep>
  <scstep>
   <time name="dav">   30.18   30.26</time>
   <time name="total">   30.69   30.77</time>
   <energy>
    <i name="e_fr_energy">   -191.85904736 </i>
    <i name="e_wo_entrp">   -191.65880590 </i>
    <i name="e_0_energy">   -191.75892663 </i>
   </energy>
  </scstep>
  <scstep>
   <time name="dav">   31.13   31.21</time>
   <time name="total">   31.64   31.73</time>
   <energy>
    <i name="e_fr_energy">   -192.34357816 </i>
    <i name="e_wo_entrp">   -192.15809478 </i>
    <i name="e_0_energy">   -192.25083647 </i>
   </energy>
  </scstep>
  <scstep>
   <time name="dav">   30.53   30.61</time>
   <time name="total">   31.04   31.12</time>
   <energy>
    <i name="e_fr_energy">   -191.63896933 </i>
    <i name="e_wo_entrp">   -191.44497143 </i>
    <i name="e_0_energy">   -191.54197038 </i>
   </energy>
  </scstep>
  <scstep>
   <time name="dav">   31.21   31.29</time>
   <time name="total">   31.72   31.80</time>
   <energy>
    <i name="e_fr_energy">   -191.59079085 </i>
    <i name="e_wo_entrp">   -191.38849544 </i>
    <i name="e_0_energy">   -191.48964315 </i>
   </energy>
  </scstep>
  <scstep>
   <time name="dav">   32.20   32.27</time>
   <time name="total">   32.70   32.79</time>
   <energy>
    <i name="e_fr_energy">   -191.42367173 </i>
    <i name="e_wo_entrp">   -191.23374215 </i>
    <i name="e_0_energy">   -191.32870694 </i>
   </energy>
  </scstep>
  <scstep>
   <time name="dav">   32.02   32.09</time>
   <time name="total">   32.52   32.61</time>
   <energy>
    <i name="e_fr_energy">   -191.40998314 </i>
    <i name="e_wo_entrp">   -191.20704370 </i>
    <i name="e_0_energy">   -191.30851342 </i>
   </energy>
  </scstep>
  <scstep>
   <time name="dav">   29.86   29.93</time>
   <time name="total">   30.37   30.45</time>
   <energy>
    <i name="e_fr_energy">   -191.39780734 </i>
    <i name="e_wo_entrp">   -191.20367565 </i>
    <i name="e_0_energy">   -191.30074150 </i>
   </energy>
  </scstep>
  <scstep>
   <time name="dav">   30.45   30.52</time>
   <time name="total">   30.95   31.04</time>
   <energy>
    <i name="e_fr_energy">   -191.39214615 </i>
    <i name="e_wo_entrp">   -191.19664200 </i>
    <i name="e_0_energy">   -191.29439408 </i>
   </energy>
  </scstep>
  <scstep>
   <time name="dav">   31.31   31.39</time>
   <time name="total">   31.82   31.91</time>
   <energy>
    <i name="e_fr_energy">   -191.39213325 </i>
    <i name="e_wo_entrp">   -191.19587271 </i>
    <i name="e_0_energy">   -191.29400298 </i>
   </energy>
  </scstep>
  <scstep>
   <time name="dav">   28.82   28.89</time>
   <time name="total">   28.85   28.93</time>
   <energy>
    <i name="alphaZ">     90.09117603 </i>
    <i name="ewald">  44630.80673706 </i>
    <i name="hartreedc"> -50639.52105501 </i>
    <i name="XCdc">   -233.38344301 </i>
    <i name="pawpsdc">   4085.28860283 </i>
    <i name="pawaedc">  -3501.27027156 </i>
    <i name="eentropy">     -0.19634572 </i>
    <i name="bandstr">  -1384.65012195 </i>
    <i name="atom">   6761.44252427 </i>
    <i name="e_fr_energy">   -191.39219705 </i>
    <i name="e_wo_entrp">   -191.19585133 </i>
    <i name="e_0_energy">   -191.29402419 </i>
   </energy>
  </scstep>
  <structure>
   <crystal>
    <varray name="basis" >
     <v>       8.28111904       4.77488403       0.00000000 </v>
     <v>      -8.28782005       4.78646684       0.00000000 </v>
     <v>       0.00000000       0.00000000      30.00000000 </v>
    </varray>
    <i name="volume">   2376.32043851 </i>
    <varray name="rec_basis" >
     <v>       0.06042704       0.10463008       0.00000000 </v>
     <v>      -0.06028081       0.10454548       0.00000000 </v>
     <v>       0.00000000       0.00000000       0.03333333 </v>
    </varray>
   </crystal>
   <varray name="positions" >
    <v>       0.66589079       0.33797309       0.00013763 </v>
    <v>       1.00050357       0.33812911       0.00016053 </v>
    <v>       0.66158139      -0.00406565       0.00056118 </v>
    <v>       0.00486537       0.68316185      -0.00009748 </v>
    <v>       0.67237864       0.66553608      -0.00027004 </v>
    <v>       0.31810318      -0.01124046       0.00015369 </v>
    <v>       0.00223819      -0.01619136      -0.00007939 </v>
    <v>       0.34093123       0.33560216      -0.00038217 </v>
    <v>       0.33279125       0.67228044      -0.00001465 </v>
    <v>       0.10788978       0.22336247       0.95037513 </v>
    <v>       0.22094723       0.11149889       0.05279639 </v>
    <v>       0.10839685       0.55050549       0.94897118 </v>
    <v>       0.21748546       0.44212793       0.05075086 </v>
    <v>       0.11047736       0.88901275       0.94428979 </v>
    <v>       0.22165414       0.77642491       0.05388958 </v>
    <v>       0.45077645       0.22474382       0.94892493 </v>
    <v>       0.56078623       0.11393604       0.04887814 </v>
    <v>       0.44354431       0.55577099       0.94819217 </v>
    <v>       0.55869092       0.44058545       0.05222070 </v>
    <v>       0.45027479       0.89185658       0.94835356 </v>
    <v>       0.55784283       0.78334654       0.05128979 </v>
    <v>       0.77717599       0.22210987       0.95185259 </v>
    <v>       0.88676334       0.11257676       0.04819529 </v>
    <v>       0.77533153       0.54845629       0.94815804 </v>
    <v>       0.88573138       0.43939641       0.04934006 </v>
    <v>       0.77621816       0.89313944       0.94887553 </v>
    <v>       0.88894409       0.77817857       0.05447687 </v>
   </varray>
  </structure>
  <varray name="forces" >
   <v>      -0.15258798       0.11079271      -0.02385733 </v>
   <v>      -0.15223043       0.07329269       0.00895923 </v>
   <v>      -0.02912973      -0.08169695       0.01765949 </v>
   <v>      -0.01409668       0.12332215       0.01575676 </v>
   <v>       0.13657812      -0.08147886       0.01218527 </v>
   <v>       0.00412111      -0.27072505      -0.07142691 </v>
   <v>       0.20679091      -0.09976349      -0.04505668 </v>
   <v>       0.01796681       0.28165938      -0.02132753 </v>
   <v>      -0.14812607      -0.02048719       0.02279348 </v>
   <v>       0.15728355      -0.09955587       0.18785541 </v>
   <v>       0.00975524      -0.04350828       0.01539733 </v>
   <v>      -0.17593234       0.07503415      -0.02166178 </v>
   <v>       0.03828328       0.09858724       0.00121486 </v>
   <v>       0.02504129      -0.00045497      -0.35928388 </v>
   <v>      -0.05013292      -0.07058922       0.17097770 </v>
   <v>       0.08950125      -0.11946770       0.05374543 </v>
   <v>      -0.15675052      -0.21365802      -0.07558542 </v>
   <v>      -0.01843774       0.11335834      -0.03287854 </v>
   <v>      -0.01178132       0.04093994       0.14653934 </v>
   <v>      -0.11060171      -0.03546517      -0.05660638 </v>
   <v>       0.05497263      -0.07818223       0.00812894 </v>
   <v>      -0.03436793      -0.00993460      -0.01192190 </v>
   <v>       0.24839013      -0.01919809      -0.14165645 </v>
   <v>       0.06072121       0.17356746      -0.05936541 </v>
   <v>      -0.14852894       0.18237182       0.00701187 </v>
   <v>       0.13179381       0.04327834       0.01310015 </v>
   <v>       0.02150497      -0.07203855       0.23930296 </v>
  </varray>
  <varray name="stress" >
   <v>      -0.11105994      -0.19052870      -0.13165594 </v>
   <v>      -0.19052860       0.02749509      -0.34436666 </v>
   <v>      -0.13165609      -0.34436651      -0.36945072 </v>
  </varray>
  <energy>
   <i name="e_fr_energy">   -191.39219705 </i>
   <i name="e_wo_entrp">   -191.29402419 </i>
   <i name="e_0_energy">     -0.19634572 </i>
  </energy>
  <time name="totalsc">  379.24  380.24</time>
 </calculation>
 <calculation>
  <scstep>
   <time name="dav">   22.80   22.86</time>
   <time name="total">   23.31   23.37</time>
   <energy>
    <i name="alphaZ">     90.14208573 </i>
    <i name="ewald">  44630.56109362 </i>
    <i name="hartreedc"> -50640.86729533 </i>
    <i name="XCdc">   -233.44285629 </i>
    <i name="pawpsdc">   4085.63093292 </i>
    <i name="pawaedc">  -3501.60991295 </i>
    <i name="eentropy">     -0.19932583 </i>
    <i name="bandstr">  -1383.08861634 </i>
    <i name="atom">   6761.44252427 </i>
    <i name="e_fr_energy">   -191.43137021 </i>
    <i name="e_wo_entrp">   -191.23204437 </i>
    <i name="e_0_energy">   -191.33170729 </i>
   </energy>
  </scstep>
  <scstep>
   <time name="dav">   33.10   33.18</time>
   <time name="total">   33.60   33.69</time>
   <energy>
    <i name="e_fr_energy">   -191.47186281 </i>
    <i name="e_wo_entrp">   -191.26321135 </i>
    <i name="e_0_energy">   -191.36753708 </i>
   </energy>
  </scstep>
  <scstep>
   <time name="dav">   32.04   32.12</time>
   <time name="total">   32.55   32.63</time>
   <energy>
    <i name="e_fr_energy">   -191.44307192 </i>
    <i name="e_wo_entrp">   -191.24387105 </i>
    <i name="e_0_energy">   -191.34347149 </i>
   </energy>
  </scstep>
  <scstep>
   <time name="dav">   29.02   29.09</time>
   <time name="total">   29.53   29.61</time>
   <energy>
    <i name="e_fr_energy">   -191.44299700 </i>
    <i name="e_wo_entrp">   -191.24261000 </i>
    <i name="e_0_energy">   -191.34280350 </i>
   </energy>
  </scstep>
  <scstep>
   <time name="dav">   28.94   29.01</time>
   <time name="total">   29.45   29.53</time>
   <energy>
    <i name="e_fr_energy">   -191.44106650 </i>
    <i name="e_wo_entrp">   -191.24009370 </i>
    <i name="e_0_energy">   -191.34058010 </i>
   </energy>
  </scstep>
  <scstep>
   <time name="dav">   29.98   30.05</time>
   <time name="total">   30.49   30.57</time>
   <energy>
    <i name="e_fr_energy">   -191.44102195 </i>
    <i name="e_wo_entrp">   -191.23990595 </i>
    <i name="e_0_energy">   -191.34046395 </i>
   </energy>
  </scstep>
  <scstep>
   <time name="dav">   27.65   27.71</time>
   <time name="total">   28.15   28.23</time>
   <energy>
    <i name="e_fr_energy">   -191.44139372 </i>
    <i name="e_wo_entrp">   -191.24153739 </i>
    <i name="e_0_energy">   -191.34146555 </i>
   </energy>
  </scstep>
  <scstep>
   <time name="dav">   24.57   24.63</time>
   <time name="total">   25.08   25.14</time>
   <energy>
    <i name="e_fr_energy">   -191.44069372 </i>
    <i name="e_wo_entrp">   -191.23988747 </i>
    <i name="e_0_energy">   -191.34029059 </i>
   </energy>
  </scstep>
  <scstep>
   <time name="dav">   17.63   17.67</time>
   <time name="total">   17.66   17.72</time>
   <energy>
    <i name="alphaZ">     90.14208573 </i>
    <i name="ewald">  44630.56109362 </i>
    <i name="hartreedc"> -50641.53316493 </i>
    <i name="XCdc">   -233.44304120 </i>
    <i name="pawpsdc">   4082.39464376 </i>
    <i name="pawaedc">  -3498.32406474 </i>
    <i name="eentropy">     -0.20076127 </i>
    <i name="bandstr">  -1382.48005105 </i>
    <i name="atom">   6761.44252427 </i>
    <i name="e_fr_energy">   -191.44073581 </i>
    <i name="e_wo_entrp">   -191.23997453 </i>
    <i name="e_0_energy">   -191.34035517 </i>
   </energy>
  </scstep>
  <structure>
   <crystal>
    <varray name="basis" >
     <v>       8.27475690       4.77010817       0.00000000 </v>
     <v>      -8.28643603       4.79032189       0.00000000 </v>
     <v>       0.00000000       0.00000000      30.00000000 </v>
    </varray>
    <i name="volume">   2374.97836003 </i>
    <varray name="rec_basis" >
     <v>       0.06050988       0.10467172       0.00000000 </v>
     <v>      -0.06025455       0.10452420       0.00000000 </v>
     <v>       0.00000000       0.00000000       0.03333333 </v>
    </varray>
   </crystal>
   <varray name="positions" >
    <v>       0.66599605       0.33902731       0.00009962 </v>
    <v>       1.00044195       0.33898872       0.00017671 </v>
    <v>       0.66104211      -0.00443000       0.00059364 </v>
    <v>       0.00550151       0.68395680      -0.00007040 </v>
    <v>       0.67239381       0.66470185      -0.00025241 </v>
    <v>       0.31661081      -0.01272434       0.00003755 </v>
    <v>       0.00236166      -0.01741551      -0.00015185 </v>
    <v>       0.34247929       0.33702024      -0.00042099 </v>
    <v>       0.33223945       0.67264025       0.00002044 </v>
    <v>       0.10783426       0.22237711       0.95066791 </v>
    <v>       0.22074699       0.11124142       0.05285092 </v>
    <v>       0.10824640       0.55140804       0.94891061 </v>
    <v>       0.21809651       0.44251715       0.05077624 </v>
    <v>       0.11055230       0.88893066       0.94364911 </v>
    <v>       0.22112969       0.77620730       0.05420784 </v>
    <v>       0.45044694       0.22385771       0.94898833 </v>
    <v>       0.55922078       0.11330649       0.04877232 </v>
    <v>       0.44407966       0.55641898       0.94811511 </v>
    <v>       0.55888587       0.44082767       0.05249480 </v>
    <v>       0.44977752       0.89201957       0.94823199 </v>
    <v>       0.55761656       0.78279461       0.05133002 </v>
    <v>       0.77701903       0.22215950       0.95181216 </v>
    <v>       0.88740125       0.11173868       0.04797581 </v>
    <v>       0.77640824       0.54915330       0.94802985 </v>
    <v>       0.88622340       0.44077759       0.04937291 </v>
    <v>       0.77682946       0.89297789       0.94887095 </v>
    <v>       0.88863296       0.77773542       0.05491070 </v>
   </varray>
  </structure>
  <varray name="forces" >
   <v>      -0.13991135       0.13111884      -0.02504150 </v>
   <v>      -0.18687504       0.04602406       0.00373606 </v>
   <v>      -0.04060954      -0.06791050       0.04106904 </v>
   <v>      -0.05087129       0.14571903       0.00921122 </v>
   <v>       0.15573246      -0.08292007       0.03601454 </v>
   <v>       0.04386370      -0.27797622      -0.01842713 </v>
   <v>       0.24991582      -0.17236061       0.00694850 </v>
   <v>       0.01917319       0.31740035      -0.01801151 </v>
   <v>      -0.17588985      -0.01091403       0.03267735 </v>
   <v>       0.10473746      -0.03945673       0.19574973 </v>
   <v>       0.00850658      -0.00895870      -0.08114175 </v>
   <v>      -0.08916033       0.04650724      -0.02817275 </v>
   <v>       0.02566627       0.07065902      -0.02082382 </v>
   <v>       0.02077068      -0.02738935      -0.20292074 </v>
   <v>      -0.02337107      -0.03528246       0.10672109 </v>
   <v>       0.05574653      -0.06658934       0.07570011 </v>
   <v>      -0.10841610      -0.13447189      -0.11514430 </v>
   <v>      -0.02920633       0.07906417      -0.01528407 </v>
   <v>       0.00356874       0.03234046       0.12440866 </v>
   <v>      -0.05137393      -0.03485081      -0.04058955 </v>
   <v>       0.03273216      -0.05747205      -0.03713201 </v>
   <v>      -0.02367119      -0.00220832       0.03311447 </v>
   <v>       0.14888135      -0.00560154      -0.15297039 </v>
   <v>       0.04221392       0.09623678      -0.04136787 </v>
   <v>      -0.08745293       0.10050362       0.01852244 </v>
   <v>       0.08354183      -0.00383915       0.02258396 </v>
   <v>       0.01175825      -0.03737179       0.09057023 </v>
  </varray>
  <varray name="stress" >
   <v>      -0.11265399       0.02333561      -0.10810494 </v>
   <v>       0.02333579      -0.05790967      -0.12815449 </v>
   <v>      -0.10810479      -0.12815422      -1.24307545 </v>
  </varray>
  <energy>
   <i name="e_fr_energy">   -191.44073581 </i>
   <i name="e_wo_entrp">   -191.34035517 </i>
   <i name="e_0_energy">     -0.20076127 </i>
  </energy>
  <time name="totalsc">  293.46  294.23</time>
 </calculation>
 <calculation>
  <scstep>
   <time name="dav">   22.81   22.87</time>
   <time name="total">   23.32   23.37</time>
   <energy>
    <i name="alphaZ">     90.24126217 </i>
    <i name="ewald">  44674.60424711 </i>
    <i name="hartreedc"> -50686.67791481 </i>
    <i name="XCdc">   -233.38093797 </i>
    <i name="pawpsdc">   4082.37908503 </i>
    <i name="pawaedc">  -3498.30823152 </i>
    <i name="eentropy">     -0.20352845 </i>
    <i name="bandstr">  -1381.58055763 </i>
    <i name="atom">   6761.44252427 </i>
    <i name="e_fr_energy">   -191.48405179 </i>
    <i name="e_wo_entrp">   -191.28052334 </i>
    <i name="e_0_energy">   -191.38228756 </i>
   </energy>
  </scstep>
  <scstep>
   <time name="dav">   34.19   34.28</time>
   <time name="total">   34.70   34.79</time>
   <energy>
    <i name="e_fr_energy">   -191.53631358 </i>
    <i name="e_wo_entrp">   -191.31890875 </i>
    <i name="e_0_energy">   -191.42761117 </i>
   </energy>
  </scstep>
  <scstep>
   <time name="dav">   32.13   32.21</time>
   <time name="total">   32.63   32.72</time>
   <energy>
    <i name="e_fr_energy">   -191.49416133 </i>
    <i name="e_wo_entrp">   -191.29059881 </i>
    <i name="e_0_energy">   -191.39238007 </i>
   </energy>
  </scstep>
  <scstep>
   <time name="dav">   28.92   28.99</time>
   <time name="total">   29.42   29.50</time>
   <energy>
    <i name="e_fr_energy">   -191.49329818 </i>
    <i name="e_wo_entrp">   -191.28834944 </i>
    <i name="e_0_energy">   -191.39082381 </i>
   </energy>
  </scstep>
  <scstep>
   <time name="dav">   29.47   29.54</time>
   <time name="total">   29.97   30.05</time>
   <energy>
    <i name="e_fr_energy">   -191.49130287 </i>
    <i name="e_wo_entrp">   -191.28547103 </i>
    <i name="e_0_energy">   -191.38838695 </i>
   </energy>
  </scstep>
  <scstep>
   <time name="dav">   29.80   29.87</time>
   <time name="total">   30.31   30.39</time>
   <energy>
    <i name="e_fr_energy">   -191.49089165 </i>
    <i name="e_wo_entrp">   -191.28464681 </i>
    <i name="e_0_energy">   -191.38776923 </i>
   </energy>
  </scstep>
  <scstep>
   <time name="dav">   29.53   29.60</time>
   <time name="total">   30.03   30.11</time>
   <energy>
    <i name="e_fr_energy">   -191.49137423 </i>
    <i name="e_wo_entrp">   -191.28698423 </i>
    <i name="e_0_energy">   -191.38917923 </i>
   </energy>
  </scstep>
  <scstep>
   <time name="dav">   25.81   25.87</time>
   <time name="total">   26.31   26.39</time>
   <energy>
    <i name="e_fr_energy">   -191.49036888 </i>
    <i name="e_wo_entrp">   -191.28456013 </i>
    <i name="e_0_energy">   -191.38746451 </i>
   </energy>
  </scstep>
  <scstep>
   <time name="dav">   17.44   17.48</time>
   <time name="total">   17.47   17.52</time>
   <energy>
    <i name="alphaZ">     90.24126217 </i>
    <i name="ewald">  44674.60424711 </i>
    <i name="hartreedc"> -50686.62998414 </i>
    <i name="XCdc">   -233.38950833 </i>
    <i name="pawpsdc">   4084.79482340 </i>
    <i name="pawaedc">  -3500.75821835 </i>
    <i name="eentropy">     -0.20569266 </i>
    <i name="bandstr">  -1381.58985401 </i>
    <i name="atom">   6761.44252427 </i>
    <i name="e_fr_energy">   -191.49040054 </i>
    <i name="e_wo_entrp">   -191.28470788 </i>
    <i name="e_0_energy">   -191.38755421 </i>
   </energy>
  </scstep>
  <structure>
   <crystal>
    <varray name="basis" >
     <v>       8.26966301       4.76846598       0.00000000 </v>
     <v>      -8.28075769       4.78767145       0.00000000 </v>
     <v>       0.00000000       0.00000000      30.00000000 </v>
    </varray>
    <i name="volume">   2372.36822480 </i>
    <varray name="rec_basis" >
     <v>       0.06054294       0.10471508       0.00000000 </v>
     <v>      -0.06030007       0.10457478       0.00000000 </v>
     <v>       0.00000000       0.00000000       0.03333333 </v>
    </varray>
   </crystal>
   <varray name="positions" >
    <v>       0.66632522       0.34054178       0.00004579 </v>
    <v>       1.00003694       0.34010214       0.00018734 </v>
    <v>       0.66035961      -0.00478557       0.00068854 </v>
    <v>       0.00637204       0.68533600      -0.00004792 </v>
    <v>       0.67248262       0.66348976      -0.00017707 </v>
    <v>       0.31469306      -0.01493942      -0.00000426 </v>
    <v>       0.00220624      -0.01973890      -0.00013678 </v>
[...]
      <set comment="kpoint 31">
       <r>  -17.4729    1.0000 </r>
       <r>  -17.2815    1.0000 </r>
       <r>  -16.8860    1.0000 </r>
       <r>  -16.5512    1.0000 </r>
       <r>  -16.4647    1.0000 </r>
       <r>  -16.3997    1.0000 </r>
       <r>  -16.2756    1.0000 </r>
       <r>  -16.1839    1.0000 </r>
       <r>  -16.0914    1.0000 </r>
       <r>  -15.9640    1.0000 </r>
       <r>  -15.9403    1.0000 </r>
       <r>  -15.8620    1.0000 </r>
       <r>  -15.7904    1.0000 </r>
       <r>  -15.6920    1.0000 </r>
       <r>  -15.6316    1.0000 </r>
       <r>  -15.5370    1.0000 </r>
       <r>  -15.5076    1.0000 </r>
       <r>  -15.4220    1.0000 </r>
       <r>   -9.7079    1.0000 </r>
       <r>   -9.3726    1.0000 </r>
       <r>   -9.3093    1.0000 </r>
       <r>   -8.9778    1.0000 </r>
       <r>   -8.7608    1.0000 </r>
       <r>   -8.6830    1.0000 </r>
       <r>   -8.5884    1.0000 </r>
       <r>   -8.5144    1.0000 </r>
       <r>   -8.4324    1.0000 </r>
       <r>   -8.3616    1.0000 </r>
       <r>   -8.2662    1.0000 </r>
       <r>   -8.1736    1.0000 </r>
       <r>   -8.1123    1.0000 </r>
       <r>   -8.0709    1.0000 </r>
       <r>   -8.0057    1.0000 </r>
       <r>   -7.8634    1.0000 </r>
       <r>   -7.7720    1.0000 </r>
       <r>   -7.6577    1.0000 </r>
       <r>   -7.5897    1.0000 </r>
       <r>   -7.4414    1.0000 </r>
       <r>   -7.2871    1.0000 </r>
       <r>   -7.1867    1.0000 </r>
       <r>   -7.1340    1.0000 </r>
       <r>   -7.0646    1.0000 </r>
       <r>   -7.0101    1.0000 </r>
       <r>   -6.9467    1.0000 </r>
       <r>   -6.8793    1.0000 </r>
       <r>   -6.8137    1.0000 </r>
       <r>   -6.6955    1.0000 </r>
       <r>   -6.6245    1.0000 </r>
       <r>   -6.5847    1.0000 </r>
       <r>   -6.5200    1.0000 </r>
       <r>   -6.4037    1.0000 </r>
       <r>   -6.3547    1.0000 </r>
       <r>   -6.2188    1.0000 </r>
       <r>   -6.2038    1.0000 </r>
       <r>   -6.1362    1.0000 </r>
       <r>   -6.0995    1.0000 </r>
       <r>   -6.0239    1.0000 </r>
       <r>   -5.9085    1.0000 </r>
       <r>   -5.8777    1.0000 </r>
       <r>   -5.7588    1.0000 </r>
       <r>   -5.7370    1.0000 </r>
       <r>   -5.6550    1.0000 </r>
       <r>   -5.5157    1.0000 </r>
       <r>   -5.4469    1.0000 </r>
       <r>   -5.2638    1.0000 </r>
       <r>   -5.1371    1.0000 </r>
       <r>   -5.0536    1.0000 </r>
       <r>   -4.8918    1.0000 </r>
       <r>   -4.7968    1.0000 </r>
       <r>   -4.6918    1.0000 </r>
       <r>   -4.6285    1.0000 </r>
       <r>   -4.5159    1.0000 </r>
       <r>   -4.4393    1.0000 </r>
       <r>   -4.3600    1.0000 </r>
       <r>   -4.2157    1.0000 </r>
       <r>   -4.0299    1.0000 </r>
       <r>   -3.8536    0.9995 </r>
       <r>   -3.7051    0.9874 </r>
       <r>   -3.6244    0.9521 </r>
       <r>   -3.3505    0.3933 </r>
       <r>   -3.0001    0.0030 </r>
       <r>   -2.8006    0.0000 </r>
       <r>   -2.6926    0.0000 </r>
       <r>   -2.6088    0.0000 </r>
       <r>   -2.4318    0.0000 </r>
       <r>   -2.4140    0.0000 </r>
       <r>   -2.2796    0.0000 </r>
       <r>   -2.1746    0.0000 </r>
       <r>   -2.1078    0.0000 </r>
       <r>   -2.0242    0.0000 </r>
       <r>   -1.8688    0.0000 </r>
       <r>   -1.7132    0.0000 </r>
       <r>   -1.5230    0.0000 </r>
       <r>   -1.3698    0.0000 </r>
       <r>   -1.2391    0.0000 </r>
       <r>   -1.1590    0.0000 </r>
       <r>   -1.0786    0.0000 </r>
       <r>   -1.0307    0.0000 </r>
       <r>   -0.9385    0.0000 </r>
       <r>   -0.8439    0.0000 </r>
       <r>   -0.7764    0.0000 </r>
       <r>   -0.6938    0.0000 </r>
       <r>   -0.6342    0.0000 </r>
       <r>   -0.6011    0.0000 </r>
       <r>   -0.4679    0.0000 </r>
       <r>   -0.3964    0.0000 </r>
       <r>   -0.3348    0.0000 </r>
       <r>   -0.2725    0.0000 </r>
       <r>   -0.0730    0.0000 </r>
       <r>    0.1666    0.0000 </r>
       <r>    0.3210    0.0000 </r>
       <r>    0.5056    0.0000 </r>
       <r>    0.7060    0.0000 </r>
       <r>    0.8306    0.0000 </r>
       <r>    0.9361    0.0000 </r>
       <r>    1.0735    0.0000 </r>
       <r>    1.3844    0.0000 </r>
       <r>    2.1081    0.0000 </r>
       <r>    2.2681    0.0000 </r>
       <r>    2.3636    0.0000 </r>
      </set>
      <set comment="kpoint 32">
       <r>  -17.5073    1.0000 </r>
       <r>  -17.1667    1.0000 </r>
       <r>  -17.0163    1.0000 </r>
       <r>  -16.5371    1.0000 </r>
       <r>  -16.4445    1.0000 </r>
       <r>  -16.3295    1.0000 </r>
       <r>  -16.2800    1.0000 </r>
       <r>  -16.1553    1.0000 </r>
       <r>  -16.1382    1.0000 </r>
       <r>  -15.9906    1.0000 </r>
       <r>  -15.9422    1.0000 </r>
       <r>  -15.8673    1.0000 </r>
       <r>  -15.7827    1.0000 </r>
       <r>  -15.6927    1.0000 </r>
       <r>  -15.6705    1.0000 </r>
       <r>  -15.5301    1.0000 </r>
       <r>  -15.5129    1.0000 </r>
       <r>  -15.3902    1.0000 </r>
       <r>   -9.6282    1.0000 </r>
       <r>   -9.5203    1.0000 </r>
       <r>   -9.3367    1.0000 </r>
       <r>   -8.9772    1.0000 </r>
       <r>   -8.7002    1.0000 </r>
       <r>   -8.5514    1.0000 </r>
       <r>   -8.5196    1.0000 </r>
       <r>   -8.4704    1.0000 </r>
       <r>   -8.4239    1.0000 </r>
       <r>   -8.3504    1.0000 </r>
       <r>   -8.3267    1.0000 </r>
       <r>   -8.2204    1.0000 </r>
       <r>   -8.1571    1.0000 </r>
       <r>   -8.1035    1.0000 </r>
       <r>   -8.0216    1.0000 </r>
       <r>   -7.9361    1.0000 </r>
       <r>   -7.8125    1.0000 </r>
       <r>   -7.5990    1.0000 </r>
       <r>   -7.5315    1.0000 </r>
       <r>   -7.4365    1.0000 </r>
       <r>   -7.2902    1.0000 </r>
       <r>   -7.2206    1.0000 </r>
       <r>   -7.1474    1.0000 </r>
       <r>   -7.1137    1.0000 </r>
       <r>   -7.0369    1.0000 </r>
       <r>   -6.9781    1.0000 </r>
       <r>   -6.8899    1.0000 </r>
       <r>   -6.7756    1.0000 </r>
       <r>   -6.6755    1.0000 </r>
       <r>   -6.6231    1.0000 </r>
       <r>   -6.5484    1.0000 </r>
       <r>   -6.4512    1.0000 </r>
       <r>   -6.4207    1.0000 </r>
       <r>   -6.3329    1.0000 </r>
       <r>   -6.2520    1.0000 </r>
       <r>   -6.2411    1.0000 </r>
       <r>   -6.1519    1.0000 </r>
       <r>   -6.1088    1.0000 </r>
       <r>   -6.0043    1.0000 </r>
       <r>   -5.9238    1.0000 </r>
       <r>   -5.8867    1.0000 </r>
       <r>   -5.7574    1.0000 </r>
       <r>   -5.7004    1.0000 </r>
       <r>   -5.5521    1.0000 </r>
       <r>   -5.4799    1.0000 </r>
       <r>   -5.3907    1.0000 </r>
       <r>   -5.2670    1.0000 </r>
       <r>   -5.2218    1.0000 </r>
       <r>   -5.1406    1.0000 </r>
       <r>   -4.9304    1.0000 </r>
       <r>   -4.7834    1.0000 </r>
       <r>   -4.6504    1.0000 </r>
       <r>   -4.6251    1.0000 </r>
       <r>   -4.5140    1.0000 </r>
       <r>   -4.4796    1.0000 </r>
       <r>   -4.3166    1.0000 </r>
       <r>   -4.2369    1.0000 </r>
       <r>   -4.0472    1.0000 </r>
       <r>   -3.8652    0.9996 </r>
       <r>   -3.6924    0.9841 </r>
       <r>   -3.5993    0.9317 </r>
       <r>   -3.4097    0.5589 </r>
       <r>   -3.0256    0.0051 </r>
       <r>   -2.7848    0.0000 </r>
       <r>   -2.6988    0.0000 </r>
       <r>   -2.5692    0.0000 </r>
       <r>   -2.4019    0.0000 </r>
       <r>   -2.3954    0.0000 </r>
       <r>   -2.2879    0.0000 </r>
       <r>   -2.2005    0.0000 </r>
       <r>   -2.0945    0.0000 </r>
       <r>   -2.0069    0.0000 </r>
       <r>   -1.8353    0.0000 </r>
       <r>   -1.7313    0.0000 </r>
       <r>   -1.5092    0.0000 </r>
       <r>   -1.3743    0.0000 </r>
       <r>   -1.2585    0.0000 </r>
       <r>   -1.1659    0.0000 </r>
       <r>   -1.0920    0.0000 </r>
       <r>   -1.0350    0.0000 </r>
       <r>   -0.9529    0.0000 </r>
       <r>   -0.8894    0.0000 </r>
       <r>   -0.7364    0.0000 </r>
       <r>   -0.7051    0.0000 </r>
       <r>   -0.6638    0.0000 </r>
       <r>   -0.5951    0.0000 </r>
       <r>   -0.4636    0.0000 </r>
       <r>   -0.3846    0.0000 </r>
       <r>   -0.3320    0.0000 </r>
       <r>   -0.1978    0.0000 </r>
       <r>   -0.0235    0.0000 </r>
       <r>    0.0789    0.0000 </r>
       <r>    0.3639    0.0000 </r>
       <r>    0.5624    0.0000 </r>
       <r>    0.7040    0.0000 </r>
       <r>    0.7795    0.0000 </r>
       <r>    0.9339    0.0000 </r>
       <r>    1.1090    0.0000 </r>
       <r>    1.2820    0.0000 </r>
       <r>    2.0743    0.0000 </r>
       <r>    2.2373    0.0000 </r>
       <r>    2.5240    0.0000 </r>
      </set>
      <set comment="kpoint 33">
       <r>  -17.5087    1.0000 </r>
       <r>  -17.2148    1.0000 </r>
       <r>  -16.9148    1.0000 </r>
       <r>  -16.5448    1.0000 </r>
       <r>  -16.5193    1.0000 </r>
       <r>  -16.3705    1.0000 </r>
       <r>  -16.2140    1.0000 </r>
       <r>  -16.1925    1.0000 </r>
       <r>  -16.0907    1.0000 </r>
       <r>  -16.0292    1.0000 </r>
       <r>  -15.9213    1.0000 </r>
       <r>  -15.8540    1.0000 </r>
       <r>  -15.7730    1.0000 </r>
       <r>  -15.7075    1.0000 </r>
       <r>  -15.6409    1.0000 </r>
       <r>  -15.5404    1.0000 </r>
       <r>  -15.5031    1.0000 </r>
       <r>  -15.4152    1.0000 </r>
       <r>   -9.6796    1.0000 </r>
       <r>   -9.4517    1.0000 </r>
       <r>   -9.2435    1.0000 </r>
       <r>   -9.0014    1.0000 </r>
       <r>   -8.7941    1.0000 </r>
       <r>   -8.7493    1.0000 </r>
       <r>   -8.5130    1.0000 </r>
       <r>   -8.4424    1.0000 </r>
       <r>   -8.4006    1.0000 </r>
       <r>   -8.3557    1.0000 </r>
       <r>   -8.2629    1.0000 </r>
       <r>   -8.1784    1.0000 </r>
       <r>   -8.1527    1.0000 </r>
       <r>   -8.0780    1.0000 </r>
       <r>   -7.9757    1.0000 </r>
       <r>   -7.9078    1.0000 </r>
       <r>   -7.7465    1.0000 </r>
       <r>   -7.6794    1.0000 </r>
       <r>   -7.5945    1.0000 </r>
       <r>   -7.4600    1.0000 </r>
       <r>   -7.2627    1.0000 </r>
       <r>   -7.2239    1.0000 </r>
       <r>   -7.1223    1.0000 </r>
       <r>   -7.0826    1.0000 </r>
       <r>   -7.0431    1.0000 </r>
       <r>   -6.9872    1.0000 </r>
       <r>   -6.8337    1.0000 </r>
       <r>   -6.7332    1.0000 </r>
       <r>   -6.6718    1.0000 </r>
       <r>   -6.6063    1.0000 </r>
       <r>   -6.5669    1.0000 </r>
       <r>   -6.4717    1.0000 </r>
       <r>   -6.4019    1.0000 </r>
       <r>   -6.3605    1.0000 </r>
       <r>   -6.3162    1.0000 </r>
       <r>   -6.2167    1.0000 </r>
       <r>   -6.1661    1.0000 </r>
       <r>   -6.0820    1.0000 </r>
       <r>   -6.0216    1.0000 </r>
       <r>   -5.9534    1.0000 </r>
       <r>   -5.8794    1.0000 </r>
       <r>   -5.8027    1.0000 </r>
       <r>   -5.7290    1.0000 </r>
       <r>   -5.6652    1.0000 </r>
       <r>   -5.5361    1.0000 </r>
       <r>   -5.4605    1.0000 </r>
       <r>   -5.2397    1.0000 </r>
       <r>   -5.0987    1.0000 </r>
       <r>   -4.9915    1.0000 </r>
       <r>   -4.9056    1.0000 </r>
       <r>   -4.7460    1.0000 </r>
       <r>   -4.6958    1.0000 </r>
       <r>   -4.5905    1.0000 </r>
       <r>   -4.5103    1.0000 </r>
       <r>   -4.4558    1.0000 </r>
       <r>   -4.3070    1.0000 </r>
       <r>   -4.2473    1.0000 </r>
       <r>   -4.0865    1.0000 </r>
       <r>   -3.8681    0.9996 </r>
       <r>   -3.6991    0.9859 </r>
       <r>   -3.6066    0.9382 </r>
       <r>   -3.4800    0.7405 </r>
       <r>   -3.1047    0.0223 </r>
       <r>   -2.7443    0.0000 </r>
       <r>   -2.6925    0.0000 </r>
       <r>   -2.5312    0.0000 </r>
       <r>   -2.3989    0.0000 </r>
       <r>   -2.3776    0.0000 </r>
       <r>   -2.3053    0.0000 </r>
       <r>   -2.2084    0.0000 </r>
       <r>   -2.0378    0.0000 </r>
       <r>   -1.9863    0.0000 </r>
       <r>   -1.7984    0.0000 </r>
       <r>   -1.7595    0.0000 </r>
       <r>   -1.4771    0.0000 </r>
       <r>   -1.3737    0.0000 </r>
       <r>   -1.2407    0.0000 </r>
       <r>   -1.1752    0.0000 </r>
       <r>   -1.1202    0.0000 </r>
       <r>   -1.0510    0.0000 </r>
       <r>   -0.9822    0.0000 </r>
       <r>   -0.9128    0.0000 </r>
       <r>   -0.7648    0.0000 </r>
       <r>   -0.7336    0.0000 </r>
       <r>   -0.6633    0.0000 </r>
       <r>   -0.5727    0.0000 </r>
       <r>   -0.4898    0.0000 </r>
       <r>   -0.4320    0.0000 </r>
       <r>   -0.2973    0.0000 </r>
       <r>   -0.0877    0.0000 </r>
       <r>   -0.0507    0.0000 </r>
       <r>    0.0837    0.0000 </r>
       <r>    0.3757    0.0000 </r>
       <r>    0.5317    0.0000 </r>
       <r>    0.7199    0.0000 </r>
       <r>    0.8240    0.0000 </r>
       <r>    0.9615    0.0000 </r>
       <r>    1.1117    0.0000 </r>
       <r>    1.2317    0.0000 </r>
       <r>    2.1016    0.0000 </r>
       <r>    2.2721    0.0000 </r>
       <r>    2.3522    0.0000 </r>
      </set>
      <set comment="kpoint 34">
       <r>  -17.5011    1.0000 </r>
       <r>  -17.2600    1.0000 </r>
       <r>  -16.7708    1.0000 </r>
       <r>  -16.6647    1.0000 </r>
       <r>  -16.5274    1.0000 </r>
       <r>  -16.3864    1.0000 </r>
       <r>  -16.2097    1.0000 </r>
       <r>  -16.1873    1.0000 </r>
       <r>  -16.0680    1.0000 </r>
       <r>  -16.0446    1.0000 </r>
       <r>  -15.9136    1.0000 </r>
       <r>  -15.8333    1.0000 </r>
       <r>  -15.7841    1.0000 </r>
       <r>  -15.7089    1.0000 </r>
       <r>  -15.5910    1.0000 </r>
       <r>  -15.5576    1.0000 </r>
       <r>  -15.4936    1.0000 </r>
       <r>  -15.4535    1.0000 </r>
       <r>   -9.7169    1.0000 </r>
       <r>   -9.3721    1.0000 </r>
       <r>   -9.0844    1.0000 </r>
       <r>   -9.0556    1.0000 </r>
       <r>   -8.9466    1.0000 </r>
       <r>   -8.8550    1.0000 </r>
       <r>   -8.5325    1.0000 </r>
       <r>   -8.4447    1.0000 </r>
       <r>   -8.3907    1.0000 </r>
       <r>   -8.3604    1.0000 </r>
       <r>   -8.1984    1.0000 </r>
       <r>   -8.1717    1.0000 </r>
       <r>   -8.1185    1.0000 </r>
       <r>   -8.0581    1.0000 </r>
       <r>   -7.9591    1.0000 </r>
       <r>   -7.9080    1.0000 </r>
       <r>   -7.7540    1.0000 </r>
       <r>   -7.6823    1.0000 </r>
       <r>   -7.5637    1.0000 </r>
       <r>   -7.4415    1.0000 </r>
       <r>   -7.3442    1.0000 </r>
       <r>   -7.2295    1.0000 </r>
       <r>   -7.0996    1.0000 </r>
       <r>   -7.0737    1.0000 </r>
       <r>   -7.0249    1.0000 </r>
       <r>   -6.9205    1.0000 </r>
       <r>   -6.8207    1.0000 </r>
       <r>   -6.7442    1.0000 </r>
       <r>   -6.6832    1.0000 </r>
       <r>   -6.5836    1.0000 </r>
       <r>   -6.5382    1.0000 </r>
       <r>   -6.4893    1.0000 </r>
       <r>   -6.4276    1.0000 </r>
       <r>   -6.3716    1.0000 </r>
       <r>   -6.3459    1.0000 </r>
       <r>   -6.2015    1.0000 </r>
       <r>   -6.1598    1.0000 </r>
       <r>   -6.0921    1.0000 </r>
       <r>   -6.0217    1.0000 </r>
       <r>   -5.9642    1.0000 </r>
       <r>   -5.9376    1.0000 </r>
       <r>   -5.8175    1.0000 </r>
       <r>   -5.7740    1.0000 </r>
       <r>   -5.6721    1.0000 </r>
       <r>   -5.5708    1.0000 </r>
       <r>   -5.4766    1.0000 </r>
       <r>   -5.3151    1.0000 </r>
       <r>   -4.9705    1.0000 </r>
       <r>   -4.8686    1.0000 </r>
       <r>   -4.8560    1.0000 </r>
       <r>   -4.7746    1.0000 </r>
       <r>   -4.6607    1.0000 </r>
       <r>   -4.6139    1.0000 </r>
       <r>   -4.5756    1.0000 </r>
       <r>   -4.4309    1.0000 </r>
       <r>   -4.2816    1.0000 </r>
       <r>   -4.2319    1.0000 </r>
       <r>   -4.1070    1.0000 </r>
       <r>   -3.8645    0.9996 </r>
       <r>   -3.7288    0.9919 </r>
       <r>   -3.6016    0.9338 </r>
       <r>   -3.5298    0.8407 </r>
       <r>   -3.1389    0.0386 </r>
       <r>   -2.7330    0.0000 </r>
       <r>   -2.6829    0.0000 </r>
       <r>   -2.5126    0.0000 </r>
       <r>   -2.4099    0.0000 </r>
       <r>   -2.3708    0.0000 </r>
       <r>   -2.3096    0.0000 </r>
       <r>   -2.2019    0.0000 </r>
       <r>   -2.0055    0.0000 </r>
       <r>   -1.9834    0.0000 </r>
       <r>   -1.7803    0.0000 </r>
       <r>   -1.7699    0.0000 </r>
       <r>   -1.4558    0.0000 </r>
       <r>   -1.3829    0.0000 </r>
       <r>   -1.2090    0.0000 </r>
       <r>   -1.1868    0.0000 </r>
       <r>   -1.1311    0.0000 </r>
       <r>   -1.0462    0.0000 </r>
       <r>   -1.0317    0.0000 </r>
       <r>   -0.9091    0.0000 </r>
       <r>   -0.7788    0.0000 </r>
       <r>   -0.7411    0.0000 </r>
       <r>   -0.6762    0.0000 </r>
       <r>   -0.5612    0.0000 </r>
       <r>   -0.5079    0.0000 </r>
       <r>   -0.4408    0.0000 </r>
       <r>   -0.2947    0.0000 </r>
       <r>   -0.0975    0.0000 </r>
       <r>   -0.0367    0.0000 </r>
       <r>    0.1256    0.0000 </r>
       <r>    0.3785    0.0000 </r>
       <r>    0.4969    0.0000 </r>
       <r>    0.7270    0.0000 </r>
       <r>    0.8646    0.0000 </r>
       <r>    0.9736    0.0000 </r>
       <r>    1.0937    0.0000 </r>
       <r>    1.2423    0.0000 </r>
       <r>    2.1737    0.0000 </r>
       <r>    2.2137    0.0000 </r>
       <r>    2.3531    0.0000 </r>
      </set>
     </set>
    </set>
   </array>
  </eigenvalues>
  <separator name="orbital magnetization" >
   <v name="MAGDIPOLOUT">      0.00000000      0.00000000      0.00000000</v>
  </separator>
 </calculation>
 <structure name="finalpos" >
  <crystal>
   <varray name="basis" >
    <v>       8.41073613       4.79746603       0.00000000 </v>
    <v>      -8.45480858       4.87435414       0.00000000 </v>
    <v>       0.00000000       0.00000000      30.00000000 </v>
   </varray>
   <i name="volume">   2446.75690129 </i>
   <varray name="rec_basis" >
    <v>       0.05976508       0.10366549       0.00000000 </v>
    <v>      -0.05882235       0.10312511       0.00000000 </v>
    <v>       0.00000000       0.00000000       0.03333333 </v>
   </varray>
  </crystal>
  <varray name="positions" >
   <v>       0.64288968       0.29673011      -0.00020487 </v>
   <v>       0.98909600       0.36403321      -0.00033624 </v>
   <v>       0.67497571      -0.01941583       0.00035950 </v>
   <v>      -0.00587490       0.69556411      -0.00094234 </v>
   <v>       0.68263165       0.69835222       0.00021703 </v>
   <v>       0.31409257       0.01299623      -0.00122171 </v>
   <v>       0.00265904      -0.01750336       0.00019008 </v>
   <v>       0.32782250       0.30185935       0.00028499 </v>
   <v>       0.36305519       0.65349909       0.00192283 </v>
   <v>       0.10632318       0.22817563       0.95353343 </v>
   <v>       0.21309260       0.10648476       0.05648429 </v>
   <v>       0.11994537       0.56649137       0.95225392 </v>
   <v>       0.21622829       0.43674289       0.04970627 </v>
   <v>       0.11103072       0.89534919       0.94229716 </v>
   <v>       0.22477840       0.77392521       0.04590372 </v>
   <v>       0.44785908       0.21944537       0.94494664 </v>
   <v>       0.54992118       0.10045960       0.04894001 </v>
   <v>       0.45440248       0.54871305       0.94850781 </v>
   <v>       0.56101528       0.44315799       0.04513090 </v>
   <v>       0.44417656       0.88580506       0.95577385 </v>
   <v>       0.56385525       0.78503450       0.05581845 </v>
   <v>       0.77698484       0.21938287       0.95209227 </v>
   <v>       0.89193564       0.12065385       0.04546675 </v>
   <v>       0.77408530       0.55116230       0.95202627 </v>
   <v>       0.87686240       0.44669880       0.04871903 </v>
   <v>       0.78649331       0.90071037       0.94546247 </v>
   <v>       0.88787714       0.78370653       0.05666739 </v>
  </varray>
 </structure>
</modeling>
