unknown system                          
           1
     8.857622    5.104719    0.000000
    -8.860146    5.109062    0.000000
     0.000000    0.000000   30.000000
   V    Mo   W    S 
   3   3   3  18
Direct configuration=     1
   0.66666669  0.33333334  0.00000000
   1.00000000  0.33333334  0.00000000
   0.66666669  0.00000000  0.00000000
   0.00000000  0.66666669  0.00000000
   0.66666669  0.66666669  0.00000000
   0.33333334  0.00000000  0.00000000
   0.00000000  0.00000000  0.00000000
   0.33333334  0.33333334  0.00000000
   0.33333334  0.66666669  0.00000000
   0.11068511  0.22244981  0.95539999
   0.22244981  0.11068511  0.04460000
   0.11068511  0.55578315  0.95539999
   0.22244981  0.44401845  0.04460000
   0.11068511  0.88911647  0.95539999
   0.22244981  0.77735180  0.04460000
   0.44401845  0.22244981  0.95539999
   0.55578315  0.11068511  0.04460000
   0.44401845  0.55578315  0.95539999
   0.55578315  0.44401845  0.04460000
   0.44401845  0.88911647  0.95539999
   0.55578315  0.77735180  0.04460000
   0.77735180  0.22244981  0.95539999
   0.88911647  0.11068511  0.04460000
   0.77735180  0.55578315  0.95539999
   0.88911647  0.44401845  0.04460000
   0.77735180  0.88911647  0.95539999
   0.88911647  0.77735180  0.04460000
unknown system                          
           1
     8.668204    4.997827    0.000000
    -8.670620    5.001984    0.000000
     0.000000    0.000000   30.000000
   V    Mo   W    S 
   3   3   3  18
Direct configuration=     2
   0.66714065  0.33396336 -0.00000129
   0.99912995  0.33412045 -0.00001516
   0.66585288 -0.00019702  0.00002257
  -0.00030157  0.66774411 -0.00016699
   0.66813536  0.66658042  0.00008963
   0.33226169 -0.00117631 -0.00005720
  -0.00039918 -0.00285275 -0.00015553
   0.33496107  0.33313931  0.00015449
   0.33334628  0.66837640  0.00017738
   0.10896526  0.22405184  0.95205445
   0.22178127  0.11169908  0.04921924
   0.10968743  0.55146911  0.95196179
   0.21856311  0.44266751  0.04807841
   0.11055536  0.88931671  0.95061981
   0.22266473  0.77712274  0.04923230
   0.44832755  0.22468793  0.95191644
   0.55990354  0.11298214  0.04683398
   0.44355141  0.55501419  0.95083292
   0.55682419  0.44150162  0.04805615
   0.44833152  0.89011724  0.95190149
   0.55660161  0.78152914  0.04806377
   0.77755007  0.22228146  0.95414905
   0.88699730  0.11280309  0.04689429
   0.77558369  0.55100307  0.95195141
   0.88676502  0.43985913  0.04685678
   0.77636209  0.89182146  0.95202807
   0.88907217  0.77858901  0.04930165
unknown system                          
           1
     8.484744    4.897080    0.000000
    -8.486275    4.899707    0.000000
     0.000000    0.000000   30.000000
   V    Mo   W    S 
   3   3   3  18
Direct configuration=     3
   0.66716106  0.33422343  0.00000518
   0.99905753  0.33439963 -0.00000706
   0.66554466 -0.00039078  0.00007981
  -0.00007222  0.66875796 -0.00018895
   0.66857690  0.66654982  0.00005359
   0.33135508 -0.00184551 -0.00002833
  -0.00031903 -0.00397250 -0.00018546
   0.33548501  0.33323036  0.00011407
   0.33334243  0.66882449  0.00019787
   0.10905319  0.22393538  0.95219121
   0.22165640  0.11181617  0.04921833
   0.10984052  0.55150222  0.95198845
   0.21874396  0.44273950  0.04800193
   0.11040040  0.88943252  0.95044723
   0.22276620  0.77696574  0.04930585
   0.44831826  0.22486626  0.95194052
   0.56000343  0.11305509  0.04674715
   0.44329626  0.55490713  0.95092408
   0.55665683  0.44133339  0.04811766
   0.44832521  0.88997551  0.95187545
   0.55643345  0.78151379  0.04805036
   0.77754846  0.22227332  0.95422709
   0.88708024  0.11270046  0.04673815
   0.77551164  0.55084577  0.95190848
   0.88667336  0.43977171  0.04680826
   0.77658388  0.89199758  0.95204212
   0.88919136  0.77880600  0.04942685
unknown system                          
           1
     8.281119    4.774884    0.000000
    -8.287820    4.786467    0.000000
     0.000000    0.000000   30.000000
   V    Mo   W    S 
   3   3   3  18
Direct configuration=     4
   0.66675052  0.33546166  0.00004499
   0.99949606  0.33565780  0.00003932
   0.66411085 -0.00171501  0.00028737
   0.00140364  0.67362233 -0.00019484
   0.67004473  0.66632952 -0.00008502
   0.32701937 -0.00485636  0.00007692
   0.00049974 -0.00830190 -0.00019748
   0.33731100  0.33380136 -0.00008888
   0.33327281  0.67014891  0.00016977
   0.10857998  0.22407961  0.95128592
   0.22141160  0.11182520  0.05082648
   0.10925647  0.55062484  0.95065054
   0.21798579  0.44229716  0.04919929
   0.11030791  0.88940357  0.94804768
   0.22253973  0.77672588  0.05122901
   0.44950933  0.22529463  0.95057547
   0.56100056  0.11370569  0.04769849
   0.44309000  0.55500704  0.94968587
   0.55741128  0.44081010  0.04986211
   0.44944987  0.89071509  0.95030904
   0.55708056  0.78257776  0.04945886
   0.77746296  0.22219554  0.95328623
   0.88675170  0.11296375  0.04744245
   0.77497973  0.54945239  0.95030218
   0.88603538  0.43895999  0.04791223
   0.77622149  0.89266436  0.95062910
   0.88923140  0.77876355  0.05154681
unknown system                          
           1
     8.274757    4.770108    0.000000
    -8.286436    4.790322    0.000000
     0.000000    0.000000   30.000000
   V    Mo   W    S 
   3   3   3  18
Direct configuration=     5
   0.66589079  0.33797309  0.00013763
   1.00050357  0.33812911  0.00016053
   0.66158139 -0.00406565  0.00056118
   0.00486537  0.68316185 -0.00009748
   0.67237864  0.66553608 -0.00027004
   0.31810318 -0.01124046  0.00015369
   0.00223819 -0.01619136 -0.00007939
   0.34093123  0.33560216 -0.00038217
   0.33279125  0.67228044 -0.00001465
   0.10788978  0.22336247  0.95037513
   0.22094723  0.11149889  0.05279639
   0.10839685  0.55050549  0.94897118
   0.21748546  0.44212793  0.05075086
   0.11047736  0.88901275  0.94428979
   0.22165414  0.77642491  0.05388958
   0.45077645  0.22474382  0.94892493
   0.56078623  0.11393604  0.04887814
   0.44354431  0.55577099  0.94819217
   0.55869092  0.44058545  0.05222070
   0.45027479  0.89185658  0.94835356
   0.55784283  0.78334654  0.05128979
   0.77717599  0.22210987  0.95185259
   0.88676334  0.11257676  0.04819529
   0.77533153  0.54845629  0.94815804
   0.88573138  0.43939641  0.04934006
   0.77621816  0.89313944  0.94887553
   0.88894409  0.77817857  0.05447687
unknown system                          
           1
     8.269663    4.768466    0.000000
    -8.280758    4.787671    0.000000
     0.000000    0.000000   30.000000
   V    Mo   W    S 
   3   3   3  18
Direct configuration=     6
   0.66599605  0.33902731  0.00009962
   1.00044195  0.33898872  0.00017671
   0.66104211 -0.00443000  0.00059364
   0.00550151  0.68395680 -0.00007040
   0.67239381  0.66470185 -0.00025241
   0.31661081 -0.01272434  0.00003755
   0.00236166 -0.01741551 -0.00015185
   0.34247929  0.33702024 -0.00042099
   0.33223945  0.67264025  0.00002044
   0.10783426  0.22237711  0.95066791
   0.22074699  0.11124142  0.05285092
   0.10824640  0.55140804  0.94891061
   0.21809651  0.44251715  0.05077624
   0.11055230  0.88893066  0.94364911
   0.22112969  0.77620730  0.05420784
   0.45044694  0.22385771  0.94898833
   0.55922078  0.11330649  0.04877232
   0.44407966  0.55641898  0.94811511
   0.55888587  0.44082767  0.05249480
   0.44977752  0.89201957  0.94823199
   0.55761656  0.78279461  0.05133002
   0.77701903  0.22215950  0.95181216
   0.88740125  0.11173868  0.04797581
   0.77640824  0.54915330  0.94802985
   0.88622340  0.44077759  0.04937291
   0.77682946  0.89297789  0.94887095
   0.88863296  0.77773542  0.05491070
unknown system                          
           1
     8.273292    4.770545    0.000000
    -8.285473    4.791634    0.000000
     0.000000    0.000000   30.000000
   V    Mo   W    S 
   3   3   3  18
Direct configuration=     7
   0.66632522  0.34054178  0.00004579
   1.00003694  0.34010214  0.00018734
   0.66035961 -0.00478557  0.00068854
   0.00637204  0.68533600 -0.00004792
   0.67248262  0.66348976 -0.00017707
   0.31469306 -0.01493942 -0.00000426
   0.00220624 -0.01973890 -0.00013678
   0.34482272  0.33917537 -0.00046652
   0.33144872  0.67330199  0.00008910
   0.10796153  0.22166105  0.95107931
   0.22070651  0.11113333  0.05271737
   0.10818879  0.55209191  0.94881276
   0.21868156  0.44290193  0.05076450
   0.11045355  0.88865293  0.94311907
   0.22076588  0.77604841  0.05450118
   0.45023082  0.22315285  0.94911970
   0.55783483  0.11280571  0.04854496
   0.44452740  0.55710372  0.94804744
   0.55915255  0.44103579  0.05281959
   0.44934371  0.89201282  0.94810035
   0.55736550  0.78227847  0.05128822
   0.77690131  0.22223701  0.95185366
   0.88796474  0.11108973  0.04765580
   0.77726380  0.54963988  0.94789340
   0.88657004  0.44184631  0.04944387
   0.77714466  0.89262905  0.94888335
   0.88841010  0.77741039  0.05517713
unknown system                          
           1
     8.276610    4.772123    0.000000
    -8.290537    4.796238    0.000000
     0.000000    0.000000   30.000000
   V    Mo   W    S 
   3   3   3  18
Direct configuration=     8
   0.66652035  0.34107787  0.00002749
   0.99976157  0.34047331  0.00018711
   0.66017487 -0.00482155  0.00072229
   0.00655569  0.68543301 -0.00004430
   0.67242250  0.66299788 -0.00017643
   0.31434779 -0.01562156 -0.00003633
   0.00196735 -0.02037583 -0.00017156
   0.34572365  0.34009483 -0.00049449
   0.33112975  0.67348236  0.00010853
   0.10806466  0.22153021  0.95126915
   0.22072550  0.11114498  0.05260901
   0.10821809  0.55224698  0.94879572
   0.21881757  0.44298214  0.05072829
   0.11041976  0.88857351  0.94303768
   0.22065748  0.77596524  0.05457218
   0.45018533  0.22300477  0.94920928
   0.55750043  0.11271053  0.04843972
   0.44465814  0.55734996  0.94805598
   0.55923661  0.44106717  0.05291101
   0.44923843  0.89198156  0.94808662
   0.55726833  0.78212275  0.05123424
   0.77688181  0.22227789  0.95189855
   0.88811710  0.11095132  0.04752816
   0.77747398  0.54975920  0.94787584
   0.88662590  0.44204775  0.04946500
   0.77719652  0.89249621  0.94892643
   0.88832530  0.77726197  0.05523476
unknown system                          
           1
     8.278204    4.773183    0.000000
    -8.292394    4.797754    0.000000
     0.000000    0.000000   30.000000
   V    Mo   W    S 
   3   3   3  18
Direct configuration=     9
   0.66669986  0.34159989  0.00001268
   0.99950268  0.34083945  0.00018783
   0.65997902 -0.00487569  0.00075523
   0.00673500  0.68554411 -0.00004158
   0.67237529  0.66252753 -0.00019169
   0.31399334 -0.01629974 -0.00007461
   0.00173494 -0.02099842 -0.00022010
   0.34660628  0.34099008 -0.00053120
   0.33083010  0.67366135  0.00011852
   0.10815596  0.22142940  0.95143009
   0.22074184  0.11116111  0.05254211
   0.10823817  0.55236504  0.94875150
   0.21890745  0.44303242  0.05072093
   0.11039864  0.88850715  0.94291897
   0.22054099  0.77587312  0.05468343
   0.45017704  0.22288524  0.94926685
   0.55723521  0.11264934  0.04836496
   0.44478157  0.55758905  0.94804226
   0.55933481  0.44107746  0.05303525
   0.44917659  0.89197664  0.94804413
   0.55719597  0.78200739  0.05121487
   0.77686312  0.22231475  0.95191734
   0.88824041  0.11083989  0.04742858
   0.77765023  0.54983853  0.94782668
   0.88665374  0.44219550  0.04951154
   0.77723206  0.89238831  0.94894166
   0.88823415  0.77709555  0.05534366
unknown system                          
           1
     8.275893    4.771833    0.000000
    -8.290611    4.797320    0.000000
     0.000000    0.000000   30.000000
   V    Mo   W    S 
   3   3   3  18
Direct configuration=    10
   0.66686131  0.34195701  0.00000068
   0.99928415  0.34112689  0.00018761
   0.65987881 -0.00486517  0.00078469
   0.00690010  0.68562048 -0.00003402
   0.67229289  0.66217242 -0.00018338
   0.31377132 -0.01680127 -0.00008575
   0.00151961 -0.02147619 -0.00023233
   0.34727011  0.34172725 -0.00054230
   0.33056419  0.67374950  0.00013967
   0.10824407  0.22136659  0.95158486
   0.22075910  0.11117727  0.05242979
   0.10826543  0.55242832  0.94873863
   0.21898437  0.44307687  0.05068326
   0.11037343  0.88843980  0.94287958
   0.22047763  0.77581765  0.05472366
   0.45013577  0.22279141  0.94934012
   0.55702157  0.11258686  0.04828671
   0.44486975  0.55777262  0.94804395
   0.55939007  0.44110928  0.05309780
   0.44909768  0.89193204  0.94803748
   0.55712185  0.78188778  0.05116308
   0.77687226  0.22235691  0.95195156
   0.88835187  0.11077919  0.04732843
   0.77778020  0.54991545  0.94780714
   0.88669734  0.44228123  0.04953504
   0.77724494  0.89227873  0.94897161
   0.88818463  0.77700555  0.05536231
unknown system                          
           1
     8.276425    4.772210    0.000000
    -8.292285    4.799679    0.000000
     0.000000    0.000000   30.000000
   V    Mo   W    S 
   3   3   3  18
Direct configuration=    11
   0.66694174  0.34209733 -0.00000909
   0.99912653  0.34123680  0.00018299
   0.65972736 -0.00499629  0.00080032
   0.00699524  0.68568390 -0.00003099
   0.67224259  0.66208632 -0.00019056
   0.31367434 -0.01723025 -0.00010282
   0.00124691 -0.02187046 -0.00025348
   0.34770383  0.34237034 -0.00054705
   0.33055380  0.67390412  0.00014397
   0.10834065  0.22132959  0.95168997
   0.22078536  0.11122765  0.05233804
   0.10830588  0.55249073  0.94871471
   0.21905269  0.44310570  0.05067589
   0.11035095  0.88838897  0.94286856
   0.22042815  0.77576956  0.05476290
   0.45007092  0.22273226  0.94938988
   0.55692415  0.11250359  0.04823922
   0.44494258  0.55792319  0.94803417
   0.55941653  0.44115605  0.05315511
   0.44909485  0.89191088  0.94804221
   0.55708097  0.78183929  0.05112235
   0.77683826  0.22231220  0.95196152
   0.88835965  0.11070825  0.04726501
   0.77788255  0.55002060  0.94778756
   0.88674987  0.44235935  0.04958979
   0.77722339  0.89222205  0.94899353
   0.88815472  0.77693276  0.05537619
unknown system                          
           1
     8.274833    4.771836    0.000000
    -8.289582    4.797379    0.000000
     0.000000    0.000000   30.000000
   V    Mo   W    S 
   3   3   3  18
Direct configuration=    12
   0.66725482  0.34313106 -0.00002642
   0.99844918  0.34187107  0.00018568
   0.65947228 -0.00487033  0.00088537
   0.00723248  0.68581525 -0.00000448
   0.67232755  0.66108375 -0.00014858
   0.31315098 -0.01840251 -0.00010804
   0.00075607 -0.02303037 -0.00025814
   0.34936450  0.34384497 -0.00056595
   0.32989268  0.67421861  0.00021742
   0.10852478  0.22121714  0.95199296
   0.22079978  0.11121887  0.05211965
   0.10837379  0.55264058  0.94866331
   0.21919059  0.44319357  0.05059596
   0.11029161  0.88822511  0.94276255
   0.22028879  0.77564801  0.05484482
   0.45014933  0.22264378  0.94953500
   0.55662720  0.11255682  0.04808018
   0.44510946  0.55830990  0.94802543
   0.55960830  0.44115193  0.05326909
   0.44896183  0.89181388  0.94799607
   0.55693841  0.78164072  0.05101238
   0.77679754  0.22244500  0.95202024
   0.88858315  0.11061011  0.04708090
   0.77806743  0.55001536  0.94774783
   0.88668283  0.44245945  0.04963514
   0.77722382  0.89200394  0.94902972
   0.88809527  0.77675875  0.05541183
unknown system                          
           1
     8.277943    4.773802    0.000000
    -8.293408    4.800582    0.000000
     0.000000    0.000000   30.000000
   V    Mo   W    S 
   3   3   3  18
Direct configuration=    13
   0.66705030  0.34205058  0.00001255
   0.99921650  0.34124233  0.00020566
   0.65973096 -0.00509308  0.00079737
   0.00701746  0.68576695  0.00000709
   0.67219294  0.66214723 -0.00011469
   0.31356210 -0.01732149 -0.00004177
   0.00124131 -0.02195894 -0.00015123
   0.34770402  0.34250693 -0.00048179
   0.33062173  0.67378279  0.00017953
   0.10827384  0.22133004  0.95164033
   0.22076498  0.11118471  0.05231739
   0.10824438  0.55246719  0.94874218
   0.21902153  0.44314976  0.05069212
   0.11035005  0.88836793  0.94282324
   0.22048715  0.77578791  0.05469982
   0.45007980  0.22276099  0.94940579
   0.55692609  0.11245345  0.04821324
   0.44492022  0.55794765  0.94795269
   0.55940977  0.44118646  0.05305916
   0.44915167  0.89196550  0.94801643
   0.55710004  0.78190979  0.05115973
   0.77686466  0.22228466  0.95199507
   0.88831388  0.11068570  0.04725345
   0.77783955  0.55000215  0.94784706
   0.88678816  0.44236016  0.04951769
   0.77717893  0.89228056  0.94894249
   0.88816245  0.77696654  0.05530929
unknown system                          
           1
     8.271008    4.770002    0.000000
    -8.284680    4.793661    0.000000
     0.000000    0.000000   30.000000
   V    Mo   W    S 
   3   3   3  18
Direct configuration=    14
   0.66712213  0.34189288 -0.00003549
   0.99955472  0.34114493  0.00015908
   0.65962979 -0.00551923  0.00072864
   0.00709684  0.68597948 -0.00008335
   0.67176462  0.66237729 -0.00022688
   0.31340291 -0.01755176 -0.00016267
   0.00125698 -0.02195430 -0.00030580
   0.34758485  0.34311272 -0.00060679
   0.33109136  0.67355166  0.00008054
   0.10824607  0.22129682  0.95164491
   0.22082065  0.11126021  0.05235078
   0.10820503  0.55251145  0.94881307
   0.21898897  0.44321129  0.05079813
   0.11029211  0.88838209  0.94289238
   0.22049590  0.77570724  0.05475454
   0.45001122  0.22281413  0.94950888
   0.55687820  0.11235147  0.04819683
   0.44494488  0.55790850  0.94791597
   0.55950145  0.44122739  0.05308984
   0.44913350  0.89198023  0.94805099
   0.55712640  0.78204485  0.05127806
   0.77687752  0.22221979  0.95204053
   0.88825757  0.11059999  0.04727603
   0.77780155  0.55005073  0.94795781
   0.88685229  0.44247407  0.04950102
   0.77723107  0.89232798  0.94895565
   0.88804588  0.77681254  0.05542721
unknown system                          
           1
     8.271308    4.769241    0.000000
    -8.285934    4.794540    0.000000
     0.000000    0.000000   30.000000
   V    Mo   W    S 
   3   3   3  18
Direct configuration=    15
   0.66664159  0.33917443  0.00005284
   1.00213427  0.33928365  0.00018834
   0.66018522 -0.00670086  0.00047797
   0.00670423  0.68668242 -0.00002387
   0.67065449  0.66519597 -0.00015100
   0.31378606 -0.01527827 -0.00002178
   0.00275029 -0.01933873 -0.00005826
   0.34323089  0.34058170 -0.00048608
   0.33386539  0.67211546 -0.00004671
   0.10762349  0.22147110  0.95074788
   0.22075422  0.11115707  0.05279640
   0.10786123  0.55226466  0.94914489
   0.21867886  0.44325673  0.05113141
   0.11032315  0.88872596  0.94303712
   0.22102040  0.77596607  0.05428530
   0.44975460  0.22318803  0.94936927
   0.55743221  0.11193889  0.04838340
   0.44447073  0.55687108  0.94763243
   0.55900820  0.44128358  0.05248372
   0.44941203  0.89227176  0.94817035
   0.55748785  0.78290186  0.05176487
   0.77707499  0.22178701  0.95209346
   0.88758174  0.11056964  0.04767427
   0.77713977  0.54999282  0.94836579
   0.88717527  0.44251195  0.04905875
   0.77731036  0.89306503  0.94877218
   0.88815292  0.77727545  0.05515696
unknown system                          
           1
     8.272084    4.769858    0.000000
    -8.287575    4.796662    0.000000
     0.000000    0.000000   30.000000
   V    Mo   W    S 
   3   3   3  18
Direct configuration=    16
   0.66658251  0.33864595  0.00007096
   1.00334973  0.33866914  0.00014615
   0.66018860 -0.00748982  0.00040256
   0.00662655  0.68754971 -0.00000329
   0.66920347  0.66585411 -0.00011813
   0.31316740 -0.01527428 -0.00002479
   0.00347133 -0.01878321 -0.00002215
   0.34208171  0.34128299 -0.00042530
   0.33561196  0.67102421 -0.00011376
   0.10761615  0.22137099  0.95056675
   0.22084644  0.11129515  0.05281631
   0.10791140  0.55242529  0.94935932
   0.21884661  0.44335935  0.05134931
   0.11022324  0.88882513  0.94291033
   0.22110317  0.77578607  0.05417986
   0.44947089  0.22321978  0.94946109
   0.55713665  0.11162915  0.04831530
   0.44453756  0.55670381  0.94731487
   0.55871415  0.44128893  0.05236655
   0.44918995  0.89217347  0.94819119
   0.55748772  0.78305599  0.05206660
   0.77722917  0.22167790  0.95218409
   0.88762303  0.11038762  0.04773634
   0.77701318  0.55013820  0.94850264
   0.88748715  0.44281952  0.04888141
   0.77755771  0.89320406  0.94870814
   0.88793702  0.77737524  0.05517756
unknown system                          
           1
     8.267244    4.766563    0.000000
    -8.280777    4.789961    0.000000
     0.000000    0.000000   30.000000
   V    Mo   W    S 
   3   3   3  18
Direct configuration=    17
   0.66700186  0.33993034  0.00004348
   1.00239587  0.33943908  0.00013081
   0.65988608 -0.00720157  0.00050806
   0.00679806  0.68758255  0.00004891
   0.66904229  0.66456978 -0.00008150
   0.31262129 -0.01677984 -0.00003747
   0.00282068 -0.02017765 -0.00004365
   0.34413237  0.34345132 -0.00042683
   0.33497758  0.67122279 -0.00002083
   0.10795959  0.22128226  0.95096654
   0.22094180  0.11139030  0.05250376
   0.10808204  0.55257259  0.94928598
   0.21901666  0.44337158  0.05127360
   0.11017809  0.88862909  0.94276868
   0.22087948  0.77555786  0.05428129
   0.44943589  0.22305304  0.94962378
   0.55673715  0.11167422  0.04815356
   0.44482911  0.55721281  0.94724701
   0.55888096  0.44132225  0.05260003
   0.44901338  0.89197292  0.94814033
   0.55733788  0.78273972  0.05193243
   0.77721270  0.22183970  0.95221823
   0.88794778  0.11035429  0.04752117
   0.77727182  0.55023191  0.94836500
   0.88747504  0.44287967  0.04900643
   0.77752308  0.89288404  0.94876354
   0.88781594  0.77720941  0.05522759
unknown system                          
           1
     8.267609    4.765273    0.000000
    -8.277247    4.781898    0.000000
     0.000000    0.000000   30.000000
   V    Mo   W    S 
   3   3   3  18
Direct configuration=    18
   0.66643664  0.33820653  0.00010114
   1.00381938  0.33824631  0.00015404
   0.66011767 -0.00785697  0.00037204
   0.00658745  0.68808443  0.00007268
   0.66861620  0.66620916 -0.00005034
   0.31282700 -0.01507077  0.00003866
   0.00401692 -0.01843108  0.00007360
   0.34143879  0.34112514 -0.00036174
   0.33654785  0.67069456 -0.00009899
   0.10761241  0.22132871  0.95041513
   0.22087298  0.11134588  0.05286830
   0.10798610  0.55253679  0.94947190
   0.21898062  0.44343181  0.05142675
   0.11021890  0.88892598  0.94282307
   0.22116625  0.77580379  0.05402487
   0.44934301  0.22323777  0.94944697
   0.55701601  0.11146451  0.04827662
   0.44452264  0.55651287  0.94718143
   0.55849403  0.44127791  0.05225831
   0.44909334  0.89212090  0.94822939
   0.55745967  0.78309771  0.05217290
   0.77729234  0.22157041  0.95223349
   0.88760694  0.11031696  0.04776800
   0.77694141  0.55022361  0.94857457
   0.88765395  0.44298268  0.04874264
   0.77765111  0.89328175  0.94868529
   0.88789483  0.77754709  0.05509916
unknown system                          
           1
     8.271366    4.766360    0.000000
    -8.279597    4.780535    0.000000
     0.000000    0.000000   30.000000
   V    Mo   W    S 
   3   3   3  18
Direct configuration=    19
   0.66509032  0.33450490  0.00019916
   1.00652941  0.33572113  0.00019750
   0.66053424 -0.00913199  0.00007480
   0.00604029  0.68891374  0.00002203
   0.66798884  0.66953003 -0.00006392
   0.31344041 -0.01102158  0.00012548
   0.00665604 -0.01451677  0.00021882
   0.33583922  0.33553469 -0.00028778
   0.33962918  0.66982835 -0.00030275
   0.10687819  0.22143499  0.94925810
   0.22073555  0.11129849  0.05378469
   0.10782778  0.55249335  0.94984523
   0.21890879  0.44353699  0.05172130
   0.11034568  0.88959623  0.94295540
   0.22175863  0.77636484  0.05357618
   0.44926129  0.22360083  0.94897940
   0.55761657  0.11106963  0.04858562
   0.44386522  0.55500980  0.94715081
   0.55772507  0.44112534  0.05161688
   0.44928810  0.89249182  0.94841859
   0.55772338  0.78381518  0.05267629
   0.77740789  0.22097856  0.95222984
   0.88688105  0.11025006  0.04830695
   0.77630872  0.55021381  0.94898911
   0.88799874  0.44321754  0.04822685
   0.77792600  0.89411267  0.94855912
   0.88800985  0.77824182  0.05493619
unknown system                          
           1
     8.274940    4.767519    0.000000
    -8.282264    4.780115    0.000000
     0.000000    0.000000   30.000000
   V    Mo   W    S 
   3   3   3  18
Direct configuration=    20
   0.66458023  0.33319130  0.00024739
   1.00711773  0.33480504  0.00019275
   0.66041313 -0.00978530  0.00000995
   0.00537620  0.68972657 -0.00002541
   0.66710077  0.67044224 -0.00011163
   0.31301295 -0.00924062  0.00005687
   0.00812610 -0.01316491  0.00015706
   0.33404128  0.33392711 -0.00025808
   0.34155301  0.66859172 -0.00036869
   0.10692380  0.22137074  0.94901704
   0.22085364  0.11158867  0.05413619
   0.10812707  0.55264451  0.95020334
   0.21917397  0.44351870  0.05183110
   0.11037532  0.88996979  0.94287025
   0.22191795  0.77639274  0.05330435
   0.44898815  0.22365454  0.94887929
   0.55723906  0.11071913  0.04858532
   0.44394263  0.55445998  0.94701338
   0.55728284  0.44103254  0.05145164
   0.44888719  0.89232982  0.94858043
   0.55768436  0.78384464  0.05294978
   0.77767402  0.22083809  0.95229643
   0.88704448  0.11029176  0.04836067
   0.77616226  0.55052297  0.94915650
   0.88851966  0.44351764  0.04791099
   0.77833800  0.89432603  0.94859901
   0.88775866  0.77869904  0.05495399
unknown system                          
           1
     8.271872    4.767571    0.000000
    -8.281432    4.784056    0.000000
     0.000000    0.000000   30.000000
   V    Mo   W    S 
   3   3   3  18
Direct configuration=    21
   0.66449918  0.33288053  0.00027250
   1.00710444  0.33461207  0.00019812
   0.66028697 -0.00998857  0.00000275
   0.00503809  0.69003753 -0.00001606
   0.66673717  0.67057334 -0.00008999
   0.31273546 -0.00870287  0.00006292
   0.00855691 -0.01293159  0.00018727
   0.33377754  0.33372906 -0.00022050
   0.34229056  0.66801224 -0.00036312
   0.10698802  0.22134398  0.94897470
   0.22088329  0.11169900  0.05420165
   0.10826897  0.55274441  0.95032794
   0.21927392  0.44349034  0.05186437
   0.11037896  0.89003473  0.94279474
   0.22194819  0.77639964  0.05315114
   0.44893864  0.22366882  0.94885294
   0.55704057  0.11060432  0.04855692
   0.44403350  0.55430175  0.94691872
   0.55720951  0.44101657  0.05141527
   0.44872397  0.89220710  0.94866280
   0.55767474  0.78382180  0.05302745
   0.77774347  0.22080314  0.95231573
   0.88713531  0.11031304  0.04834132
   0.77612438  0.55061051  0.94918256
   0.88868429  0.44364471  0.04782209
   0.77846222  0.89439260  0.94861726
   0.88767619  0.77889625  0.05493839
unknown system                          
           1
     8.277721    4.769604    0.000000
    -8.286970    4.785546    0.000000
     0.000000    0.000000   30.000000
   V    Mo   W    S 
   3   3   3  18
Direct configuration=    22
   0.66507412  0.33460405  0.00021402
   1.00631149  0.33569335  0.00018694
   0.66029953 -0.00932295  0.00011960
   0.00571014  0.68946089  0.00003222
   0.66724864  0.66923408 -0.00006699
   0.31278771 -0.01095517  0.00006175
   0.00715712 -0.01455095  0.00016996
   0.33598238  0.33607935 -0.00025570
   0.34039786  0.66901761 -0.00028592
   0.10716173  0.22133562  0.94938756
   0.22091486  0.11156241  0.05377410
   0.10812842  0.55261865  0.95003891
   0.21917868  0.44350286  0.05174297
   0.11034675  0.88968702  0.94276824
   0.22169776  0.77618417  0.05350652
   0.44899421  0.22350078  0.94904647
   0.55702206  0.11085227  0.04847655
   0.44414637  0.55502897  0.94698901
   0.55753163  0.44110480  0.05168377
   0.44883516  0.89223105  0.94846461
   0.55758135  0.78359752  0.05278386
   0.77765618  0.22106442  0.95229545
   0.88730909  0.11031044  0.04817950
   0.77639743  0.55051890  0.94899797
   0.88840719  0.44341731  0.04809717
   0.77821103  0.89400351  0.94860027
   0.88772556  0.77843350  0.05499110
unknown system                          
           1
     8.274331    4.768811    0.000000
    -8.283920    4.785346    0.000000
     0.000000    0.000000   30.000000
   V    Mo   W    S 
   3   3   3  18
Direct configuration=    23
   0.66531243  0.33494394  0.00019244
   1.00581313  0.33585187  0.00014337
   0.65997584 -0.00946534  0.00011472
   0.00525738  0.68988925 -0.00001472
   0.66636212  0.66862824 -0.00008305
   0.31202450 -0.01110393 -0.00000207
   0.00739748 -0.01501766  0.00010585
   0.33684752  0.33736794 -0.00027373
   0.34130628  0.66808143 -0.00028535
   0.10743110  0.22128135  0.94957038
   0.22102567  0.11180277  0.05371463
   0.10838738  0.55285092  0.95020980
   0.21933660  0.44344360  0.05179486
   0.11025988  0.88962688  0.94268678
   0.22162150  0.77600106  0.05334368
   0.44895913  0.22349761  0.94914644
   0.55658020  0.11072892  0.04835458
   0.44442667  0.55505966  0.94681059
   0.55761500  0.44110868  0.05179108
   0.44860051  0.89194678  0.94859358
   0.55757503  0.78349266  0.05286444
   0.77770789  0.22107380  0.95235585
   0.88753499  0.11027485  0.04805173
   0.77643640  0.55065787  0.94899956
   0.88858685  0.44365018  0.04806666
   0.77833248  0.89395948  0.94871086
   0.88750050  0.77858167  0.05503694
unknown system                          
           1
     8.267804    4.768349    0.000000
    -8.278175    4.786254    0.000000
     0.000000    0.000000   30.000000
   V    Mo   W    S 
   3   3   3  18
Direct configuration=    24
   0.66526123  0.33512357  0.00017823
   1.00591113  0.33598033  0.00014915
   0.66009601 -0.00931070  0.00012149
   0.00565753  0.68966815 -0.00002219
   0.66688615  0.66867855 -0.00010558
   0.31232974 -0.01152878 -0.00001440
   0.00706782 -0.01513237  0.00007831
   0.33684027  0.33718147 -0.00030322
   0.34051659  0.66876430 -0.00029689
   0.10735354  0.22128397  0.94957416
   0.22100361  0.11168017  0.05368427
   0.10824452  0.55271410  0.95009323
   0.21926621  0.44347635  0.05175853
   0.11028478  0.88959947  0.94275114
   0.22160548  0.77604076  0.05351220
   0.44895451  0.22345978  0.94915331
   0.55673908  0.11081782  0.04839480
   0.44431838  0.55517277  0.94693872
   0.55761310  0.44111635  0.05180479
   0.44870999  0.89207362  0.94850560