   27   27  100    1
  0.9710400E+02  0.1002848E-08  0.1002848E-08  0.3000000E-08  0.5000000E-15
  1.000000000000000E-004
  CAR 
 unknown system                          
    159     34    120
 
  0.0000000E+00  0.0000000E+00  0.0000000E+00  0.1562500E-01
    1      -17.861905   1.000000
    2      -16.799808   1.000000
    3      -16.687041   1.000000
    4      -16.603159   1.000000
    5      -16.577987   1.000000
    6      -16.427885   1.000000
    7      -16.356141   1.000000
    8      -16.341136   1.000000
    9      -16.237581   1.000000
   10      -16.135442   1.000000
   11      -16.082728   1.000000
   12      -15.980722   1.000000
   13      -15.867798   1.000000
   14      -15.631962   1.000000
   15      -15.578960   1.000000
   16      -15.462512   1.000000
   17      -15.224527   1.000000
   18      -15.181041   1.000000
   19       -9.478899   1.000000
   20       -9.061029   1.000000
   21       -9.028719   1.000000
   22       -8.925145   1.000000
   23       -8.760834   1.000000
   24       -8.707043   1.000000
   25       -8.640171   1.000000
   26       -8.568993   1.000000
   27       -8.484067   1.000000
   28       -8.455400   1.000000
   29       -8.408878   1.000000
   30       -8.362487   1.000000
   31       -8.228041   1.000000
   32       -8.195207   1.000000
   33       -8.150145   1.000000
   34       -8.050004   1.000000
   35       -7.812750   1.000000
   36       -7.769787   1.000000
   37       -7.636008   1.000000
   38       -7.614270   1.000000
   39       -7.503598   1.000000
   40       -7.367929   1.000000
   41       -7.301529   1.000000
   42       -7.207149   1.000000
   43       -7.081756   1.000000
   44       -6.956729   1.000000
   45       -6.830715   1.000000
   46       -6.825396   1.000000
   47       -6.750963   1.000000
   48       -6.716555   1.000000
   49       -6.646119   1.000000
   50       -6.508147   1.000000
   51       -6.396538   1.000000
   52       -6.245769   1.000000
   53       -6.209635   1.000000
   54       -6.169660   1.000000
   55       -6.117428   1.000000
   56       -6.028499   1.000000
   57       -5.975518   1.000000
   58       -5.871020   1.000000
   59       -5.849486   1.000000
   60       -5.724466   1.000000
   61       -5.620301   1.000000
   62       -5.334212   1.000000
   63       -5.285308   1.000000
   64       -5.040724   1.000000
   65       -4.981508   1.000000
   66       -4.896263   1.000000
   67       -4.842681   1.000000
   68       -4.785302   1.000000
   69       -4.742998   1.000000
   70       -4.712306   1.000000
   71       -4.643860   1.000000
   72       -4.619196   1.000000
   73       -4.411551   1.000000
   74       -4.356314   1.000000
   75       -4.289039   1.000000
   76       -3.986763   1.000000
   77       -3.752152   0.999931
   78       -3.574064   0.994639
   79       -3.516843   0.984105
   80       -3.176729   0.398232
   81       -3.121555   0.258472
   82       -2.845388   0.004650
   83       -2.686803   0.000099
   84       -2.662745   0.000050
   85       -2.512819   0.000000
   86       -2.500922   0.000000
   87       -2.271871   0.000000
   88       -2.216201   0.000000
   89       -2.188123   0.000000
   90       -1.940668   0.000000
   91       -1.748992   0.000000
   92       -1.603679   0.000000
   93       -1.483670   0.000000
   94       -1.173971   0.000000
   95       -1.119516   0.000000
   96       -1.022149   0.000000
   97       -0.952771   0.000000
   98       -0.871080   0.000000
   99       -0.805362   0.000000
  100       -0.621274   0.000000
  101       -0.539409   0.000000
  102       -0.485486   0.000000
  103       -0.374640   0.000000
  104       -0.224823   0.000000
  105       -0.127593   0.000000
  106       -0.063930   0.000000
  107       -0.015494   0.000000
  108        0.027831   0.000000
  109        0.134616   0.000000
  110        0.188046   0.000000
  111        0.438940   0.000000
  112        0.551629   0.000000
  113        0.617184   0.000000
  114        0.895423   0.000000
  115        0.974973   0.000000
  116        1.031969   0.000000
  117        1.144645   0.000000
  118        1.650962   0.000000
  119        1.843254   0.000000
  120        2.172374   0.000000
 
  0.1250000E+00  0.2775558E-16  0.0000000E+00  0.3125000E-01
    1      -17.837595   1.000000
    2      -16.830611   1.000000
    3      -16.778339   1.000000
    4      -16.611140   1.000000
    5      -16.541471   1.000000
    6      -16.440866   1.000000
    7      -16.381104   1.000000
    8      -16.324483   1.000000
    9      -16.266814   1.000000
   10      -16.057759   1.000000
   11      -16.018267   1.000000
   12      -16.000386   1.000000
   13      -15.833415   1.000000
   14      -15.631855   1.000000
   15      -15.573556   1.000000
   16      -15.468205   1.000000
   17      -15.248108   1.000000
   18      -15.182658   1.000000
   19       -9.487304   1.000000
   20       -9.154027   1.000000
   21       -9.110811   1.000000
   22       -9.040499   1.000000
   23       -8.784690   1.000000
   24       -8.699576   1.000000
   25       -8.633547   1.000000
   26       -8.571442   1.000000
   27       -8.505361   1.000000
   28       -8.492934   1.000000
   29       -8.389047   1.000000
   30       -8.308234   1.000000
   31       -8.202965   1.000000
   32       -8.074175   1.000000
   33       -8.005647   1.000000
   34       -7.911582   1.000000
   35       -7.841001   1.000000
   36       -7.761895   1.000000
   37       -7.700683   1.000000
   38       -7.493901   1.000000
   39       -7.436533   1.000000
   40       -7.404236   1.000000
   41       -7.333636   1.000000
   42       -7.198579   1.000000
   43       -7.130769   1.000000
   44       -6.998129   1.000000
   45       -6.886708   1.000000
   46       -6.853787   1.000000
   47       -6.739334   1.000000
   48       -6.681080   1.000000
   49       -6.616774   1.000000
   50       -6.537730   1.000000
   51       -6.385497   1.000000
   52       -6.269300   1.000000
   53       -6.231503   1.000000
   54       -6.166974   1.000000
   55       -6.126969   1.000000
   56       -6.027360   1.000000
   57       -5.971658   1.000000
   58       -5.850494   1.000000
   59       -5.769714   1.000000
   60       -5.665306   1.000000
   61       -5.570998   1.000000
   62       -5.357543   1.000000
   63       -5.306274   1.000000
   64       -5.209342   1.000000
   65       -5.053080   1.000000
   66       -5.004579   1.000000
   67       -4.879685   1.000000
   68       -4.862119   1.000000
   69       -4.769129   1.000000
   70       -4.641530   1.000000
   71       -4.578411   1.000000
   72       -4.476405   1.000000
   73       -4.373725   1.000000
   74       -4.296515   1.000000
   75       -4.280283   1.000000
   76       -3.904797   0.999999
   77       -3.810945   0.999988
   78       -3.673196   0.999428
   79       -3.482472   0.971545
   80       -3.385187   0.888025
   81       -2.942338   0.027726
   82       -2.855671   0.005733
   83       -2.701862   0.000150
   84       -2.638619   0.000024
   85       -2.509502   0.000000
   86       -2.494672   0.000000
   87       -2.275969   0.000000
   88       -2.185443   0.000000
   89       -2.154373   0.000000
   90       -1.944543   0.000000
   91       -1.751135   0.000000
   92       -1.584700   0.000000
   93       -1.466490   0.000000
   94       -1.176217   0.000000
   95       -1.119550   0.000000
   96       -1.010504   0.000000
   97       -0.961113   0.000000
   98       -0.875074   0.000000
   99       -0.812787   0.000000
  100       -0.660421   0.000000
  101       -0.595445   0.000000
  102       -0.552283   0.000000
  103       -0.457936   0.000000
  104       -0.309191   0.000000
  105       -0.190679   0.000000
  106       -0.128857   0.000000
  107       -0.051993   0.000000
  108        0.074484   0.000000
  109        0.166531   0.000000
  110        0.228210   0.000000
  111        0.433477   0.000000
  112        0.548648   0.000000
  113        0.632378   0.000000
  114        0.813149   0.000000
  115        0.995307   0.000000
  116        1.097843   0.000000
  117        1.237401   0.000000
  118        1.696160   0.000000
  119        1.882597   0.000000
  120        2.207910   0.000000
 
  0.2500000E+00  0.5551115E-16  0.0000000E+00  0.3125000E-01
    1      -17.766954   1.000000
    2      -17.017626   1.000000
    3      -16.777069   1.000000
    4      -16.643355   1.000000
    5      -16.593923   1.000000
    6      -16.480420   1.000000
    7      -16.365243   1.000000
    8      -16.277494   1.000000
    9      -16.218219   1.000000
   10      -16.049281   1.000000
   11      -15.976119   1.000000
   12      -15.912677   1.000000
   13      -15.774060   1.000000
   14      -15.614255   1.000000
   15      -15.558239   1.000000
   16      -15.474534   1.000000
   17      -15.299551   1.000000
   18      -15.198953   1.000000
   19       -9.601010   1.000000
   20       -9.335483   1.000000
   21       -9.206048   1.000000
   22       -9.108278   1.000000
   23       -8.887230   1.000000
   24       -8.722122   1.000000
   25       -8.632011   1.000000
   26       -8.549988   1.000000
   27       -8.486773   1.000000
   28       -8.449824   1.000000
   29       -8.354897   1.000000
   30       -8.255764   1.000000
   31       -8.084471   1.000000
   32       -8.044067   1.000000
   33       -7.949426   1.000000
   34       -7.817372   1.000000
   35       -7.743288   1.000000
   36       -7.608261   1.000000
   37       -7.575666   1.000000
   38       -7.541340   1.000000
   39       -7.430419   1.000000
   40       -7.389744   1.000000
   41       -7.300872   1.000000
   42       -7.203108   1.000000
   43       -7.128833   1.000000
   44       -7.025240   1.000000
   45       -6.949798   1.000000
   46       -6.840086   1.000000
   47       -6.761481   1.000000
   48       -6.678218   1.000000
   49       -6.539983   1.000000
   50       -6.507421   1.000000
   51       -6.366303   1.000000
   52       -6.301306   1.000000
   53       -6.266940   1.000000
   54       -6.191494   1.000000
   55       -6.097890   1.000000
   56       -6.071282   1.000000
   57       -5.861476   1.000000
   58       -5.814274   1.000000
   59       -5.756106   1.000000
   60       -5.681929   1.000000
   61       -5.525562   1.000000
   62       -5.501853   1.000000
   63       -5.441450   1.000000
   64       -5.248169   1.000000
   65       -5.174127   1.000000
   66       -5.113574   1.000000
   67       -5.004971   1.000000
   68       -4.856669   1.000000
   69       -4.761949   1.000000
   70       -4.596198   1.000000
   71       -4.443368   1.000000
   72       -4.413817   1.000000
   73       -4.274096   1.000000
   74       -4.255153   1.000000
   75       -4.133140   1.000000
   76       -4.055682   1.000000
   77       -3.918510   1.000000
   78       -3.720519   0.999833
   79       -3.483077   0.971822
   80       -3.406223   0.913849
   81       -2.929002   0.022236
   82       -2.836987   0.003904
   83       -2.685774   0.000096
   84       -2.591077   0.000005
   85       -2.516644   0.000000
   86       -2.463685   0.000000
   87       -2.275254   0.000000
   88       -2.134290   0.000000
   89       -2.068353   0.000000
   90       -1.948006   0.000000
   91       -1.758340   0.000000
   92       -1.518526   0.000000
   93       -1.421536   0.000000
   94       -1.208502   0.000000
   95       -1.125159   0.000000
   96       -1.007867   0.000000
   97       -0.985113   0.000000
   98       -0.871585   0.000000
   99       -0.858836   0.000000
  100       -0.783814   0.000000
  101       -0.698076   0.000000
  102       -0.673319   0.000000
  103       -0.582546   0.000000
  104       -0.456217   0.000000
  105       -0.334116   0.000000
  106       -0.190730   0.000000
  107       -0.084698   0.000000
  108        0.021986   0.000000
  109        0.147461   0.000000
  110        0.218484   0.000000
  111        0.412617   0.000000
  112        0.569690   0.000000
  113        0.685026   0.000000
  114        0.774946   0.000000
  115        1.089035   0.000000
  116        1.171305   0.000000
  117        1.407491   0.000000
  118        1.821144   0.000000
  119        1.995691   0.000000
  120        2.312965   0.000000
 
  0.3750000E+00  0.0000000E+00  0.0000000E+00  0.3125000E-01
    1      -17.661156   1.000000
    2      -17.212588   1.000000
    3      -16.762559   1.000000
    4      -16.670961   1.000000
    5      -16.654880   1.000000
    6      -16.518332   1.000000
    7      -16.337644   1.000000
    8      -16.226930   1.000000
    9      -16.180525   1.000000
   10      -16.054410   1.000000
   11      -15.892693   1.000000
   12      -15.877826   1.000000
   13      -15.763339   1.000000
   14      -15.591340   1.000000
   15      -15.542411   1.000000
   16      -15.442307   1.000000
   17      -15.346691   1.000000
   18      -15.231828   1.000000
   19       -9.780827   1.000000
   20       -9.443836   1.000000
   21       -9.220933   1.000000
   22       -9.121336   1.000000
   23       -8.955610   1.000000
   24       -8.770701   1.000000
   25       -8.617217   1.000000
   26       -8.537391   1.000000
   27       -8.454863   1.000000
   28       -8.358228   1.000000
   29       -8.287778   1.000000
   30       -8.255927   1.000000
   31       -8.103134   1.000000
   32       -8.004417   1.000000
   33       -7.934584   1.000000
   34       -7.799226   1.000000
   35       -7.736202   1.000000
   36       -7.615160   1.000000
   37       -7.585867   1.000000
   38       -7.547719   1.000000
   39       -7.414079   1.000000
   40       -7.312149   1.000000
   41       -7.211060   1.000000
   42       -7.137795   1.000000
   43       -7.030394   1.000000
   44       -6.998078   1.000000
   45       -6.912012   1.000000
   46       -6.804742   1.000000
   47       -6.732159   1.000000
   48       -6.577419   1.000000
   49       -6.508878   1.000000
   50       -6.470639   1.000000
   51       -6.348580   1.000000
   52       -6.266382   1.000000
   53       -6.218355   1.000000
   54       -6.184394   1.000000
   55       -6.115510   1.000000
   56       -6.076644   1.000000
   57       -6.021527   1.000000
   58       -5.948970   1.000000
   59       -5.811391   1.000000
   60       -5.715008   1.000000
   61       -5.652402   1.000000
   62       -5.512454   1.000000
   63       -5.454444   1.000000
   64       -5.312310   1.000000
   65       -5.167822   1.000000
   66       -5.099275   1.000000
   67       -5.010039   1.000000
   68       -4.817938   1.000000
   69       -4.775891   1.000000
   70       -4.679960   1.000000
   71       -4.493286   1.000000
   72       -4.411489   1.000000
   73       -4.258300   1.000000
   74       -4.219756   1.000000
   75       -4.137136   1.000000
   76       -4.025226   1.000000
   77       -3.916554   1.000000
   78       -3.723652   0.999847
   79       -3.558240   0.992652
   80       -3.222122   0.525139
   81       -2.990146   0.057367
   82       -2.856723   0.005856
   83       -2.658202   0.000043
   84       -2.576137   0.000003
   85       -2.524695   0.000001
   86       -2.411120   0.000000
   87       -2.246174   0.000000
   88       -2.097784   0.000000
   89       -2.020551   0.000000
   90       -1.891710   0.000000
   91       -1.769966   0.000000
   92       -1.466517   0.000000
   93       -1.348603   0.000000
   94       -1.268589   0.000000
   95       -1.139915   0.000000
   96       -1.057255   0.000000
   97       -1.031235   0.000000
   98       -0.959470   0.000000
   99       -0.882593   0.000000
  100       -0.833458   0.000000
  101       -0.765391   0.000000
  102       -0.735871   0.000000
  103       -0.699160   0.000000
  104       -0.546239   0.000000
  105       -0.484962   0.000000
  106       -0.227289   0.000000
  107       -0.131867   0.000000
  108       -0.035438   0.000000
  109        0.055462   0.000000
  110        0.166696   0.000000
  111        0.423880   0.000000
  112        0.569796   0.000000
  113        0.696616   0.000000
  114        0.854850   0.000000
  115        1.173682   0.000000
  116        1.241444   0.000000
  117        1.544095   0.000000
  118        2.007075   0.000000
  119        2.172942   0.000000
  120        2.474666   0.000000
 
  0.5000000E+00  0.1110223E-15  0.0000000E+00  0.1562500E-01
    1      -17.583879   1.000000
    2      -17.321904   1.000000
    3      -16.751821   1.000000
    4      -16.695215   1.000000
    5      -16.666462   1.000000
    6      -16.533207   1.000000
    7      -16.325116   1.000000
    8      -16.215952   1.000000
    9      -16.169653   1.000000
   10      -16.038802   1.000000
   11      -15.881959   1.000000
   12      -15.844763   1.000000
   13      -15.765453   1.000000
   14      -15.606873   1.000000
   15      -15.521847   1.000000
   16      -15.430586   1.000000
   17      -15.343405   1.000000
   18      -15.259054   1.000000
   19       -9.853934   1.000000
   20       -9.483349   1.000000
   21       -9.234571   1.000000
   22       -9.110547   1.000000
   23       -8.952285   1.000000
   24       -8.793445   1.000000
   25       -8.615398   1.000000
   26       -8.579729   1.000000
   27       -8.420875   1.000000
   28       -8.328659   1.000000
   29       -8.251218   1.000000
   30       -8.190018   1.000000
   31       -8.103346   1.000000
   32       -8.031407   1.000000
   33       -7.963054   1.000000
   34       -7.780064   1.000000
   35       -7.728963   1.000000
   36       -7.717987   1.000000
   37       -7.577198   1.000000
   38       -7.545739   1.000000
   39       -7.472724   1.000000
   40       -7.301872   1.000000
   41       -7.202809   1.000000
   42       -7.028040   1.000000
   43       -6.962594   1.000000
   44       -6.928431   1.000000
   45       -6.792254   1.000000
   46       -6.681940   1.000000
   47       -6.638029   1.000000
   48       -6.582757   1.000000
   49       -6.551039   1.000000
   50       -6.519896   1.000000
   51       -6.387721   1.000000
   52       -6.342483   1.000000
   53       -6.337063   1.000000
   54       -6.221341   1.000000
   55       -6.140397   1.000000
   56       -6.054090   1.000000
   57       -5.983335   1.000000
   58       -5.879505   1.000000
   59       -5.771052   1.000000
   60       -5.745262   1.000000
   61       -5.634760   1.000000
   62       -5.564601   1.000000
   63       -5.510702   1.000000
   64       -5.372211   1.000000
   65       -5.169619   1.000000
   66       -5.052185   1.000000
   67       -5.006995   1.000000
   68       -4.964158   1.000000
   69       -4.785133   1.000000
   70       -4.608048   1.000000
   71       -4.519962   1.000000
   72       -4.460685   1.000000
   73       -4.274712   1.000000
   74       -4.200174   1.000000
   75       -4.161127   1.000000
   76       -3.952739   1.000000
   77       -3.854277   0.999997
   78       -3.727995   0.999864
   79       -3.612528   0.997626
   80       -3.101818   0.215457
   81       -3.004396   0.069904
   82       -2.926043   0.021151
   83       -2.655519   0.000040
   84       -2.566588   0.000002
   85       -2.525434   0.000001
   86       -2.385826   0.000000
   87       -2.227035   0.000000
   88       -2.079260   0.000000
   89       -2.015232   0.000000
   90       -1.854898   0.000000
   91       -1.774337   0.000000
   92       -1.448749   0.000000
   93       -1.309971   0.000000
   94       -1.299548   0.000000
   95       -1.132308   0.000000
   96       -1.096000   0.000000
   97       -1.085807   0.000000
   98       -0.988228   0.000000
   99       -0.917455   0.000000
  100       -0.810030   0.000000
  101       -0.800221   0.000000
  102       -0.750580   0.000000
  103       -0.731832   0.000000
  104       -0.589622   0.000000
  105       -0.547658   0.000000
  106       -0.226921   0.000000
  107       -0.164479   0.000000
  108       -0.067771   0.000000
  109        0.028024   0.000000
  110        0.136277   0.000000
  111        0.437807   0.000000
  112        0.562777   0.000000
  113        0.707634   0.000000
  114        0.885860   0.000000
  115        1.199615   0.000000
  116        1.274705   0.000000
  117        1.595952   0.000000
  118        2.237367   0.000000
  119        2.244549   0.000000
  120        2.401654   0.000000
 
  0.0000000E+00  0.1250000E+00  0.0000000E+00  0.3125000E-01
    1      -17.839172   1.000000
    2      -16.836011   1.000000
    3      -16.721705   1.000000
    4      -16.654589   1.000000
    5      -16.595588   1.000000
    6      -16.429595   1.000000
    7      -16.349954   1.000000
    8      -16.310852   1.000000
    9      -16.237815   1.000000
   10      -16.109373   1.000000
   11      -16.003588   1.000000
   12      -15.964644   1.000000
   13      -15.862828   1.000000
   14      -15.643819   1.000000
   15      -15.577166   1.000000
   16      -15.480286   1.000000
   17      -15.225704   1.000000
   18      -15.184679   1.000000
   19       -9.472292   1.000000
   20       -9.205230   1.000000
   21       -9.061620   1.000000
   22       -9.012334   1.000000
   23       -8.831709   1.000000
   24       -8.750679   1.000000
   25       -8.666385   1.000000
   26       -8.573641   1.000000
   27       -8.487797   1.000000
   28       -8.449435   1.000000
   29       -8.360693   1.000000
   30       -8.239990   1.000000
   31       -8.146014   1.000000
   32       -8.103635   1.000000
   33       -8.046406   1.000000
   34       -8.021677   1.000000
   35       -7.748717   1.000000
   36       -7.724829   1.000000
   37       -7.661272   1.000000
   38       -7.584547   1.000000
   39       -7.488914   1.000000
   40       -7.477975   1.000000
   41       -7.259303   1.000000
   42       -7.217076   1.000000
   43       -7.116818   1.000000
   44       -7.011036   1.000000
   45       -6.905747   1.000000
   46       -6.794694   1.000000
   47       -6.729445   1.000000
   48       -6.669350   1.000000
   49       -6.568296   1.000000
   50       -6.456343   1.000000
   51       -6.416510   1.000000
   52       -6.305426   1.000000
   53       -6.205360   1.000000
   54       -6.151566   1.000000
   55       -6.121021   1.000000
   56       -6.060359   1.000000
   57       -5.990098   1.000000
   58       -5.927937   1.000000
   59       -5.763680   1.000000
   60       -5.681605   1.000000
   61       -5.585866   1.000000
   62       -5.449361   1.000000
   63       -5.368828   1.000000
   64       -5.131476   1.000000
   65       -5.056491   1.000000
   66       -4.925463   1.000000
   67       -4.834666   1.000000
   68       -4.791507   1.000000
   69       -4.741795   1.000000
   70       -4.638559   1.000000
   71       -4.603318   1.000000
   72       -4.536862   1.000000
   73       -4.412035   1.000000
   74       -4.300238   1.000000
   75       -4.258783   1.000000
   76       -4.051642   1.000000
   77       -3.759607   0.999944
   78       -3.647767   0.998940
   79       -3.578105   0.995063
   80       -3.141216   0.305361
   81       -3.084966   0.182259
   82       -2.807167   0.002045
   83       -2.668856   0.000059
   84       -2.637267   0.000023
   85       -2.507049   0.000000
   86       -2.487047   0.000000
   87       -2.252607   0.000000
   88       -2.192074   0.000000
   89       -2.139331   0.000000
   90       -1.944501   0.000000
   91       -1.762003   0.000000
   92       -1.597633   0.000000
   93       -1.463157   0.000000
   94       -1.184151   0.000000
   95       -1.133394   0.000000
   96       -1.036833   0.000000
   97       -0.943355   0.000000
   98       -0.879977   0.000000
   99       -0.811642   0.000000
  100       -0.700017   0.000000
  101       -0.637454   0.000000
  102       -0.536439   0.000000
  103       -0.474569   0.000000
  104       -0.307880   0.000000
  105       -0.169143   0.000000
  106       -0.069819   0.000000
  107        0.009893   0.000000
  108        0.048948   0.000000
  109        0.147296   0.000000
  110        0.241416   0.000000
  111        0.484246   0.000000
  112        0.557217   0.000000
  113        0.595970   0.000000
  114        0.934664   0.000000
  115        0.974995   0.000000
  116        1.046883   0.000000
  117        1.106988   0.000000
  118        1.692735   0.000000
  119        1.884299   0.000000
  120        2.206982   0.000000
 
  0.1250000E+00  0.1250000E+00  0.0000000E+00  0.3125000E-01
    1      -17.793668   1.000000
    2      -16.917295   1.000000
    3      -16.816123   1.000000
    4      -16.711149   1.000000
    5      -16.525139   1.000000
    6      -16.420232   1.000000
    7      -16.345820   1.000000
    8      -16.330574   1.000000
    9      -16.247212   1.000000
   10      -16.018391   1.000000
   11      -15.994201   1.000000
   12      -15.915113   1.000000
   13      -15.812558   1.000000
   14      -15.654838   1.000000
   15      -15.571786   1.000000
   16      -15.493726   1.000000
   17      -15.255040   1.000000
   18      -15.185052   1.000000
   19       -9.503508   1.000000
   20       -9.323723   1.000000
   21       -9.238219   1.000000
   22       -9.109974   1.000000
   23       -8.856278   1.000000
   24       -8.686716   1.000000
   25       -8.649689   1.000000
   26       -8.547736   1.000000
   27       -8.480531   1.000000
   28       -8.442941   1.000000
   29       -8.328889   1.000000
   30       -8.252486   1.000000
   31       -8.113598   1.000000
   32       -8.050132   1.000000
   33       -7.978173   1.000000
   34       -7.867089   1.000000
   35       -7.741491   1.000000
   36       -7.708076   1.000000
   37       -7.604941   1.000000
   38       -7.541614   1.000000
   39       -7.468584   1.000000
   40       -7.370460   1.000000
   41       -7.248449   1.000000
   42       -7.217937   1.000000
   43       -7.180341   1.000000
   44       -7.018054   1.000000
   45       -6.929888   1.000000
   46       -6.807764   1.000000
   47       -6.774963   1.000000
   48       -6.664893   1.000000
   49       -6.500412   1.000000
   50       -6.465135   1.000000
   51       -6.388638   1.000000
   52       -6.294566   1.000000
   53       -6.258371   1.000000
   54       -6.197642   1.000000
   55       -6.110730   1.000000
   56       -6.038469   1.000000
   57       -5.970119   1.000000
   58       -5.902031   1.000000
   59       -5.755563   1.000000
   60       -5.605477   1.000000
   61       -5.562979   1.000000
   62       -5.486832   1.000000
   63       -5.447353   1.000000
   64       -5.266151   1.000000
   65       -5.203535   1.000000
   66       -5.049346   1.000000
   67       -4.879396   1.000000
   68       -4.798492   1.000000
   69       -4.744427   1.000000
   70       -4.615061   1.000000
   71       -4.486357   1.000000
   72       -4.405855   1.000000
   73       -4.354769   1.000000
   74       -4.250247   1.000000
   75       -4.215978   1.000000
   76       -4.095300   1.000000
   77       -3.911570   1.000000
   78       -3.672959   0.999425
   79       -3.543556   0.990253
   80       -3.283307   0.689945
   81       -2.920660   0.019291
   82       -2.805889   0.001987
   83       -2.663960   0.000051
   84       -2.610410   0.000010
   85       -2.497307   0.000000
   86       -2.463902   0.000000
   87       -2.222720   0.000000
   88       -2.139300   0.000000
   89       -2.087766   0.000000
   90       -1.950051   0.000000
   91       -1.752917   0.000000
   92       -1.580202   0.000000
   93       -1.440144   0.000000
   94       -1.196399   0.000000
   95       -1.156637   0.000000
   96       -1.055496   0.000000
   97       -0.945655   0.000000
   98       -0.889487   0.000000
   99       -0.849127   0.000000
  100       -0.769436   0.000000
  101       -0.729827   0.000000
  102       -0.659817   0.000000
  103       -0.563531   0.000000
  104       -0.424930   0.000000
  105       -0.212537   0.000000
  106       -0.107844   0.000000
  107       -0.078459   0.000000
  108        0.060799   0.000000
  109        0.197010   0.000000
  110        0.281224   0.000000
  111        0.423709   0.000000
  112        0.540924   0.000000
  113        0.625194   0.000000
  114        0.865927   0.000000
  115        1.041908   0.000000
  116        1.086513   0.000000
  117        1.238691   0.000000
  118        1.775678   0.000000
  119        1.962386   0.000000
  120        2.276595   0.000000
 
  0.2500000E+00  0.1250000E+00  0.0000000E+00  0.3125000E-01
    1      -17.706298   1.000000
    2      -17.091698   1.000000
    3      -16.895916   1.000000
    4      -16.710638   1.000000
    5      -16.506622   1.000000
    6      -16.437781   1.000000
    7      -16.363021   1.000000
    8      -16.275214   1.000000
    9      -16.209147   1.000000
   10      -16.039878   1.000000
   11      -15.942548   1.000000
   12      -15.838540   1.000000
   13      -15.777429   1.000000
   14      -15.634961   1.000000
   15      -15.565051   1.000000
   16      -15.476867   1.000000
   17      -15.311517   1.000000
   18      -15.195354   1.000000
   19       -9.663769   1.000000
   20       -9.441994   1.000000
   21       -9.367084   1.000000
   22       -9.137190   1.000000
   23       -8.858692   1.000000
   24       -8.653537   1.000000
   25       -8.583871   1.000000
   26       -8.480889   1.000000
   27       -8.457824   1.000000
   28       -8.422389   1.000000
   29       -8.318396   1.000000
   30       -8.264822   1.000000
   31       -8.104261   1.000000
   32       -8.025988   1.000000
   33       -7.970393   1.000000
   34       -7.907388   1.000000
   35       -7.744246   1.000000
   36       -7.639617   1.000000
   37       -7.572253   1.000000
   38       -7.466667   1.000000
   39       -7.348005   1.000000
   40       -7.337640   1.000000
   41       -7.265833   1.000000
   42       -7.198327   1.000000
   43       -7.105880   1.000000
   44       -7.018655   1.000000
   45       -6.879802   1.000000
   46       -6.811815   1.000000
   47       -6.724397   1.000000