       N       E                     dE             d eps       ncg     rms          rms(c)
DAV:   1     0.112652725561E+04    0.11265E+04   -0.35976E+04  8160   0.577E+02
DAV:   2    -0.282597932028E+01   -0.11294E+04   -0.10876E+04 11360   0.173E+02
DAV:   3    -0.199860886130E+03   -0.19703E+03   -0.18940E+03 10880   0.821E+01
DAV:   4    -0.209023958372E+03   -0.91631E+01   -0.89021E+01 12320   0.262E+01
DAV:   5    -0.209323335565E+03   -0.29938E+00   -0.29852E+00 11320   0.338E+00    0.275E+01
DAV:   6    -0.236722227304E+03   -0.27399E+02   -0.10622E+02 12480   0.604E+01    0.594E+01
DAV:   7    -0.196531841704E+03    0.40190E+02   -0.17708E+02 13160   0.152E+02    0.200E+01
DAV:   8    -0.189393493655E+03    0.71383E+01   -0.17313E+01 12120   0.127E+01    0.125E+01
DAV:   9    -0.188133642031E+03    0.12599E+01   -0.30449E+00 13320   0.649E+00    0.903E+00
DAV:  10    -0.187009316178E+03    0.11243E+01   -0.21779E+00 13480   0.718E+00    0.282E+00
DAV:  11    -0.186972164861E+03    0.37151E-01   -0.61267E-01 13360   0.261E+00    0.282E+00
DAV:  12    -0.187103954650E+03   -0.13179E+00   -0.89555E-01 12400   0.506E+00    0.496E+00
DAV:  13    -0.186887655404E+03    0.21630E+00   -0.53825E-01 12800   0.403E+00    0.218E+00
DAV:  14    -0.186862915734E+03    0.24740E-01   -0.13590E-01 13400   0.217E+00    0.177E+00
DAV:  15    -0.186839758488E+03    0.23157E-01   -0.72848E-02 12440   0.164E+00    0.835E-01
DAV:  16    -0.186832888075E+03    0.68704E-02   -0.10848E-02 12280   0.412E-01    0.472E-01
DAV:  17    -0.186831033528E+03    0.18545E-02   -0.79581E-03 12880   0.407E-01    0.236E-01
DAV:  18    -0.186830359330E+03    0.67420E-03   -0.29323E-03 12200   0.163E-01    0.204E-01
DAV:  19    -0.186829944048E+03    0.41528E-03   -0.10880E-03 11040   0.156E-01    0.460E-02
DAV:  20    -0.186830690949E+03   -0.74690E-03   -0.70453E-04  9200   0.565E-02    0.498E-02
DAV:  21    -0.186831273753E+03   -0.58280E-03   -0.24527E-04  8040   0.428E-02    0.391E-02
DAV:  22    -0.186832445660E+03   -0.11719E-02   -0.19176E-04  7520   0.513E-02    0.336E-02
DAV:  23    -0.186833672378E+03   -0.12267E-02   -0.13118E-04  7480   0.400E-02    0.107E-02
DAV:  24    -0.186834274854E+03   -0.60248E-03   -0.29830E-05  6640   0.135E-02    0.708E-03
DAV:  25    -0.186834631233E+03   -0.35638E-03   -0.14886E-05  5640   0.111E-02    0.475E-03
DAV:  26    -0.186834861490E+03   -0.23026E-03   -0.88167E-06  6800   0.716E-03    0.161E-03
DAV:  27    -0.186834961848E+03   -0.10036E-03   -0.36998E-06  7160   0.442E-03    0.136E-03
DAV:  28    -0.186835004847E+03   -0.42999E-04   -0.20176E-06  7480   0.338E-03
   1 F= -.18683500E+03 E0= -.18666286E+03  d E =-.186835E+03
       N       E                     dE             d eps       ncg     rms          rms(c)
DAV:   1    -0.187451620074E+03   -0.61666E+00   -0.27162E+02  8160   0.350E+01    0.457E+00
DAV:   2    -0.189148365915E+03   -0.16967E+01   -0.19866E+01 12240   0.145E+01    0.691E+00
DAV:   3    -0.189401875095E+03   -0.25351E+00   -0.31910E+00 12480   0.112E+01    0.725E+00
DAV:   4    -0.188718988585E+03    0.68289E+00   -0.67304E-01 12720   0.524E+00    0.182E+00
DAV:   5    -0.188724389652E+03   -0.54011E-02   -0.32211E-01 10720   0.177E+00    0.253E+00
DAV:   6    -0.188693619994E+03    0.30770E-01   -0.35717E-01 12880   0.295E+00    0.271E+00
DAV:   7    -0.188666105490E+03    0.27515E-01   -0.22825E-01 12360   0.278E+00    0.182E+00
DAV:   8    -0.188630012071E+03    0.36093E-01   -0.61178E-02 12680   0.121E+00    0.402E-01
DAV:   9    -0.188629506592E+03    0.50548E-03   -0.93942E-03 12080   0.482E-01    0.427E-01
DAV:  10    -0.188628761081E+03    0.74551E-03   -0.47429E-03 13600   0.385E-01    0.251E-01
DAV:  11    -0.188627962665E+03    0.79842E-03   -0.22391E-03 12920   0.169E-01    0.844E-02
DAV:  12    -0.188628050467E+03   -0.87802E-04   -0.82965E-04 11120   0.876E-02
   2 F= -.18862805E+03 E0= -.18848606E+03  d E =-.179305E+01
       N       E                     dE             d eps       ncg     rms          rms(c)
DAV:   1    -0.190541337523E+03   -0.19134E+01   -0.30732E+01  9280   0.141E+01    0.447E+00
DAV:   2    -0.190564069065E+03   -0.22732E-01   -0.28735E+00 11360   0.991E+00    0.763E+00
DAV:   3    -0.190007343783E+03    0.55673E+00   -0.13289E+00 12280   0.870E+00    0.406E+00
DAV:   4    -0.189808162545E+03    0.19918E+00   -0.67129E-01 12760   0.395E+00    0.249E+00
DAV:   5    -0.189732716315E+03    0.75446E-01   -0.30850E-01 11400   0.212E+00    0.151E+00
DAV:   6    -0.189711925451E+03    0.20791E-01   -0.81463E-02 11960   0.167E+00    0.898E-01
DAV:   7    -0.189704484503E+03    0.74409E-02   -0.16079E-02 12680   0.700E-01    0.194E-01
DAV:   8    -0.189704562399E+03   -0.77896E-04   -0.25439E-03 11040   0.180E-01    0.158E-01
DAV:   9    -0.189704759541E+03   -0.19714E-03   -0.11642E-03 11120   0.197E-01    0.193E-01
DAV:  10    -0.189705043170E+03   -0.28363E-03   -0.15166E-03 10360   0.266E-01    0.216E-01
DAV:  11    -0.189704548277E+03    0.49489E-03   -0.76962E-04  9600   0.160E-01    0.237E-02
DAV:  12    -0.189704577778E+03   -0.29501E-04   -0.82551E-05  6520   0.329E-02
   3 F= -.18970458E+03 E0= -.18958515E+03  d E =-.107653E+01
       N       E                     dE             d eps       ncg     rms          rms(c)
DAV:   1    -0.191217611276E+03   -0.15131E+01   -0.66696E+01  8160   0.187E+01    0.459E+00
DAV:   2    -0.191163201957E+03    0.54409E-01   -0.53676E+00 13520   0.882E+00    0.563E+00
DAV:   3    -0.191084191187E+03    0.79011E-01   -0.15496E+00 12000   0.920E+00    0.586E+00
DAV:   4    -0.190765464525E+03    0.31873E+00   -0.11101E+00 13000   0.652E+00    0.283E+00
DAV:   5    -0.190755574577E+03    0.98899E-02   -0.43846E-01 12200   0.429E+00    0.312E+00
DAV:   6    -0.190641925873E+03    0.11365E+00   -0.19437E-01 12240   0.318E+00    0.926E-01
DAV:   7    -0.190636373796E+03    0.55521E-02   -0.36052E-02 12520   0.994E-01    0.542E-01
DAV:   8    -0.190635182871E+03    0.11909E-02   -0.13309E-02 11440   0.774E-01    0.580E-01
DAV:   9    -0.190631974922E+03    0.32079E-02   -0.49780E-03 11640   0.509E-01    0.139E-01
DAV:  10    -0.190632336580E+03   -0.36166E-03   -0.12268E-03 10120   0.125E-01    0.125E-01
DAV:  11    -0.190632141554E+03    0.19503E-03   -0.78230E-04 10720   0.107E-01    0.457E-02
DAV:  12    -0.190632146162E+03   -0.46079E-05   -0.11564E-04  7120   0.432E-02
   4 F= -.19063215E+03 E0= -.19053229E+03  d E =-.927568E+00
       N       E                     dE             d eps       ncg     rms          rms(c)
DAV:   1    -0.192063071445E+03   -0.14309E+01   -0.14051E+02  8160   0.267E+01    0.586E+00
DAV:   2    -0.191875017773E+03    0.18805E+00   -0.98036E+00 12600   0.977E+00    0.526E+00
DAV:   3    -0.192154074707E+03   -0.27906E+00   -0.24254E+00 10920   0.113E+01    0.935E+00
DAV:   4    -0.191526946898E+03    0.62713E+00   -0.29287E+00 12120   0.116E+01    0.410E+00
DAV:   5    -0.191454090859E+03    0.72856E-01   -0.85402E-01 12240   0.622E+00    0.371E+00
DAV:   6    -0.191264299075E+03    0.18979E+00   -0.28978E-01 12280   0.399E+00    0.973E-01
DAV:   7    -0.191257870798E+03    0.64283E-02   -0.53416E-02 12160   0.112E+00    0.540E-01
DAV:   8    -0.191252986025E+03    0.48848E-02   -0.10670E-02 10560   0.492E-01    0.262E-01
DAV:   9    -0.191253862343E+03   -0.87632E-03   -0.42434E-03 12640   0.475E-01    0.365E-01
DAV:  10    -0.191253000274E+03    0.86207E-03   -0.32464E-03 11240   0.375E-01    0.104E-01
DAV:  11    -0.191252915185E+03    0.85089E-04   -0.68404E-04 10440   0.103E-01
   5 F= -.19125292E+03 E0= -.19116047E+03  d E =-.620769E+00
       N       E                     dE             d eps       ncg     rms          rms(c)
DAV:   1    -0.191316073508E+03   -0.63073E-01   -0.59261E+00  8160   0.515E+00    0.671E-01
DAV:   2    -0.191374203726E+03   -0.58130E-01   -0.25323E-01 13320   0.257E+00    0.223E+00
DAV:   3    -0.191326789889E+03    0.47414E-01   -0.12021E-01 11840   0.239E+00    0.579E-01
DAV:   4    -0.191326124035E+03    0.66585E-03   -0.15090E-02 11400   0.824E-01    0.567E-01
DAV:   5    -0.191322917140E+03    0.32069E-02   -0.74761E-03 11280   0.662E-01    0.246E-01
DAV:   6    -0.191322301963E+03    0.61518E-03   -0.21874E-03 11080   0.256E-01    0.133E-01
DAV:   7    -0.191322677175E+03   -0.37521E-03   -0.19491E-03 11680   0.295E-01    0.233E-01
DAV:   8    -0.191322133387E+03    0.54379E-03   -0.11837E-03  9960   0.263E-01    0.699E-02
DAV:   9    -0.191322085385E+03    0.48002E-04   -0.11931E-04  6200   0.659E-02
   6 F= -.19132209E+03 E0= -.19122623E+03  d E =-.691702E-01
       N       E                     dE             d eps       ncg     rms          rms(c)
DAV:   1    -0.191368286055E+03   -0.46153E-01   -0.29546E+00  8160   0.363E+00    0.466E-01
DAV:   2    -0.191397353956E+03   -0.29068E-01   -0.12075E-01 13600   0.192E+00    0.159E+00
DAV:   3    -0.191372588303E+03    0.24766E-01   -0.57024E-02 12040   0.166E+00    0.375E-01
DAV:   4    -0.191372707237E+03   -0.11893E-03   -0.73063E-03 11320   0.584E-01    0.410E-01
DAV:   5    -0.191371035699E+03    0.16715E-02   -0.37171E-03 11240   0.459E-01    0.162E-01
DAV:   6    -0.191370791014E+03    0.24469E-03   -0.10633E-03 10600   0.169E-01    0.918E-02
DAV:   7    -0.191370960592E+03   -0.16958E-03   -0.88538E-04 10360   0.196E-01    0.155E-01
DAV:   8    -0.191370711378E+03    0.24921E-03   -0.50015E-04  8600   0.173E-01    0.438E-02
DAV:   9    -0.191370697297E+03    0.14081E-04   -0.57085E-05  6240   0.450E-02
   7 F= -.19137070E+03 E0= -.19127261E+03  d E =-.486119E-01
       N       E                     dE             d eps       ncg     rms          rms(c)
DAV:   1    -0.191312172033E+03    0.58539E-01   -0.40824E+00  8160   0.429E+00    0.543E-01
DAV:   2    -0.191343740763E+03   -0.31569E-01   -0.15358E-01 13600   0.210E+00    0.151E+00
DAV:   3    -0.191316669979E+03    0.27071E-01   -0.48007E-02 12000   0.168E+00    0.383E-01
DAV:   4    -0.191316985812E+03   -0.31583E-03   -0.89019E-03 11520   0.601E-01    0.454E-01
DAV:   5    -0.191315122174E+03    0.18636E-02   -0.54252E-03 11440   0.551E-01    0.235E-01
DAV:   6    -0.191314563204E+03    0.55897E-03   -0.18915E-03 11720   0.252E-01    0.103E-01
DAV:   7    -0.191314490229E+03    0.72975E-04   -0.75129E-04 10440   0.121E-01
   8 F= -.19131449E+03 E0= -.19121914E+03  d E =0.562071E-01
       N       E                     dE             d eps       ncg     rms          rms(c)
DAV:   1    -0.191235550660E+03    0.79013E-01   -0.92116E+00  8160   0.644E+00    0.728E-01
DAV:   2    -0.191280317306E+03   -0.44767E-01   -0.28191E-01 13600   0.224E+00    0.164E+00
DAV:   3    -0.191249353536E+03    0.30964E-01   -0.79860E-02 12400   0.209E+00    0.727E-01
DAV:   4    -0.191246630578E+03    0.27230E-02   -0.19540E-02 12640   0.869E-01    0.524E-01
DAV:   5    -0.191244311636E+03    0.23189E-02   -0.91540E-03 11680   0.693E-01    0.389E-01
DAV:   6    -0.191242977416E+03    0.13342E-02   -0.46150E-03 11040   0.477E-01    0.198E-01
DAV:   7    -0.191242958002E+03    0.19415E-04   -0.21304E-03 11920   0.275E-01    0.185E-01
DAV:   8    -0.191242620730E+03    0.33727E-03   -0.10362E-03 10320   0.242E-01    0.102E-01
DAV:   9    -0.191242502763E+03    0.11797E-03   -0.22893E-04  7560   0.105E-01    0.242E-02
DAV:  10    -0.191242504849E+03   -0.20854E-05   -0.63791E-05  7680   0.312E-02
   9 F= -.19124250E+03 E0= -.19115144E+03  d E =0.719854E-01
       N       E                     dE             d eps       ncg     rms          rms(c)
DAV:   1    -0.191296219950E+03   -0.53717E-01   -0.52718E+00  8160   0.485E+00    0.584E-01
DAV:   2    -0.191336938771E+03   -0.40719E-01   -0.19121E-01 13520   0.208E+00    0.183E+00
DAV:   3    -0.191304675352E+03    0.32263E-01   -0.86165E-02 12200   0.203E+00    0.536E-01
DAV:   4    -0.191303584794E+03    0.10906E-02   -0.11177E-02 11400   0.678E-01    0.474E-01
DAV:   5    -0.191301417081E+03    0.21677E-02   -0.53835E-03 11480   0.557E-01    0.230E-01
DAV:   6    -0.191300962496E+03    0.45458E-03   -0.20214E-03 11080   0.266E-01    0.146E-01
DAV:   7    -0.191301266837E+03   -0.30434E-03   -0.17793E-03 11960   0.292E-01    0.225E-01
DAV:   8    -0.191300737596E+03    0.52924E-03   -0.99788E-04  9520   0.244E-01    0.565E-02
DAV:   9    -0.191300708657E+03    0.28940E-04   -0.94165E-05  6160   0.550E-02
  10 F= -.19130071E+03 E0= -.19120560E+03  d E =-.582038E-01
       N       E                     dE             d eps       ncg     rms          rms(c)
DAV:   1    -0.191317275009E+03   -0.16537E-01   -0.42344E-01  8160   0.139E+00    0.210E-01
DAV:   2    -0.191322991680E+03   -0.57167E-02   -0.22071E-02 13360   0.893E-01    0.715E-01
DAV:   3    -0.191317597888E+03    0.53938E-02   -0.10220E-02 11520   0.734E-01    0.144E-01
DAV:   4    -0.191317747361E+03   -0.14947E-03   -0.14200E-03 10080   0.262E-01    0.192E-01
DAV:   5    -0.191317390571E+03    0.35679E-03   -0.85835E-04  9720   0.219E-01    0.819E-02
DAV:   6    -0.191317316882E+03    0.73690E-04   -0.22362E-04  6600   0.841E-02
  11 F= -.19131732E+03 E0= -.19122083E+03  d E =-.166082E-01
       N       E                     dE             d eps       ncg     rms          rms(c)
DAV:   1    -0.191382549824E+03   -0.65159E-01   -0.69214E+00  8160   0.559E+00    0.752E-01
DAV:   2    -0.191458208715E+03   -0.75659E-01   -0.30454E-01 13480   0.310E+00    0.270E+00
DAV:   3    -0.191391911694E+03    0.66297E-01   -0.17181E-01 11880   0.274E+00    0.623E-01
DAV:   4    -0.191392217722E+03   -0.30603E-03   -0.20819E-02 11600   0.101E+00    0.696E-01
DAV:   5    -0.191387223478E+03    0.49942E-02   -0.10707E-02 11680   0.766E-01    0.265E-01
DAV:   6    -0.191386479001E+03    0.74448E-03   -0.33045E-03 11080   0.296E-01    0.164E-01
DAV:   7    -0.191387060910E+03   -0.58191E-03   -0.29843E-03 11880   0.385E-01    0.294E-01
DAV:   8    -0.191386124891E+03    0.93602E-03   -0.16002E-03 10160   0.302E-01    0.580E-02
DAV:   9    -0.191386088558E+03    0.36334E-04   -0.11681E-04  6120   0.559E-02
  12 F= -.19138609E+03 E0= -.19128538E+03  d E =-.687717E-01
       N       E                     dE             d eps       ncg     rms          rms(c)
DAV:   1    -0.191396458857E+03   -0.10334E-01   -0.15310E-01  8160   0.833E-01    0.987E-02
DAV:   2    -0.191397375952E+03   -0.91709E-03   -0.51573E-03 13600   0.342E-01    0.265E-01
DAV:   3    -0.191396672126E+03    0.70383E-03   -0.18564E-03 10320   0.305E-01    0.927E-02
DAV:   4    -0.191396658646E+03    0.13481E-04   -0.34102E-04  7640   0.122E-01
  13 F= -.19139666E+03 E0= -.19129567E+03  d E =-.105701E-01
       N       E                     dE             d eps       ncg     rms          rms(c)
DAV:   1    -0.191348621486E+03    0.48051E-01   -0.40608E+00  8160   0.431E+00    0.551E-01
DAV:   2    -0.191372938388E+03   -0.24317E-01   -0.14594E-01 13600   0.190E+00    0.131E+00
DAV:   3    -0.191352335802E+03    0.20603E-01   -0.41336E-02 12240   0.155E+00    0.400E-01
DAV:   4    -0.191351578615E+03    0.75719E-03   -0.83996E-03 11360   0.541E-01    0.359E-01
DAV:   5    -0.191350770778E+03    0.80784E-03   -0.57714E-03 12360   0.517E-01    0.332E-01
DAV:   6    -0.191349848638E+03    0.92214E-03   -0.33174E-03 11520   0.394E-01    0.155E-01
DAV:   7    -0.191349670545E+03    0.17809E-03   -0.11342E-03 10400   0.175E-01    0.991E-02
DAV:   8    -0.191349632326E+03    0.38219E-04   -0.50380E-04  9280   0.161E-01
  14 F= -.19134963E+03 E0= -.19124996E+03  d E =0.470263E-01
       N       E                     dE             d eps       ncg     rms          rms(c)
DAV:   1    -0.191431283226E+03   -0.81613E-01   -0.10460E+01  8160   0.693E+00    0.901E-01
DAV:   2    -0.191509270124E+03   -0.77987E-01   -0.40671E-01 13560   0.328E+00    0.257E+00
DAV:   3    -0.191444774364E+03    0.64496E-01   -0.17676E-01 12280   0.294E+00    0.753E-01
DAV:   4    -0.191443626617E+03    0.11477E-02   -0.29836E-02 12280   0.112E+00    0.791E-01
DAV:   5    -0.191438076396E+03    0.55502E-02   -0.18548E-02 11840   0.996E-01    0.466E-01
DAV:   6    -0.191435940526E+03    0.21359E-02   -0.75979E-03 11640   0.522E-01    0.242E-01
DAV:   7    -0.191436739811E+03   -0.79928E-03   -0.55513E-03 11880   0.513E-01    0.381E-01
DAV:   8    -0.191435234160E+03    0.15057E-02   -0.29118E-03 11440   0.401E-01    0.900E-02
DAV:   9    -0.191435116982E+03    0.11718E-03   -0.33461E-04  8360   0.890E-02    0.287E-02
DAV:  10    -0.191435108573E+03    0.84087E-05   -0.89282E-05  7880   0.347E-02
  15 F= -.19143511E+03 E0= -.19133261E+03  d E =-.854762E-01
       N       E                     dE             d eps       ncg     rms          rms(c)
DAV:   1    -0.191458290113E+03   -0.23173E-01   -0.80277E-01  8160   0.190E+00    0.248E-01
DAV:   2    -0.191466092315E+03   -0.78022E-02   -0.33791E-02 13600   0.991E-01    0.843E-01
DAV:   3    -0.191459274966E+03    0.68173E-02   -0.15820E-02 11920   0.860E-01    0.189E-01
DAV:   4    -0.191459346346E+03   -0.71380E-04   -0.19195E-03 10560   0.294E-01    0.213E-01
DAV:   5    -0.191458900578E+03    0.44577E-03   -0.11305E-03 10040   0.255E-01    0.965E-02
DAV:   6    -0.191458853873E+03    0.46705E-04   -0.45144E-04  8440   0.128E-01
  16 F= -.19145885E+03 E0= -.19135592E+03  d E =-.237453E-01
       N       E                     dE             d eps       ncg     rms          rms(c)
DAV:   1    -0.191450997469E+03    0.79031E-02   -0.57037E-01  8160   0.168E+00    0.334E-01
DAV:   2    -0.191461337891E+03   -0.10340E-01   -0.41158E-02 12720   0.123E+00    0.104E+00
DAV:   3    -0.191450217778E+03    0.11120E-01   -0.23696E-02 11520   0.112E+00    0.242E-01
DAV:   4    -0.191449918416E+03    0.29936E-03   -0.32132E-03 10920   0.347E-01    0.211E-01
DAV:   5    -0.191449733314E+03    0.18510E-03   -0.24381E-03 10360   0.359E-01    0.211E-01
DAV:   6    -0.191449317930E+03    0.41538E-03   -0.12584E-03  9680   0.240E-01    0.974E-02
DAV:   7    -0.191449280951E+03    0.36980E-04   -0.47544E-04  7960   0.152E-01
  17 F= -.19144928E+03 E0= -.19134716E+03  d E =0.957292E-02
       N       E                     dE             d eps       ncg     rms          rms(c)
DAV:   1    -0.191519982804E+03   -0.70665E-01   -0.69833E+00  8160   0.566E+00    0.772E-01
DAV:   2    -0.191583449766E+03   -0.63467E-01   -0.30508E-01 13480   0.290E+00    0.249E+00
DAV:   3    -0.191528325562E+03    0.55124E-01   -0.15666E-01 12320   0.262E+00    0.604E-01
DAV:   4    -0.191528924064E+03   -0.59850E-03   -0.19993E-02 12280   0.992E-01    0.734E-01
DAV:   5    -0.191523439941E+03    0.54841E-02   -0.13280E-02 11640   0.878E-01    0.315E-01
DAV:   6    -0.191523044722E+03    0.39522E-03   -0.53763E-03 11680   0.452E-01    0.279E-01
DAV:   7    -0.191522826764E+03    0.21796E-03   -0.39442E-03 12040   0.468E-01    0.242E-01
DAV:   8    -0.191522097836E+03    0.72893E-03   -0.10819E-03  9920   0.233E-01    0.439E-02
DAV:   9    -0.191522075492E+03    0.22344E-04   -0.12532E-04  6200   0.450E-02
  18 F= -.19152208E+03 E0= -.19142023E+03  d E =-.727945E-01
       N       E                     dE             d eps       ncg     rms          rms(c)
DAV:   1    -0.191591922522E+03   -0.69825E-01   -0.62994E+00  8160   0.538E+00    0.599E-01
DAV:   2    -0.191613823952E+03   -0.21901E-01   -0.19454E-01 13400   0.175E+00    0.121E+00
DAV:   3    -0.191602790038E+03    0.11034E-01   -0.56225E-02 12160   0.163E+00    0.646E-01
DAV:   4    -0.191599725706E+03    0.30643E-02   -0.12312E-02 12400   0.751E-01    0.446E-01
DAV:   5    -0.191598047855E+03    0.16779E-02   -0.67752E-03 11680   0.640E-01    0.316E-01
DAV:   6    -0.191597472399E+03    0.57546E-03   -0.40769E-03 11800   0.416E-01    0.199E-01
DAV:   7    -0.191597365420E+03    0.10698E-03   -0.21770E-03 11480   0.329E-01    0.207E-01
DAV:   8    -0.191596884778E+03    0.48064E-03   -0.87502E-04  9280   0.231E-01    0.514E-02
DAV:   9    -0.191596859374E+03    0.25403E-04   -0.12494E-04  6280   0.593E-02
  19 F= -.19159686E+03 E0= -.19149822E+03  d E =-.747839E-01
       N       E                     dE             d eps       ncg     rms          rms(c)
DAV:   1    -0.191585782495E+03    0.11102E-01   -0.12864E-01  8160   0.768E-01    0.815E-02
DAV:   2    -0.191586000851E+03   -0.21836E-03   -0.34853E-03 12640   0.182E-01    0.865E-02
DAV:   3    -0.191586032105E+03   -0.31254E-04   -0.61139E-04 10000   0.180E-01
  20 F= -.19158603E+03 E0= -.19148643E+03  d E =0.108273E-01
       N       E                     dE             d eps       ncg     rms          rms(c)
DAV:   1    -0.191579641260E+03    0.63596E-02   -0.84586E-02  8160   0.623E-01    0.843E-02
DAV:   2    -0.191579863434E+03   -0.22217E-03   -0.22710E-03 13400   0.199E-01    0.136E-01
DAV:   3    -0.191579714896E+03    0.14854E-03   -0.84815E-04  9280   0.212E-01    0.107E-01
DAV:   4    -0.191579607886E+03    0.10701E-03   -0.29955E-04  7080   0.121E-01    0.451E-02
DAV:   5    -0.191579589939E+03    0.17947E-04   -0.93120E-05  6440   0.577E-02
  21 F= -.19157959E+03 E0= -.19148002E+03  d E =0.644217E-02
       N       E                     dE             d eps       ncg     rms          rms(c)
DAV:   1    -0.191642325631E+03   -0.62718E-01   -0.49680E+00  8160   0.477E+00    0.493E-01
DAV:   2    -0.191654286818E+03   -0.11961E-01   -0.14042E-01 12200   0.124E+00    0.738E-01
DAV:   3    -0.191652708549E+03    0.15783E-02   -0.31554E-02 12160   0.124E+00    0.657E-01
DAV:   4    -0.191648371219E+03    0.43373E-02   -0.89888E-03 12080   0.663E-01    0.259E-01
DAV:   5    -0.191647848642E+03    0.52258E-03   -0.32827E-03 11400   0.392E-01    0.247E-01
DAV:   6    -0.191647804599E+03    0.44043E-04   -0.30803E-03 11800   0.418E-01    0.219E-01
DAV:   7    -0.191647274522E+03    0.53008E-03   -0.12957E-03  9600   0.253E-01    0.105E-01
DAV:   8    -0.191647173616E+03    0.10091E-03   -0.34538E-04  8360   0.143E-01    0.540E-02
DAV:   9    -0.191647143453E+03    0.30163E-04   -0.98472E-05  6640   0.672E-02
  22 F= -.19164714E+03 E0= -.19155135E+03  d E =-.675535E-01
       N       E                     dE             d eps       ncg     rms          rms(c)
DAV:   1    -0.191677281003E+03   -0.30107E-01   -0.10713E+00  8160   0.221E+00    0.225E-01
DAV:   2    -0.191679164477E+03   -0.18835E-02   -0.30374E-02 12040   0.484E-01    0.178E-01
DAV:   3    -0.191679689168E+03   -0.52469E-03   -0.38309E-03 12480   0.419E-01    0.302E-01
DAV:   4    -0.191678745445E+03    0.94372E-03   -0.21532E-03 10600   0.362E-01    0.127E-01
DAV:   5    -0.191678638600E+03    0.10685E-03   -0.68541E-04  9360   0.168E-01    0.988E-02
DAV:   6    -0.191678699073E+03   -0.60473E-04   -0.58426E-04  9360   0.191E-01
  23 F= -.19167870E+03 E0= -.19158483E+03  d E =-.315556E-01
       N       E                     dE             d eps       ncg     rms          rms(c)
DAV:   1    -0.191759400996E+03   -0.80762E-01   -0.10184E+01  8160   0.684E+00    0.688E-01
DAV:   2    -0.191778652542E+03   -0.19252E-01   -0.30157E-01 11640   0.152E+00    0.508E-01
DAV:   3    -0.191782975992E+03   -0.43235E-02   -0.27946E-02 12480   0.120E+00    0.850E-01
DAV:   4    -0.191774871437E+03    0.81046E-02   -0.14457E-02 11840   0.104E+00    0.371E-01
DAV:   5    -0.191774271288E+03    0.60015E-03   -0.64114E-03 11920   0.550E-01    0.330E-01
DAV:   6    -0.191774456255E+03   -0.18497E-03   -0.55770E-03 12520   0.593E-01    0.333E-01
DAV:   7    -0.191772936133E+03    0.15201E-02   -0.21209E-03 11400   0.347E-01    0.658E-02
DAV:   8    -0.191772975594E+03   -0.39461E-04   -0.34909E-04  8960   0.131E-01
  24 F= -.19177298E+03 E0= -.19168471E+03  d E =-.942765E-01
       N       E                     dE             d eps       ncg     rms          rms(c)
DAV:   1    -0.191853094485E+03   -0.80158E-01   -0.12671E+01  8160   0.765E+00    0.791E-01
DAV:   2    -0.191876655046E+03   -0.23561E-01   -0.39017E-01 11640   0.164E+00    0.496E-01
DAV:   3    -0.191877371030E+03   -0.71598E-03   -0.25920E-02 12360   0.917E-01    0.689E-01
DAV:   4    -0.191873043663E+03    0.43274E-02   -0.15258E-02 12400   0.104E+00    0.511E-01
DAV:   5    -0.191871016809E+03    0.20269E-02   -0.93124E-03 12560   0.692E-01    0.294E-01
DAV:   6    -0.191870934994E+03    0.81815E-04   -0.50561E-03 12120   0.511E-01    0.303E-01
DAV:   7    -0.191869749274E+03    0.11857E-02   -0.17221E-03 11920   0.358E-01    0.655E-02
DAV:   8    -0.191869722034E+03    0.27240E-04   -0.32283E-04  9040   0.967E-02
  25 F= -.19186972E+03 E0= -.19178720E+03  d E =-.967464E-01
       N       E                     dE             d eps       ncg     rms          rms(c)
DAV:   1    -0.191921238206E+03   -0.51489E-01   -0.63510E+00  8160   0.535E+00    0.549E-01
DAV:   2    -0.191939673178E+03   -0.18435E-01   -0.21067E-01 11600   0.148E+00    0.705E-01
DAV:   3    -0.191938976140E+03    0.69704E-03   -0.25552E-02 12040   0.134E+00    0.712E-01
DAV:   4    -0.191933598715E+03    0.53774E-02   -0.98297E-03 12120   0.804E-01    0.245E-01
DAV:   5    -0.191933486749E+03    0.11197E-03   -0.34559E-03 11840   0.449E-01    0.256E-01
DAV:   6    -0.191933327296E+03    0.15945E-03   -0.25923E-03 12280   0.423E-01    0.193E-01
DAV:   7    -0.191932724890E+03    0.60241E-03   -0.96753E-04 10320   0.195E-01    0.408E-02
DAV:   8    -0.191932742913E+03   -0.18023E-04   -0.15888E-04  6640   0.864E-02
  26 F= -.19193274E+03 E0= -.19185461E+03  d E =-.630209E-01
       N       E                     dE             d eps       ncg     rms          rms(c)
DAV:   1    -0.191950224366E+03   -0.17499E-01   -0.56677E-01  8160   0.164E+00    0.217E-01
DAV:   2    -0.191951278890E+03   -0.10545E-02   -0.21880E-02 11880   0.467E-01    0.207E-01
DAV:   3    -0.191951554338E+03   -0.27545E-03   -0.31199E-03 12440   0.463E-01    0.272E-01
DAV:   4    -0.191950699726E+03    0.85461E-03   -0.15191E-03 11280   0.347E-01    0.114E-01
DAV:   5    -0.191950731487E+03   -0.31761E-04   -0.72584E-04  9920   0.213E-01
  27 F= -.19195073E+03 E0= -.19187346E+03  d E =-.179886E-01
       N       E                     dE             d eps       ncg     rms          rms(c)
DAV:   1    -0.191990701453E+03   -0.40002E-01   -0.39172E+00  8160   0.422E+00    0.450E-01
DAV:   2    -0.191999308067E+03   -0.86066E-02   -0.11983E-01 12120   0.106E+00    0.472E-01
DAV:   3    -0.192001221450E+03   -0.19134E-02   -0.15067E-02 12280   0.105E+00    0.653E-01
DAV:   4    -0.191996306030E+03    0.49154E-02   -0.66330E-03 12200   0.707E-01    0.158E-01
DAV:   5    -0.191996475729E+03   -0.16970E-03   -0.20599E-03 11800   0.255E-01    0.184E-01
DAV:   6    -0.191996278388E+03    0.19734E-03   -0.14886E-03 12960   0.325E-01    0.151E-01
DAV:   7    -0.191995947733E+03    0.33066E-03   -0.45146E-04  9000   0.176E-01    0.244E-02
DAV:   8    -0.191995949653E+03   -0.19201E-05   -0.73842E-05  6960   0.399E-02
  28 F= -.19199595E+03 E0= -.19192186E+03  d E =-.452182E-01
       N       E                     dE             d eps       ncg     rms          rms(c)
DAV:   1    -0.192023211594E+03   -0.27264E-01   -0.20125E+00  8160   0.301E+00    0.332E-01
DAV:   2    -0.192028688166E+03   -0.54766E-02   -0.70531E-02 12240   0.921E-01    0.388E-01
DAV:   3    -0.192028115481E+03    0.57269E-03   -0.82008E-03 12360   0.746E-01    0.341E-01
DAV:   4    -0.192026725367E+03    0.13901E-02   -0.27959E-03 12240   0.445E-01    0.158E-01
DAV:   5    -0.192026711601E+03    0.13766E-04   -0.12711E-03 11320   0.273E-01    0.168E-01
DAV:   6    -0.192026598220E+03    0.11338E-03   -0.10009E-03 10960   0.280E-01    0.122E-01
DAV:   7    -0.192026404253E+03    0.19397E-03   -0.32299E-04  8720   0.130E-01    0.289E-02
DAV:   8    -0.192026404791E+03   -0.53754E-06   -0.60278E-05  6400   0.524E-02
  29 F= -.19202640E+03 E0= -.19195483E+03  d E =-.304551E-01
       N       E                     dE             d eps       ncg     rms          rms(c)
DAV:   1    -0.192046037930E+03   -0.19634E-01   -0.10527E+00  8160   0.220E+00    0.251E-01
DAV:   2    -0.192048359239E+03   -0.23213E-02   -0.37088E-02 12240   0.550E-01    0.206E-01
DAV:   3    -0.192049014113E+03   -0.65487E-03   -0.38138E-03 12440   0.504E-01    0.336E-01
DAV:   4    -0.192047768689E+03    0.12454E-02   -0.19893E-03 12400   0.413E-01    0.120E-01
DAV:   5    -0.192047694789E+03    0.73899E-04   -0.74433E-04 10240   0.179E-01
  30 F= -.19204769E+03 E0= -.19197730E+03  d E =-.212900E-01
       N       E                     dE             d eps       ncg     rms          rms(c)
DAV:   1    -0.192090751502E+03   -0.42983E-01   -0.17417E+01  8160   0.888E+00    0.929E-01
DAV:   2    -0.192127425211E+03   -0.36674E-01   -0.54468E-01 12160   0.205E+00    0.700E-01
DAV:   3    -0.192139554323E+03   -0.12129E-01   -0.48267E-02 12440   0.184E+00    0.133E+00
DAV:   4    -0.192120176206E+03    0.19378E-01   -0.28350E-02 12120   0.157E+00    0.386E-01
DAV:   5    -0.192119332874E+03    0.84333E-03   -0.87373E-03 11760   0.516E-01    0.310E-01
DAV:   6    -0.192119285882E+03    0.46992E-04   -0.59356E-03 12960   0.619E-01    0.329E-01
DAV:   7    -0.192117795010E+03    0.14909E-02   -0.20336E-03 12640   0.400E-01    0.566E-02
DAV:   8    -0.192117772547E+03    0.22463E-04   -0.26883E-04  8240   0.700E-02
  31 F= -.19211777E+03 E0= -.19205188E+03  d E =-.700778E-01
       N       E                     dE             d eps       ncg     rms          rms(c)
DAV:   1    -0.192120234303E+03   -0.24393E-02   -0.24044E-01  8160   0.115E+00    0.251E-01
DAV:   2    -0.192119866483E+03    0.36782E-03   -0.11138E-02 11800   0.493E-01    0.325E-01
DAV:   3    -0.192119329477E+03    0.53701E-03   -0.42540E-03 12360   0.594E-01    0.276E-01
DAV:   4    -0.192118427277E+03    0.90220E-03   -0.18711E-03 11760   0.369E-01    0.132E-01
DAV:   5    -0.192118424554E+03    0.27230E-05   -0.10681E-03 10440   0.261E-01    0.149E-01
DAV:   6    -0.192118130863E+03    0.29369E-03   -0.47315E-04  9160   0.188E-01    0.311E-02
DAV:   7    -0.192118137996E+03   -0.71330E-05   -0.81659E-05  6480   0.524E-02
  32 F= -.19211814E+03 E0= -.19205255E+03  d E =-.365449E-03
       N       E                     dE             d eps       ncg     rms          rms(c)
DAV:   1    -0.192130211287E+03   -0.12080E-01   -0.96371E-01  8160   0.209E+00    0.232E-01
DAV:   2    -0.192132389659E+03   -0.21784E-02   -0.33940E-02 12240   0.519E-01    0.164E-01
DAV:   3    -0.192132410756E+03   -0.21097E-04   -0.26258E-03 12560   0.316E-01    0.199E-01
DAV:   4    -0.192132007455E+03    0.40330E-03   -0.11114E-03 11360   0.307E-01    0.138E-01
DAV:   5    -0.192131844341E+03    0.16311E-03   -0.71000E-04 10440   0.191E-01    0.803E-02
DAV:   6    -0.192131910145E+03   -0.65804E-04   -0.42903E-04  9240   0.173E-01
  33 F= -.19213191E+03 E0= -.19206710E+03  d E =-.137721E-01
       N       E                     dE             d eps       ncg     rms          rms(c)
DAV:   1    -0.192140693953E+03   -0.88496E-02   -0.63586E-01  8160   0.169E+00    0.198E-01
DAV:   2    -0.192142242524E+03   -0.15486E-02   -0.23413E-02 11880   0.482E-01    0.184E-01
DAV:   3    -0.192142329276E+03   -0.86753E-04   -0.26960E-03 12360   0.401E-01    0.215E-01
DAV:   4    -0.192141794627E+03    0.53465E-03   -0.10432E-03 11240   0.291E-01    0.100E-01
DAV:   5    -0.192141734903E+03    0.59724E-04   -0.35511E-04  9120   0.143E-01
  34 F= -.19214173E+03 E0= -.19207763E+03  d E =-.982476E-02
       N       E                     dE             d eps       ncg     rms          rms(c)
DAV:   1    -0.192148232921E+03   -0.64383E-02   -0.17328E+01  8160   0.883E+00    0.966E-01
DAV:   2    -0.192190888539E+03   -0.42656E-01   -0.58255E-01 12240   0.228E+00    0.900E-01
DAV:   3    -0.192194127194E+03   -0.32387E-02   -0.60626E-02 12480   0.203E+00    0.113E+00
DAV:   4    -0.192179480512E+03    0.14647E-01   -0.28354E-02 12040   0.147E+00    0.447E-01
DAV:   5    -0.192178352761E+03    0.11278E-02   -0.11670E-02 12280   0.751E-01    0.429E-01
DAV:   6    -0.192178154861E+03    0.19790E-03   -0.76438E-03 12880   0.777E-01    0.379E-01
DAV:   7    -0.192176179007E+03    0.19759E-02   -0.30237E-03 12160   0.426E-01    0.779E-02
DAV:   8    -0.192176158756E+03    0.20251E-04   -0.48802E-04 10840   0.131E-01
  35 F= -.19217616E+03 E0= -.19211449E+03  d E =-.344239E-01
       N       E                     dE             d eps       ncg     rms          rms(c)
DAV:   1    -0.192170348458E+03    0.58305E-02   -0.14194E+00  8160   0.256E+00    0.323E-01
DAV:   2    -0.192174638109E+03   -0.42897E-02   -0.51033E-02 11560   0.966E-01    0.497E-01
DAV:   3    -0.192172261241E+03    0.23769E-02   -0.87912E-03 12400   0.791E-01    0.264E-01
DAV:   4    -0.192171374013E+03    0.88723E-03   -0.22605E-03 12560   0.363E-01    0.173E-01
DAV:   5    -0.192171301880E+03    0.72133E-04   -0.14590E-03 11720   0.311E-01    0.186E-01
DAV:   6    -0.192171012697E+03    0.28918E-03   -0.11321E-03 10600   0.279E-01    0.956E-02
DAV:   7    -0.192170879126E+03    0.13357E-03   -0.31583E-04  8920   0.105E-01    0.256E-02
DAV:   8    -0.192170867655E+03    0.11471E-04   -0.43601E-05  8040   0.369E-02
  36 F= -.19217087E+03 E0= -.19210829E+03  d E =0.529110E-02
       N       E                     dE             d eps       ncg     rms          rms(c)
DAV:   1    -0.192175501714E+03   -0.46226E-02   -0.74187E-01  8160   0.182E+00    0.204E-01
DAV:   2    -0.192177665021E+03   -0.21633E-02   -0.27258E-02 11840   0.575E-01    0.243E-01
DAV:   3    -0.192177386513E+03    0.27851E-03   -0.30409E-03 12600   0.461E-01    0.209E-01
DAV:   4    -0.192176875171E+03    0.51134E-03   -0.11156E-03 10560   0.279E-01    0.102E-01
DAV:   5    -0.192176839586E+03    0.35586E-04   -0.51184E-04 10120   0.173E-01
  37 F= -.19217684E+03 E0= -.19211471E+03  d E =-.597193E-02
       N       E                     dE             d eps       ncg     rms          rms(c)
DAV:   1    -0.192180076430E+03   -0.32013E-02   -0.52958E-01  8160   0.155E+00    0.185E-01
DAV:   2    -0.192181710561E+03   -0.16341E-02   -0.19585E-02 12360   0.476E-01    0.237E-01
DAV:   3    -0.192181352128E+03    0.35843E-03   -0.23488E-03 12600   0.427E-01    0.178E-01
DAV:   4    -0.192180944750E+03    0.40738E-03   -0.63052E-04 10320   0.215E-01    0.659E-02
DAV:   5    -0.192181054703E+03   -0.10995E-03   -0.40367E-04 10320   0.165E-01    0.113E-01
DAV:   6    -0.192180944351E+03    0.11035E-03   -0.32153E-04  8960   0.163E-01    0.484E-02
DAV:   7    -0.192180910349E+03    0.34002E-04   -0.75291E-05  6640   0.560E-02
  38 F= -.19218091E+03 E0= -.19211913E+03  d E =-.407076E-02
       N       E                     dE             d eps       ncg     rms          rms(c)
DAV:   1    -0.192182323759E+03   -0.13794E-02   -0.77811E-02  8160   0.600E-01    0.790E-02
DAV:   2    -0.192182551145E+03   -0.22739E-03   -0.35695E-03 11520   0.191E-01    0.817E-02
DAV:   3    -0.192182541887E+03    0.92578E-05   -0.41042E-04  9720   0.169E-01
  39 F= -.19218254E+03 E0= -.19212082E+03  d E =-.163154E-02
       N       E                     dE             d eps       ncg     rms          rms(c)
DAV:   1    -0.192184219571E+03   -0.16684E-02   -0.17281E-01  8160   0.889E-01    0.112E-01
DAV:   2    -0.192184687671E+03   -0.46810E-03   -0.64346E-03 12800   0.258E-01    0.116E-01
DAV:   3    -0.192184613837E+03    0.73833E-04   -0.84519E-04 11280   0.222E-01
  40 F= -.19218461E+03 E0= -.19212297E+03  d E =-.207195E-02
       N       E                     dE             d eps       ncg     rms          rms(c)
DAV:   1    -0.192185344267E+03   -0.65660E-03   -0.38454E-02  8160   0.447E-01    0.813E-02
DAV:   2    -0.192185641086E+03   -0.29682E-03   -0.19820E-03 13560   0.196E-01    0.143E-01
DAV:   3    -0.192185365414E+03    0.27567E-03   -0.70531E-04 10600   0.210E-01    0.783E-02
DAV:   4    -0.192185327315E+03    0.38099E-04   -0.17297E-04  7480   0.109E-01
  41 F= -.19218533E+03 E0= -.19212378E+03  d E =-.713477E-03
       N       E                     dE             d eps       ncg     rms          rms(c)
DAV:   1    -0.192186793961E+03   -0.14285E-02   -0.16998E-01  8160   0.880E-01    0.108E-01
DAV:   2    -0.192187252547E+03   -0.45859E-03   -0.72222E-03 11360   0.244E-01    0.825E-02
DAV:   3    -0.192187311157E+03   -0.58610E-04   -0.80677E-04 11680   0.193E-01
  42 F= -.19218731E+03 E0= -.19212604E+03  d E =-.198384E-02
       N       E                     dE             d eps       ncg     rms          rms(c)
DAV:   1    -0.192188419650E+03   -0.11671E-02   -0.14309E-01  8160   0.822E-01    0.122E-01
DAV:   2    -0.192188727008E+03   -0.30736E-03   -0.55336E-03 11640   0.228E-01    0.119E-01
DAV:   3    -0.192188614966E+03    0.11204E-03   -0.93462E-04 11320   0.212E-01    0.120E-01
DAV:   4    -0.192188537810E+03    0.77155E-04   -0.45822E-04 10040   0.191E-01
  43 F= -.19218854E+03 E0= -.19212755E+03  d E =-.122665E-02
       N       E                     dE             d eps       ncg     rms          rms(c)
DAV:   1    -0.192189583871E+03   -0.96891E-03   -0.65174E-01  8160   0.172E+00    0.208E-01
DAV:   2    -0.192191133651E+03   -0.15498E-02   -0.26360E-02 11560   0.442E-01    0.122E-01
DAV:   3    -0.192190999026E+03    0.13462E-03   -0.14783E-03 11320   0.176E-01    0.119E-01
DAV:   4    -0.192190903743E+03    0.95283E-04   -0.62992E-04 10800   0.211E-01
  44 F= -.19219090E+03 E0= -.19213042E+03  d E =-.236593E-02
       N       E                     dE             d eps       ncg     rms          rms(c)
DAV:   1    -0.192191274367E+03   -0.27534E-03   -0.45147E-01  8160   0.144E+00    0.188E-01
DAV:   2    -0.192193509127E+03   -0.22348E-02   -0.20043E-02 12880   0.526E-01    0.327E-01
DAV:   3    -0.192192503636E+03    0.10055E-02   -0.33887E-03 12040   0.515E-01    0.179E-01
DAV:   4    -0.192192122313E+03    0.38132E-03   -0.54333E-04  9800   0.182E-01    0.622E-02
DAV:   5    -0.192192220907E+03   -0.98594E-04   -0.38655E-04 10320   0.151E-01
  45 F= -.19219222E+03 E0= -.19213197E+03  d E =-.131716E-02
       N       E                     dE             d eps       ncg     rms          rms(c)
DAV:   1    -0.192192332408E+03   -0.21010E-03   -0.25035E-01  8160   0.107E+00    0.141E-01
DAV:   2    -0.192193850966E+03   -0.15186E-02   -0.12050E-02 12640   0.455E-01    0.268E-01
DAV:   3    -0.192193069111E+03    0.78186E-03   -0.21814E-03 12520   0.407E-01    0.128E-01
DAV:   4    -0.192192927473E+03    0.14164E-03   -0.51855E-04  8880   0.168E-01    0.690E-02
DAV:   5    -0.192192866527E+03    0.60946E-04   -0.16162E-04  6920   0.941E-02
  46 F= -.19219287E+03 E0= -.19213274E+03  d E =-.645620E-03
