<?xml version="1.0" encoding="ISO-8859-1"?>
<modeling>
 <generator>
  <i name="program" type="string">vasp </i>
  <i name="version" type="string">5.4.1  </i>
  <i name="subversion" type="string">05Feb16 (build Jul 05 2020 17:13:04) complex                          parallel </i>
  <i name="platform" type="string">IFC91_ompi </i>
  <i name="date" type="string">2024 04 20 </i>
  <i name="time" type="string">01:12:28 </i>
 </generator>
 <incar>
  <i type="int" name="ISTART">     0</i>
  <i type="string" name="PREC">normal</i>
  <i type="string" name="ALGO"> Normal</i>
  <i type="int" name="ISPIN">     1</i>
  <i type="int" name="ICHARG">     2</i>
  <i type="int" name="IBRION">     1</i>
  <i type="int" name="NSW">   100</i>
  <i type="int" name="ISIF">     3</i>
  <i type="int" name="ISYM">     0</i>
  <i name="SYMPREC">      0.00000001</i>
  <i name="POTIM">      0.50000000</i>
  <i type="logical" name="LREAL"> F  </i>
  <i type="logical" name="LPLANE"> F  </i>
  <i type="int" name="ISMEAR">     0</i>
  <i type="logical" name="LWAVE"> F  </i>
  <i type="logical" name="LCHARG"> F  </i>
  <v type="int" name="KPOINT_BSE">    -1     0     0     0</v>
 </incar>
 <kpoints>
  <generation param="Gamma">
   <v type="int" name="divisions">       8        8        1 </v>
   <v name="usershift">      0.00000000       0.00000000       0.00000000 </v>
   <v name="genvec1">      0.12500000       0.00000000       0.00000000 </v>
   <v name="genvec2">     -0.00000000       0.12500000       0.00000000 </v>
   <v name="genvec3">      0.00000000       0.00000000       1.00000000 </v>
   <v name="shift">      0.00000000       0.00000000       0.00000000 </v>
  </generation>
  <varray name="kpointlist" >
   <v>       0.00000000       0.00000000       0.00000000 </v>
   <v>       0.12500000       0.00000000       0.00000000 </v>
   <v>       0.25000000       0.00000000       0.00000000 </v>
   <v>       0.37500000       0.00000000       0.00000000 </v>
   <v>       0.50000000       0.00000000       0.00000000 </v>
   <v>       0.00000000       0.12500000       0.00000000 </v>
   <v>       0.12500000       0.12500000       0.00000000 </v>
   <v>       0.25000000       0.12500000       0.00000000 </v>
   <v>       0.37500000       0.12500000       0.00000000 </v>
   <v>       0.50000000       0.12500000       0.00000000 </v>
   <v>      -0.37500000       0.12500000       0.00000000 </v>
   <v>      -0.25000000       0.12500000       0.00000000 </v>
   <v>      -0.12500000       0.12500000       0.00000000 </v>
   <v>       0.00000000       0.25000000       0.00000000 </v>
   <v>       0.12500000       0.25000000       0.00000000 </v>
   <v>       0.25000000       0.25000000       0.00000000 </v>
   <v>       0.37500000       0.25000000       0.00000000 </v>
   <v>       0.50000000       0.25000000       0.00000000 </v>
   <v>      -0.37500000       0.25000000       0.00000000 </v>
   <v>      -0.25000000       0.25000000       0.00000000 </v>
   <v>      -0.12500000       0.25000000       0.00000000 </v>
   <v>      -0.00000000       0.37500000       0.00000000 </v>
   <v>       0.12500000       0.37500000       0.00000000 </v>
   <v>       0.25000000       0.37500000       0.00000000 </v>
   <v>       0.37500000       0.37500000       0.00000000 </v>
   <v>       0.50000000       0.37500000       0.00000000 </v>
   <v>      -0.37500000       0.37500000       0.00000000 </v>
   <v>      -0.25000000       0.37500000       0.00000000 </v>
   <v>      -0.12500000       0.37500000       0.00000000 </v>
   <v>       0.00000000       0.50000000       0.00000000 </v>
   <v>       0.12500000       0.50000000       0.00000000 </v>
   <v>       0.25000000       0.50000000       0.00000000 </v>
   <v>       0.37500000       0.50000000       0.00000000 </v>
   <v>       0.50000000       0.50000000       0.00000000 </v>
  </varray>
  <varray name="weights" >
   <v>       0.01562500 </v>
   <v>       0.03125000 </v>
   <v>       0.03125000 </v>
   <v>       0.03125000 </v>
   <v>       0.01562500 </v>
   <v>       0.03125000 </v>
   <v>       0.03125000 </v>
   <v>       0.03125000 </v>
   <v>       0.03125000 </v>
   <v>       0.03125000 </v>
   <v>       0.03125000 </v>
   <v>       0.03125000 </v>
   <v>       0.03125000 </v>
   <v>       0.03125000 </v>
   <v>       0.03125000 </v>
   <v>       0.03125000 </v>
   <v>       0.03125000 </v>
   <v>       0.03125000 </v>
   <v>       0.03125000 </v>
   <v>       0.03125000 </v>
   <v>       0.03125000 </v>
   <v>       0.03125000 </v>
   <v>       0.03125000 </v>
   <v>       0.03125000 </v>
   <v>       0.03125000 </v>
   <v>       0.03125000 </v>
   <v>       0.03125000 </v>
   <v>       0.03125000 </v>
   <v>       0.03125000 </v>
   <v>       0.01562500 </v>
   <v>       0.03125000 </v>
   <v>       0.03125000 </v>
   <v>       0.03125000 </v>
   <v>       0.01562500 </v>
  </varray>
 </kpoints>
 <parameters>
  <separator name="general" >
   <i type="string" name="SYSTEM">unknown system</i>
   <i type="logical" name="LCOMPAT"> F  </i>
  </separator>
  <separator name="electronic" >
   <i type="string" name="PREC">normal</i>
   <i name="ENMAX">    280.00000000</i>
   <i name="ENAUG">    373.43800000</i>
   <i name="EDIFF">      0.00010000</i>
   <i type="int" name="IALGO">    38</i>
   <i type="int" name="IWAVPR">    11</i>
   <i type="int" name="NBANDS">   120</i>
   <i name="NELECT">    159.00000000</i>
   <i type="int" name="TURBO">     0</i>
   <i type="int" name="IRESTART">     0</i>
   <i type="int" name="NREBOOT">     0</i>
   <i type="int" name="NMIN">     0</i>
   <i name="EREF">      0.00000000</i>
   <separator name="electronic smearing" >
    <i type="int" name="ISMEAR">     0</i>
    <i name="SIGMA">      0.20000000</i>
    <i name="KSPACING">      0.50000000</i>
    <i type="logical" name="KGAMMA"> T  </i>
   </separator>
   <separator name="electronic projectors" >
    <i type="logical" name="LREAL"> F  </i>
    <v name="ROPT">      0.00000000      0.00000000      0.00000000      0.00000000</v>
    <i type="int" name="LMAXPAW">  -100</i>
    <i type="int" name="LMAXMIX">     2</i>
    <i type="logical" name="NLSPLINE"> F  </i>
   </separator>
   <separator name="electronic startup" >
    <i type="int" name="ISTART">     0</i>
    <i type="int" name="ICHARG">     2</i>
    <i type="int" name="INIWAV">     1</i>
   </separator>
   <separator name="electronic spin" >
    <i type="int" name="ISPIN">     1</i>
    <i type="logical" name="LNONCOLLINEAR"> F  </i>
    <v name="MAGMOM">      1.00000000      1.00000000      1.00000000      1.00000000      1.00000000      1.00000000      1.00000000      1.00000000      1.00000000      1.00000000      1.00000000      1.00000000      1.00000000      1.00000000      1.00000000      1.00000000      1.00000000      1.00000000      1.00000000      1.00000000
      1.00000000      1.00000000      1.00000000      1.00000000      1.00000000      1.00000000      1.00000000</v>
    <i name="NUPDOWN">     -1.00000000</i>
    <i type="logical" name="LSORBIT"> F  </i>
    <v name="SAXIS">      0.00000000      0.00000000      1.00000000</v>
    <i type="logical" name="LSPIRAL"> F  </i>
    <v name="QSPIRAL">      0.00000000      0.00000000      0.00000000</v>
    <i type="logical" name="LZEROZ"> F  </i>
   </separator>
   <separator name="electronic exchange-correlation" >
    <i type="logical" name="LASPH"> F  </i>
    <i type="logical" name="LMETAGGA"> F  </i>
   </separator>
   <separator name="electronic convergence" >
    <i type="int" name="NELM">    60</i>
    <i type="int" name="NELMDL">    -5</i>
    <i type="int" name="NELMIN">     2</i>
    <i name="ENINI">    280.00000000</i>
    <separator name="electronic convergence detail" >
     <i type="logical" name="LDIAG"> T  </i>
     <i type="logical" name="LSUBROT"> F  </i>
     <i name="WEIMIN">      0.00100000</i>
     <i name="EBREAK">      0.00000021</i>
     <i name="DEPER">      0.30000000</i>
     <i type="int" name="NRMM">     4</i>
     <i name="TIME">      0.40000000</i>
    </separator>
   </separator>
   <separator name="electronic mixer" >
    <i name="AMIX">      0.40000000</i>
    <i name="BMIX">      1.00000000</i>
    <i name="AMIN">      0.10000000</i>
    <i name="AMIX_MAG">      1.60000000</i>
    <i name="BMIX_MAG">      1.00000000</i>
    <separator name="electronic mixer details" >
     <i type="int" name="IMIX">     4</i>
     <i type="logical" name="MIXFIRST"> F  </i>
     <i type="int" name="MAXMIX">   -45</i>
     <i name="WC">    100.00000000</i>
     <i type="int" name="INIMIX">     1</i>
     <i type="int" name="MIXPRE">     1</i>
     <i type="int" name="MREMOVE">     5</i>
    </separator>
   </separator>
   <separator name="electronic dipolcorrection" >
    <i type="logical" name="LDIPOL"> F  </i>
    <i type="logical" name="LMONO"> F  </i>
    <i type="int" name="IDIPOL">     0</i>
    <i name="EPSILON">      1.00000000</i>
    <v name="DIPOL">   -100.00000000   -100.00000000   -100.00000000</v>
    <i name="EFIELD">      0.00000000</i>
   </separator>
  </separator>
  <separator name="grids" >
   <i type="int" name="NGX">    42</i>
   <i type="int" name="NGY">    42</i>
   <i type="int" name="NGZ">   126</i>
   <i type="int" name="NGXF">    84</i>
   <i type="int" name="NGYF">    84</i>
   <i type="int" name="NGZF">   252</i>
   <i type="logical" name="ADDGRID"> F  </i>
  </separator>
  <separator name="ionic" >
   <i type="int" name="NSW">   100</i>
   <i type="int" name="IBRION">     1</i>
   <i type="int" name="ISIF">     3</i>
   <i name="PSTRESS">      0.00000000</i>
   <i name="EDIFFG">      0.00100000</i>
   <i type="int" name="NFREE">     0</i>
   <i name="POTIM">      0.50000000</i>
   <i name="SMASS">     -3.00000000</i>
   <i name="SCALEE">      1.00000000</i>
  </separator>
  <separator name="ionic md" >
   <i name="TEBEG">      0.00010000</i>
   <i name="TEEND">      0.00010000</i>
   <i type="int" name="NBLOCK">     1</i>
   <i type="int" name="KBLOCK">   100</i>
   <i type="int" name="NPACO">   256</i>
   <i name="APACO">     16.00000000</i>
  </separator>
  <separator name="symmetry" >
   <i type="int" name="ISYM">     0</i>
   <i name="SYMPREC">      0.00000001</i>
  </separator>
  <separator name="dos" >
   <i type="logical" name="LORBIT"> F  </i>
   <v name="RWIGS">     -1.00000000     -1.00000000     -1.00000000     -1.00000000</v>
   <i type="int" name="NEDOS">   301</i>
   <i name="EMIN">     10.00000000</i>
   <i name="EMAX">    -10.00000000</i>
   <i name="EFERMI">      0.00000000</i>
  </separator>
  <separator name="writing" >
   <i type="int" name="NWRITE">     2</i>
   <i type="logical" name="LWAVE"> F  </i>
   <i type="logical" name="LCHARG"> F  </i>
   <i type="logical" name="LPARD"> F  </i>
   <i type="logical" name="LVTOT"> F  </i>
   <i type="logical" name="LVHAR"> F  </i>
   <i type="logical" name="LELF"> F  </i>
   <i type="logical" name="LOPTICS"> F  </i>
   <v name="STM">      0.00000000      0.00000000      0.00000000      0.00000000      0.00000000      0.00000000      0.00000000</v>
  </separator>
  <separator name="performance" >
   <i type="int" name="NPAR">    40</i>
   <i type="int" name="NSIM">     4</i>
   <i type="int" name="NBLK">    -1</i>
   <i type="logical" name="LPLANE"> F  </i>
   <i type="logical" name="LSCALAPACK"> T  </i>
   <i type="logical" name="LSCAAWARE"> F  </i>
   <i type="logical" name="LSCALU"> F  </i>
   <i type="logical" name="LASYNC"> F  </i>
   <i type="logical" name="LORBITALREAL"> F  </i>
  </separator>
  <separator name="miscellaneous" >
   <i type="int" name="IDIOT">     3</i>
   <i type="logical" name="LMUSIC"> F  </i>
   <v name="POMASS">     50.94100000     95.94000000    183.85000000     32.06600000</v>
   <v name="DARWINR">      0.00000000      0.00000000      0.00000000      0.00000000</v>
   <v name="DARWINV">      1.00000000      1.00000000      1.00000000      1.00000000</v>
   <i type="logical" name="LCORR"> T  </i>
  </separator>
  <i type="logical" name="GGA_COMPAT"> T  </i>
  <i type="logical" name="LBERRY"> F  </i>
  <i type="int" name="ICORELEVEL">     0</i>
  <i type="logical" name="LDAU"> F  </i>
  <i type="int" name="I_CONSTRAINED_M">     0</i>
  <separator name="electronic exchange-correlation" >
   <i type="string" name="GGA">--</i>
   <i type="int" name="VOSKOWN">     0</i>
   <i type="logical" name="LHFCALC"> F  </i>
   <i type="string" name="PRECFOCK"></i>
   <i type="logical" name="LSYMGRAD"> F  </i>
   <i type="logical" name="LHFONE"> F  </i>
   <i type="logical" name="LRHFCALC"> F  </i>
   <i type="logical" name="LTHOMAS"> F  </i>
   <i type="logical" name="LMODELHF"> F  </i>
   <i name="ENCUT4O">     -1.00000000</i>
   <i type="int" name="EXXOEP">     0</i>
   <i type="int" name="FOURORBIT">     0</i>
   <i name="AEXX">      0.00000000</i>
   <i name="HFALPHA">      0.00000000</i>
   <i name="MCALPHA">      0.00000000</i>
   <i name="ALDAX">      1.00000000</i>
   <i name="AGGAX">      1.00000000</i>
   <i name="ALDAC">      1.00000000</i>
   <i name="AGGAC">      1.00000000</i>
   <i type="int" name="NKREDX">     1</i>
   <i type="int" name="NKREDY">     1</i>
   <i type="int" name="NKREDZ">     1</i>
   <i type="logical" name="SHIFTRED"> F  </i>
   <i type="logical" name="ODDONLY"> F  </i>
   <i type="logical" name="EVENONLY"> F  </i>
   <i type="int" name="LMAXFOCK">     0</i>
   <i type="int" name="NMAXFOCKAE">     0</i>
   <i type="logical" name="LFOCKAEDFT"> F  </i>
   <i name="HFSCREEN">      0.00000000</i>
   <i name="HFSCREENC">      0.00000000</i>
   <i type="int" name="NBANDSGWLOW">     0</i>
  </separator>
  <separator name="vdW DFT" >
   <i type="logical" name="LUSE_VDW"> F  </i>
   <i name="Zab_VDW">     -0.84910000</i>
   <i name="PARAM1">      0.12340000</i>
   <i name="PARAM2">      1.00000000</i>
   <i name="PARAM3">      0.00000000</i>
  </separator>
  <separator name="model GW" >
   <i type="int" name="MODEL_GW">     0</i>
   <i name="MODEL_EPS0">     58.26239943</i>
   <i name="MODEL_ALPHA">      1.00000000</i>
  </separator>
  <separator name="linear response parameters" >
   <i type="logical" name="LEPSILON"> F  </i>
   <i type="logical" name="LRPA"> F  </i>
   <i type="logical" name="LNABLA"> F  </i>
   <i type="logical" name="LVEL"> F  </i>
   <i type="int" name="KINTER">     0</i>
   <i name="CSHIFT">      0.10000000</i>
   <i name="OMEGAMAX">     -1.00000000</i>
   <i name="DEG_THRESHOLD">      0.00200000</i>
  </separator>
  <separator name="orbital magnetization" >
   <i type="logical" name="NUCIND"> F  </i>
   <v name="MAGPOS">      0.00000000      0.00000000      0.00000000</v>
   <i type="logical" name="LNICSALL"> T  </i>
   <i type="logical" name="ORBITALMAG"> F  </i>
   <i type="logical" name="LMAGBLOCH"> F  </i>
   <i type="logical" name="LCHIMAG"> F  </i>
   <i type="logical" name="LGAUGE"> T  </i>
   <i type="int" name="MAGATOM">     0</i>
   <v name="MAGDIPOL">      0.00000000      0.00000000      0.00000000</v>
   <v name="AVECCONST">      0.00000000      0.00000000      0.00000000</v>
  </separator>
  <separator name="response functions" >
   <i type="logical" name="LADDER"> F  </i>
   <i type="logical" name="LFXC"> F  </i>
   <i type="logical" name="LHARTREE"> T  </i>
   <i type="int" name="IBSE">     0</i>
   <v type="int" name="KPOINT">    -1     0     0     0</v>
   <i type="logical" name="LTCTE"> F  </i>
   <i type="logical" name="LTETE"> F  </i>
   <i type="logical" name="LTRIPLET"> F  </i>
   <i type="logical" name="LFXCEPS"> F  </i>
   <i type="logical" name="LFXHEG"> F  </i>
   <i type="int" name="NATURALO">     0</i>
   <i type="logical" name="L2ORDER"> F  </i>
   <i type="logical" name="LUSEW"> F  </i>
   <i name="ENCUTGW">     -2.00000000</i>
   <i name="ENCUTGWSOFT">     -2.00000000</i>
   <i name="ENCUTLF">     -1.00000000</i>
   <i type="int" name="LMAXMP2">    -1</i>
   <i name="SCISSOR">      0.00000000</i>
   <i type="int" name="NOMEGA">     0</i>
   <i type="int" name="NOMEGAR">     0</i>
   <i type="int" name="NBANDSGW">    -1</i>
   <i type="int" name="NBANDSO">    -1</i>
   <i type="int" name="NBANDSV">    -1</i>
   <i type="int" name="NELM">     1</i>
   <i type="int" name="NELMHF">     1</i>
   <i type="int" name="DIM">     3</i>
   <i type="int" name="ANTIRES">     0</i>
   <i name="OMEGAMAX">    -30.00000000</i>
   <i name="OMEGAMIN">    -30.00000000</i>
   <i name="OMEGATL">   -200.00000000</i>
   <i type="int" name="OMEGAGRID">     0</i>
   <i name="CSHIFT">     -0.10000000</i>
   <i type="logical" name="SELFENERGY"> F  </i>
   <i type="logical" name="LSPECTRAL"> F  </i>
   <i type="logical" name="LSPECTRALGW"> F  </i>
   <i type="logical" name="LSINGLES"> F  </i>
   <i type="logical" name="LFERMIGW"> F  </i>
   <i type="logical" name="ODDONLYGW"> F  </i>
   <i type="logical" name="EVENONLYGW"> F  </i>
   <i type="int" name="NKREDLFX">     1</i>
   <i type="int" name="NKREDLFY">     1</i>
   <i type="int" name="NKREDLFZ">     1</i>
   <i type="int" name="MAXMEM">  1800</i>
   <i type="int" name="TELESCOPE">     0</i>
   <i type="int" name="TAUPAR">     1</i>
   <i type="int" name="OMEGAPAR">    -1</i>
   <i name="LAMBDA">      1.00000000</i>
  </separator>
  <separator name="External order field" >
   <i name="OFIELD_KAPPA">      0.00000000</i>
   <v name="OFIELD_K">      0.00000000      0.00000000      0.00000000</v>
   <i name="OFIELD_Q6_NEAR">      0.00000000</i>
   <i name="OFIELD_Q6_FAR">      0.00000000</i>
   <i name="OFIELD_A">      0.00000000</i>
  </separator>
 </parameters>
 <atominfo>
  <atoms>      27 </atoms>
  <types>       4 </types>
  <array name="atoms" >
   <dimension dim="1">ion</dimension>
   <field type="string">element</field>
   <field type="int">atomtype</field>
   <set>
    <rc><c>V </c><c>   1</c></rc>
    <rc><c>V </c><c>   1</c></rc>
    <rc><c>V </c><c>   1</c></rc>
    <rc><c>Mo</c><c>   2</c></rc>
    <rc><c>Mo</c><c>   2</c></rc>
    <rc><c>Mo</c><c>   2</c></rc>
    <rc><c>W </c><c>   3</c></rc>
    <rc><c>W </c><c>   3</c></rc>
    <rc><c>W </c><c>   3</c></rc>
    <rc><c>S </c><c>   4</c></rc>
    <rc><c>S </c><c>   4</c></rc>
    <rc><c>S </c><c>   4</c></rc>
    <rc><c>S </c><c>   4</c></rc>
    <rc><c>S </c><c>   4</c></rc>
    <rc><c>S </c><c>   4</c></rc>
    <rc><c>S </c><c>   4</c></rc>
    <rc><c>S </c><c>   4</c></rc>
    <rc><c>S </c><c>   4</c></rc>
    <rc><c>S </c><c>   4</c></rc>
    <rc><c>S </c><c>   4</c></rc>
    <rc><c>S </c><c>   4</c></rc>
    <rc><c>S </c><c>   4</c></rc>
    <rc><c>S </c><c>   4</c></rc>
    <rc><c>S </c><c>   4</c></rc>
    <rc><c>S </c><c>   4</c></rc>
    <rc><c>S </c><c>   4</c></rc>
    <rc><c>S </c><c>   4</c></rc>
   </set>
  </array>
  <array name="atomtypes" >
   <dimension dim="1">type</dimension>
   <field type="int">atomspertype</field>
   <field type="string">element</field>
   <field>mass</field>
   <field>valence</field>
   <field type="string">pseudopotential</field>
   <set>
    <rc><c>   3</c><c>V </c><c>     50.94100000</c><c>      5.00000000</c><c> PAW_PBE V 08Apr2002                    </c></rc>
    <rc><c>   3</c><c>Mo</c><c>     95.94000000</c><c>      6.00000000</c><c> PAW_PBE Mo 08Apr2002                   </c></rc>
    <rc><c>   3</c><c>W </c><c>    183.85000000</c><c>      6.00000000</c><c> PAW_PBE W 08Apr2002                    </c></rc>
    <rc><c>  18</c><c>S </c><c>     32.06600000</c><c>      6.00000000</c><c>  PAW_PBE S 17Jan2003                   </c></rc>
   </set>
  </array>
 </atominfo>
 <structure name="initialpos" >
  <crystal>
   <varray name="basis" >
    <v>       8.66999996       5.03999989       0.00000000 </v>
    <v>      -8.66999982       5.04000013       0.00000000 </v>
    <v>       0.00000000       0.00000000      30.00000000 </v>
   </varray>
   <i name="volume">   2621.80797419 </i>
   <varray name="rec_basis" >
    <v>       0.05767013       0.09920635       0.00000000 </v>
    <v>      -0.05767013       0.09920635       0.00000000 </v>
    <v>       0.00000000       0.00000000       0.03333333 </v>
   </varray>
  </crystal>
  <varray name="positions" >
   <v>       1.00000000       0.33333334       0.00000000 </v>
   <v>       0.33333334       0.00000000       0.00000000 </v>
   <v>       0.00000000       0.00000000       0.00000000 </v>
   <v>       0.66666669       0.00000000       0.00000000 </v>
   <v>       0.00000000       0.66666669       0.00000000 </v>
   <v>       0.33333334       0.66666669       0.00000000 </v>
   <v>       0.33333334       0.33333334       0.00000000 </v>
   <v>       0.66666669       0.33333334       0.00000000 </v>
   <v>       0.66666669       0.66666669       0.00000000 </v>
   <v>       0.11068511       0.22244981       0.95539999 </v>
   <v>       0.22244981       0.11068511       0.04460000 </v>
   <v>       0.11068511       0.55578315       0.95539999 </v>
   <v>       0.22244981       0.44401845       0.04460000 </v>
   <v>       0.11068511       0.88911647       0.95539999 </v>
   <v>       0.22244981       0.77735180       0.04460000 </v>
   <v>       0.44401845       0.22244981       0.95539999 </v>
   <v>       0.55578315       0.11068511       0.04460000 </v>
   <v>       0.44401845       0.55578315       0.95539999 </v>
   <v>       0.55578315       0.44401845       0.04460000 </v>
   <v>       0.44401845       0.88911647       0.95539999 </v>
   <v>       0.55578315       0.77735180       0.04460000 </v>
   <v>       0.77735180       0.22244981       0.95539999 </v>
   <v>       0.88911647       0.11068511       0.04460000 </v>
   <v>       0.77735180       0.55578315       0.95539999 </v>
   <v>       0.88911647       0.44401845       0.04460000 </v>
   <v>       0.77735180       0.88911647       0.95539999 </v>
   <v>       0.88911647       0.77735180       0.04460000 </v>
  </varray>
 </structure>
 <calculation>
  <scstep>
   <time name="dav">   23.20   23.26</time>
   <time name="total">   23.26   23.32</time>
   <energy>
    <i name="alphaZ">     81.65567618 </i>
    <i name="ewald">  41890.25210219 </i>
    <i name="hartreedc"> -47722.89524517 </i>
    <i name="XCdc">   -242.92705578 </i>
    <i name="pawpsdc">   3467.42045192 </i>
    <i name="pawaedc">  -2871.19716117 </i>
    <i name="eentropy">     -0.54005374 </i>
    <i name="bandstr">   -236.68398308 </i>
    <i name="atom">   6761.44252427 </i>
    <i name="e_fr_energy">   1126.52725561 </i>
    <i name="e_wo_entrp">   1127.06730935 </i>
    <i name="e_0_energy">   1126.79728248 </i>
   </energy>
  </scstep>
  <scstep>
   <time name="dav">   30.37   30.44</time>
   <time name="total">   30.37   30.45</time>
   <energy>
    <i name="e_fr_energy">     -2.82597932 </i>
    <i name="e_wo_entrp">     -2.62165245 </i>
    <i name="e_0_energy">     -2.72381588 </i>
   </energy>
  </scstep>
  <scstep>
   <time name="dav">   29.27   29.34</time>
   <time name="total">   29.28   29.35</time>
   <energy>
    <i name="e_fr_energy">   -199.86088613 </i>
    <i name="e_wo_entrp">   -199.58752077 </i>
    <i name="e_0_energy">   -199.72420345 </i>
   </energy>
  </scstep>
  <scstep>
   <time name="dav">   32.45   32.53</time>
   <time name="total">   32.45   32.55</time>
   <energy>
    <i name="e_fr_energy">   -209.02395837 </i>
    <i name="e_wo_entrp">   -208.72365255 </i>
    <i name="e_0_energy">   -208.87380546 </i>
   </energy>
  </scstep>
  <scstep>
   <time name="dav">   30.19   30.26</time>
   <time name="total">   30.65   30.73</time>
   <energy>
    <i name="e_fr_energy">   -209.32333556 </i>
    <i name="e_wo_entrp">   -209.02615650 </i>
    <i name="e_0_energy">   -209.17474603 </i>
   </energy>
  </scstep>
  <scstep>
   <time name="dav">   32.67   32.75</time>
   <time name="total">   33.17   33.26</time>
   <energy>
    <i name="e_fr_energy">   -236.72222730 </i>
    <i name="e_wo_entrp">   -236.44454392 </i>
    <i name="e_0_energy">   -236.58338561 </i>
   </energy>
  </scstep>
  <scstep>
   <time name="dav">   34.15   34.23</time>
   <time name="total">   34.66   34.75</time>
   <energy>
    <i name="e_fr_energy">   -196.53184170 </i>
    <i name="e_wo_entrp">   -196.21760721 </i>
    <i name="e_0_energy">   -196.37472446 </i>
   </energy>
  </scstep>
  <scstep>
   <time name="dav">   31.89   31.97</time>
   <time name="total">   32.40   32.49</time>
   <energy>
    <i name="e_fr_energy">   -189.39349365 </i>
    <i name="e_wo_entrp">   -189.09722140 </i>
    <i name="e_0_energy">   -189.24535753 </i>
   </energy>
  </scstep>
  <scstep>
   <time name="dav">   34.55   34.63</time>
   <time name="total">   35.07   35.16</time>
   <energy>
    <i name="e_fr_energy">   -188.13364203 </i>
    <i name="e_wo_entrp">   -187.80092927 </i>
    <i name="e_0_energy">   -187.96728565 </i>
   </energy>
  </scstep>
  <scstep>
   <time name="dav">   34.85   34.93</time>
   <time name="total">   35.38   35.48</time>
   <energy>
    <i name="e_fr_energy">   -187.00931618 </i>
    <i name="e_wo_entrp">   -186.66406868 </i>
    <i name="e_0_energy">   -186.83669243 </i>
   </energy>
  </scstep>
  <scstep>
   <time name="dav">   34.61   34.69</time>
   <time name="total">   35.15   35.24</time>
   <energy>
    <i name="e_fr_energy">   -186.97216486 </i>
    <i name="e_wo_entrp">   -186.62122910 </i>
    <i name="e_0_energy">   -186.79669698 </i>
   </energy>
  </scstep>
  <scstep>
   <time name="dav">   32.48   32.56</time>
   <time name="total">   33.02   33.11</time>
   <energy>
    <i name="e_fr_energy">   -187.10395465 </i>
    <i name="e_wo_entrp">   -186.76435055 </i>
    <i name="e_0_energy">   -186.93415260 </i>
   </energy>
  </scstep>
  <scstep>
   <time name="dav">   33.40   33.48</time>
   <time name="total">   33.94   34.03</time>
   <energy>
    <i name="e_fr_energy">   -186.88765540 </i>
    <i name="e_wo_entrp">   -186.55246456 </i>
    <i name="e_0_energy">   -186.72005998 </i>
   </energy>
  </scstep>
  <scstep>
   <time name="dav">   34.69   34.77</time>
   <time name="total">   35.23   35.32</time>
   <energy>
    <i name="e_fr_energy">   -186.86291573 </i>
    <i name="e_wo_entrp">   -186.51978030 </i>
    <i name="e_0_energy">   -186.69134802 </i>
   </energy>
  </scstep>
  <scstep>
   <time name="dav">   32.60   32.68</time>
   <time name="total">   33.14   33.22</time>
   <energy>
    <i name="e_fr_energy">   -186.83975849 </i>
    <i name="e_wo_entrp">   -186.49343395 </i>
    <i name="e_0_energy">   -186.66659622 </i>
   </energy>
  </scstep>
  <scstep>
   <time name="dav">   32.20   32.28</time>
   <time name="total">   32.74   32.83</time>
   <energy>
    <i name="e_fr_energy">   -186.83288808 </i>
    <i name="e_wo_entrp">   -186.48670133 </i>
    <i name="e_0_energy">   -186.65979470 </i>
   </energy>
  </scstep>
  <scstep>
   <time name="dav">   33.50   33.58</time>
   <time name="total">   34.03   34.12</time>
   <energy>
    <i name="e_fr_energy">   -186.83103353 </i>
    <i name="e_wo_entrp">   -186.48688987 </i>
    <i name="e_0_energy">   -186.65896170 </i>
   </energy>
  </scstep>
  <scstep>
   <time name="dav">   32.04   32.12</time>
   <time name="total">   32.58   32.67</time>
   <energy>
    <i name="e_fr_energy">   -186.83035933 </i>
    <i name="e_wo_entrp">   -186.48634499 </i>
    <i name="e_0_energy">   -186.65835216 </i>
   </energy>
  </scstep>
  <scstep>
   <time name="dav">   29.45   29.52</time>
   <time name="total">   29.99   30.07</time>
   <energy>
    <i name="e_fr_energy">   -186.82994405 </i>
    <i name="e_wo_entrp">   -186.48540070 </i>
    <i name="e_0_energy">   -186.65767237 </i>
   </energy>
  </scstep>
  <scstep>
   <time name="dav">   25.41   25.47</time>
   <time name="total">   25.95   26.02</time>
   <energy>
    <i name="e_fr_energy">   -186.83069095 </i>
    <i name="e_wo_entrp">   -186.48638191 </i>
    <i name="e_0_energy">   -186.65853643 </i>
   </energy>
  </scstep>
  <scstep>
   <time name="dav">   23.04   23.10</time>
   <time name="total">   23.58   23.65</time>
   <energy>
    <i name="e_fr_energy">   -186.83127375 </i>
    <i name="e_wo_entrp">   -186.48705649 </i>
    <i name="e_0_energy">   -186.65916512 </i>
   </energy>
  </scstep>
  <scstep>
   <time name="dav">   21.87   21.92</time>
   <time name="total">   22.41   22.48</time>
   <energy>
    <i name="e_fr_energy">   -186.83244566 </i>
    <i name="e_wo_entrp">   -186.48810506 </i>
    <i name="e_0_energy">   -186.66027536 </i>
   </energy>
  </scstep>
  <scstep>
   <time name="dav">   21.80   21.86</time>
   <time name="total">   22.34   22.40</time>
   <energy>
    <i name="e_fr_energy">   -186.83367238 </i>
    <i name="e_wo_entrp">   -186.48942532 </i>
    <i name="e_0_energy">   -186.66154885 </i>
   </energy>
  </scstep>
  <scstep>
   <time name="dav">   20.06   20.11</time>
   <time name="total">   20.60   20.66</time>
   <energy>
    <i name="e_fr_energy">   -186.83427485 </i>
    <i name="e_wo_entrp">   -186.49001280 </i>
    <i name="e_0_energy">   -186.66214383 </i>
   </energy>
  </scstep>
  <scstep>
   <time name="dav">   17.92   17.97</time>
   <time name="total">   18.47   18.52</time>
   <energy>
    <i name="e_fr_energy">   -186.83463123 </i>
    <i name="e_wo_entrp">   -186.49033056 </i>
    <i name="e_0_energy">   -186.66248090 </i>
   </energy>
  </scstep>
  <scstep>
   <time name="dav">   20.40   20.45</time>
   <time name="total">   20.95   21.00</time>
   <energy>
    <i name="e_fr_energy">   -186.83486149 </i>
    <i name="e_wo_entrp">   -186.49057580 </i>
    <i name="e_0_energy">   -186.66271864 </i>
   </energy>
  </scstep>
  <scstep>
   <time name="dav">   21.25   21.30</time>
   <time name="total">   21.79   21.85</time>
   <energy>
    <i name="e_fr_energy">   -186.83496185 </i>
    <i name="e_wo_entrp">   -186.49067599 </i>
    <i name="e_0_energy">   -186.66281892 </i>
   </energy>
  </scstep>
  <scstep>
   <time name="dav">   21.99   22.04</time>
   <time name="total">   22.02   22.08</time>
   <energy>
    <i name="alphaZ">     81.65567618 </i>
    <i name="ewald">  41890.25210219 </i>
    <i name="hartreedc"> -47832.90835117 </i>
    <i name="XCdc">   -231.61206873 </i>
    <i name="pawpsdc">   4192.02700731 </i>
    <i name="pawaedc">  -3610.02815459 </i>
    <i name="eentropy">     -0.34428419 </i>
    <i name="bandstr">  -1437.31945612 </i>
    <i name="atom">   6761.44252427 </i>
    <i name="e_fr_energy">   -186.83500485 </i>
    <i name="e_wo_entrp">   -186.49072066 </i>
    <i name="e_0_energy">   -186.66286275 </i>
   </energy>
  </scstep>
  <structure>
   <crystal>
    <varray name="basis" >
     <v>       8.66999996       5.03999989       0.00000000 </v>
     <v>      -8.66999982       5.04000013       0.00000000 </v>
     <v>       0.00000000       0.00000000      30.00000000 </v>
    </varray>
    <i name="volume">   2621.80797419 </i>
    <varray name="rec_basis" >
     <v>       0.05767013       0.09920635       0.00000000 </v>
     <v>      -0.05767013       0.09920635       0.00000000 </v>
     <v>       0.00000000       0.00000000       0.03333333 </v>
    </varray>
   </crystal>
   <varray name="positions" >
    <v>       1.00000000       0.33333334       0.00000000 </v>
    <v>       0.33333334       0.00000000       0.00000000 </v>
    <v>       0.00000000       0.00000000       0.00000000 </v>
    <v>       0.66666669       0.00000000       0.00000000 </v>
    <v>       0.00000000       0.66666669       0.00000000 </v>
    <v>       0.33333334       0.66666669       0.00000000 </v>
    <v>       0.33333334       0.33333334       0.00000000 </v>
    <v>       0.66666669       0.33333334       0.00000000 </v>
    <v>       0.66666669       0.66666669       0.00000000 </v>
    <v>       0.11068511       0.22244981       0.95539999 </v>
    <v>       0.22244981       0.11068511       0.04460000 </v>
    <v>       0.11068511       0.55578315       0.95539999 </v>
    <v>       0.22244981       0.44401845       0.04460000 </v>
    <v>       0.11068511       0.88911647       0.95539999 </v>
    <v>       0.22244981       0.77735180       0.04460000 </v>
    <v>       0.44401845       0.22244981       0.95539999 </v>
    <v>       0.55578315       0.11068511       0.04460000 </v>
    <v>       0.44401845       0.55578315       0.95539999 </v>
    <v>       0.55578315       0.44401845       0.04460000 </v>
    <v>       0.44401845       0.88911647       0.95539999 </v>
    <v>       0.55578315       0.77735180       0.04460000 </v>
    <v>       0.77735180       0.22244981       0.95539999 </v>
    <v>       0.88911647       0.11068511       0.04460000 </v>
    <v>       0.77735180       0.55578315       0.95539999 </v>
    <v>       0.88911647       0.44401845       0.04460000 </v>
    <v>       0.77735180       0.88911647       0.95539999 </v>
    <v>       0.88911647       0.77735180       0.04460000 </v>
   </varray>
  </structure>
  <varray name="forces" >
   <v>      -0.14905946       0.07648098       0.11768781 </v>
   <v>       0.36392405      -0.28694554      -0.11191464 </v>
   <v>      -0.00895023      -0.14746388       0.02630375 </v>
   <v>       0.01457723      -0.22655492       0.06818565 </v>
   <v>       0.25717227       0.19229265      -0.08165613 </v>
   <v>      -0.27048096       0.12786618      -0.13353176 </v>
   <v>      -0.27273588       0.01483895       0.02384693 </v>
   <v>       0.33397582       0.11453404       0.11168910 </v>
   <v>      -0.29765159       0.19182020       0.00253121 </v>
   <v>      -0.22927398      -0.52105932      -1.41373425 </v>
   <v>       0.23169691      -0.51879438       1.38548274 </v>
   <v>       0.52449243      -0.67830288      -2.14471957 </v>
   <v>      -0.36598824      -0.73381162       2.15733213 </v>
   <v>      -0.30844766       0.68304574      -1.42948283 </v>
   <v>      -0.53618193       0.68753238       2.18055125 </v>
   <v>       0.47019111      -0.60000855      -2.15362089 </v>
   <v>      -0.62399586      -0.53570603       2.13516013 </v>
   <v>       0.26423204       0.01292638      -2.91512098 </v>
   <v>      -0.11228974       0.02087546       2.92733886 </v>
   <v>      -0.77115559      -0.01550131      -2.16293468 </v>
   <v>       0.06067818       0.00346283       2.89289575 </v>
   <v>       0.37667038       0.69107987      -2.16098451 </v>
   <v>       0.31546720       0.67744479       1.40335113 </v>
   <v>       0.03297110      -0.12820187      -2.85793896 </v>
   <v>       0.68793651      -0.16792674       2.16513133 </v>
   <v>       0.62003222       0.53475631      -2.17928947 </v>
   <v>      -0.60780634       0.53132028       2.14744092 </v>
  </varray>
  <varray name="stress" >
   <v>       7.30312241      -0.03718444      -1.57517621 </v>
   <v>      -0.03718443       4.43350838      -0.01170753 </v>
   <v>      -1.57517621      -0.01170733      30.31868041 </v>
  </varray>
  <energy>
   <i name="e_fr_energy">   -186.83500485 </i>
   <i name="e_wo_entrp">   -186.66286275 </i>
   <i name="e_0_energy">     -0.34428419 </i>
  </energy>
  <time name="totalsc">  858.97  861.27</time>
 </calculation>
 <calculation>
  <scstep>
   <time name="dav">   23.19   23.25</time>
   <time name="total">   23.74   23.80</time>
   <energy>
    <i name="alphaZ">     78.92539820 </i>
    <i name="ewald">  39381.53328242 </i>
    <i name="hartreedc"> -45338.98944706 </i>
    <i name="XCdc">   -239.06828438 </i>
    <i name="pawpsdc">   4192.02601186 </i>
    <i name="pawaedc">  -3610.02714279 </i>
    <i name="eentropy">     -0.28740939 </i>
    <i name="bandstr">  -1413.00655319 </i>
    <i name="atom">   6761.44252427 </i>
    <i name="e_fr_energy">   -187.45162007 </i>
    <i name="e_wo_entrp">   -187.16421068 </i>
    <i name="e_0_energy">   -187.30791538 </i>
   </energy>
  </scstep>
  <scstep>
   <time name="dav">   32.18   32.26</time>
   <time name="total">   32.72   32.81</time>
   <energy>
    <i name="e_fr_energy">   -189.14836592 </i>
    <i name="e_wo_entrp">   -188.84066140 </i>
    <i name="e_0_energy">   -188.99451366 </i>
   </energy>
  </scstep>
  <scstep>
   <time name="dav">   32.59   32.67</time>
   <time name="total">   33.14   33.23</time>
   <energy>
    <i name="e_fr_energy">   -189.40187509 </i>
    <i name="e_wo_entrp">   -189.12265898 </i>
    <i name="e_0_energy">   -189.26226704 </i>
   </energy>
  </scstep>
  <scstep>
   <time name="dav">   33.08   33.16</time>
   <time name="total">   33.63   33.72</time>
   <energy>
    <i name="e_fr_energy">   -188.71898859 </i>
    <i name="e_wo_entrp">   -188.43243771 </i>
    <i name="e_0_energy">   -188.57571315 </i>
   </energy>
  </scstep>
  <scstep>
   <time name="dav">   28.78   28.85</time>
   <time name="total">   29.33   29.41</time>
   <energy>
    <i name="e_fr_energy">   -188.72438965 </i>
    <i name="e_wo_entrp">   -188.43824127 </i>
    <i name="e_0_energy">   -188.58131546 </i>
   </energy>
  </scstep>
  <scstep>
   <time name="dav">   33.48   33.56</time>
   <time name="total">   34.02   34.11</time>
   <energy>
    <i name="e_fr_energy">   -188.69361999 </i>
    <i name="e_wo_entrp">   -188.40348992 </i>
    <i name="e_0_energy">   -188.54855496 </i>
   </energy>
  </scstep>
  <scstep>
   <time name="dav">   32.33   32.40</time>
   <time name="total">   32.87   32.96</time>
   <energy>
    <i name="e_fr_energy">   -188.66610549 </i>
    <i name="e_wo_entrp">   -188.38171114 </i>
    <i name="e_0_energy">   -188.52390832 </i>
   </energy>
  </scstep>
  <scstep>
   <time name="dav">   33.06   33.14</time>
   <time name="total">   33.61   33.70</time>
   <energy>
    <i name="e_fr_energy">   -188.63001207 </i>
    <i name="e_wo_entrp">   -188.34478335 </i>
    <i name="e_0_energy">   -188.48739771 </i>
   </energy>
  </scstep>
  <scstep>
   <time name="dav">   31.74   31.81</time>
   <time name="total">   32.28   32.37</time>
   <energy>
    <i name="e_fr_energy">   -188.62950659 </i>
    <i name="e_wo_entrp">   -188.34519060 </i>
    <i name="e_0_energy">   -188.48734860 </i>
   </energy>
  </scstep>
  <scstep>
   <time name="dav">   35.12   35.20</time>
   <time name="total">   35.67   35.76</time>
   <energy>
    <i name="e_fr_energy">   -188.62876108 </i>
    <i name="e_wo_entrp">   -188.34414877 </i>
    <i name="e_0_energy">   -188.48645492 </i>
   </energy>
  </scstep>
  <scstep>
   <time name="dav">   33.57   33.65</time>
   <time name="total">   34.11   34.20</time>
   <energy>
    <i name="e_fr_energy">   -188.62796266 </i>
    <i name="e_wo_entrp">   -188.34359399 </i>
    <i name="e_0_energy">   -188.48577833 </i>
   </energy>
  </scstep>
  <scstep>
   <time name="dav">   29.66   29.73</time>
   <time name="total">   29.70   29.78</time>
   <energy>
    <i name="alphaZ">     78.92539820 </i>
    <i name="ewald">  39381.53328242 </i>
    <i name="hartreedc"> -45349.99921406 </i>
    <i name="XCdc">   -237.97518738 </i>
    <i name="pawpsdc">   3952.11583609 </i>
    <i name="pawaedc">  -3366.63762632 </i>
    <i name="eentropy">     -0.28397858 </i>
    <i name="bandstr">  -1407.74908511 </i>
    <i name="atom">   6761.44252427 </i>
    <i name="e_fr_energy">   -188.62805047 </i>
    <i name="e_wo_entrp">   -188.34407188 </i>
    <i name="e_0_energy">   -188.48606118 </i>
   </energy>
  </scstep>
  <structure>
   <crystal>
    <varray name="basis" >
     <v>       8.85458566       5.10439075       0.00000000 </v>
     <v>      -8.85568144       5.10627624       0.00000000 </v>
     <v>       0.00000000       0.00000000      30.00000000 </v>
    </varray>
    <i name="volume">   2712.50456538 </i>
    <varray name="rec_basis" >
     <v>       0.05647485       0.09794286       0.00000000 </v>
     <v>      -0.05645400       0.09793074       0.00000000 </v>
     <v>       0.00000000       0.00000000       0.03333333 </v>
    </varray>
   </crystal>
   <varray name="positions" >
    <v>       0.99995133       0.33411409       0.00018925 </v>
    <v>       0.33297252      -0.00238581      -0.00017997 </v>
    <v>      -0.00073066      -0.00068086       0.00004230 </v>
    <v>       0.66562296      -0.00112484       0.00010965 </v>
    <v>       0.00163580       0.66687150      -0.00013131 </v>
    <v>       0.33319279       0.66803117      -0.00021473 </v>
    <v>       0.33264557       0.33416316       0.00003835 </v>
    <v>       0.66814402       0.33295233       0.00017961 </v>
    <v>       0.66675662       0.66841285       0.00000407 </v>
    <v>       0.10755346       0.22059391       0.95312658 </v>
    <v>       0.22061149       0.10755755       0.04682798 </v>
    <v>       0.10889799       0.55107759       0.95195109 </v>
    <v>       0.21791957       0.44152469       0.04806918 </v>
    <v>       0.11309600       0.89324366       0.95310126 </v>
    <v>       0.22424858       0.78213406       0.04810652 </v>
    <v>       0.44245497       0.21827003       0.95193678 </v>
    <v>       0.55148322       0.10985729       0.04803353 </v>
    <v>       0.44481545       0.55510988       0.95071222 </v>
    <v>       0.55557065       0.44443077       0.04930742 </v>
    <v>       0.44179879       0.89118776       0.95192180 </v>
    <v>       0.55596854       0.77719955       0.04925203 </v>
    <v>       0.78170725       0.22470934       0.95192494 </v>
    <v>       0.89323638       0.11304967       0.04685671 </v>
    <v>       0.77682996       0.55507785       0.95080417 </v>
    <v>       0.89022672       0.44130081       0.04808172 </v>
    <v>       0.78163616       0.88995077       0.95189550 </v>
    <v>       0.88996834       0.78158570       0.04805327 </v>
   </varray>
  </structure>
  <varray name="forces" >
   <v>      -0.20425783       0.06833076       0.03728260 </v>
   <v>       0.35676131      -0.25056511      -0.04308309 </v>
   <v>      -0.00784437      -0.20193469       0.08996280 </v>
   <v>       0.05481337      -0.36669583       0.07374894 </v>
   <v>       0.23711675       0.01611129      -0.08648199 </v>
   <v>      -0.08699392       0.22394240      -0.04355096 </v>
   <v>      -0.18198135       0.28745362       0.01427067 </v>
   <v>       0.16497916       0.17904344      -0.05474199 </v>
   <v>      -0.29255621       0.01286060       0.01203845 </v>
   <v>       0.05402431       0.06687974       0.13913941 </v>
   <v>      -0.06026678       0.07317803      -0.23003564 </v>
   <v>       0.03947913      -0.07067563      -0.08545613 </v>
   <v>       0.08891407      -0.05758223      -0.01535290 </v>
   <v>      -0.00203139       0.05520967       0.03289980 </v>
   <v>      -0.03960930       0.07183697       0.11534253 </v>
   <v>      -0.05055450       0.05224940       0.22123266 </v>
   <v>      -0.09639213       0.03908743      -0.02242705 </v>
   <v>       0.09307568       0.00618725      -0.05443264 </v>
   <v>       0.02163969       0.02233713      -0.10203191 </v>
   <v>      -0.07719157      -0.00456285      -0.21831008 </v>
   <v>       0.12538671      -0.02031466       0.13699117 </v>
   <v>      -0.08796357       0.05127583       0.06759871 </v>
   <v>       0.01348811       0.03668166      -0.10919875 </v>
   <v>      -0.07662308      -0.12186126       0.11169040 </v>
   <v>       0.01316693      -0.09741665       0.12353002 </v>
   <v>       0.07188785      -0.03404342      -0.05590554 </v>
   <v>      -0.07046705      -0.03701288      -0.05471947 </v>
  </varray>
  <varray name="stress" >
   <v>     -19.93348898       0.01330363       0.02926007 </v>
   <v>       0.01330360     -19.52800425       0.03015188 </v>
   <v>       0.02926001       0.03015177      -1.77512620 </v>
  </varray>
  <energy>
   <i name="e_fr_energy">   -188.62805047 </i>
   <i name="e_wo_entrp">   -188.48606118 </i>
   <i name="e_0_energy">     -0.28397858 </i>
  </energy>
  <time name="totalsc">  429.18  430.52</time>
 </calculation>
 <calculation>
  <scstep>
   <time name="dav">   25.59   25.65</time>
   <time name="total">   26.13   26.19</time>
   <energy>
    <i name="alphaZ">     82.35446707 </i>
    <i name="ewald">  41307.15344557 </i>
    <i name="hartreedc"> -47306.19722785 </i>
    <i name="XCdc">   -233.85126035 </i>
    <i name="pawpsdc">   3950.31100733 </i>
    <i name="pawaedc">  -3364.81275801 </i>
    <i name="eentropy">     -0.23598821 </i>
    <i name="bandstr">  -1386.70554734 </i>
    <i name="atom">   6761.44252427 </i>
    <i name="e_fr_energy">   -190.54133752 </i>
    <i name="e_wo_entrp">   -190.30534931 </i>
    <i name="e_0_energy">   -190.42334342 </i>
   </energy>
  </scstep>
  <scstep>
   <time name="dav">   30.09   30.17</time>
   <time name="total">   30.62   30.70</time>
   <energy>
    <i name="e_fr_energy">   -190.56406906 </i>
    <i name="e_wo_entrp">   -190.32619737 </i>
    <i name="e_0_energy">   -190.44513322 </i>
   </energy>
  </scstep>
  <scstep>
   <time name="dav">   32.10   32.18</time>
   <time name="total">   32.63   32.71</time>
   <energy>
    <i name="e_fr_energy">   -190.00734378 </i>
    <i name="e_wo_entrp">   -189.75989882 </i>
    <i name="e_0_energy">   -189.88362130 </i>
   </energy>
  </scstep>
  <scstep>
   <time name="dav">   33.18   33.26</time>
   <time name="total">   33.72   33.81</time>
   <energy>
    <i name="e_fr_energy">   -189.80816254 </i>
    <i name="e_wo_entrp">   -189.57186317 </i>
    <i name="e_0_energy">   -189.69001286 </i>
   </energy>
  </scstep>
  <scstep>
   <time name="dav">   30.17   30.24</time>
   <time name="total">   30.70   30.78</time>
   <energy>
    <i name="e_fr_energy">   -189.73271631 </i>
    <i name="e_wo_entrp">   -189.49017877 </i>
    <i name="e_0_energy">   -189.61144754 </i>
   </energy>
  </scstep>
  <scstep>
   <time name="dav">   31.44   31.52</time>
   <time name="total">   31.98   32.06</time>
   <energy>
    <i name="e_fr_energy">   -189.71192545 </i>
    <i name="e_wo_entrp">   -189.47351388 </i>
    <i name="e_0_energy">   -189.59271967 </i>
   </energy>
  </scstep>
  <scstep>
   <time name="dav">   33.01   33.08</time>
   <time name="total">   33.54   33.63</time>
   <energy>
    <i name="e_fr_energy">   -189.70448450 </i>
    <i name="e_wo_entrp">   -189.46548370 </i>
    <i name="e_0_energy">   -189.58498410 </i>
   </energy>
  </scstep>
  <scstep>
   <time name="dav">   29.37   29.44</time>
   <time name="total">   29.91   29.99</time>
   <energy>
    <i name="e_fr_energy">   -189.70456240 </i>
    <i name="e_wo_entrp">   -189.46586376 </i>
    <i name="e_0_energy">   -189.58521308 </i>
   </energy>
  </scstep>
  <scstep>
   <time name="dav">   29.68   29.75</time>
   <time name="total">   30.21   30.29</time>
   <energy>
    <i name="e_fr_energy">   -189.70475954 </i>
    <i name="e_wo_entrp">   -189.46577217 </i>
    <i name="e_0_energy">   -189.58526585 </i>
   </energy>
  </scstep>
  <scstep>
   <time name="dav">   27.90   27.97</time>
   <time name="total">   28.44   28.52</time>
   <energy>
    <i name="e_fr_energy">   -189.70504317 </i>
    <i name="e_wo_entrp">   -189.46615647 </i>
    <i name="e_0_energy">   -189.58559982 </i>
   </energy>
  </scstep>
  <scstep>
   <time name="dav">   26.41   26.47</time>
   <time name="total">   26.94   27.02</time>
   <energy>
    <i name="e_fr_energy">   -189.70454828 </i>
    <i name="e_wo_entrp">   -189.46561045 </i>
    <i name="e_0_energy">   -189.58507936 </i>
   </energy>
  </scstep>
  <scstep>
   <time name="dav">   19.86   19.90</time>
   <time name="total">   19.89   19.95</time>
   <energy>
    <i name="alphaZ">     82.35446707 </i>
    <i name="ewald">  41307.15344557 </i>
    <i name="hartreedc"> -47279.53056023 </i>
    <i name="XCdc">   -235.24751282 </i>
    <i name="pawpsdc">   4038.78017369 </i>
    <i name="pawaedc">  -3454.47826790 </i>
    <i name="eentropy">     -0.23885787 </i>
    <i name="bandstr">  -1409.93998957 </i>
    <i name="atom">   6761.44252427 </i>
    <i name="e_fr_energy">   -189.70457778 </i>
    <i name="e_wo_entrp">   -189.46571991 </i>
    <i name="e_0_energy">   -189.58514884 </i>
   </energy>
  </scstep>
  <structure>
   <crystal>
    <varray name="basis" >
     <v>       8.66644073       4.99822210       0.00000000 </v>
     <v>      -8.66736836       4.99981707       0.00000000 </v>
     <v>       0.00000000       0.00000000      30.00000000 </v>
    </varray>
    <i name="volume">   2599.56151191 </i>
    <varray name="rec_basis" >
     <v>       0.05769993       0.10002497       0.00000000 </v>
     <v>      -0.05768152       0.10001426       0.00000000 </v>
     <v>       0.00000000       0.00000000       0.03333333 </v>
    </varray>
   </crystal>
   <varray name="positions" >
    <v>       0.99986897       0.33442399       0.00021039 </v>
    <v>       0.33289781      -0.00314563      -0.00020439 </v>
    <v>      -0.00107455      -0.00100964       0.00009330 </v>
    <v>       0.66506481      -0.00178818       0.00015146 </v>
    <v>       0.00189037       0.66667068      -0.00018034 </v>
    <v>       0.33348225       0.66848766      -0.00023942 </v>
    <v>       0.33294958       0.33481661       0.00004644 </v>
    <v>       0.66860069       0.33309212       0.00014857 </v>
    <v>       0.66649706       0.66871514       0.00001089 </v>
    <v>       0.10771674       0.22065343       0.95320546 </v>
    <v>       0.22067550       0.10773729       0.04669758 </v>
    <v>       0.10881819       0.55092198       0.95190265 </v>
    <v>       0.21790905       0.44134342       0.04806048 </v>
    <v>       0.11318601       0.89333756       0.95311991 </v>
    <v>       0.22433019       0.78229172       0.04817190 </v>
    <v>       0.44249345       0.21840559       0.95206219 </v>
    <v>       0.55145575       0.11001493       0.04802081 </v>
    <v>       0.44491515       0.55503083       0.95068136 </v>
    <v>       0.55562864       0.44444720       0.04924958 </v>
    <v>       0.44171705       0.89125427       0.95179804 </v>
    <v>       0.55605513       0.77704534       0.04932969 </v>
    <v>       0.78170817       0.22487919       0.95196326 </v>
    <v>       0.89331044       0.11309781       0.04679481 </v>
    <v>       0.77655339       0.55494846       0.95086749 </v>
    <v>       0.89007711       0.44112593       0.04815175 </v>
    <v>       0.78164850       0.88982505       0.95186381 </v>
    <v>       0.88983901       0.78159171       0.04802225 </v>
   </varray>
  </structure>
  <varray name="forces" >
   <v>      -0.24449992       0.07849776       0.01096241 </v>
   <v>       0.36653717      -0.22146078      -0.01183045 </v>
   <v>      -0.01176054      -0.22638001       0.08484876 </v>
   <v>       0.06220628      -0.40330007       0.05136037 </v>
   <v>       0.23420589      -0.05585077      -0.05801115 </v>
   <v>      -0.01240650       0.24614203      -0.01034720 </v>
   <v>      -0.15622238       0.37815302       0.00965535 </v>
   <v>       0.09801946       0.20406278      -0.07759093 </v>
   <v>      -0.28522460      -0.07295286       0.00862985 </v>
   <v>      -0.02680344      -0.06589782      -0.30869808 </v>
   <v>       0.02124111      -0.04999483       0.21075975 </v>
   <v>       0.09318389      -0.13523180      -0.57793220 </v>
   <v>      -0.04494751      -0.10504152       0.48434483 </v>
   <v>      -0.04590847       0.11873670      -0.41847229 </v>
   <v>      -0.07522711       0.13047507       0.60084661 </v>
   <v>       0.02030044      -0.07151023      -0.26854360 </v>
   <v>      -0.09820931      -0.09709681       0.47309110 </v>
   <v>       0.01093939       0.01210283      -0.62577001 </v>
   <v>       0.02341237       0.03226814       0.46029368 </v>
   <v>      -0.14620243       0.00190683      -0.73375823 </v>
   <v>       0.03534214      -0.03247480       0.70366249 </v>
   <v>       0.05005897       0.10326607      -0.41908698 </v>
   <v>       0.04466521       0.09910757       0.32931736 </v>
   <v>      -0.04651992      -0.05317072      -0.42750956 </v>
   <v>       0.12622148      -0.01226980       0.64276576 </v>
   <v>       0.06010307       0.10654924      -0.56449305 </v>
   <v>      -0.05250475       0.09136478       0.43150540 </v>
  </varray>
  <varray name="stress" >
   <v>     -10.13017453       0.01348350       0.00565922 </v>
   <v>       0.01348366      -9.81243817       0.03598532 </v>
   <v>       0.00565923       0.03598544       6.51260594 </v>
  </varray>
  <energy>
   <i name="e_fr_energy">   -189.70457778 </i>
   <i name="e_wo_entrp">   -189.58514884 </i>
   <i name="e_0_energy">     -0.23885787 </i>
  </energy>
  <time name="totalsc">  398.76  399.81</time>
 </calculation>
 <calculation>
  <scstep>
   <time name="dav">   23.16   23.22</time>
   <time name="total">   23.69   23.74</time>
   <energy>
    <i name="alphaZ">     85.81022298 </i>
    <i name="ewald">  42826.32331476 </i>
    <i name="hartreedc"> -48843.03311245 </i>
    <i name="XCdc">   -232.98271798 </i>
    <i name="pawpsdc">   4038.81362899 </i>
    <i name="pawaedc">  -3454.50921315 </i>
    <i name="eentropy">     -0.19389211 </i>
    <i name="bandstr">  -1372.88836658 </i>
    <i name="atom">   6761.44252427 </i>
    <i name="e_fr_energy">   -191.21761128 </i>
    <i name="e_wo_entrp">   -191.02371917 </i>
    <i name="e_0_energy">   -191.12066522 </i>
   </energy>
  </scstep>
  <scstep>
   <time name="dav">   34.93   35.02</time>
   <time name="total">   35.45   35.55</time>
   <energy>
    <i name="e_fr_energy">   -191.16320196 </i>
    <i name="e_wo_entrp">   -190.96210458 </i>
    <i name="e_0_energy">   -191.06265327 </i>
   </energy>
  </scstep>
  <scstep>
   <time name="dav">   31.50   31.58</time>
   <time name="total">   32.02   32.10</time>
   <energy>
    <i name="e_fr_energy">   -191.08419119 </i>
    <i name="e_wo_entrp">   -190.87282312 </i>
    <i name="e_0_energy">   -190.97850715 </i>
   </energy>
  </scstep>
  <scstep>
   <time name="dav">   33.73   33.82</time>
   <time name="total">   34.26   34.35</time>
   <energy>
    <i name="e_fr_energy">   -190.76546453 </i>
    <i name="e_wo_entrp">   -190.56554971 </i>
    <i name="e_0_energy">   -190.66550712 </i>
   </energy>
  </scstep>
  <scstep>
   <time name="dav">   31.92   32.00</time>
   <time name="total">   32.44   32.52</time>
   <energy>
    <i name="e_fr_energy">   -190.75557458 </i>
    <i name="e_wo_entrp">   -190.55848146 </i>
    <i name="e_0_energy">   -190.65702802 </i>
   </energy>
  </scstep>
  <scstep>
   <time name="dav">   31.97   32.04</time>
   <time name="total">   32.48   32.57</time>
   <energy>
    <i name="e_fr_energy">   -190.64192587 </i>
    <i name="e_wo_entrp">   -190.44051112 </i>
    <i name="e_0_energy">   -190.54121850 </i>
   </energy>
  </scstep>
  <scstep>
   <time name="dav">   32.63   32.70</time>
   <time name="total">   33.15   33.24</time>
   <energy>
    <i name="e_fr_energy">   -190.63637380 </i>
    <i name="e_wo_entrp">   -190.43687153 </i>
    <i name="e_0_energy">   -190.53662266 </i>
   </energy>
  </scstep>
  <scstep>
   <time name="dav">   30.25   30.33</time>
   <time name="total">   30.77   30.86</time>
   <energy>
    <i name="e_fr_energy">   -190.63518287 </i>
    <i name="e_wo_entrp">   -190.43550304 </i>
    <i name="e_0_energy">   -190.53534296 </i>
   </energy>
  </scstep>
  <scstep>
   <time name="dav">   30.73   30.81</time>
   <time name="total">   31.25   31.33</time>
   <energy>
    <i name="e_fr_energy">   -190.63197492 </i>
    <i name="e_wo_entrp">   -190.43226928 </i>
    <i name="e_0_energy">   -190.53212210 </i>
   </energy>
  </scstep>
  <scstep>
   <time name="dav">   27.37   27.44</time>
   <time name="total">   27.89   27.97</time>
   <energy>
    <i name="e_fr_energy">   -190.63233658 </i>
    <i name="e_wo_entrp">   -190.43245336 </i>
    <i name="e_0_energy">   -190.53239497 </i>
   </energy>
  </scstep>
  <scstep>
   <time name="dav">   28.78   28.84</time>
   <time name="total">   29.29   29.37</time>
   <energy>
    <i name="e_fr_energy">   -190.63214155 </i>
    <i name="e_wo_entrp">   -190.43239223 </i>
    <i name="e_0_energy">   -190.53226689 </i>
   </energy>
  </scstep>
  <scstep>
   <time name="dav">   21.13   21.18</time>
   <time name="total">   21.17   21.23</time>
   <energy>
    <i name="alphaZ">     85.81022298 </i>
    <i name="ewald">  42826.32331476 </i>
    <i name="hartreedc"> -48814.59260353 </i>
    <i name="XCdc">   -234.31516511 </i>
    <i name="pawpsdc">   4062.38586606 </i>
    <i name="pawaedc">  -3478.24027490 </i>
    <i name="eentropy">     -0.19970801 </i>
    <i name="bandstr">  -1399.24632268 </i>
    <i name="atom">   6761.44252427 </i>
    <i name="e_fr_energy">   -190.63214616 </i>
    <i name="e_wo_entrp">   -190.43243815 </i>
    <i name="e_0_energy">   -190.53229215 </i>
   </energy>
  </scstep>
  <structure>
   <crystal>
    <varray name="basis" >
     <v>       8.48606834       4.89945567       0.00000000 </v>
     <v>      -8.48648940       4.90017427       0.00000000 </v>
     <v>       0.00000000       0.00000000      30.00000000 </v>
    </varray>
    <i name="volume">   2494.87177061 </i>
    <varray name="rec_basis" >
     <v>       0.05892296       0.10204720       0.00000000 </v>
     <v>      -0.05891432       0.10204214       0.00000000 </v>
     <v>       0.00000000       0.00000000       0.03333333 </v>
    </varray>
   </crystal>
   <varray name="positions" >
    <v>       0.99944519       0.33588012       0.00021084 </v>
    <v>       0.33292146      -0.00579565      -0.00020248 </v>
    <v>      -0.00259959      -0.00243844       0.00026440 </v>
    <v>       0.66268587      -0.00463703       0.00023875 </v>
    <v>       0.00220380       0.66530187      -0.00027625 </v>
    <v>       0.33513915       0.67002075      -0.00023280 </v>
    <v>       0.33501331       0.33793414       0.00006251 </v>
    <v>       0.67019758       0.33417273      -0.00003112 </v>
    <v>       0.66480875       0.66906484       0.00002586 </v>
    <v>       0.10676296       0.22012425       0.95218936 </v>
    <v>       0.22025052       0.10692606       0.04750524 </v>
    <v>       0.10822519       0.54950292       0.95029226 </v>
    <v>       0.21678057       0.44092212       0.04948347 </v>
    <v>       0.11385796       0.89446623       0.95187388 </v>
    <v>       0.22496944       0.78357571       0.04982378 </v>
    <v>       0.44191378       0.21747692       0.95109373 </v>
    <v>       0.55015350       0.10942691       0.04941701 </v>
    <v>       0.44492761       0.55519910       0.94890553 </v>
    <v>       0.55594220       0.44458666       0.05067569 </v>
    <v>       0.44111860       0.89190845       0.94984611 </v>
    <v>       0.55582066       0.77681317       0.05126262 </v>
    <v>       0.78286118       0.22527622       0.95068616 </v>
    <v>       0.89429109       0.11366684       0.04784566 </v>
    <v>       0.77626612       0.55491096       0.94952867 </v>
    <v>       0.89082868       0.44064318       0.04991876 </v>
    <v>       0.78286381       0.89064009       0.95026761 </v>
    <v>       0.89056507       0.78264533       0.04932464 </v>
   </varray>
  </structure>
  <varray name="forces" >
   <v>      -0.28456281       0.08435211      -0.04453682 </v>
   <v>       0.35700107      -0.20600980       0.04707429 </v>
   <v>      -0.01371488      -0.22678189       0.04684453 </v>
   <v>       0.09353180      -0.44594454      -0.00541522 </v>
   <v>       0.24858329      -0.11547481      -0.00766476 </v>
   <v>       0.09738231       0.28066373       0.02370839 </v>
   <v>      -0.16254484       0.40925509       0.01047387 </v>
   <v>       0.04742382       0.25256481      -0.05152074 </v>
   <v>      -0.32829750      -0.17076608       0.00107613 </v>
   <v>      -0.01186578       0.00212104      -0.15698296 </v>
   <v>       0.00689033       0.01445204       0.08430610 </v>
   <v>       0.06236132      -0.01064522      -0.40479310 </v>
   <v>      -0.06525590       0.00814945       0.32651744 </v>
   <v>       0.01168466       0.01787295      -0.32304117 </v>
   <v>      -0.01504946       0.02735059       0.39428703 </v>
   <v>       0.01743759      -0.03752858      -0.13433182 </v>
   <v>      -0.02330258      -0.04397500       0.27131519 </v>
   <v>      -0.06857509       0.04524304      -0.50216375 </v>
   <v>       0.01609584       0.06676598       0.34125989 </v>
   <v>      -0.03182977      -0.01431954      -0.56864943 </v>
   <v>      -0.03291687      -0.02468312       0.54681699 </v>
   <v>       0.08133688      -0.00876795      -0.22954007 </v>
   <v>      -0.02436852      -0.01127535       0.24564090 </v>
   <v>      -0.03431737       0.03839513      -0.27636366 </v>
   <v>       0.05517613       0.02142097       0.48490835 </v>
   <v>      -0.00464467       0.03393234      -0.37884094 </v>
   <v>       0.00634097       0.01363261       0.25961533 </v>
  </varray>
  <varray name="stress" >
   <v>      -5.85615623      -0.01182919      -0.09240035 </v>
   <v>      -0.01182894      -5.87779865       0.00182800 </v>
   <v>      -0.09240049       0.00182801       4.47405544 </v>
  </varray>
  <energy>
   <i name="e_fr_energy">   -190.63214616 </i>
   <i name="e_wo_entrp">   -190.53229215 </i>
   <i name="e_0_energy">     -0.19970801 </i>
  </energy>
  <time name="totalsc">  408.05  409.12</time>
 </calculation>
 <calculation>
  <scstep>
   <time name="dav">   23.16   23.22</time>
   <time name="total">   23.67   23.73</time>
   <energy>
    <i name="alphaZ">     90.35874456 </i>
    <i name="ewald">  44748.26804663 </i>
    <i name="hartreedc"> -50794.15731395 </i>
    <i name="XCdc">   -231.71057621 </i>
    <i name="pawpsdc">   4062.34024336 </i>
    <i name="pawaedc">  -3478.19051747 </i>
    <i name="eentropy">     -0.17639333 </i>
    <i name="bandstr">  -1350.23782930 </i>
    <i name="atom">   6761.44252427 </i>
    <i name="e_fr_energy">   -192.06307144 </i>
    <i name="e_wo_entrp">   -191.88667812 </i>
    <i name="e_0_energy">   -191.97487478 </i>
   </energy>
  </scstep>
  <scstep>
   <time name="dav">   32.80   32.88</time>
   <time name="total">   33.30   33.39</time>
   <energy>
    <i name="e_fr_energy">   -191.87501777 </i>
    <i name="e_wo_entrp">   -191.68832398 </i>
    <i name="e_0_energy">   -191.78167088 </i>
   </energy>
  </scstep>
  <scstep>
   <time name="dav">   29.13   29.20</time>
   <time name="total">   29.63   29.71</time>
   <energy>
    <i name="e_fr_energy">   -192.15407471 </i>
    <i name="e_wo_entrp">   -191.95335737 </i>
    <i name="e_0_energy">   -192.05371604 </i>
   </energy>
  </scstep>
  <scstep>
   <time name="dav">   31.70   31.78</time>
   <time name="total">   32.21   32.30</time>
   <energy>
    <i name="e_fr_energy">   -191.52694690 </i>
    <i name="e_wo_entrp">   -191.34352616 </i>
    <i name="e_0_energy">   -191.43523653 </i>
   </energy>
  </scstep>
  <scstep>
   <time name="dav">   31.98   32.05</time>
   <time name="total">   32.50   32.58</time>
   <energy>
    <i name="e_fr_energy">   -191.45409086 </i>
    <i name="e_wo_entrp">   -191.27441528 </i>
    <i name="e_0_energy">   -191.36425307 </i>
   </energy>
  </scstep>
  <scstep>
   <time name="dav">   32.05   32.13</time>
   <time name="total">   32.56   32.64</time>
   <energy>
    <i name="e_fr_energy">   -191.26429908 </i>
    <i name="e_wo_entrp">   -191.07864130 </i>
    <i name="e_0_energy">   -191.17147019 </i>
   </energy>
  </scstep>
  <scstep>
   <time name="dav">   31.79   31.86</time>
   <time name="total">   32.30   32.39</time>
   <energy>
    <i name="e_fr_energy">   -191.25787080 </i>
    <i name="e_wo_entrp">   -191.07314361 </i>
    <i name="e_0_energy">   -191.16550721 </i>
   </energy>
  </scstep>
  <scstep>
   <time name="dav">   28.37   28.44</time>
   <time name="total">   28.88   28.96</time>
   <energy>
    <i name="e_fr_energy">   -191.25298603 </i>
    <i name="e_wo_entrp">   -191.06822926 </i>
    <i name="e_0_energy">   -191.16060764 </i>
   </energy>
  </scstep>
  <scstep>
   <time name="dav">   32.88   32.96</time>
   <time name="total">   33.39   33.48</time>
   <energy>
    <i name="e_fr_energy">   -191.25386234 </i>
    <i name="e_wo_entrp">   -191.06909827 </i>
    <i name="e_0_energy">   -191.16148031 </i>
   </energy>
  </scstep>
  <scstep>
   <time name="dav">   29.80   29.87</time>
   <time name="total">   30.31   30.39</time>
   <energy>
    <i name="e_fr_energy">   -191.25300027 </i>
    <i name="e_wo_entrp">   -191.06822125 </i>
    <i name="e_0_energy">   -191.16061076 </i>
   </energy>
  </scstep>
  <scstep>
   <time name="dav">   28.13   28.20</time>
   <time name="total">   28.17   28.25</time>
   <energy>
    <i name="alphaZ">     90.35874456 </i>
    <i name="ewald">  44748.26804663 </i>
    <i name="hartreedc"> -50758.10690340 </i>
    <i name="XCdc">   -233.33774648 </i>
    <i name="pawpsdc">   4083.26952842 </i>
    <i name="pawaedc">  -3499.18633700 </i>
    <i name="eentropy">     -0.18489399 </i>
    <i name="bandstr">  -1383.77587820 </i>
    <i name="atom">   6761.44252427 </i>
    <i name="e_fr_energy">   -191.25291519 </i>
    <i name="e_wo_entrp">   -191.06802120 </i>
    <i name="e_0_energy">   -191.16046819 </i>
   </energy>
  </scstep>
  <structure>
   <crystal>
    <varray name="basis" >
     <v>       8.26963990       4.77390166       0.00000000 </v>
     <v>      -8.27065139       4.77564299       0.00000000 </v>
     <v>       0.00000000       0.00000000      30.00000000 </v>
    </varray>
    <i name="volume">   2369.28372549 </i>
    <varray name="rec_basis" >
     <v>       0.06046945       0.10472344       0.00000000 </v>
     <v>      -0.06044740       0.10471063       0.00000000 </v>
     <v>       0.00000000       0.00000000       0.03333333 </v>
    </varray>
   </crystal>
   <varray name="positions" >
    <v>       0.99842787       0.33906496       0.00003182 </v>
    <v>       0.33300994      -0.01095773      -0.00000989 </v>
    <v>      -0.00563640      -0.00526577       0.00047278 </v>
    <v>       0.65768937      -0.01095798       0.00022520 </v>
    <v>       0.00242556       0.66194323      -0.00030666 </v>
    <v>       0.33941314       0.67283819      -0.00012041 </v>
    <v>       0.33925930       0.34444471       0.00010038 </v>
    <v>       0.67365332       0.33706823      -0.00028062 </v>
    <v>       0.66023310       0.66915780       0.00003100 </v>
    <v>       0.10603268       0.21987613       0.95100296 </v>
    <v>       0.22015725       0.10642200       0.04837180 </v>
    <v>       0.10825937       0.54838189       0.94803015 </v>
    <v>       0.21585878       0.44137274       0.05142281 </v>
    <v>       0.11440008       0.89510500       0.95003282 </v>
    <v>       0.22543738       0.78450614       0.05205417 </v>
    <v>       0.44126294       0.21632155       0.94996732 </v>
    <v>       0.54885100       0.10861975       0.05114968 </v>
    <v>       0.44489664       0.55629163       0.94619037 </v>
    <v>       0.55688169       0.44527100       0.05271797 </v>
    <v>       0.44052017       0.89224065       0.94689175 </v>
    <v>       0.55513233       0.77677906       0.05417496 </v>
    <v>       0.78390006       0.22471610       0.94914095 </v>
    <v>       0.89447270       0.11395746       0.04934904 </v>
    <v>       0.77658774       0.55565249       0.94775880 </v>
    <v>       0.89196400       0.44044222       0.05252887 </v>
    <v>       0.78384952       0.89160469       0.94808874 </v>
    <v>       0.89127494       0.78331831       0.05098314 </v>
   </varray>
  </structure>
  <varray name="forces" >
   <v>      -0.26133572       0.08090697      -0.02293873 </v>
   <v>       0.25057771      -0.23389694      -0.01462698 </v>
   <v>       0.00777189      -0.17982884       0.03180265 </v>
   <v>       0.12189911      -0.28152017      -0.02839120 </v>
   <v>       0.18570240      -0.12231071      -0.01950036 </v>
   <v>       0.19530636       0.15479018      -0.00681325 </v>
   <v>      -0.16902787       0.32782576       0.01516459 </v>
   <v>      -0.05501515       0.30476028       0.01309871 </v>
   <v>      -0.26808004      -0.21605597       0.02994044 </v>
   <v>      -0.00982867       0.09253325       0.10813129 </v>
   <v>      -0.00471975       0.11711613      -0.18350527 </v>
   <v>       0.03005919       0.13127562      -0.07101871 </v>
   <v>      -0.02991149       0.11175166       0.03355592 </v>
   <v>       0.08114399      -0.07749257      -0.01901151 </v>
   <v>       0.09030321      -0.08015852       0.10084531 </v>
   <v>      -0.00891690       0.04435132       0.15846559 </v>
   <v>       0.06360080       0.04858956      -0.09221479 </v>
   <v>      -0.11472856       0.07482491      -0.26910863 </v>
   <v>       0.01101575       0.11569570       0.12226445 </v>
   <v>       0.07171403      -0.04121316      -0.15953365 </v>
   <v>      -0.03196292      -0.00804929       0.25247528 </v>
   <v>       0.05388625      -0.13628654       0.06496928 </v>
   <v>      -0.11235313      -0.12257680      -0.06097755 </v>
   <v>      -0.08340590       0.12194194      -0.01755845 </v>
   <v>      -0.01342474       0.01696781       0.16980929 </v>
   <v>      -0.04491936      -0.09677027      -0.08443657 </v>
   <v>       0.04464949      -0.14717134      -0.05088716 </v>
  </varray>
  <varray name="stress" >
   <v>      -0.27299422       0.00875301       0.05163984 </v>
   <v>       0.00875295       0.01799968      -0.06879260 </v>
   <v>       0.05163986      -0.06879246      -0.41670240 </v>
  </varray>
  <energy>
   <i name="e_fr_energy">   -191.25291519 </i>
   <i name="e_wo_entrp">   -191.16046819 </i>
   <i name="e_0_energy">     -0.18489399 </i>
  </energy>
  <time name="totalsc">  381.39  382.38</time>
 </calculation>
 <calculation>
  <scstep>
   <time name="dav">   23.11   23.17</time>
   <time name="total">   23.63   23.68</time>
   <energy>
    <i name="alphaZ">     90.47288279 </i>
    <i name="ewald">  44780.36740634 </i>
    <i name="hartreedc"> -50792.32172587 </i>
    <i name="XCdc">   -233.34157078 </i>
    <i name="pawpsdc">   4083.71878079 </i>
    <i name="pawaedc">  -3499.63336554 </i>
    <i name="eentropy">     -0.19034766 </i>
    <i name="bandstr">  -1381.83065785 </i>
    <i name="atom">   6761.44252427 </i>
    <i name="e_fr_energy">   -191.31607351 </i>
    <i name="e_wo_entrp">   -191.12572585 </i>
    <i name="e_0_energy">   -191.22089968 </i>
   </energy>
  </scstep>
  <scstep>
   <time name="dav">   34.49   34.57</time>
   <time name="total">   35.00   35.10</time>
   <energy>
    <i name="e_fr_energy">   -191.37420373 </i>
    <i name="e_wo_entrp">   -191.17617861 </i>
    <i name="e_0_energy">   -191.27519117 </i>
   </energy>
  </scstep>
  <scstep>
   <time name="dav">   31.09   31.16</time>
   <time name="total">   31.60   31.68</time>
   <energy>
    <i name="e_fr_energy">   -191.32678989 </i>
    <i name="e_wo_entrp">   -191.13570384 </i>
    <i name="e_0_energy">   -191.23124686 </i>
   </energy>
  </scstep>
  <scstep>
   <time name="dav">   30.18   30.25</time>
   <time name="total">   30.68   30.77</time>
   <energy>
    <i name="e_fr_energy">   -191.32612404 </i>
    <i name="e_wo_entrp">   -191.13516646 </i>
    <i name="e_0_energy">   -191.23064525 </i>
   </energy>
  </scstep>
  <scstep>
   <time name="dav">   29.94   30.01</time>
   <time name="total">   30.45   30.53</time>
   <energy>
    <i name="e_fr_energy">   -191.32291714 </i>
    <i name="e_wo_entrp">   -191.13121124 </i>
    <i name="e_0_energy">   -191.22706419 </i>
   </energy>
  </scstep>
  <scstep>
   <time name="dav">   29.52   29.59</time>
   <time name="total">   30.03   30.11</time>
   <energy>
    <i name="e_fr_energy">   -191.32230196 </i>
    <i name="e_wo_entrp">   -191.13063172 </i>
    <i name="e_0_energy">   -191.22646684 </i>
   </energy>
  </scstep>
  <scstep>
   <time name="dav">   30.82   30.89</time>
   <time name="total">   31.33   31.42</time>
   <energy>
    <i name="e_fr_energy">   -191.32267718 </i>
    <i name="e_wo_entrp">   -191.13093050 </i>
    <i name="e_0_energy">   -191.22680384 </i>
   </energy>
  </scstep>
  <scstep>
   <time name="dav">   27.08   27.15</time>
   <time name="total">   27.59   27.67</time>
   <energy>
    <i name="e_fr_energy">   -191.32213339 </i>
    <i name="e_wo_entrp">   -191.13036670 </i>
    <i name="e_0_energy">   -191.22625004 </i>
   </energy>
  </scstep>
  <scstep>
   <time name="dav">   19.14   19.19</time>
   <time name="total">   19.18   19.23</time>
   <energy>
    <i name="alphaZ">     90.47288279 </i>
    <i name="ewald">  44780.36740634 </i>
    <i name="hartreedc"> -50792.37131335 </i>
    <i name="XCdc">   -233.36329764 </i>
    <i name="pawpsdc">   4082.23253898 </i>
    <i name="pawaedc">  -3498.11421978 </i>
    <i name="eentropy">     -0.19171499 </i>
    <i name="bandstr">  -1381.79689201 </i>
    <i name="atom">   6761.44252427 </i>
    <i name="e_fr_energy">   -191.32208539 </i>
    <i name="e_wo_entrp">   -191.13037040 </i>
    <i name="e_0_energy">   -191.22622789 </i>
   </energy>
  </scstep>
  <structure>
   <crystal>
    <varray name="basis" >
     <v>       8.26125583       4.77297063       0.00000000 </v>
     <v>      -8.26204733       4.77433232       0.00000000 </v>
     <v>       0.00000000       0.00000000      30.00000000 </v>
    </varray>
    <i name="volume">   2366.29469884 </i>
    <varray name="rec_basis" >
     <v>       0.06052922       0.10474664       0.00000000 </v>
     <v>      -0.06051196       0.10473661       0.00000000 </v>
     <v>       0.00000000       0.00000000       0.03333333 </v>
    </varray>
   </crystal>
   <varray name="positions" >
    <v>       0.99804477       0.34033022      -0.00000942 </v>
    <v>       0.33254830      -0.01302218      -0.00003060 </v>
    <v>      -0.00660572      -0.00627771       0.00052948 </v>
    <v>       0.65649800      -0.01290561       0.00017802 </v>
    <v>       0.00234959       0.66068601      -0.00033951 </v>
    <v>       0.34088458       0.67310865      -0.00012946 </v>
    <v>       0.34053876       0.34678015       0.00012613 </v>
    <v>       0.67513679       0.33887335      -0.00026395 </v>
    <v>       0.65821848       0.66883883       0.00008070 </v>
    <v>       0.10646341       0.22037837       0.95115391 </v>
    <v>       0.22074705       0.10702887       0.04808986 </v>
    <v>       0.10903019       0.54894784       0.94786390 </v>
    <v>       0.21632709       0.44205093       0.05152106 </v>
    <v>       0.11425332       0.89447558       0.94996146 </v>
    <v>       0.22530292       0.78384044       0.05226939 </v>
    <v>       0.44145142       0.21655136       0.95020237 </v>
    <v>       0.54926425       0.10866173       0.05103603 </v>
    <v>       0.44493951       0.55704602       0.94568702 </v>
    <v>       0.55753398       0.44585209       0.05296556 </v>
    <v>       0.44050800       0.89182017       0.94656593 </v>
    <v>       0.55498011       0.77683300       0.05465454 </v>
    <v>       0.78337836       0.22383638       0.94921310 </v>
    <v>       0.89350634       0.11366545       0.04928146 </v>
    <v>       0.77697868       0.55655135       0.94768973 </v>
    <v>       0.89203830       0.44056633       0.05286539 </v>
    <v>       0.78323597       0.89125971       0.94790152 </v>
    <v>       0.89066201       0.78243713       0.05093628 </v>
   </varray>
  </structure>
  <varray name="forces" >
   <v>      -0.25328845       0.07224886      -0.03370018 </v>
   <v>       0.23693836      -0.29729978       0.00980312 </v>
   <v>       0.01622064      -0.18792494       0.05391414 </v>
   <v>       0.16028040      -0.28728411      -0.00323859 </v>
   <v>       0.20509016      -0.09686101       0.00090538 </v>
   <v>       0.17561435       0.13960689       0.02285327 </v>
   <v>      -0.18765856       0.35014055      -0.00715800 </v>
   <v>      -0.06834800       0.35512098      -0.02389917 </v>
   <v>      -0.27038444      -0.21161376       0.01987000 </v>
   <v>      -0.00843128       0.07763581       0.14102976 </v>
   <v>      -0.00227212       0.09928899      -0.22363621 </v>
   <v>       0.03906437       0.08777840      -0.05526348 </v>
   <v>      -0.02356102       0.07178739       0.03439556 </v>
   <v>       0.06381157      -0.04900594      -0.00295211 </v>
   <v>       0.07479678      -0.05802086       0.05096534 </v>
   <v>      -0.00426491       0.04737161       0.20291476 </v>
   <v>       0.02211385       0.04219087      -0.14951647 </v>
   <v>      -0.06930949       0.05416809      -0.22816983 </v>
   <v>      -0.00083799       0.08231628       0.10193703 </v>
   <v>       0.05033427      -0.03757102      -0.13117361 </v>
   <v>      -0.02211918      -0.01298016       0.19866564 </v>
   <v>       0.02106466      -0.08578084       0.10450526 </v>
   <v>      -0.08508415      -0.07455225      -0.10558235 </v>
   <v>      -0.07977567       0.09636827       0.00523934 </v>
   <v>      -0.00399661       0.02052849       0.15873535 </v>
   <v>      -0.01683971      -0.07651462      -0.06406523 </v>
   <v>       0.03084219      -0.12114218      -0.07737874 </v>
  </varray>
  <varray name="stress" >
   <v>       0.01994495      -0.00472022      -0.00237964 </v>
   <v>      -0.00472035       0.07447758      -0.07257677 </v>
   <v>      -0.00237944      -0.07257663      -1.13581239 </v>
  </varray>
  <energy>
   <i name="e_fr_energy">   -191.32208539 </i>
   <i name="e_wo_entrp">   -191.22622789 </i>
   <i name="e_0_energy">     -0.19171499 </i>
  </energy>
  <time name="totalsc">  303.65  304.45</time>
 </calculation>
 <calculation>
  <scstep>
   <time name="dav">   23.17   23.23</time>
   <time name="total">   23.68   23.73</time>
   <energy>
    <i name="alphaZ">     90.44340076 </i>
    <i name="ewald">  44766.62709128 </i>
    <i name="hartreedc"> -50778.34732883 </i>
    <i name="XCdc">   -233.38597306 </i>
    <i name="pawpsdc">   4082.27823282 </i>
    <i name="pawaedc">  -3498.16071195 </i>
    <i name="eentropy">     -0.19503494 </i>
    <i name="bandstr">  -1382.07048641 </i>
    <i name="atom">   6761.44252427 </i>
    <i name="e_fr_energy">   -191.36828606 </i>
    <i name="e_wo_entrp">   -191.17325112 </i>
    <i name="e_0_energy">   -191.27076859 </i>
   </energy>
  </scstep>
  <scstep>
   <time name="dav">   35.09   35.18</time>
   <time name="total">   35.60   35.69</time>
   <energy>
    <i name="e_fr_energy">   -191.39735396 </i>
    <i name="e_wo_entrp">   -191.19501727 </i>
    <i name="e_0_energy">   -191.29618561 </i>
   </energy>
  </scstep>
  <scstep>
   <time name="dav">   31.55   31.63</time>
   <time name="total">   32.06   32.14</time>
   <energy>
    <i name="e_fr_energy">   -191.37258830 </i>
    <i name="e_wo_entrp">   -191.17699156 </i>
    <i name="e_0_energy">   -191.27478993 </i>
   </energy>
  </scstep>
  <scstep>
   <time name="dav">   29.98   30.05</time>
   <time name="total">   30.48   30.57</time>
   <energy>
    <i name="e_fr_energy">   -191.37270724 </i>
    <i name="e_wo_entrp">   -191.17709814 </i>
    <i name="e_0_energy">   -191.27490269 </i>
   </energy>
  </scstep>
  <scstep>
   <time name="dav">   29.86   29.93</time>
   <time name="total">   30.37   30.45</time>
   <energy>
    <i name="e_fr_energy">   -191.37103570 </i>
    <i name="e_wo_entrp">   -191.17479216 </i>
    <i name="e_0_energy">   -191.27291393 </i>
   </energy>
  </scstep>
  <scstep>
   <time name="dav">   28.49   28.56</time>
   <time name="total">   29.00   29.08</time>
   <energy>
    <i name="e_fr_energy">   -191.37079101 </i>
    <i name="e_wo_entrp">   -191.17461246 </i>
    <i name="e_0_energy">   -191.27270174 </i>
   </energy>
  </scstep>
  <scstep>
   <time name="dav">   27.92   27.99</time>
   <time name="total">   28.43   28.50</time>
   <energy>
    <i name="e_fr_energy">   -191.37096059 </i>
    <i name="e_wo_entrp">   -191.17480270 </i>
    <i name="e_0_energy">   -191.27288165 </i>
   </energy>
  </scstep>
  <scstep>
   <time name="dav">   24.22   24.28</time>
   <time name="total">   24.73   24.79</time>
   <energy>
    <i name="e_fr_energy">   -191.37071138 </i>
    <i name="e_wo_entrp">   -191.17453460 </i>
    <i name="e_0_energy">   -191.27262299 </i>
   </energy>
  </scstep>
  <scstep>
[...]
      <set comment="kpoint 31">
       <r>  -17.6244    1.0000 </r>
       <r>  -17.2198    1.0000 </r>
       <r>  -16.9342    1.0000 </r>
       <r>  -16.7199    1.0000 </r>
       <r>  -16.5354    1.0000 </r>
       <r>  -16.4303    1.0000 </r>
       <r>  -16.3416    1.0000 </r>
       <r>  -16.2887    1.0000 </r>
       <r>  -16.0969    1.0000 </r>
       <r>  -16.0006    1.0000 </r>
       <r>  -15.9373    1.0000 </r>
       <r>  -15.8368    1.0000 </r>
       <r>  -15.7621    1.0000 </r>
       <r>  -15.6482    1.0000 </r>
       <r>  -15.5711    1.0000 </r>
       <r>  -15.5506    1.0000 </r>
       <r>  -15.2724    1.0000 </r>
       <r>  -15.1900    1.0000 </r>
       <r>   -9.7636    1.0000 </r>
       <r>   -9.4930    1.0000 </r>
       <r>   -9.4163    1.0000 </r>
       <r>   -9.1514    1.0000 </r>
       <r>   -8.9341    1.0000 </r>
       <r>   -8.7354    1.0000 </r>
       <r>   -8.4991    1.0000 </r>
       <r>   -8.4381    1.0000 </r>
       <r>   -8.3799    1.0000 </r>
       <r>   -8.2971    1.0000 </r>
       <r>   -8.2780    1.0000 </r>
       <r>   -8.2157    1.0000 </r>
       <r>   -8.1784    1.0000 </r>
       <r>   -8.1013    1.0000 </r>
       <r>   -8.0419    1.0000 </r>
       <r>   -7.8495    1.0000 </r>
       <r>   -7.7734    1.0000 </r>
       <r>   -7.6945    1.0000 </r>
       <r>   -7.6490    1.0000 </r>
       <r>   -7.3928    1.0000 </r>
       <r>   -7.3365    1.0000 </r>
       <r>   -7.2721    1.0000 </r>
       <r>   -7.1645    1.0000 </r>
       <r>   -7.1095    1.0000 </r>
       <r>   -7.0855    1.0000 </r>
       <r>   -6.8882    1.0000 </r>
       <r>   -6.8372    1.0000 </r>
       <r>   -6.7297    1.0000 </r>
       <r>   -6.6028    1.0000 </r>
       <r>   -6.5367    1.0000 </r>
       <r>   -6.4982    1.0000 </r>
       <r>   -6.4470    1.0000 </r>
       <r>   -6.3901    1.0000 </r>
       <r>   -6.3299    1.0000 </r>
       <r>   -6.2308    1.0000 </r>
       <r>   -6.1777    1.0000 </r>
       <r>   -6.1416    1.0000 </r>
       <r>   -6.0601    1.0000 </r>
       <r>   -6.0251    1.0000 </r>
       <r>   -5.9195    1.0000 </r>
       <r>   -5.8508    1.0000 </r>
       <r>   -5.7684    1.0000 </r>
       <r>   -5.6910    1.0000 </r>
       <r>   -5.5888    1.0000 </r>
       <r>   -5.4732    1.0000 </r>
       <r>   -5.4052    1.0000 </r>
       <r>   -5.3361    1.0000 </r>
       <r>   -5.2112    1.0000 </r>
       <r>   -5.0787    1.0000 </r>
       <r>   -4.7971    1.0000 </r>
       <r>   -4.7488    1.0000 </r>
       <r>   -4.5540    1.0000 </r>
       <r>   -4.5054    1.0000 </r>
       <r>   -4.4007    1.0000 </r>
       <r>   -4.2892    1.0000 </r>
       <r>   -4.2509    1.0000 </r>
       <r>   -4.1451    1.0000 </r>
       <r>   -4.0795    1.0000 </r>
       <r>   -4.0104    1.0000 </r>
       <r>   -3.6737    0.9994 </r>
       <r>   -3.5742    0.9947 </r>
       <r>   -3.0736    0.1619 </r>
       <r>   -2.9309    0.0229 </r>
       <r>   -2.7124    0.0002 </r>
       <r>   -2.6817    0.0001 </r>
       <r>   -2.5558    0.0000 </r>
       <r>   -2.3950    0.0000 </r>
       <r>   -2.3689    0.0000 </r>
       <r>   -2.1282    0.0000 </r>
       <r>   -1.9748    0.0000 </r>
       <r>   -1.8814    0.0000 </r>
       <r>   -1.8746    0.0000 </r>
       <r>   -1.7050    0.0000 </r>
       <r>   -1.5608    0.0000 </r>
       <r>   -1.5146    0.0000 </r>
       <r>   -1.3543    0.0000 </r>
       <r>   -1.2738    0.0000 </r>
       <r>   -1.2288    0.0000 </r>
       <r>   -1.0706    0.0000 </r>
       <r>   -0.9861    0.0000 </r>
       <r>   -0.9610    0.0000 </r>
       <r>   -0.9033    0.0000 </r>
       <r>   -0.8544    0.0000 </r>
       <r>   -0.7391    0.0000 </r>
       <r>   -0.6360    0.0000 </r>
       <r>   -0.5203    0.0000 </r>
       <r>   -0.3441    0.0000 </r>
       <r>   -0.2636    0.0000 </r>
       <r>   -0.1045    0.0000 </r>
       <r>   -0.0051    0.0000 </r>
       <r>    0.1365    0.0000 </r>
       <r>    0.2756    0.0000 </r>
       <r>    0.4206    0.0000 </r>
       <r>    0.5607    0.0000 </r>
       <r>    0.7145    0.0000 </r>
       <r>    0.8526    0.0000 </r>
       <r>    1.0052    0.0000 </r>
       <r>    1.1892    0.0000 </r>
       <r>    1.3501    0.0000 </r>
       <r>    2.1153    0.0000 </r>
       <r>    2.3115    0.0000 </r>
       <r>    2.3762    0.0000 </r>
      </set>
      <set comment="kpoint 32">
       <r>  -17.6176    1.0000 </r>
       <r>  -17.1648    1.0000 </r>
       <r>  -17.0551    1.0000 </r>
       <r>  -16.7097    1.0000 </r>
       <r>  -16.4963    1.0000 </r>
       <r>  -16.3784    1.0000 </r>
       <r>  -16.3234    1.0000 </r>
       <r>  -16.2691    1.0000 </r>
       <r>  -16.1674    1.0000 </r>
       <r>  -16.0589    1.0000 </r>
       <r>  -15.9384    1.0000 </r>
       <r>  -15.8295    1.0000 </r>
       <r>  -15.7539    1.0000 </r>
       <r>  -15.6505    1.0000 </r>
       <r>  -15.5510    1.0000 </r>
       <r>  -15.4894    1.0000 </r>
       <r>  -15.3138    1.0000 </r>
       <r>  -15.1897    1.0000 </r>
       <r>   -9.7342    1.0000 </r>
       <r>   -9.5857    1.0000 </r>
       <r>   -9.4883    1.0000 </r>
       <r>   -9.1213    1.0000 </r>
       <r>   -8.7466    1.0000 </r>
       <r>   -8.6301    1.0000 </r>
       <r>   -8.4759    1.0000 </r>
       <r>   -8.4503    1.0000 </r>
       <r>   -8.4091    1.0000 </r>
       <r>   -8.3969    1.0000 </r>
       <r>   -8.3162    1.0000 </r>
       <r>   -8.2369    1.0000 </r>
       <r>   -8.1409    1.0000 </r>
       <r>   -8.0830    1.0000 </r>
       <r>   -8.0436    1.0000 </r>
       <r>   -7.9158    1.0000 </r>
       <r>   -7.7943    1.0000 </r>
       <r>   -7.7273    1.0000 </r>
       <r>   -7.6061    1.0000 </r>
       <r>   -7.4319    1.0000 </r>
       <r>   -7.3846    1.0000 </r>
       <r>   -7.2771    1.0000 </r>
       <r>   -7.1704    1.0000 </r>
       <r>   -7.1192    1.0000 </r>
       <r>   -7.0755    1.0000 </r>
       <r>   -6.9274    1.0000 </r>
       <r>   -6.8202    1.0000 </r>
       <r>   -6.7256    1.0000 </r>
       <r>   -6.6312    1.0000 </r>
       <r>   -6.5430    1.0000 </r>
       <r>   -6.4627    1.0000 </r>
       <r>   -6.4329    1.0000 </r>
       <r>   -6.3403    1.0000 </r>
       <r>   -6.3255    1.0000 </r>
       <r>   -6.2466    1.0000 </r>
       <r>   -6.1895    1.0000 </r>
       <r>   -6.1326    1.0000 </r>
       <r>   -6.0661    1.0000 </r>
       <r>   -5.9714    1.0000 </r>
       <r>   -5.8795    1.0000 </r>
       <r>   -5.8317    1.0000 </r>
       <r>   -5.6791    1.0000 </r>
       <r>   -5.6467    1.0000 </r>
       <r>   -5.6046    1.0000 </r>
       <r>   -5.5123    1.0000 </r>
       <r>   -5.3724    1.0000 </r>
       <r>   -5.3529    1.0000 </r>
       <r>   -5.2195    1.0000 </r>
       <r>   -5.1199    1.0000 </r>
       <r>   -4.8169    1.0000 </r>
       <r>   -4.7184    1.0000 </r>
       <r>   -4.6224    1.0000 </r>
       <r>   -4.4592    1.0000 </r>
       <r>   -4.4120    1.0000 </r>
       <r>   -4.3661    1.0000 </r>
       <r>   -4.2214    1.0000 </r>
       <r>   -4.1740    1.0000 </r>
       <r>   -4.0623    1.0000 </r>
       <r>   -3.9513    1.0000 </r>
       <r>   -3.6594    0.9992 </r>
       <r>   -3.5284    0.9871 </r>
       <r>   -3.1538    0.3371 </r>
       <r>   -2.8591    0.0061 </r>
       <r>   -2.7962    0.0016 </r>
       <r>   -2.7044    0.0002 </r>
       <r>   -2.5640    0.0000 </r>
       <r>   -2.4587    0.0000 </r>
       <r>   -2.3820    0.0000 </r>
       <r>   -2.1750    0.0000 </r>
       <r>   -1.9779    0.0000 </r>
       <r>   -1.9664    0.0000 </r>
       <r>   -1.8894    0.0000 </r>
       <r>   -1.7334    0.0000 </r>
       <r>   -1.5525    0.0000 </r>
       <r>   -1.3958    0.0000 </r>
       <r>   -1.3117    0.0000 </r>
       <r>   -1.2411    0.0000 </r>
       <r>   -1.1957    0.0000 </r>
       <r>   -1.0548    0.0000 </r>
       <r>   -0.9663    0.0000 </r>
       <r>   -0.9186    0.0000 </r>
       <r>   -0.8684    0.0000 </r>
       <r>   -0.8336    0.0000 </r>
       <r>   -0.7446    0.0000 </r>
       <r>   -0.6387    0.0000 </r>
       <r>   -0.5264    0.0000 </r>
       <r>   -0.3939    0.0000 </r>
       <r>   -0.2988    0.0000 </r>
       <r>   -0.1695    0.0000 </r>
       <r>   -0.0198    0.0000 </r>
       <r>    0.1757    0.0000 </r>
       <r>    0.2728    0.0000 </r>
       <r>    0.4074    0.0000 </r>
       <r>    0.5276    0.0000 </r>
       <r>    0.7347    0.0000 </r>
       <r>    0.8031    0.0000 </r>
       <r>    1.0761    0.0000 </r>
       <r>    1.2090    0.0000 </r>
       <r>    1.3808    0.0000 </r>
       <r>    2.0980    0.0000 </r>
       <r>    2.2807    0.0000 </r>
       <r>    2.5659    0.0000 </r>
      </set>
      <set comment="kpoint 33">
       <r>  -17.5923    1.0000 </r>
       <r>  -17.2797    1.0000 </r>
       <r>  -16.9168    1.0000 </r>
       <r>  -16.6973    1.0000 </r>
       <r>  -16.5338    1.0000 </r>
       <r>  -16.4677    1.0000 </r>
       <r>  -16.3336    1.0000 </r>
       <r>  -16.2267    1.0000 </r>
       <r>  -16.1862    1.0000 </r>
       <r>  -16.0748    1.0000 </r>
       <r>  -15.8921    1.0000 </r>
       <r>  -15.7965    1.0000 </r>
       <r>  -15.7545    1.0000 </r>
       <r>  -15.6593    1.0000 </r>
       <r>  -15.5368    1.0000 </r>
       <r>  -15.4495    1.0000 </r>
       <r>  -15.3332    1.0000 </r>
       <r>  -15.2240    1.0000 </r>
       <r>   -9.8305    1.0000 </r>
       <r>   -9.4928    1.0000 </r>
       <r>   -9.4240    1.0000 </r>
       <r>   -9.0696    1.0000 </r>
       <r>   -8.8157    1.0000 </r>
       <r>   -8.6903    1.0000 </r>
       <r>   -8.6024    1.0000 </r>
       <r>   -8.5800    1.0000 </r>
       <r>   -8.4317    1.0000 </r>
       <r>   -8.3302    1.0000 </r>
       <r>   -8.2562    1.0000 </r>
       <r>   -8.1839    1.0000 </r>
       <r>   -8.1240    1.0000 </r>
       <r>   -8.0502    1.0000 </r>
       <r>   -7.9571    1.0000 </r>
       <r>   -7.9131    1.0000 </r>
       <r>   -7.7929    1.0000 </r>
       <r>   -7.6975    1.0000 </r>
       <r>   -7.5945    1.0000 </r>
       <r>   -7.5177    1.0000 </r>
       <r>   -7.4184    1.0000 </r>
       <r>   -7.3007    1.0000 </r>
       <r>   -7.1260    1.0000 </r>
       <r>   -7.0686    1.0000 </r>
       <r>   -6.9530    1.0000 </r>
       <r>   -6.9183    1.0000 </r>
       <r>   -6.8393    1.0000 </r>
       <r>   -6.7869    1.0000 </r>
       <r>   -6.6587    1.0000 </r>
       <r>   -6.5582    1.0000 </r>
       <r>   -6.4958    1.0000 </r>
       <r>   -6.4490    1.0000 </r>
       <r>   -6.3846    1.0000 </r>
       <r>   -6.2820    1.0000 </r>
       <r>   -6.2506    1.0000 </r>
       <r>   -6.2367    1.0000 </r>
       <r>   -6.0950    1.0000 </r>
       <r>   -6.0515    1.0000 </r>
       <r>   -6.0108    1.0000 </r>
       <r>   -5.9453    1.0000 </r>
       <r>   -5.8558    1.0000 </r>
       <r>   -5.6927    1.0000 </r>
       <r>   -5.6359    1.0000 </r>
       <r>   -5.5728    1.0000 </r>
       <r>   -5.4724    1.0000 </r>
       <r>   -5.3971    1.0000 </r>
       <r>   -5.2409    1.0000 </r>
       <r>   -5.2171    1.0000 </r>
       <r>   -4.9398    1.0000 </r>
       <r>   -4.8575    1.0000 </r>
       <r>   -4.7666    1.0000 </r>
       <r>   -4.6825    1.0000 </r>
       <r>   -4.5042    1.0000 </r>
       <r>   -4.4384    1.0000 </r>
       <r>   -4.3224    1.0000 </r>
       <r>   -4.2123    1.0000 </r>
       <r>   -4.1252    1.0000 </r>
       <r>   -4.0334    1.0000 </r>
       <r>   -3.8731    1.0000 </r>
       <r>   -3.7137    0.9998 </r>
       <r>   -3.5375    0.9891 </r>
       <r>   -3.1849    0.4207 </r>
       <r>   -2.9396    0.0265 </r>
       <r>   -2.8094    0.0021 </r>
       <r>   -2.7007    0.0001 </r>
       <r>   -2.5884    0.0000 </r>
       <r>   -2.5205    0.0000 </r>
       <r>   -2.3721    0.0000 </r>
       <r>   -2.2303    0.0000 </r>
       <r>   -2.0480    0.0000 </r>
       <r>   -1.9498    0.0000 </r>
       <r>   -1.8692    0.0000 </r>
       <r>   -1.7582    0.0000 </r>
       <r>   -1.5428    0.0000 </r>
       <r>   -1.3055    0.0000 </r>
       <r>   -1.2605    0.0000 </r>
       <r>   -1.1963    0.0000 </r>
       <r>   -1.1732    0.0000 </r>
       <r>   -1.0562    0.0000 </r>
       <r>   -0.9217    0.0000 </r>
       <r>   -0.8806    0.0000 </r>
       <r>   -0.8442    0.0000 </r>
       <r>   -0.8104    0.0000 </r>
       <r>   -0.7486    0.0000 </r>
       <r>   -0.6407    0.0000 </r>
       <r>   -0.5664    0.0000 </r>
       <r>   -0.4789    0.0000 </r>
       <r>   -0.3163    0.0000 </r>
       <r>   -0.2573    0.0000 </r>
       <r>   -0.0575    0.0000 </r>
       <r>    0.1573    0.0000 </r>
       <r>    0.2562    0.0000 </r>
       <r>    0.4097    0.0000 </r>
       <r>    0.5779    0.0000 </r>
       <r>    0.7532    0.0000 </r>
       <r>    0.7908    0.0000 </r>
       <r>    1.1381    0.0000 </r>
       <r>    1.2402    0.0000 </r>
       <r>    1.4788    0.0000 </r>
       <r>    2.1396    0.0000 </r>
       <r>    2.3099    0.0000 </r>
       <r>    2.4091    0.0000 </r>
      </set>
      <set comment="kpoint 34">
       <r>  -17.5714    1.0000 </r>
       <r>  -17.3391    1.0000 </r>
       <r>  -16.7721    1.0000 </r>
       <r>  -16.7011    1.0000 </r>
       <r>  -16.6307    1.0000 </r>
       <r>  -16.5299    1.0000 </r>
       <r>  -16.3159    1.0000 </r>
       <r>  -16.2246    1.0000 </r>
       <r>  -16.1871    1.0000 </r>
       <r>  -16.0711    1.0000 </r>
       <r>  -15.8607    1.0000 </r>
       <r>  -15.7708    1.0000 </r>
       <r>  -15.7627    1.0000 </r>
       <r>  -15.6636    1.0000 </r>
       <r>  -15.5313    1.0000 </r>
       <r>  -15.4392    1.0000 </r>
       <r>  -15.3283    1.0000 </r>
       <r>  -15.2545    1.0000 </r>
       <r>   -9.8725    1.0000 </r>
       <r>   -9.4477    1.0000 </r>
       <r>   -9.3171    1.0000 </r>
       <r>   -9.0517    1.0000 </r>
       <r>   -8.9125    1.0000 </r>
       <r>   -8.8014    1.0000 </r>
       <r>   -8.6472    1.0000 </r>
       <r>   -8.6246    1.0000 </r>
       <r>   -8.4191    1.0000 </r>
       <r>   -8.3339    1.0000 </r>
       <r>   -8.2051    1.0000 </r>
       <r>   -8.1623    1.0000 </r>
       <r>   -8.1208    1.0000 </r>
       <r>   -8.0192    1.0000 </r>
       <r>   -7.9385    1.0000 </r>
       <r>   -7.8327    1.0000 </r>
       <r>   -7.7750    1.0000 </r>
       <r>   -7.6786    1.0000 </r>
       <r>   -7.5972    1.0000 </r>
       <r>   -7.5634    1.0000 </r>
       <r>   -7.4800    1.0000 </r>
       <r>   -7.3122    1.0000 </r>
       <r>   -7.0838    1.0000 </r>
       <r>   -7.0198    1.0000 </r>
       <r>   -6.9370    1.0000 </r>
       <r>   -6.9014    1.0000 </r>
       <r>   -6.8457    1.0000 </r>
       <r>   -6.6842    1.0000 </r>
       <r>   -6.6346    1.0000 </r>
       <r>   -6.5595    1.0000 </r>
       <r>   -6.5374    1.0000 </r>
       <r>   -6.4761    1.0000 </r>
       <r>   -6.4548    1.0000 </r>
       <r>   -6.3917    1.0000 </r>
       <r>   -6.2650    1.0000 </r>
       <r>   -6.2551    1.0000 </r>
       <r>   -6.1685    1.0000 </r>
       <r>   -6.0685    1.0000 </r>
       <r>   -5.9833    1.0000 </r>
       <r>   -5.8685    1.0000 </r>
       <r>   -5.8369    1.0000 </r>
       <r>   -5.7236    1.0000 </r>
       <r>   -5.6549    1.0000 </r>
       <r>   -5.5537    1.0000 </r>
       <r>   -5.5134    1.0000 </r>
       <r>   -5.3862    1.0000 </r>
       <r>   -5.1747    1.0000 </r>
       <r>   -5.0434    1.0000 </r>
       <r>   -5.0259    1.0000 </r>
       <r>   -4.9145    1.0000 </r>
       <r>   -4.7857    1.0000 </r>
       <r>   -4.5939    1.0000 </r>
       <r>   -4.5143    1.0000 </r>
       <r>   -4.4731    1.0000 </r>
       <r>   -4.2681    1.0000 </r>
       <r>   -4.2213    1.0000 </r>
       <r>   -4.1579    1.0000 </r>
       <r>   -3.9908    1.0000 </r>
       <r>   -3.8384    1.0000 </r>
       <r>   -3.7561    0.9999 </r>
       <r>   -3.5585    0.9927 </r>
       <r>   -3.1725    0.3867 </r>
       <r>   -2.9940    0.0605 </r>
       <r>   -2.8321    0.0035 </r>
       <r>   -2.6812    0.0001 </r>
       <r>   -2.6127    0.0000 </r>
       <r>   -2.5316    0.0000 </r>
       <r>   -2.3677    0.0000 </r>
       <r>   -2.2562    0.0000 </r>
       <r>   -2.0734    0.0000 </r>
       <r>   -1.9350    0.0000 </r>
       <r>   -1.8523    0.0000 </r>
       <r>   -1.7713    0.0000 </r>
       <r>   -1.5378    0.0000 </r>
       <r>   -1.2868    0.0000 </r>
       <r>   -1.2245    0.0000 </r>
       <r>   -1.1770    0.0000 </r>
       <r>   -1.1602    0.0000 </r>
       <r>   -1.0551    0.0000 </r>
       <r>   -0.9217    0.0000 </r>
       <r>   -0.8767    0.0000 </r>
       <r>   -0.8143    0.0000 </r>
       <r>   -0.7781    0.0000 </r>
       <r>   -0.7593    0.0000 </r>
       <r>   -0.6148    0.0000 </r>
       <r>   -0.5851    0.0000 </r>
       <r>   -0.5725    0.0000 </r>
       <r>   -0.3383    0.0000 </r>
       <r>   -0.2628    0.0000 </r>
       <r>   -0.0883    0.0000 </r>
       <r>    0.1348    0.0000 </r>
       <r>    0.2466    0.0000 </r>
       <r>    0.4121    0.0000 </r>
       <r>    0.6171    0.0000 </r>
       <r>    0.7734    0.0000 </r>
       <r>    0.7890    0.0000 </r>
       <r>    1.1510    0.0000 </r>
       <r>    1.2694    0.0000 </r>
       <r>    1.5336    0.0000 </r>
       <r>    2.2273    0.0000 </r>
       <r>    2.2620    0.0000 </r>
       <r>    2.3928    0.0000 </r>
      </set>
     </set>
    </set>
   </array>
  </eigenvalues>
  <separator name="orbital magnetization" >
   <v name="MAGDIPOLOUT">      0.00000000      0.00000000      0.00000000</v>
  </separator>
 </calculation>
 <structure name="finalpos" >
  <crystal>
   <varray name="basis" >
    <v>       8.29052911       4.78229599       0.00000000 </v>
    <v>      -8.31828274       4.83032708       0.00000000 </v>
    <v>       0.00000000       0.00000000      30.00000000 </v>
   </varray>
   <i name="volume">   2394.79372383 </i>
   <varray name="rec_basis" >
    <v>       0.06051035       0.10420458       0.00000000 </v>
    <v>      -0.05990866       0.10385691       0.00000000 </v>
    <v>       0.00000000       0.00000000       0.03333333 </v>
   </varray>
  </crystal>
  <varray name="positions" >
   <v>       1.01710267       0.36700717       0.00220003 </v>
   <v>       0.32093351      -0.03482261      -0.00209830 </v>
   <v>      -0.02155474      -0.03604196      -0.00198494 </v>
   <v>       0.64566141      -0.03825101      -0.00188750 </v>
   <v>       0.01458020       0.66028883      -0.00032992 </v>
   <v>       0.33609232       0.66802311      -0.00021533 </v>
   <v>       0.34783721       0.36743223       0.00126999 </v>
   <v>       0.68933922       0.37441659       0.00300848 </v>
   <v>       0.64682842       0.66444693      -0.00003332 </v>
   <v>       0.10637670       0.22034246       0.95633326 </v>
   <v>       0.21999549       0.10826650       0.04196568 </v>
   <v>       0.11129009       0.54982077       0.94563206 </v>
   <v>       0.21764387       0.44407304       0.05515958 </v>
   <v>       0.11458582       0.89011722       0.94687675 </v>
   <v>       0.22647037       0.78195802       0.05371350 </v>
   <v>       0.44662324       0.22127160       0.95680051 </v>
   <v>       0.55361674       0.11258821       0.04439481 </v>
   <v>       0.44374828       0.55969846       0.94332223 </v>
   <v>       0.55573283       0.45000412       0.05685964 </v>
   <v>       0.43804119       0.88608229       0.94402505 </v>
   <v>       0.55010263       0.77228434       0.05608344 </v>
   <v>       0.78004197       0.22417949       0.95729736 </v>
   <v>       0.89156706       0.11194749       0.04282486 </v>
   <v>       0.78427581       0.56736811       0.94767243 </v>
   <v>       0.89808475       0.44786800       0.05630551 </v>
   <v>       0.77679424       0.88396330       0.94467796 </v>
   <v>       0.88640315       0.77388175       0.05012609 </v>
  </varray>
 </structure>
</modeling>
