unknown system                          
           1
     8.854586    5.104391    0.000000
    -8.855681    5.106276    0.000000
     0.000000    0.000000   30.000000
   V    Mo   W    S 
   3   3   3  18
Direct configuration=     1
   1.00000000  0.33333334  0.00000000
   0.33333334  0.00000000  0.00000000
   0.00000000  0.00000000  0.00000000
   0.66666669  0.00000000  0.00000000
   0.00000000  0.66666669  0.00000000
   0.33333334  0.66666669  0.00000000
   0.33333334  0.33333334  0.00000000
   0.66666669  0.33333334  0.00000000
   0.66666669  0.66666669  0.00000000
   0.11068511  0.22244981  0.95539999
   0.22244981  0.11068511  0.04460000
   0.11068511  0.55578315  0.95539999
   0.22244981  0.44401845  0.04460000
   0.11068511  0.88911647  0.95539999
   0.22244981  0.77735180  0.04460000
   0.44401845  0.22244981  0.95539999
   0.55578315  0.11068511  0.04460000
   0.44401845  0.55578315  0.95539999
   0.55578315  0.44401845  0.04460000
   0.44401845  0.88911647  0.95539999
   0.55578315  0.77735180  0.04460000
   0.77735180  0.22244981  0.95539999
   0.88911647  0.11068511  0.04460000
   0.77735180  0.55578315  0.95539999
   0.88911647  0.44401845  0.04460000
   0.77735180  0.88911647  0.95539999
   0.88911647  0.77735180  0.04460000
unknown system                          
           1
     8.666441    4.998222    0.000000
    -8.667368    4.999817    0.000000
     0.000000    0.000000   30.000000
   V    Mo   W    S 
   3   3   3  18
Direct configuration=     2
   0.99995133  0.33411409  0.00018925
   0.33297252 -0.00238581 -0.00017997
  -0.00073066 -0.00068086  0.00004230
   0.66562296 -0.00112484  0.00010965
   0.00163580  0.66687150 -0.00013131
   0.33319279  0.66803117 -0.00021473
   0.33264557  0.33416316  0.00003835
   0.66814402  0.33295233  0.00017961
   0.66675662  0.66841285  0.00000407
   0.10755346  0.22059391  0.95312658
   0.22061149  0.10755755  0.04682798
   0.10889799  0.55107759  0.95195109
   0.21791957  0.44152469  0.04806918
   0.11309600  0.89324366  0.95310126
   0.22424858  0.78213406  0.04810652
   0.44245497  0.21827003  0.95193678
   0.55148322  0.10985729  0.04803353
   0.44481545  0.55510988  0.95071222
   0.55557065  0.44443077  0.04930742
   0.44179879  0.89118776  0.95192180
   0.55596854  0.77719955  0.04925203
   0.78170725  0.22470934  0.95192494
   0.89323638  0.11304967  0.04685671
   0.77682996  0.55507785  0.95080417
   0.89022672  0.44130081  0.04808172
   0.78163616  0.88995077  0.95189550
   0.88996834  0.78158570  0.04805327
unknown system                          
           1
     8.486068    4.899456    0.000000
    -8.486489    4.900174    0.000000
     0.000000    0.000000   30.000000
   V    Mo   W    S 
   3   3   3  18
Direct configuration=     3
   0.99986897  0.33442399  0.00021039
   0.33289781 -0.00314563 -0.00020439
  -0.00107455 -0.00100964  0.00009330
   0.66506481 -0.00178818  0.00015146
   0.00189037  0.66667068 -0.00018034
   0.33348225  0.66848766 -0.00023942
   0.33294958  0.33481661  0.00004644
   0.66860069  0.33309212  0.00014857
   0.66649706  0.66871514  0.00001089
   0.10771674  0.22065343  0.95320546
   0.22067550  0.10773729  0.04669758
   0.10881819  0.55092198  0.95190265
   0.21790905  0.44134342  0.04806048
   0.11318601  0.89333756  0.95311991
   0.22433019  0.78229172  0.04817190
   0.44249345  0.21840559  0.95206219
   0.55145575  0.11001493  0.04802081
   0.44491515  0.55503083  0.95068136
   0.55562864  0.44444720  0.04924958
   0.44171705  0.89125427  0.95179804
   0.55605513  0.77704534  0.04932969
   0.78170817  0.22487919  0.95196326
   0.89331044  0.11309781  0.04679481
   0.77655339  0.55494846  0.95086749
   0.89007711  0.44112593  0.04815175
   0.78164850  0.88982505  0.95186381
   0.88983901  0.78159171  0.04802225
unknown system                          
           1
     8.269640    4.773902    0.000000
    -8.270651    4.775643    0.000000
     0.000000    0.000000   30.000000
   V    Mo   W    S 
   3   3   3  18
Direct configuration=     4
   0.99944519  0.33588012  0.00021084
   0.33292146 -0.00579565 -0.00020248
  -0.00259959 -0.00243844  0.00026440
   0.66268587 -0.00463703  0.00023875
   0.00220380  0.66530187 -0.00027625
   0.33513915  0.67002075 -0.00023280
   0.33501331  0.33793414  0.00006251
   0.67019758  0.33417273 -0.00003112
   0.66480875  0.66906484  0.00002586
   0.10676296  0.22012425  0.95218936
   0.22025052  0.10692606  0.04750524
   0.10822519  0.54950292  0.95029226
   0.21678057  0.44092212  0.04948347
   0.11385796  0.89446623  0.95187388
   0.22496944  0.78357571  0.04982378
   0.44191378  0.21747692  0.95109373
   0.55015350  0.10942691  0.04941701
   0.44492761  0.55519910  0.94890553
   0.55594220  0.44458666  0.05067569
   0.44111860  0.89190845  0.94984611
   0.55582066  0.77681317  0.05126262
   0.78286118  0.22527622  0.95068616
   0.89429109  0.11366684  0.04784566
   0.77626612  0.55491096  0.94952867
   0.89082868  0.44064318  0.04991876
   0.78286381  0.89064009  0.95026761
   0.89056507  0.78264533  0.04932464
unknown system                          
           1
     8.261256    4.772971    0.000000
    -8.262047    4.774332    0.000000
     0.000000    0.000000   30.000000
   V    Mo   W    S 
   3   3   3  18
Direct configuration=     5
   0.99842787  0.33906496  0.00003182
   0.33300994 -0.01095773 -0.00000989
  -0.00563640 -0.00526577  0.00047278
   0.65768937 -0.01095798  0.00022520
   0.00242556  0.66194323 -0.00030666
   0.33941314  0.67283819 -0.00012041
   0.33925930  0.34444471  0.00010038
   0.67365332  0.33706823 -0.00028062
   0.66023310  0.66915780  0.00003100
   0.10603268  0.21987613  0.95100296
   0.22015725  0.10642200  0.04837180
   0.10825937  0.54838189  0.94803015
   0.21585878  0.44137274  0.05142281
   0.11440008  0.89510500  0.95003282
   0.22543738  0.78450614  0.05205417
   0.44126294  0.21632155  0.94996732
   0.54885100  0.10861975  0.05114968
   0.44489664  0.55629163  0.94619037
   0.55688169  0.44527100  0.05271797
   0.44052017  0.89224065  0.94689175
   0.55513233  0.77677906  0.05417496
   0.78390006  0.22471610  0.94914095
   0.89447270  0.11395746  0.04934904
   0.77658774  0.55565249  0.94775880
   0.89196400  0.44044222  0.05252887
   0.78384952  0.89160469  0.94808874
   0.89127494  0.78331831  0.05098314
unknown system                          
           1
     8.262119    4.773922    0.000000
    -8.263002    4.775443    0.000000
     0.000000    0.000000   30.000000
   V    Mo   W    S 
   3   3   3  18
Direct configuration=     6
   0.99804477  0.34033022 -0.00000942
   0.33254830 -0.01302218 -0.00003060
  -0.00660572 -0.00627771  0.00052948
   0.65649800 -0.01290561  0.00017802
   0.00234959  0.66068601 -0.00033951
   0.34088458  0.67310865 -0.00012946
   0.34053876  0.34678015  0.00012613
   0.67513679  0.33887335 -0.00026395
   0.65821848  0.66883883  0.00008070
   0.10646341  0.22037837  0.95115391
   0.22074705  0.10702887  0.04808986
   0.10903019  0.54894784  0.94786390
   0.21632709  0.44205093  0.05152106
   0.11425332  0.89447558  0.94996146
   0.22530292  0.78384044  0.05226939
   0.44145142  0.21655136  0.95020237
   0.54926425  0.10866173  0.05103603
   0.44493951  0.55704602  0.94568702
   0.55753398  0.44585209  0.05296556
   0.44050800  0.89182017  0.94656593
   0.55498011  0.77683300  0.05465454
   0.78337836  0.22383638  0.94921310
   0.89350634  0.11366545  0.04928146
   0.77697868  0.55655135  0.94768973
   0.89203830  0.44056633  0.05286539
   0.78323597  0.89125971  0.94790152
   0.89066201  0.78243713  0.05093628
unknown system                          
           1
     8.257886    4.770465    0.000000
    -8.257779    4.770272    0.000000
     0.000000    0.000000   30.000000
   V    Mo   W    S 
   3   3   3  18
Direct configuration=     7
   0.99776164  0.34116345 -0.00005037
   0.33192368 -0.01468529 -0.00001904
  -0.00728497 -0.00703078  0.00059531
   0.65576507 -0.01435236  0.00017433
   0.00243420  0.65986619 -0.00033805
   0.34180016  0.67324464 -0.00010146
   0.34145749  0.34853076  0.00011692
   0.67634731  0.34039233 -0.00029269
   0.65681205  0.66862435  0.00010507
   0.10674975  0.22069956  0.95133458
   0.22112745  0.10742185  0.04780861
   0.10945717  0.54920494  0.94780692
   0.21655658  0.44237883  0.05155383
   0.11420407  0.89414015  0.94996701
   0.22524346  0.78344407  0.05232080
   0.44162917  0.21675078  0.95045933
   0.54948321  0.10878081  0.05084215
   0.44499482  0.55740489  0.94541909
   0.55784588  0.44616930  0.05308086
   0.44047780  0.89156030  0.94641839
   0.55488352  0.77683190  0.05488509
   0.78308836  0.22346115  0.94935045
   0.89302697  0.11356627  0.04914319
   0.77717112  0.55709935  0.94770549
   0.89210326  0.44065579  0.05304854
   0.78289730  0.89099569  0.94783344
   0.89025794  0.78189554  0.05083208
unknown system                          
           1
     8.254712    4.770064    0.000000
    -8.252857    4.766845    0.000000
     0.000000    0.000000   30.000000
   V    Mo   W    S 
   3   3   3  18
Direct configuration=     8
   0.99805486  0.34020803 -0.00001222
   0.33300973 -0.01253006  0.00000464
  -0.00637376 -0.00596575  0.00050855
   0.65640330 -0.01266424  0.00019672
   0.00216505  0.66073605 -0.00031068
   0.34106113  0.67320073 -0.00009919
   0.34046898  0.34652437  0.00010644
   0.67471667  0.33824745 -0.00028165
   0.65818378  0.66878183  0.00007168
   0.10650612  0.22042594  0.95109162
   0.22074861  0.10701245  0.04817742
   0.10911390  0.54905531  0.94784727
   0.21642682  0.44223072  0.05151638
   0.11422056  0.89438303  0.94994423
   0.22529804  0.78385896  0.05223522
   0.44144369  0.21654660  0.95010021
   0.54928996  0.10855313  0.05116572
   0.44493645  0.55706631  0.94570356
   0.55763467  0.44590649  0.05298919
   0.44049256  0.89178928  0.94650901
   0.55495968  0.77689866  0.05464426
   0.78336704  0.22372790  0.94914762
   0.89334922  0.11357848  0.04934558
   0.77691532  0.55639677  0.94768414
   0.89199735  0.44057165  0.05286072
   0.78315743  0.89124255  0.94788324
   0.89066728  0.78243181  0.05097024
unknown system                          
           1
     8.250453    4.768054    0.000000
    -8.249310    4.766066    0.000000
     0.000000    0.000000   30.000000
   V    Mo   W    S 
   3   3   3  18
Direct configuration=     9
   0.99831718  0.33889823  0.00002791
   0.33544681 -0.00875742  0.00001090
  -0.00500668 -0.00420283  0.00036760
   0.65690056 -0.01030700  0.00012489
   0.00128328  0.66165580 -0.00032546
   0.34079101  0.67326147 -0.00017774
   0.33929432  0.34384270  0.00017388
   0.67207712  0.33432886 -0.00025498
   0.65981056  0.66912919  0.00002747
   0.10628078  0.22023215  0.95069700
   0.22033904  0.10656820  0.04872856
   0.10886721  0.54908542  0.94795370
   0.21639724  0.44229853  0.05145756
   0.11416670  0.89455387  0.94997763
   0.22533781  0.78427673  0.05212818
   0.44113269  0.21624800  0.94944700
   0.54915571  0.10808548  0.05186949
   0.44486679  0.55682254  0.94595806
   0.55757845  0.44565012  0.05288100
   0.44050824  0.89202267  0.94656048
   0.55518808  0.77709896  0.05447652
   0.78369109  0.22375870  0.94878684
   0.89346170  0.11349414  0.04965745
   0.77634134  0.55535208  0.94769363
   0.89170777  0.44024913  0.05263856
   0.78328581  0.89148432  0.94798331
   0.89099385  0.78308444  0.05113046
unknown system                          
           1
     8.253948    4.770501    0.000000
    -8.252581    4.768125    0.000000
     0.000000    0.000000   30.000000
   V    Mo   W    S 
   3   3   3  18
Direct configuration=    10
   0.99789337  0.34001101 -0.00001819
   0.33485563 -0.01082036  0.00003452
  -0.00595028 -0.00529750  0.00048473
   0.65574587 -0.01213908  0.00016524
   0.00136720  0.66050089 -0.00031925
   0.34205089  0.67347500 -0.00010524
   0.34058987  0.34626258  0.00017682
   0.67365131  0.33608537 -0.00027023
   0.65795007  0.66900243  0.00007295
   0.10674764  0.22068670  0.95099515
   0.22089542  0.10716508  0.04826949
   0.10936936  0.54934805  0.94792748
   0.21668365  0.44261643  0.05145275
   0.11422175  0.89425320  0.95005840
   0.22528344  0.78379823  0.05210355
   0.44134483  0.21650798  0.94984573
   0.54937786  0.10826391  0.05156188
   0.44494031  0.55713769  0.94561080
   0.55794668  0.44594241  0.05295609
   0.44042919  0.89173636  0.94638669
   0.55511432  0.77710514  0.05475019
   0.78332892  0.22336492  0.94899070
   0.89293742  0.11345001  0.04939388
   0.77640388  0.55591416  0.94778501
   0.89168210  0.44024394  0.05283070
   0.78289501  0.89116071  0.94791415
   0.89045875  0.78243921  0.05094591
unknown system                          
           1
     8.261515    4.775945    0.000000
    -8.259922    4.773177    0.000000
     0.000000    0.000000   30.000000
   V    Mo   W    S 
   3   3   3  18
Direct configuration=    11
   0.99775678  0.34032457 -0.00003598
   0.33473579 -0.01136323  0.00003214
  -0.00619564 -0.00558465  0.00050703
   0.65542496 -0.01262277  0.00015191
   0.00135758  0.66015815 -0.00032737
   0.34245066  0.67352429 -0.00011054
   0.34096112  0.34696984  0.00017379
   0.67408545  0.33648269 -0.00028276
   0.65740182  0.66898253  0.00007482
   0.10685086  0.22080156  0.95106102
   0.22105143  0.10731102  0.04816149
   0.10951171  0.54941859  0.94791121
   0.21674380  0.44271530  0.05147368
   0.11423257  0.89417364  0.95007441
   0.22527327  0.78367260  0.05212011
   0.44138595  0.21656287  0.94993017
   0.54941747  0.10829146  0.05152348
   0.44495769  0.55724008  0.94549342
   0.55807068  0.44604364  0.05299548
   0.44039637  0.89165088  0.94632550
   0.55510122  0.77712432  0.05486798
   0.78325256  0.22323647  0.94902152
   0.89280085  0.11345392  0.04934026
   0.77639733  0.55606173  0.94780453
   0.89168953  0.44023401  0.05290950
   0.78278993  0.89108807  0.94788925
   0.89031270  0.78226286  0.05091385
unknown system                          
           1
     8.261758    4.776059    0.000000
    -8.260419    4.773730    0.000000
     0.000000    0.000000   30.000000
   V    Mo   W    S 
   3   3   3  18
Direct configuration=    12
   0.99721537  0.34161708 -0.00009314
   0.33376955 -0.01391535  0.00002820
  -0.00731327 -0.00690413  0.00061972
   0.65440518 -0.01462936  0.00013472
   0.00148335  0.65881491 -0.00035067
   0.34377522  0.67361561 -0.00010045
   0.34232787  0.34978639  0.00017445
   0.67614218  0.33853307 -0.00032027
   0.65534852  0.66894907  0.00011702
   0.10722487  0.22122054  0.95137391
   0.22163270  0.10789578  0.04767440
   0.11000590  0.54964088  0.94784841
   0.21696938  0.44303212  0.05153044
   0.11422179  0.89383657  0.95012986
   0.22522829  0.78313890  0.05218840
   0.44159811  0.21684855  0.95035177
   0.54960452  0.10847210  0.05124206
   0.44506123  0.55767710  0.94506970
   0.55847917  0.44648104  0.05310266
   0.44032461  0.89130041  0.94613090
   0.55503677  0.77715641  0.05523548
   0.78295431  0.22280227  0.94920404
   0.89231842  0.11345715  0.04907549
   0.77650576  0.55680409  0.94788800
   0.89179001  0.44027306  0.05318789
   0.78238401  0.89077487  0.94781618
   0.88972063  0.78153531  0.05074070
unknown system                          
           1
     8.253641    4.773283    0.000000
    -8.249121    4.765451    0.000000
     0.000000    0.000000   30.000000
   V    Mo   W    S 
   3   3   3  18
Direct configuration=    13
   0.99717542  0.34180496 -0.00010186
   0.33350854 -0.01440163  0.00002180
  -0.00750700 -0.00715080  0.00063547
   0.65429122 -0.01494250  0.00013180
   0.00158719  0.65867834 -0.00035736
   0.34387448  0.67362653 -0.00010205
   0.34249691  0.35017683  0.00017026
   0.67648624  0.33895228 -0.00032656
   0.65510511  0.66894492  0.00011963
   0.10725352  0.22124978  0.95141665
   0.22169441  0.10795745  0.04760759
   0.11005516  0.54965210  0.94783060
   0.21697009  0.44303846  0.05154622
   0.11422881  0.89380947  0.95012409
   0.22522044  0.78307812  0.05221191
   0.44163177  0.21687884  0.95042700
   0.54961678  0.10851896  0.05117545
   0.44506956  0.55773208  0.94501942
   0.55850634  0.44651905  0.05311906
   0.44031888  0.89127260  0.94611783
   0.55500610  0.77714531  0.05528319
   0.78291576  0.22277213  0.94923378
   0.89229291  0.11347050  0.04904655
   0.77656241  0.55693452  0.94789116
   0.89181934  0.44030068  0.05323329
   0.78236529  0.89075442  0.94779651
   0.88966877  0.78144106  0.05072846
unknown system                          
           1
     8.265888    4.778858    0.000000
    -8.264404    4.776278    0.000000
     0.000000    0.000000   30.000000
   V    Mo   W    S 
   3   3   3  18
Direct configuration=    14
   0.99701984  0.34097662 -0.00008633
   0.33561057 -0.01186966  0.00005048
  -0.00616299 -0.00543536  0.00052709
   0.65408994 -0.01345876  0.00009209
   0.00103423  0.65890604 -0.00035639
   0.34412895  0.67399568 -0.00014637
   0.34184646  0.34858459  0.00018505
   0.67481085  0.33619050 -0.00031872
   0.65557128  0.66897945  0.00008046
   0.10721569  0.22133439  0.95122462
   0.22160174  0.10766240  0.04790791
   0.10983793  0.54956112  0.94801130
   0.21695037  0.44303274  0.05140895
   0.11434505  0.89397057  0.95026124
   0.22533127  0.78344644  0.05199743
   0.44143099  0.21671375  0.95007243
   0.54945687  0.10814533  0.05155575
   0.44499352  0.55736000  0.94520748
   0.55848884  0.44631835  0.05300162
   0.44021507  0.89142497  0.94621665
   0.55520198  0.77730707  0.05517189
   0.78314506  0.22287268  0.94908328
   0.89235103  0.11357233  0.04916777
   0.77595732  0.55601186  0.94797973
   0.89155337  0.43997731  0.05304341
   0.78233624  0.89081431  0.94789272
   0.88985299  0.78181973  0.05076837
unknown system                          
           1
     8.268129    4.780318    0.000000
    -8.266648    4.777744    0.000000
     0.000000    0.000000   30.000000
   V    Mo   W    S 
   3   3   3  18
Direct configuration=    15
   0.99676469  0.34246289 -0.00012082
   0.33315747 -0.01574695  0.00002443
  -0.00801760 -0.00777418  0.00070963
   0.65361634 -0.01598619  0.00013488
   0.00163954  0.65787961 -0.00036846
   0.34478018  0.67375381 -0.00007801
   0.34323481  0.35176629  0.00019014
   0.67761893  0.33978225 -0.00034103
   0.65385527  0.66905084  0.00015520
   0.10747207  0.22151454  0.95158242
   0.22206645  0.10828698  0.04732337
   0.11035873  0.54977285  0.94779170
   0.21709300  0.44322458  0.05155941
   0.11425930  0.89364162  0.95018013
   0.22521217  0.78278443  0.05222513
   0.44173691  0.21702622  0.95066278
   0.54968084  0.10858247  0.05105183
   0.44512035  0.55796052  0.94475459
   0.55875279  0.44675019  0.05314451
   0.44025084  0.89109490  0.94598805
   0.55498204  0.77721474  0.05549709
   0.78276189  0.22248979  0.94929331
   0.89201920  0.11349688  0.04888937
   0.77652573  0.55728933  0.94797716
   0.89182721  0.44026796  0.05340598
   0.78212906  0.89059384  0.94776281
   0.88931625  0.78103423  0.05060432
unknown system                          
           1
     8.258346    4.775133    0.000000
    -8.257036    4.772855    0.000000
     0.000000    0.000000   30.000000
   V    Mo   W    S 
   3   3   3  18
Direct configuration=    16
   0.99652791  0.34289788 -0.00014139
   0.33287177 -0.01663602  0.00001262
  -0.00838725 -0.00822528  0.00075098
   0.65327322 -0.01654512  0.00012655
   0.00174302  0.65737940 -0.00038764
   0.34519094  0.67381320 -0.00007988
   0.34359980  0.35268207  0.00019254
   0.67841453  0.34031302 -0.00035773
   0.65320306  0.66918841  0.00016580
   0.10758831  0.22165871  0.95169148
   0.22228771  0.10848724  0.04714731
   0.11051533  0.54981544  0.94777799
   0.21713815  0.44331149  0.05156994
   0.11428088  0.89354897  0.95021174
   0.22519843  0.78260362  0.05224601
   0.44179785  0.21710439  0.95082532
   0.54969674  0.10862142  0.05096322
   0.44515625  0.55810454  0.94461603
   0.55889145  0.44689380  0.05314975
   0.44022696  0.89099747  0.94593055
   0.55496172  0.77725782  0.05562687
   0.78268294  0.22234492  0.94933713
   0.89188356  0.11352675  0.04879525
   0.77651751  0.55752029  0.94804096
   0.89185152  0.44025779  0.05350731
   0.78199453  0.89051022  0.94774421
   0.88910761  0.78078202  0.05053697
unknown system                          
           1
     8.271499    4.781570    0.000000
    -8.271385    4.781360    0.000000
     0.000000    0.000000   30.000000
   V    Mo   W    S 
   3   3   3  18
Direct configuration=    17
   0.99683789  0.34272167 -0.00014898
   0.33252935 -0.01662734  0.00002086
  -0.00829925 -0.00818449  0.00071821
   0.65347165 -0.01660842  0.00011031
   0.00184187  0.65786533 -0.00038243
   0.34480966  0.67377318 -0.00011130
   0.34359077  0.35233288  0.00015966
   0.67804009  0.34083441 -0.00036246
   0.65356349  0.66877652  0.00013624
   0.10751093  0.22151382  0.95163687
   0.22209672  0.10834021  0.04725875
   0.11039721  0.54982634  0.94779257
   0.21712524  0.44321569  0.05159074
   0.11424688  0.89362251  0.95014831
   0.22522468  0.78275439  0.05225909
   0.44177975  0.21707739  0.95075031
   0.54973571  0.10866399  0.05091101
   0.44513254  0.55802150  0.94473324
   0.55875110  0.44679569  0.05321237
   0.44025632  0.89106041  0.94602537
   0.55494357  0.77712337  0.05554134
   0.78266112  0.22249575  0.94939139
   0.89200026  0.11347884  0.04887337
   0.77668128  0.55750540  0.94793756
   0.89188373  0.44037434  0.05343485
   0.78212563  0.89053248  0.94774630
   0.88927624  0.78092860  0.05061633
unknown system                          
           1
     8.277313    4.783464    0.000000
    -8.280004    4.788107    0.000000
     0.000000    0.000000   30.000000
   V    Mo   W    S 
   3   3   3  18
Direct configuration=    18
   0.99620147  0.34409331 -0.00019383
   0.33151013 -0.01917914 -0.00002766
  -0.00968894 -0.00977277  0.00085856
   0.65285162 -0.01801485  0.00012934
   0.00217515  0.65631902 -0.00042750
   0.34565829  0.67369809 -0.00007211
   0.34438031  0.35485975  0.00018292
   0.68059236  0.34228384 -0.00039271
   0.65197075  0.66951546  0.00020365
   0.10780322  0.22188028  0.95199560
   0.22268689  0.10897274  0.04669869
   0.11080259  0.54987453  0.94770597
   0.21720103  0.44342966  0.05162853
   0.11424052  0.89328324  0.95022185
   0.22509875  0.78212283  0.05236023
   0.44201630  0.21734802  0.95129166
   0.54980431  0.10886940  0.05061675
   0.44527348  0.55850866  0.94434836
   0.55912135  0.44724088  0.05316257
   0.44026495  0.89075338  0.94583509
   0.55483817  0.77726838  0.05585632
   0.78250063  0.22212278  0.94950791
   0.89165051  0.11355656  0.04856104
   0.77677997  0.55828544  0.94814063
   0.89203852  0.44038031  0.05372845
   0.78176311  0.89034628  0.94767589
   0.88867902  0.78016839  0.05040370
unknown system                          
           1
     8.276595    4.783339    0.000000
    -8.278667    4.786911    0.000000
     0.000000    0.000000   30.000000
   V    Mo   W    S 
   3   3   3  18
Direct configuration=    19
   0.99612600  0.34550488 -0.00023438
   0.32983066 -0.02219782 -0.00009571
  -0.01141652 -0.01183635  0.00096940
   0.65237333 -0.01975823  0.00015068
   0.00287217  0.65535991 -0.00046364
   0.34595353  0.67362051 -0.00003205
   0.34513348  0.35719794  0.00018715
   0.68301820  0.34470248 -0.00040934
   0.65085209  0.67003311  0.00025680
   0.10799289  0.22204469  0.95232992
   0.22306563  0.10946920  0.04618807
   0.11116991  0.54993313  0.94755293
   0.21719347  0.44351185  0.05172873
   0.11420891  0.89300787  0.95019853
   0.22495931  0.78159455  0.05252792
   0.44226092  0.21752600  0.95184231
   0.54985463  0.10917382  0.05018050
   0.44544045  0.55902827  0.94404151
   0.55936350  0.44761391  0.05318157
   0.44032107  0.89052363  0.94573499
   0.55459598  0.77721987  0.05610059
   0.78228716  0.22188473  0.94967370
   0.89146325  0.11359457  0.04831823
   0.77716000  0.55922353  0.94820068
   0.89230321  0.44056085  0.05401910
   0.78159248  0.89022304  0.94753727
   0.88823876  0.77945453  0.05031444
unknown system                          
           1
     8.278367    4.784495    0.000000
    -8.280149    4.787564    0.000000
     0.000000    0.000000   30.000000
   V    Mo   W    S 
   3   3   3  18
Direct configuration=    20
   0.99607887  0.34528463 -0.00022890
   0.33008582 -0.02178164 -0.00008092
  -0.01112917 -0.01149446  0.00095782
   0.65241561 -0.01950370  0.00014961
   0.00275367  0.65547081 -0.00045727
   0.34597387  0.67364632 -0.00003633
   0.34505704  0.35690236  0.00018805
   0.68268426  0.34430575 -0.00040684
   0.65095113  0.66995479  0.00025324
   0.10797211  0.22203716  0.95227810
   0.22302792  0.10940242  0.04626333
   0.11111921  0.54992550  0.94757714
   0.21720286  0.44350752  0.05171048
   0.11421971  0.89304950  0.95020644
   0.22498848  0.78167461  0.05249676
   0.44222492  0.21751126  0.95175666
   0.54985119  0.10912501  0.05025383
   0.44540894  0.55894136  0.94407522
   0.55933352  0.44756084  0.05317648
   0.44030594  0.89055387  0.94574609
   0.55464627  0.77724187  0.05606805
   0.78231999  0.22190558  0.94963961
   0.89148301  0.11359728  0.04835503
   0.77708208  0.55907748  0.94819781
   0.89225315  0.44052569  0.05398162
   0.78160995  0.89023458  0.94756058
   0.88829410  0.77955806  0.05031822
unknown system                          
           1
     8.280823    4.784128    0.000000
    -8.286327    4.793637    0.000000
     0.000000    0.000000   30.000000
   V    Mo   W    S 
   3   3   3  18
Direct configuration=    21
   0.99612331  0.34507166 -0.00022586
   0.33013061 -0.02158678 -0.00007042
  -0.01100740 -0.01136836  0.00095071
   0.65250497 -0.01935807  0.00014741
   0.00275992  0.65571901 -0.00045472
   0.34587930  0.67367655 -0.00004031
   0.34497907  0.35663847  0.00018758
   0.68240693  0.34418215 -0.00040743
   0.65115695  0.66989737  0.00024477
   0.10793212  0.22198700  0.95224927
   0.22296201  0.10932468  0.04630383
   0.11110041  0.54992750  0.94758210
   0.21720201  0.44349482  0.05171015
   0.11423193  0.89310529  0.95020346
   0.22502255  0.78173868  0.05249114
   0.44219126  0.21746624  0.95170651
   0.54982536  0.10908987  0.05027619
   0.44538617  0.55890364  0.94409418
   0.55930111  0.44752786  0.05319703
   0.44028496  0.89057976  0.94575914
   0.55465567  0.77722303  0.05605383
   0.78232435  0.22192337  0.94962773
   0.89152340  0.11357202  0.04837699
   0.77708202  0.55903674  0.94817097
   0.89224130  0.44052565  0.05396442
   0.78166549  0.89025404  0.94757215
   0.88834869  0.77966225  0.05032906
unknown system                          
           1
     8.281758    4.783804    0.000000
    -8.289346    4.796917    0.000000
     0.000000    0.000000   30.000000
   V    Mo   W    S 
   3   3   3  18
Direct configuration=    22
   0.99631268  0.34642963 -0.00025994
   0.32859507 -0.02414899 -0.00015903
  -0.01273164 -0.01341339  0.00102387
   0.65220389 -0.02092406  0.00015531
   0.00344349  0.65493197 -0.00049531
   0.34585211  0.67350902 -0.00001711
   0.34551516  0.35855800  0.00018105
   0.68452656  0.34655900 -0.00042302
   0.65040850  0.67036630  0.00026807
   0.10808673  0.22206478  0.95257296
   0.22322688  0.10976235  0.04583695
   0.11140824  0.54998285  0.94745141
   0.21717099  0.44353527  0.05180498
   0.11416863  0.89284291  0.95016801
   0.22484675  0.78123616  0.05266950
   0.44242156  0.21758833  0.95223537
   0.54986210  0.10938847  0.04983478
   0.44558038  0.55942262  0.94389342
   0.55949230  0.44785853  0.05320842
   0.44038002  0.89038930  0.94569440
   0.55437761  0.77711367  0.05624645
   0.78211291  0.22177851  0.94983110
   0.89137847  0.11355671  0.04814771
   0.77752648  0.55990882  0.94821371
   0.89252375  0.44072968  0.05418451
   0.78153611  0.89017235  0.94744444
   0.88798874  0.77901566  0.05028787
unknown system                          
           1
     8.284361    4.782039    0.000000
    -8.298683    4.806801    0.000000
     0.000000    0.000000   30.000000
   V    Mo   W    S 
   3   3   3  18
Direct configuration=    23
   0.99654212  0.34710889 -0.00026798
   0.32790866 -0.02526104 -0.00020606
  -0.01357774 -0.01442895  0.00104549
   0.65207418 -0.02169289  0.00016173
   0.00379752  0.65462446 -0.00050533
   0.34573717  0.67342397  0.00000282
   0.34569381  0.35935524  0.00018185
   0.68543334  0.34775272 -0.00041606
   0.65016265  0.67057572  0.00028824
   0.10813914  0.22206750  0.95272542
   0.22330997  0.10994967  0.04562171
   0.11154749  0.55000406  0.94737808
   0.21713213  0.44353725  0.05185861
   0.11411508  0.89270752  0.95013691
   0.22474214  0.78099822  0.05275812
   0.44252821  0.21762065  0.95248735
   0.54988368  0.10953848  0.04960761
   0.44568437  0.55968626  0.94381200
   0.55957543  0.44801281  0.05321845
   0.44043808  0.89030555  0.94566544
   0.55421513  0.77702186  0.05631887
   0.78201381  0.22173842  0.94994686
   0.89132248  0.11353610  0.04803812
   0.77778517  0.56034496  0.94820760
   0.89268391  0.44083977  0.05427631
   0.78148852  0.89014491  0.94736686
   0.88783800  0.77870236  0.05029091
unknown system                          
           1
     8.290429    4.782668    0.000000
    -8.313494    4.822564    0.000000
     0.000000    0.000000   30.000000
   V    Mo   W    S 
   3   3   3  18
Direct configuration=    24
   0.99749034  0.34919070 -0.00028579
   0.32596628 -0.02833135 -0.00036894
  -0.01633321 -0.01771738  0.00108502
   0.65180781 -0.02408815  0.00015259
   0.00475251  0.65373051 -0.00054554
   0.34525918  0.67305911  0.00005342
   0.34612782  0.36167302  0.00018330
   0.68804423  0.35156259 -0.00038966
   0.64962534  0.67126602  0.00032949
   0.10828444  0.22199781  0.95321437
   0.22346110  0.11053778  0.04494355
   0.11204087  0.55011303  0.94711278
   0.21700431  0.44355146  0.05206389
   0.11384933  0.89222467  0.95002293
   0.22437349  0.78021312  0.05305549
   0.44290309  0.21774592  0.95328252
   0.55002339  0.11004918  0.04888457
   0.44603435  0.56056355  0.94357762
   0.55983101  0.44848726  0.05327286
   0.44067132  0.88999631  0.94556723