   27   27  100    1
  0.9710400E+02  0.1002848E-08  0.1002848E-08  0.3000000E-08  0.5000000E-15
  1.000000000000000E-004
  CAR 
 unknown system                          
    159     34    120
 
  0.0000000E+00  0.0000000E+00  0.0000000E+00  0.1562500E-01
    1      -17.854726   1.000000
    2      -16.769434   1.000000
    3      -16.672817   1.000000
    4      -16.557910   1.000000
    5      -16.541328   1.000000
    6      -16.536211   1.000000
    7      -16.402540   1.000000
    8      -16.324009   1.000000
    9      -16.228434   1.000000
   10      -16.111023   1.000000
   11      -16.073473   1.000000
   12      -15.975427   1.000000
   13      -15.891640   1.000000
   14      -15.638017   1.000000
   15      -15.597382   1.000000
   16      -15.451833   1.000000
   17      -15.236529   1.000000
   18      -15.177731   1.000000
   19       -9.486877   1.000000
   20       -9.011689   1.000000
   21       -8.973727   1.000000
   22       -8.865808   1.000000
   23       -8.733805   1.000000
   24       -8.679724   1.000000
   25       -8.593645   1.000000
   26       -8.577477   1.000000
   27       -8.556453   1.000000
   28       -8.474020   1.000000
   29       -8.458731   1.000000
   30       -8.410729   1.000000
   31       -8.340532   1.000000
   32       -8.149647   1.000000
   33       -8.142600   1.000000
   34       -8.037118   1.000000
   35       -7.819672   1.000000
   36       -7.749866   1.000000
   37       -7.644223   1.000000
   38       -7.624299   1.000000
   39       -7.515845   1.000000
   40       -7.371706   1.000000
   41       -7.346640   1.000000
   42       -7.182300   1.000000
   43       -7.049113   1.000000
   44       -6.881104   1.000000
   45       -6.870105   1.000000
   46       -6.829935   1.000000
   47       -6.807386   1.000000
   48       -6.737573   1.000000
   49       -6.620033   1.000000
   50       -6.495404   1.000000
   51       -6.409364   1.000000
   52       -6.282591   1.000000
   53       -6.215355   1.000000
   54       -6.171485   1.000000
   55       -6.107068   1.000000
   56       -6.023960   1.000000
   57       -5.934718   1.000000
   58       -5.868060   1.000000
   59       -5.833616   1.000000
   60       -5.807238   1.000000
   61       -5.607713   1.000000
   62       -5.341961   1.000000
   63       -5.294790   1.000000
   64       -5.025399   1.000000
   65       -4.996963   1.000000
   66       -4.899333   1.000000
   67       -4.825416   1.000000
   68       -4.769669   1.000000
   69       -4.708341   1.000000
   70       -4.685856   1.000000
   71       -4.627042   1.000000
   72       -4.547589   1.000000
   73       -4.504023   1.000000
   74       -4.357330   1.000000
   75       -4.279626   1.000000
   76       -4.008348   1.000000
   77       -3.760813   0.999896
   78       -3.592790   0.994169
   79       -3.485594   0.961152
   80       -3.184097   0.356552
   81       -3.133331   0.233716
   82       -2.824280   0.001796
   83       -2.653673   0.000019
   84       -2.610981   0.000005
   85       -2.532404   0.000000
   86       -2.455689   0.000000
   87       -2.240586   0.000000
   88       -2.202712   0.000000
   89       -2.158292   0.000000
   90       -1.997943   0.000000
   91       -1.888349   0.000000
   92       -1.624335   0.000000
   93       -1.425318   0.000000
   94       -1.154275   0.000000
   95       -1.104298   0.000000
   96       -1.047991   0.000000
   97       -1.028177   0.000000
   98       -0.897054   0.000000
   99       -0.839363   0.000000
  100       -0.598983   0.000000
  101       -0.566199   0.000000
  102       -0.494422   0.000000
  103       -0.299510   0.000000
  104       -0.274374   0.000000
  105       -0.120511   0.000000
  106       -0.039526   0.000000
  107        0.007386   0.000000
  108        0.043413   0.000000
  109        0.136168   0.000000
  110        0.227559   0.000000
  111        0.384471   0.000000
  112        0.467422   0.000000
  113        0.527087   0.000000
  114        0.961459   0.000000
  115        1.015947   0.000000
  116        1.055845   0.000000
  117        1.134647   0.000000
  118        1.653506   0.000000
  119        1.845169   0.000000
  120        2.177825   0.000000
 
  0.1250000E+00  0.2775558E-16  0.0000000E+00  0.3125000E-01
    1      -17.830128   1.000000
    2      -16.801056   1.000000
    3      -16.760221   1.000000
    4      -16.613044   1.000000
    5      -16.558990   1.000000
    6      -16.432196   1.000000
    7      -16.377284   1.000000
    8      -16.353629   1.000000
    9      -16.279017   1.000000
   10      -16.046789   1.000000
   11      -16.010584   1.000000
   12      -15.970037   1.000000
   13      -15.870791   1.000000
   14      -15.635054   1.000000
   15      -15.590759   1.000000
   16      -15.461502   1.000000
   17      -15.255110   1.000000
   18      -15.182371   1.000000
   19       -9.487596   1.000000
   20       -9.157427   1.000000
   21       -9.054680   1.000000
   22       -8.998842   1.000000
   23       -8.730480   1.000000
   24       -8.708180   1.000000
   25       -8.622124   1.000000
   26       -8.571029   1.000000
   27       -8.532328   1.000000
   28       -8.465493   1.000000
   29       -8.430915   1.000000
   30       -8.323136   1.000000
   31       -8.281390   1.000000
   32       -8.066389   1.000000
   33       -7.993631   1.000000
   34       -7.940234   1.000000
   35       -7.823768   1.000000
   36       -7.775940   1.000000
   37       -7.709257   1.000000
   38       -7.543800   1.000000
   39       -7.440329   1.000000
   40       -7.371756   1.000000
   41       -7.318621   1.000000
   42       -7.224424   1.000000
   43       -7.100007   1.000000
   44       -6.952525   1.000000
   45       -6.927341   1.000000
   46       -6.850938   1.000000
   47       -6.798317   1.000000
   48       -6.662218   1.000000
   49       -6.597986   1.000000
   50       -6.503388   1.000000
   51       -6.409897   1.000000
   52       -6.295830   1.000000
   53       -6.235661   1.000000
   54       -6.155890   1.000000
   55       -6.125916   1.000000
   56       -6.056373   1.000000
   57       -5.906701   1.000000
   58       -5.867333   1.000000
   59       -5.824319   1.000000
   60       -5.674699   1.000000
   61       -5.560527   1.000000
   62       -5.362495   1.000000
   63       -5.311575   1.000000
   64       -5.198238   1.000000
   65       -5.056903   1.000000
   66       -5.023876   1.000000
   67       -4.919679   1.000000
   68       -4.840886   1.000000
   69       -4.689623   1.000000
   70       -4.643029   1.000000
   71       -4.518107   1.000000
   72       -4.451035   1.000000
   73       -4.420352   1.000000
   74       -4.307066   1.000000
   75       -4.264362   1.000000
   76       -3.920171   0.999999
   77       -3.798869   0.999965
   78       -3.703362   0.999524
   79       -3.477543   0.956115
   80       -3.387625   0.858019
   81       -2.953299   0.022767
   82       -2.825099   0.001829
   83       -2.664270   0.000026
   84       -2.620665   0.000007
   85       -2.542690   0.000000
   86       -2.458519   0.000000
   87       -2.246219   0.000000
   88       -2.174208   0.000000
   89       -2.107725   0.000000
   90       -1.993130   0.000000
   91       -1.830670   0.000000
   92       -1.621743   0.000000
   93       -1.420493   0.000000
   94       -1.168016   0.000000
   95       -1.102981   0.000000
   96       -1.062501   0.000000
   97       -1.009926   0.000000
   98       -0.906637   0.000000
   99       -0.844397   0.000000
  100       -0.649591   0.000000
  101       -0.611445   0.000000
  102       -0.525998   0.000000
  103       -0.382775   0.000000
  104       -0.333753   0.000000
  105       -0.179335   0.000000
  106       -0.119521   0.000000
  107       -0.085107   0.000000
  108        0.060488   0.000000
  109        0.129282   0.000000
  110        0.258408   0.000000
  111        0.422608   0.000000
  112        0.497379   0.000000
  113        0.596327   0.000000
  114        0.924088   0.000000
  115        1.001291   0.000000
  116        1.097480   0.000000
  117        1.207968   0.000000
  118        1.698387   0.000000
  119        1.883329   0.000000
  120        2.213232   0.000000
 
  0.2500000E+00  0.5551115E-16  0.0000000E+00  0.3125000E-01
    1      -17.758448   1.000000
    2      -17.003196   1.000000
    3      -16.758033   1.000000
    4      -16.663559   1.000000
    5      -16.592506   1.000000
    6      -16.454830   1.000000
    7      -16.361452   1.000000
    8      -16.299594   1.000000
    9      -16.245519   1.000000
   10      -16.035826   1.000000
   11      -15.969139   1.000000
   12      -15.854871   1.000000
   13      -15.833313   1.000000
   14      -15.614635   1.000000
   15      -15.580323   1.000000
   16      -15.476755   1.000000
   17      -15.294808   1.000000
   18      -15.202634   1.000000
   19       -9.599641   1.000000
   20       -9.307291   1.000000
   21       -9.182666   1.000000
   22       -9.132527   1.000000
   23       -8.812830   1.000000
   24       -8.745296   1.000000
   25       -8.624784   1.000000
   26       -8.571838   1.000000
   27       -8.504344   1.000000
   28       -8.416874   1.000000
   29       -8.321964   1.000000
   30       -8.253127   1.000000
   31       -8.136148   1.000000
   32       -8.057343   1.000000
   33       -7.985819   1.000000
   34       -7.802845   1.000000
   35       -7.768790   1.000000
   36       -7.669805   1.000000
   37       -7.558536   1.000000
   38       -7.508684   1.000000
   39       -7.429316   1.000000
   40       -7.372192   1.000000
   41       -7.305543   1.000000
   42       -7.206597   1.000000
   43       -7.136859   1.000000
   44       -7.020623   1.000000
   45       -6.951076   1.000000
   46       -6.817255   1.000000
   47       -6.795330   1.000000
   48       -6.661267   1.000000
   49       -6.548559   1.000000
   50       -6.460782   1.000000
   51       -6.384350   1.000000
   52       -6.311067   1.000000
   53       -6.298322   1.000000
   54       -6.158607   1.000000
   55       -6.115894   1.000000
   56       -6.065483   1.000000
   57       -5.878781   1.000000
   58       -5.826016   1.000000
   59       -5.790723   1.000000
   60       -5.643668   1.000000
   61       -5.568079   1.000000
   62       -5.507080   1.000000
   63       -5.443340   1.000000
   64       -5.269947   1.000000
   65       -5.153961   1.000000
   66       -5.132673   1.000000
   67       -5.017837   1.000000
   68       -4.863848   1.000000
   69       -4.704848   1.000000
   70       -4.598956   1.000000
   71       -4.433128   1.000000
   72       -4.343731   1.000000
   73       -4.295535   1.000000
   74       -4.241819   1.000000
   75       -4.130229   1.000000
   76       -4.013453   1.000000
   77       -3.907987   0.999999
   78       -3.768622   0.999917
   79       -3.509048   0.973200
   80       -3.404354   0.882929
   81       -2.932669   0.015954
   82       -2.797998   0.000975
   83       -2.713052   0.000108
   84       -2.600244   0.000003
   85       -2.522857   0.000000
   86       -2.440716   0.000000
   87       -2.268089   0.000000
   88       -2.088701   0.000000
   89       -2.043676   0.000000
   90       -1.948643   0.000000
   91       -1.763023   0.000000
   92       -1.549119   0.000000
   93       -1.416576   0.000000
   94       -1.220212   0.000000
   95       -1.118336   0.000000
   96       -1.080273   0.000000
   97       -1.003197   0.000000
   98       -0.953935   0.000000
   99       -0.847642   0.000000
  100       -0.748015   0.000000
  101       -0.709318   0.000000
  102       -0.615097   0.000000
  103       -0.517246   0.000000
  104       -0.432099   0.000000
  105       -0.323988   0.000000
  106       -0.233347   0.000000
  107       -0.190662   0.000000
  108        0.008812   0.000000
  109        0.111315   0.000000
  110        0.234253   0.000000
  111        0.385018   0.000000
  112        0.568054   0.000000
  113        0.732917   0.000000
  114        0.939644   0.000000
  115        1.039879   0.000000
  116        1.195815   0.000000
  117        1.302730   0.000000
  118        1.823210   0.000000
  119        1.993810   0.000000
  120        2.318165   0.000000
 
  0.3750000E+00  0.0000000E+00  0.0000000E+00  0.3125000E-01
    1      -17.650044   1.000000
    2      -17.205979   1.000000
    3      -16.762739   1.000000
    4      -16.684311   1.000000
    5      -16.620003   1.000000
    6      -16.516899   1.000000
    7      -16.331971   1.000000
    8      -16.249514   1.000000
    9      -16.209410   1.000000
   10      -16.035693   1.000000
   11      -15.875713   1.000000
   12      -15.837960   1.000000
   13      -15.781192   1.000000
   14      -15.622908   1.000000
   15      -15.580113   1.000000
   16      -15.440536   1.000000
   17      -15.323325   1.000000
   18      -15.241127   1.000000
   19       -9.787976   1.000000
   20       -9.377634   1.000000
   21       -9.256490   1.000000
   22       -9.132515   1.000000
   23       -8.892854   1.000000
   24       -8.793997   1.000000
   25       -8.584710   1.000000
   26       -8.571491   1.000000
   27       -8.482694   1.000000
   28       -8.342786   1.000000
   29       -8.284940   1.000000
   30       -8.190595   1.000000
   31       -8.142838   1.000000
   32       -8.004521   1.000000
   33       -7.941793   1.000000
   34       -7.834900   1.000000
   35       -7.748121   1.000000
   36       -7.681161   1.000000
   37       -7.547693   1.000000
   38       -7.514797   1.000000
   39       -7.473333   1.000000
   40       -7.300060   1.000000
   41       -7.148333   1.000000
   42       -7.122064   1.000000
   43       -7.050963   1.000000
   44       -6.960108   1.000000
   45       -6.923361   1.000000
   46       -6.810885   1.000000
   47       -6.724690   1.000000
   48       -6.648205   1.000000
   49       -6.479015   1.000000
   50       -6.431695   1.000000
   51       -6.341770   1.000000
   52       -6.285758   1.000000
   53       -6.224430   1.000000
   54       -6.183331   1.000000
   55       -6.164386   1.000000
   56       -6.064903   1.000000
   57       -6.017038   1.000000
   58       -5.952676   1.000000
   59       -5.843404   1.000000
   60       -5.732761   1.000000
   61       -5.644788   1.000000
   62       -5.554761   1.000000
   63       -5.451469   1.000000
   64       -5.342996   1.000000
   65       -5.170451   1.000000
   66       -5.105997   1.000000
   67       -5.003243   1.000000
   68       -4.817095   1.000000
   69       -4.768194   1.000000
   70       -4.639399   1.000000
   71       -4.515808   1.000000
   72       -4.391507   1.000000
   73       -4.261323   1.000000
   74       -4.162663   1.000000
   75       -4.050674   1.000000
   76       -4.001818   1.000000
   77       -3.935591   1.000000
   78       -3.749823   0.999860
   79       -3.548702   0.986463
   80       -3.311830   0.703854
   81       -2.987741   0.039532
   82       -2.778310   0.000604
   83       -2.731629   0.000180
   84       -2.620631   0.000007
   85       -2.509958   0.000000
   86       -2.376682   0.000000
   87       -2.258063   0.000000
   88       -2.055617   0.000000
   89       -1.985965   0.000000
   90       -1.858267   0.000000
   91       -1.740810   0.000000
   92       -1.458021   0.000000
   93       -1.400517   0.000000
   94       -1.267650   0.000000
   95       -1.171315   0.000000
   96       -1.138060   0.000000
   97       -1.075578   0.000000
   98       -0.962087   0.000000
   99       -0.854170   0.000000
  100       -0.802768   0.000000
  101       -0.756331   0.000000
  102       -0.711469   0.000000
  103       -0.618736   0.000000
  104       -0.511698   0.000000
  105       -0.443876   0.000000
  106       -0.312795   0.000000
  107       -0.275579   0.000000
  108       -0.102787   0.000000
  109        0.095005   0.000000
  110        0.168873   0.000000
  111        0.387617   0.000000
  112        0.626476   0.000000
  113        0.767946   0.000000
  114        0.976694   0.000000
  115        1.150473   0.000000
  116        1.259277   0.000000
  117        1.396446   0.000000
  118        2.009742   0.000000
  119        2.169396   0.000000
  120        2.482629   0.000000
 
  0.5000000E+00  0.1110223E-15  0.0000000E+00  0.1562500E-01
    1      -17.568456   1.000000
    2      -17.321087   1.000000
    3      -16.768941   1.000000
    4      -16.685621   1.000000
    5      -16.627685   1.000000
    6      -16.541407   1.000000
    7      -16.319513   1.000000
    8      -16.240899   1.000000
    9      -16.196572   1.000000
   10      -16.021900   1.000000
   11      -15.861901   1.000000
   12      -15.800993   1.000000
   13      -15.740902   1.000000
   14      -15.690002   1.000000
   15      -15.569133   1.000000
   16      -15.411030   1.000000
   17      -15.309603   1.000000
   18      -15.281112   1.000000
   19       -9.863054   1.000000
   20       -9.411390   1.000000
   21       -9.294937   1.000000
   22       -9.070488   1.000000
   23       -8.933599   1.000000
   24       -8.808762   1.000000
   25       -8.631207   1.000000
   26       -8.551766   1.000000
   27       -8.463852   1.000000
   28       -8.323534   1.000000
   29       -8.263514   1.000000
   30       -8.157668   1.000000
   31       -8.083500   1.000000
   32       -7.991941   1.000000
   33       -7.935659   1.000000
   34       -7.882008   1.000000
   35       -7.776284   1.000000
   36       -7.671116   1.000000
   37       -7.627993   1.000000
   38       -7.567554   1.000000
   39       -7.467280   1.000000
   40       -7.311730   1.000000
   41       -7.068190   1.000000
   42       -7.039806   1.000000
   43       -6.950262   1.000000
   44       -6.905824   1.000000
   45       -6.842253   1.000000
   46       -6.702956   1.000000
   47       -6.652796   1.000000
   48       -6.549477   1.000000
   49       -6.519500   1.000000
   50       -6.470371   1.000000
   51       -6.446290   1.000000
   52       -6.425423   1.000000
   53       -6.289010   1.000000
   54       -6.219549   1.000000
   55       -6.175529   1.000000
   56       -6.059919   1.000000
   57       -6.024780   1.000000
   58       -5.828236   1.000000
   59       -5.804657   1.000000
   60       -5.732721   1.000000
   61       -5.688803   1.000000
   62       -5.587809   1.000000
   63       -5.526400   1.000000
   64       -5.382084   1.000000
   65       -5.193072   1.000000
   66       -5.028467   1.000000
   67       -4.996856   1.000000
   68       -4.971103   1.000000
   69       -4.776650   1.000000
   70       -4.605795   1.000000
   71       -4.545682   1.000000
   72       -4.404898   1.000000
   73       -4.307991   1.000000
   74       -4.125499   1.000000
   75       -4.038769   1.000000
   76       -3.960146   1.000000
   77       -3.860773   0.999995
   78       -3.765645   0.999910
   79       -3.566963   0.990347
   80       -3.292536   0.655086
   81       -2.940204   0.018207
   82       -2.849359   0.003122
   83       -2.731578   0.000180
   84       -2.616662   0.000006
   85       -2.506115   0.000000
   86       -2.344245   0.000000
   87       -2.248460   0.000000
   88       -2.035878   0.000000
   89       -1.976090   0.000000
   90       -1.817303   0.000000
   91       -1.727748   0.000000
   92       -1.442200   0.000000
   93       -1.382542   0.000000
   94       -1.272573   0.000000
   95       -1.199193   0.000000
   96       -1.172989   0.000000
   97       -1.128972   0.000000
   98       -0.960426   0.000000
   99       -0.874413   0.000000
  100       -0.794969   0.000000
  101       -0.760911   0.000000
  102       -0.712393   0.000000
  103       -0.695731   0.000000
  104       -0.548676   0.000000
  105       -0.502735   0.000000
  106       -0.333753   0.000000
  107       -0.308031   0.000000
  108       -0.146439   0.000000
  109        0.075801   0.000000
  110        0.154456   0.000000
  111        0.389867   0.000000
  112        0.649056   0.000000
  113        0.771022   0.000000
  114        0.993178   0.000000
  115        1.201169   0.000000
  116        1.270762   0.000000
  117        1.441086   0.000000
  118        2.228980   0.000000
  119        2.264214   0.000000
  120        2.389600   0.000000
 
  0.0000000E+00  0.1250000E+00  0.0000000E+00  0.3125000E-01
    1      -17.830439   1.000000
    2      -16.806376   1.000000
    3      -16.744167   1.000000
    4      -16.623476   1.000000
    5      -16.548790   1.000000
    6      -16.452789   1.000000
    7      -16.396763   1.000000
    8      -16.339031   1.000000
    9      -16.252332   1.000000
   10      -16.067326   1.000000
   11      -16.006115   1.000000
   12      -15.975107   1.000000
   13      -15.860240   1.000000
   14      -15.636767   1.000000
   15      -15.592012   1.000000
   16      -15.457533   1.000000
   17      -15.255914   1.000000
   18      -15.183515   1.000000
   19       -9.491069   1.000000
   20       -9.144946   1.000000
   21       -9.040705   1.000000
   22       -8.992207   1.000000
   23       -8.757331   1.000000
   24       -8.690663   1.000000
   25       -8.652442   1.000000
   26       -8.570358   1.000000
   27       -8.521721   1.000000
   28       -8.492045   1.000000
   29       -8.456071   1.000000
   30       -8.312497   1.000000
   31       -8.240746   1.000000
   32       -8.083203   1.000000
   33       -8.011618   1.000000
   34       -7.898970   1.000000
   35       -7.841396   1.000000
   36       -7.759182   1.000000
   37       -7.707975   1.000000
   38       -7.516561   1.000000
   39       -7.451809   1.000000
   40       -7.379387   1.000000
   41       -7.327244   1.000000
   42       -7.208132   1.000000
   43       -7.114111   1.000000
   44       -6.953568   1.000000
   45       -6.901206   1.000000
   46       -6.879769   1.000000
   47       -6.798492   1.000000
   48       -6.695927   1.000000
   49       -6.605839   1.000000
   50       -6.505135   1.000000
   51       -6.391692   1.000000
   52       -6.299662   1.000000
   53       -6.237964   1.000000
   54       -6.160360   1.000000
   55       -6.122031   1.000000
   56       -6.001319   1.000000
   57       -5.943266   1.000000
   58       -5.851658   1.000000
   59       -5.830235   1.000000
   60       -5.669355   1.000000
   61       -5.558327   1.000000
   62       -5.370129   1.000000
   63       -5.311098   1.000000
   64       -5.193551   1.000000
   65       -5.066832   1.000000
   66       -4.995931   1.000000
   67       -4.911699   1.000000
   68       -4.838587   1.000000
   69       -4.720564   1.000000
   70       -4.662004   1.000000
   71       -4.503983   1.000000
   72       -4.483867   1.000000
   73       -4.359781   1.000000
   74       -4.329517   1.000000
   75       -4.261291   1.000000
   76       -3.925994   0.999999
   77       -3.822191   0.999983
   78       -3.676533   0.999078
   79       -3.479929   0.957660
   80       -3.382650   0.849966
   81       -2.957956   0.024606
   82       -2.828514   0.001976
   83       -2.670627   0.000032
   84       -2.606467   0.000004
   85       -2.542088   0.000000
   86       -2.459619   0.000000
   87       -2.245691   0.000000
   88       -2.183499   0.000000
   89       -2.089663   0.000000
   90       -2.011157   0.000000
   91       -1.846311   0.000000
   92       -1.607486   0.000000
   93       -1.426448   0.000000
   94       -1.153975   0.000000
   95       -1.094358   0.000000
   96       -1.060942   0.000000
   97       -1.025221   0.000000
   98       -0.895258   0.000000
   99       -0.839809   0.000000
  100       -0.635317   0.000000
  101       -0.614061   0.000000
  102       -0.565592   0.000000
  103       -0.421975   0.000000
  104       -0.305106   0.000000
  105       -0.176646   0.000000
  106       -0.107356   0.000000
  107       -0.050019   0.000000
  108        0.060905   0.000000
  109        0.122352   0.000000
  110        0.236439   0.000000
  111        0.355403   0.000000
  112        0.510975   0.000000
  113        0.595293   0.000000
  114        0.931141   0.000000
  115        1.026416   0.000000
  116        1.105225   0.000000
  117        1.218265   0.000000
  118        1.699023   0.000000
  119        1.883924   0.000000
  120        2.213366   0.000000
 
  0.1250000E+00  0.1250000E+00  0.0000000E+00  0.3125000E-01
    1      -17.781634   1.000000
    2      -16.937734   1.000000
    3      -16.746629   1.000000
    4      -16.711132   1.000000
    5      -16.525874   1.000000
    6      -16.449825   1.000000
    7      -16.384829   1.000000
    8      -16.313655   1.000000
    9      -16.237637   1.000000
   10      -16.067343   1.000000
   11      -16.012358   1.000000
   12      -15.868072   1.000000
   13      -15.822738   1.000000
   14      -15.617088   1.000000
   15      -15.570882   1.000000
   16      -15.460228   1.000000
   17      -15.294519   1.000000
   18      -15.205568   1.000000
   19       -9.555112   1.000000
   20       -9.260344   1.000000
   21       -9.222990   1.000000
   22       -9.041625   1.000000
   23       -8.791730   1.000000
   24       -8.714253   1.000000
   25       -8.631095   1.000000
   26       -8.539376   1.000000
   27       -8.476289   1.000000
   28       -8.444619   1.000000
   29       -8.406785   1.000000
   30       -8.331585   1.000000
   31       -8.201219   1.000000
   32       -8.076496   1.000000
   33       -7.984267   1.000000
   34       -7.848953   1.000000
   35       -7.713546   1.000000
   36       -7.649647   1.000000
   37       -7.593375   1.000000
   38       -7.492997   1.000000
   39       -7.377487   1.000000
   40       -7.349258   1.000000
   41       -7.295926   1.000000
   42       -7.249644   1.000000
   43       -7.148277   1.000000
   44       -7.053328   1.000000
   45       -6.989415   1.000000
   46       -6.890312   1.000000
   47       -6.773096   1.000000
   48       -6.680411   1.000000
   49       -6.572809   1.000000
   50       -6.509001   1.000000
   51       -6.381796   1.000000
   52       -6.322605   1.000000
   53       -6.277098   1.000000
   54       -6.185781   1.000000
   55       -6.115503   1.000000
   56       -5.972229   1.000000
   57       -5.892841   1.000000
   58       -5.772915   1.000000
   59       -5.756578   1.000000
   60       -5.663443   1.000000
   61       -5.541908   1.000000
   62       -5.472054   1.000000
   63       -5.300661   1.000000
   64       -5.257012   1.000000
   65       -5.192288   1.000000
   66       -5.170071   1.000000
   67       -5.044550   1.000000
   68       -4.834383   1.000000
   69       -4.712669   1.000000
   70       -4.670622   1.000000
   71       -4.443623   1.000000
   72       -4.342507   1.000000
   73       -4.274317   1.000000
   74       -4.235050   1.000000
   75       -4.154497   1.000000
   76       -3.988239   1.000000
   77       -3.864183   0.999996
   78       -3.704136   0.999533
   79       -3.589244   0.993740
   80       -3.400228   0.877094
   81       -2.947245   0.020551
   82       -2.833387   0.002203
   83       -2.725755   0.000154
   84       -2.569541   0.000001
   85       -2.527001   0.000000
   86       -2.465063   0.000000
   87       -2.310517   0.000000
   88       -2.105395   0.000000
   89       -2.060786   0.000000
   90       -1.992067   0.000000
   91       -1.760886   0.000000
   92       -1.542689   0.000000
   93       -1.434827   0.000000
   94       -1.186372   0.000000
   95       -1.081143   0.000000
   96       -1.059486   0.000000
   97       -1.025491   0.000000
   98       -0.901624   0.000000
   99       -0.851574   0.000000
  100       -0.683729   0.000000
  101       -0.660462   0.000000
  102       -0.624013   0.000000
  103       -0.518198   0.000000
  104       -0.411428   0.000000
  105       -0.289008   0.000000
  106       -0.189857   0.000000
  107       -0.142806   0.000000
  108        0.006542   0.000000
  109        0.057884   0.000000
  110        0.202628   0.000000
  111        0.347726   0.000000
  112        0.537928   0.000000
  113        0.712722   0.000000
  114        0.954544   0.000000
  115        1.038721   0.000000
  116        1.212382   0.000000
  117        1.343343   0.000000
  118        1.786089   0.000000
  119        1.955564   0.000000
  120        2.284348   0.000000
 
  0.2500000E+00  0.1250000E+00  0.0000000E+00  0.3125000E-01
    1      -17.690026   1.000000
    2      -17.113578   1.000000
    3      -16.845039   1.000000
    4      -16.703169   1.000000
    5      -16.528671   1.000000
    6      -16.470279   1.000000
    7      -16.333069   1.000000
    8      -16.276897   1.000000
    9      -16.213052   1.000000
   10      -16.072236   1.000000
   11      -15.949275   1.000000
   12      -15.838851   1.000000
   13      -15.785044   1.000000
   14      -15.590904   1.000000
   15      -15.551295   1.000000
   16      -15.444677   1.000000
   17      -15.326384   1.000000
   18      -15.245411   1.000000
   19       -9.710288   1.000000
   20       -9.438125   1.000000
   21       -9.224620   1.000000
   22       -9.158396   1.000000
   23       -8.794505   1.000000
   24       -8.728739   1.000000
   25       -8.562505   1.000000
   26       -8.538460   1.000000
   27       -8.472993   1.000000
   28       -8.373042   1.000000
   29       -8.317340   1.000000
   30       -8.252190   1.000000
   31       -8.146323   1.000000
   32       -8.142192   1.000000
   33       -7.973674   1.000000
   34       -7.906699   1.000000
   35       -7.802566   1.000000
   36       -7.537062   1.000000
   37       -7.487396   1.000000
   38       -7.416655   1.000000
   39       -7.384453   1.000000
   40       -7.338211   1.000000
   41       -7.230415   1.000000
   42       -7.193775   1.000000
   43       -7.127529   1.000000
   44       -6.972505   1.000000
   45       -6.901361   1.000000
   46       -6.877727   1.000000
   47       -6.778333   1.000000