       N       E                     dE             d eps       ncg     rms          rms(c)
DAV:   1     0.112626641065E+04    0.11263E+04   -0.35979E+04  8160   0.577E+02
DAV:   2    -0.720193549000E+00   -0.11270E+04   -0.10843E+04 11280   0.173E+02
DAV:   3    -0.199744105401E+03   -0.19902E+03   -0.19113E+03 10920   0.822E+01
DAV:   4    -0.208979629153E+03   -0.92355E+01   -0.89482E+01 12080   0.262E+01
DAV:   5    -0.209314100549E+03   -0.33447E+00   -0.33357E+00 11520   0.360E+00    0.275E+01
DAV:   6    -0.237225730171E+03   -0.27912E+02   -0.10631E+02 12640   0.605E+01    0.595E+01
DAV:   7    -0.196471787216E+03    0.40754E+02   -0.17628E+02 13160   0.152E+02    0.200E+01
DAV:   8    -0.189426040715E+03    0.70457E+01   -0.17560E+01 11840   0.127E+01    0.125E+01
DAV:   9    -0.188229576914E+03    0.11965E+01   -0.35797E+00 12520   0.614E+00    0.929E+00
DAV:  10    -0.187079473807E+03    0.11501E+01   -0.20079E+00 13320   0.733E+00    0.319E+00
DAV:  11    -0.187029838561E+03    0.49635E-01   -0.72308E-01 13560   0.321E+00    0.343E+00
DAV:  12    -0.187173504933E+03   -0.14367E+00   -0.11491E+00 12600   0.556E+00    0.487E+00
DAV:  13    -0.186927013537E+03    0.24649E+00   -0.49577E-01 13240   0.359E+00    0.215E+00
DAV:  14    -0.186879706728E+03    0.47307E-01   -0.11157E-01 13320   0.163E+00    0.774E-01
DAV:  15    -0.186881636336E+03   -0.19296E-02   -0.41878E-02 12280   0.118E+00    0.118E+00
DAV:  16    -0.186872614725E+03    0.90216E-02   -0.20740E-02 13440   0.812E-01    0.565E-01
DAV:  17    -0.186869278136E+03    0.33366E-02   -0.98788E-03 12560   0.520E-01    0.221E-01
DAV:  18    -0.186869086379E+03    0.19176E-03   -0.20541E-03 11840   0.150E-01    0.154E-01
DAV:  19    -0.186868738401E+03    0.34798E-03   -0.89841E-04 11200   0.104E-01    0.509E-02
DAV:  20    -0.186869504859E+03   -0.76646E-03   -0.74167E-04  9200   0.626E-02    0.540E-02
DAV:  21    -0.186870109945E+03   -0.60509E-03   -0.20907E-04  8160   0.455E-02    0.323E-02
DAV:  22    -0.186871220523E+03   -0.11106E-02   -0.17965E-04  7560   0.420E-02    0.332E-02
DAV:  23    -0.186872446627E+03   -0.12261E-02   -0.13142E-04  7560   0.410E-02    0.120E-02
DAV:  24    -0.186873032379E+03   -0.58575E-03   -0.25136E-05  6840   0.133E-02    0.759E-03
DAV:  25    -0.186873411092E+03   -0.37871E-03   -0.15774E-05  5480   0.118E-02    0.488E-03
DAV:  26    -0.186873629701E+03   -0.21861E-03   -0.82928E-06  6840   0.712E-03    0.209E-03
DAV:  27    -0.186873733650E+03   -0.10395E-03   -0.38360E-06  6920   0.409E-03    0.127E-03
DAV:  28    -0.186873783885E+03   -0.50235E-04   -0.20967E-06  7200   0.299E-03
   1 F= -.18687378E+03 E0= -.18670211E+03  d E =-.186874E+03
       N       E                     dE             d eps       ncg     rms          rms(c)
DAV:   1    -0.187499213183E+03   -0.62548E+00   -0.27028E+02  8160   0.349E+01    0.465E+00
DAV:   2    -0.189500337399E+03   -0.20011E+01   -0.20289E+01 12240   0.156E+01    0.984E+00
DAV:   3    -0.189340595506E+03    0.15974E+00   -0.49345E+00 12440   0.126E+01    0.629E+00
DAV:   4    -0.188767370201E+03    0.57323E+00   -0.56108E-01 11920   0.439E+00    0.201E+00
DAV:   5    -0.188899813807E+03   -0.13244E+00   -0.48349E-01 12160   0.390E+00    0.550E+00
DAV:   6    -0.188742604659E+03    0.15721E+00   -0.78773E-01 12720   0.436E+00    0.229E+00
DAV:   7    -0.188712079895E+03    0.30525E-01   -0.21118E-01 11760   0.214E+00    0.202E+00
DAV:   8    -0.188695592824E+03    0.16487E-01   -0.11981E-01 12960   0.208E+00    0.174E+00
DAV:   9    -0.188670401103E+03    0.25192E-01   -0.48147E-02 12000   0.113E+00    0.506E-01
DAV:  10    -0.188668725215E+03    0.16759E-02   -0.58580E-03 11120   0.273E-01    0.259E-01
DAV:  11    -0.188668173238E+03    0.55198E-03   -0.28819E-03 13160   0.222E-01    0.139E-01
DAV:  12    -0.188668110903E+03    0.62335E-04   -0.10824E-03 11800   0.103E-01    0.104E-01
DAV:  13    -0.188668091563E+03    0.19339E-04   -0.27232E-04  7560   0.677E-02
   2 F= -.18866809E+03 E0= -.18852823E+03  d E =-.179431E+01
       N       E                     dE             d eps       ncg     rms          rms(c)
DAV:   1    -0.190590505282E+03   -0.19224E+01   -0.31015E+01  9200   0.142E+01    0.446E+00
DAV:   2    -0.190573116426E+03    0.17389E-01   -0.28211E+00 11120   0.969E+00    0.741E+00
DAV:   3    -0.190062429048E+03    0.51069E+00   -0.13093E+00 12280   0.867E+00    0.416E+00
DAV:   4    -0.189856198458E+03    0.20623E+00   -0.68902E-01 12760   0.413E+00    0.248E+00
DAV:   5    -0.189792303804E+03    0.63895E-01   -0.31332E-01 11080   0.237E+00    0.202E+00
DAV:   6    -0.189759770322E+03    0.32533E-01   -0.10679E-01 12720   0.195E+00    0.840E-01
DAV:   7    -0.189752325491E+03    0.74448E-02   -0.14938E-02 12520   0.585E-01    0.195E-01
DAV:   8    -0.189752341364E+03   -0.15873E-04   -0.26840E-03 10240   0.157E-01    0.138E-01
DAV:   9    -0.189752559829E+03   -0.21847E-03   -0.10294E-03 10400   0.104E-01    0.128E-01
DAV:  10    -0.189752430571E+03    0.12926E-03   -0.51664E-04  9080   0.826E-02    0.302E-02
DAV:  11    -0.189752447346E+03   -0.16776E-04   -0.99755E-05  7000   0.436E-02
   3 F= -.18975245E+03 E0= -.18963512E+03  d E =-.108436E+01
       N       E                     dE             d eps       ncg     rms          rms(c)
DAV:   1    -0.191296742073E+03   -0.15443E+01   -0.71118E+01  8160   0.193E+01    0.461E+00
DAV:   2    -0.191186383441E+03    0.11036E+00   -0.54085E+00 13400   0.838E+00    0.519E+00
DAV:   3    -0.191236446170E+03   -0.50063E-01   -0.15765E+00 11800   0.922E+00    0.686E+00
DAV:   4    -0.190907452278E+03    0.32899E+00   -0.15624E+00 12600   0.786E+00    0.408E+00
DAV:   5    -0.190896435656E+03    0.11017E-01   -0.86411E-01 11200   0.587E+00    0.360E+00
DAV:   6    -0.190713051372E+03    0.18338E+00   -0.20635E-01 11160   0.298E+00    0.604E-01
DAV:   7    -0.190711997290E+03    0.10541E-02   -0.37485E-02 11400   0.735E-01    0.503E-01
DAV:   8    -0.190710487679E+03    0.15096E-02   -0.11617E-02 11480   0.678E-01    0.508E-01
DAV:   9    -0.190708202375E+03    0.22853E-02   -0.39779E-03 11200   0.466E-01    0.146E-01
DAV:  10    -0.190708435509E+03   -0.23313E-03   -0.10954E-03 10520   0.129E-01    0.920E-02
DAV:  11    -0.190708353355E+03    0.82154E-04   -0.53033E-04  9480   0.813E-02
   4 F= -.19070835E+03 E0= -.19060996E+03  d E =-.955906E+00
       N       E                     dE             d eps       ncg     rms          rms(c)
DAV:   1    -0.192132181424E+03   -0.14237E+01   -0.14773E+02  8160   0.273E+01    0.583E+00
DAV:   2    -0.191961131657E+03    0.17105E+00   -0.96976E+00 12200   0.951E+00    0.554E+00
DAV:   3    -0.192410627738E+03   -0.44950E+00   -0.33133E+00 12240   0.126E+01    0.944E+00
DAV:   4    -0.191539516157E+03    0.87111E+00   -0.21975E+00 12320   0.106E+01    0.302E+00
DAV:   5    -0.191509844061E+03    0.29672E-01   -0.54577E-01 11840   0.486E+00    0.414E+00
DAV:   6    -0.191372981907E+03    0.13686E+00   -0.58755E-01 12200   0.513E+00    0.159E+00
DAV:   7    -0.191348315737E+03    0.24666E-01   -0.69670E-02 11920   0.145E+00    0.677E-01
DAV:   8    -0.191346933524E+03    0.13822E-02   -0.24092E-02 12080   0.109E+00    0.747E-01
DAV:   9    -0.191341475398E+03    0.54581E-02   -0.97557E-03 11400   0.744E-01    0.231E-01
DAV:  10    -0.191341598637E+03   -0.12324E-03   -0.27460E-03 11520   0.225E-01    0.119E-01
DAV:  11    -0.191341457397E+03    0.14124E-03   -0.87144E-04 10720   0.108E-01    0.656E-02
DAV:  12    -0.191341423887E+03    0.33510E-04   -0.13962E-04  7160   0.475E-02
   5 F= -.19134142E+03 E0= -.19124828E+03  d E =-.633071E+00
       N       E                     dE             d eps       ncg     rms          rms(c)
DAV:   1    -0.191388272622E+03   -0.46815E-01   -0.35402E+00  8160   0.400E+00    0.595E-01
DAV:   2    -0.191446766540E+03   -0.58494E-01   -0.22625E-01 12400   0.279E+00    0.229E+00
DAV:   3    -0.191397125003E+03    0.49642E-01   -0.10647E-01 12040   0.224E+00    0.479E-01
DAV:   4    -0.191397441096E+03   -0.31609E-03   -0.13232E-02 11480   0.786E-01    0.537E-01
DAV:   5    -0.191394505486E+03    0.29356E-02   -0.58874E-03 11520   0.548E-01    0.178E-01
DAV:   6    -0.191394622901E+03   -0.11742E-03   -0.20766E-03 11480   0.285E-01    0.227E-01
DAV:   7    -0.191394479396E+03    0.14350E-03   -0.21907E-03 10960   0.351E-01    0.182E-01
DAV:   8    -0.191394083502E+03    0.39589E-03   -0.67187E-04  9000   0.170E-01    0.273E-02
DAV:   9    -0.191394098950E+03   -0.15448E-04   -0.89417E-05  6400   0.360E-02
   6 F= -.19139410E+03 E0= -.19129859E+03  d E =-.526751E-01
       N       E                     dE             d eps       ncg     rms          rms(c)
DAV:   1    -0.191463898531E+03   -0.69815E-01   -0.10292E+01  8160   0.678E+00    0.901E-01
DAV:   2    -0.191564841690E+03   -0.10094E+00   -0.41618E-01 12560   0.314E+00    0.322E+00
DAV:   3    -0.191479212445E+03    0.85629E-01   -0.26970E-01 11960   0.324E+00    0.893E-01
DAV:   4    -0.191478644560E+03    0.56789E-03   -0.35985E-02 11400   0.126E+00    0.904E-01
DAV:   5    -0.191470228751E+03    0.84158E-02   -0.17860E-02 11680   0.980E-01    0.330E-01
DAV:   6    -0.191470062193E+03    0.16656E-03   -0.62265E-03 11440   0.501E-01    0.369E-01
DAV:   7    -0.191469444063E+03    0.61813E-03   -0.54838E-03 11160   0.560E-01    0.268E-01
DAV:   8    -0.191468620211E+03    0.82385E-03   -0.15870E-03 10320   0.269E-01    0.507E-02
DAV:   9    -0.191468597309E+03    0.22902E-04   -0.17369E-04  6720   0.566E-02
   7 F= -.19146860E+03 E0= -.19137120E+03  d E =-.744984E-01
       N       E                     dE             d eps       ncg     rms          rms(c)
DAV:   1    -0.191478943286E+03   -0.10323E-01   -0.22266E-01  8160   0.109E+00    0.252E-01
DAV:   2    -0.191479557753E+03   -0.61447E-03   -0.14957E-02 11480   0.554E-01    0.427E-01
DAV:   3    -0.191478183681E+03    0.13741E-02   -0.67722E-03 11480   0.603E-01    0.255E-01
DAV:   4    -0.191477919453E+03    0.26423E-03   -0.31798E-03 11200   0.364E-01    0.259E-01
DAV:   5    -0.191477444972E+03    0.47448E-03   -0.22677E-03  9720   0.338E-01    0.164E-01
DAV:   6    -0.191477188264E+03    0.25671E-03   -0.85561E-04  9480   0.180E-01    0.816E-02
DAV:   7    -0.191477150300E+03    0.37964E-04   -0.26675E-04  6720   0.117E-01
   8 F= -.19147715E+03 E0= -.19137946E+03  d E =-.855299E-02
       N       E                     dE             d eps       ncg     rms          rms(c)
DAV:   1    -0.191519150044E+03   -0.41962E-01   -0.34720E+00  8160   0.396E+00    0.511E-01
DAV:   2    -0.191555651503E+03   -0.36501E-01   -0.14513E-01 13160   0.205E+00    0.188E+00
DAV:   3    -0.191524340546E+03    0.31311E-01   -0.78729E-02 12040   0.184E+00    0.453E-01
DAV:   4    -0.191524816755E+03   -0.47621E-03   -0.10958E-02 11480   0.700E-01    0.516E-01
DAV:   5    -0.191522194266E+03    0.26225E-02   -0.58302E-03 11560   0.544E-01    0.187E-01
DAV:   6    -0.191522204805E+03   -0.10539E-04   -0.20029E-03 10520   0.297E-01    0.213E-01
DAV:   7    -0.191522020236E+03    0.18457E-03   -0.17968E-03 10200   0.323E-01    0.151E-01
DAV:   8    -0.191521725018E+03    0.29522E-03   -0.51001E-04  8400   0.154E-01    0.270E-02
DAV:   9    -0.191521722440E+03    0.25782E-05   -0.70438E-05  6800   0.355E-02
   9 F= -.19152172E+03 E0= -.19142410E+03  d E =-.445721E-01
       N       E                     dE             d eps       ncg     rms          rms(c)
DAV:   1    -0.191531554874E+03   -0.98299E-02   -0.16733E-01  8160   0.879E-01    0.123E-01
DAV:   2    -0.191533449047E+03   -0.18942E-02   -0.82340E-03 12640   0.501E-01    0.411E-01
DAV:   3    -0.191531779375E+03    0.16697E-02   -0.35344E-03 11560   0.417E-01    0.993E-02
DAV:   4    -0.191531852285E+03   -0.72911E-04   -0.60719E-04  8320   0.170E-01
  10 F= -.19153185E+03 E0= -.19143434E+03  d E =-.101298E-01
       N       E                     dE             d eps       ncg     rms          rms(c)
DAV:   1    -0.191552151104E+03   -0.20372E-01   -0.72836E-01  8160   0.185E+00    0.274E-01
DAV:   2    -0.191561835031E+03   -0.96839E-02   -0.38128E-02 12200   0.106E+00    0.101E+00
DAV:   3    -0.191552975390E+03    0.88596E-02   -0.21380E-02 10840   0.931E-01    0.223E-01
DAV:   4    -0.191553073118E+03   -0.97729E-04   -0.27586E-03 11240   0.349E-01    0.253E-01
DAV:   5    -0.191552441454E+03    0.63166E-03   -0.16363E-03 10480   0.299E-01    0.115E-01
DAV:   6    -0.191552381594E+03    0.59860E-04   -0.68355E-04  9520   0.165E-01
  11 F= -.19155238E+03 E0= -.19145533E+03  d E =-.205293E-01
       N       E                     dE             d eps       ncg     rms          rms(c)
DAV:   1    -0.191586226460E+03   -0.33785E-01   -0.33033E+00  8160   0.387E+00    0.584E-01
DAV:   2    -0.191658696215E+03   -0.72470E-01   -0.21564E-01 11960   0.267E+00    0.299E+00
DAV:   3    -0.191591155951E+03    0.67540E-01   -0.16681E-01 11640   0.240E+00    0.374E-01
DAV:   4    -0.191591680095E+03   -0.52414E-03   -0.86219E-03 11520   0.647E-01    0.482E-01
DAV:   5    -0.191589343867E+03    0.23362E-02   -0.56716E-03 11720   0.602E-01    0.203E-01
DAV:   6    -0.191589164388E+03    0.17948E-03   -0.19245E-03 10400   0.274E-01    0.159E-01
DAV:   7    -0.191589226276E+03   -0.61888E-04   -0.14732E-03 10600   0.302E-01    0.173E-01
DAV:   8    -0.191588822813E+03    0.40346E-03   -0.52794E-04  8480   0.170E-01    0.228E-02
DAV:   9    -0.191588830435E+03   -0.76216E-05   -0.67028E-05  5640   0.308E-02
  12 F= -.19158883E+03 E0= -.19149386E+03  d E =-.364488E-01
       N       E                     dE             d eps       ncg     rms          rms(c)
DAV:   1    -0.191594124945E+03   -0.53021E-02   -0.97492E-01  8160   0.209E+00    0.394E-01
DAV:   2    -0.191629154504E+03   -0.35030E-01   -0.99878E-02 12240   0.211E+00    0.184E+00
DAV:   3    -0.191594941020E+03    0.34213E-01   -0.51517E-02 11600   0.167E+00    0.185E-01
DAV:   4    -0.191595043561E+03   -0.10254E-03   -0.27962E-03 11400   0.335E-01    0.235E-01
DAV:   5    -0.191594554151E+03    0.48941E-03   -0.13730E-03 10560   0.277E-01    0.125E-01
DAV:   6    -0.191594405896E+03    0.14825E-03   -0.47880E-04  8680   0.125E-01    0.781E-02
DAV:   7    -0.191594516256E+03   -0.11036E-03   -0.58748E-04  9720   0.185E-01    0.129E-01
DAV:   8    -0.191594323547E+03    0.19271E-03   -0.30621E-04  7080   0.135E-01    0.204E-02
DAV:   9    -0.191594331059E+03   -0.75122E-05   -0.36689E-05  5680   0.243E-02
  13 F= -.19159433E+03 E0= -.19149922E+03  d E =-.550062E-02
       N       E                     dE             d eps       ncg     rms          rms(c)
DAV:   1    -0.191636086537E+03   -0.41763E-01   -0.31533E+00  8160   0.379E+00    0.409E-01
DAV:   2    -0.191649023860E+03   -0.12937E-01   -0.10044E-01 13080   0.126E+00    0.931E-01
DAV:   3    -0.191642341343E+03    0.66825E-02   -0.29415E-02 12040   0.114E+00    0.465E-01
DAV:   4    -0.191641553322E+03    0.78802E-03   -0.71875E-03 11200   0.575E-01    0.396E-01
DAV:   5    -0.191639967249E+03    0.15861E-02   -0.37545E-03 11240   0.472E-01    0.180E-01
DAV:   6    -0.191639975610E+03   -0.83612E-05   -0.18536E-03 10600   0.263E-01    0.171E-01
DAV:   7    -0.191639947624E+03    0.27986E-04   -0.14919E-03 10240   0.299E-01    0.169E-01
DAV:   8    -0.191639584334E+03    0.36329E-03   -0.51924E-04  8200   0.177E-01    0.219E-02
DAV:   9    -0.191639589684E+03   -0.53508E-05   -0.51951E-05  6360   0.289E-02
  14 F= -.19163959E+03 E0= -.19154748E+03  d E =-.452586E-01
       N       E                     dE             d eps       ncg     rms          rms(c)
DAV:   1    -0.191579789726E+03    0.59795E-01   -0.47377E+00  8160   0.465E+00    0.480E-01
DAV:   2    -0.191592320766E+03   -0.12531E-01   -0.13832E-01 12480   0.121E+00    0.724E-01
DAV:   3    -0.191590399511E+03    0.19213E-02   -0.26920E-02 12080   0.115E+00    0.699E-01
DAV:   4    -0.191587279702E+03    0.31198E-02   -0.13903E-02 12200   0.731E-01    0.427E-01
DAV:   5    -0.191585732845E+03    0.15469E-02   -0.54463E-03 11040   0.529E-01    0.248E-01
DAV:   6    -0.191585532156E+03    0.20069E-03   -0.29965E-03 10960   0.342E-01    0.192E-01
DAV:   7    -0.191585568196E+03   -0.36040E-04   -0.20164E-03 11200   0.333E-01    0.216E-01
DAV:   8    -0.191585015364E+03    0.55283E-03   -0.80533E-04  9160   0.224E-01    0.277E-02
DAV:   9    -0.191585024889E+03   -0.95257E-05   -0.63453E-05  6520   0.329E-02
  15 F= -.19158502E+03 E0= -.19148952E+03  d E =0.545648E-01
       N       E                     dE             d eps       ncg     rms          rms(c)
DAV:   1    -0.191587258698E+03   -0.22433E-02   -0.13254E+00  8160   0.250E+00    0.368E-01
DAV:   2    -0.191606161188E+03   -0.18902E-01   -0.66190E-02 12560   0.146E+00    0.144E+00
DAV:   3    -0.191588297895E+03    0.17863E-01   -0.38751E-02 12080   0.130E+00    0.277E-01
DAV:   4    -0.191589151199E+03   -0.85330E-03   -0.56734E-03 11240   0.501E-01    0.408E-01
DAV:   5    -0.191587532364E+03    0.16188E-02   -0.39095E-03 10560   0.460E-01    0.155E-01
DAV:   6    -0.191587322710E+03    0.20965E-03   -0.10337E-03 10040   0.182E-01    0.849E-02
DAV:   7    -0.191587333313E+03   -0.10603E-04   -0.50941E-04 10240   0.167E-01
  16 F= -.19158733E+03 E0= -.19149266E+03  d E =-.230842E-02
       N       E                     dE             d eps       ncg     rms          rms(c)
DAV:   1    -0.191582632180E+03    0.46905E-02   -0.16162E+00  8160   0.276E+00    0.367E-01
DAV:   2    -0.191591408990E+03   -0.87768E-02   -0.55755E-02 12040   0.117E+00    0.888E-01
DAV:   3    -0.191584579291E+03    0.68297E-02   -0.20483E-02 12440   0.104E+00    0.403E-01
DAV:   4    -0.191584218867E+03    0.36042E-03   -0.55807E-03 10720   0.513E-01    0.364E-01
DAV:   5    -0.191583098521E+03    0.11203E-02   -0.37097E-03 10520   0.468E-01    0.206E-01
DAV:   6    -0.191582869650E+03    0.22887E-03   -0.17444E-03 10640   0.281E-01    0.155E-01
DAV:   7    -0.191582805696E+03    0.63954E-04   -0.11476E-03 10320   0.257E-01    0.140E-01
DAV:   8    -0.191582571594E+03    0.23410E-03   -0.38515E-04  8520   0.140E-01    0.223E-02
DAV:   9    -0.191582572194E+03   -0.60026E-06   -0.38511E-05  6000   0.255E-02
  17 F= -.19158257E+03 E0= -.19148934E+03  d E =0.476112E-02
       N       E                     dE             d eps       ncg     rms          rms(c)
DAV:   1    -0.191614565505E+03   -0.31994E-01   -0.35811E+00  8160   0.407E+00    0.472E-01
DAV:   2    -0.191629623217E+03   -0.15058E-01   -0.11926E-01 13240   0.141E+00    0.103E+00
DAV:   3    -0.191621398120E+03    0.82251E-02   -0.34346E-02 12080   0.128E+00    0.542E-01
DAV:   4    -0.191620495422E+03    0.90270E-03   -0.11004E-02 12320   0.702E-01    0.498E-01
DAV:   5    -0.191618112125E+03    0.23833E-02   -0.61452E-03 11520   0.579E-01    0.224E-01
DAV:   6    -0.191617886059E+03    0.22607E-03   -0.25928E-03 10320   0.303E-01    0.179E-01
DAV:   7    -0.191617983199E+03   -0.97140E-04   -0.19121E-03 10640   0.341E-01    0.209E-01
DAV:   8    -0.191617450208E+03    0.53299E-03   -0.76191E-04  9120   0.220E-01    0.285E-02
DAV:   9    -0.191617449645E+03    0.56269E-06   -0.61677E-05  6280   0.330E-02
  18 F= -.19161745E+03 E0= -.19152476E+03  d E =-.348775E-01
       N       E                     dE             d eps       ncg     rms          rms(c)
DAV:   1    -0.191652705449E+03   -0.35255E-01   -0.31738E+00  8160   0.381E+00    0.432E-01
DAV:   2    -0.191668974786E+03   -0.16269E-01   -0.10935E-01 13000   0.139E+00    0.115E+00
DAV:   3    -0.191658771319E+03    0.10203E-01   -0.36188E-02 12000   0.124E+00    0.456E-01
DAV:   4    -0.191658222242E+03    0.54908E-03   -0.75659E-03 11280   0.595E-01    0.416E-01
DAV:   5    -0.191656401532E+03    0.18207E-02   -0.41502E-03 10880   0.499E-01    0.183E-01
DAV:   6    -0.191656443592E+03   -0.42061E-04   -0.20117E-03 11400   0.280E-01    0.182E-01
DAV:   7    -0.191656318460E+03    0.12513E-03   -0.14618E-03 10360   0.305E-01    0.157E-01
DAV:   8    -0.191655994682E+03    0.32378E-03   -0.46733E-04  8840   0.170E-01    0.236E-02
DAV:   9    -0.191655993120E+03    0.15625E-05   -0.51394E-05  6360   0.296E-02
  19 F= -.19165599E+03 E0= -.19156575E+03  d E =-.385435E-01
       N       E                     dE             d eps       ncg     rms          rms(c)
DAV:   1    -0.191659555475E+03   -0.35608E-02   -0.33157E-02  8160   0.395E-01    0.563E-02
DAV:   2    -0.191659891439E+03   -0.33596E-03   -0.16916E-03 12360   0.204E-01    0.180E-01
DAV:   3    -0.191659597348E+03    0.29409E-03   -0.63782E-04  8320   0.176E-01    0.465E-02
DAV:   4    -0.191659606072E+03   -0.87236E-05   -0.97308E-05  5480   0.723E-02
  20 F= -.19165961E+03 E0= -.19156972E+03  d E =-.361295E-02
       N       E                     dE             d eps       ncg     rms          rms(c)
DAV:   1    -0.191667290897E+03   -0.76935E-02   -0.51653E-01  8160   0.158E+00    0.284E-01
DAV:   2    -0.191674323629E+03   -0.70327E-02   -0.29763E-02 12120   0.109E+00    0.829E-01
DAV:   3    -0.191666503785E+03    0.78198E-02   -0.12678E-02 12040   0.892E-01    0.168E-01
DAV:   4    -0.191666850747E+03   -0.34696E-03   -0.23811E-03 10720   0.345E-01    0.260E-01
DAV:   5    -0.191666409837E+03    0.44091E-03   -0.22188E-03 10000   0.367E-01    0.201E-01
DAV:   6    -0.191666098615E+03    0.31122E-03   -0.12160E-03  9520   0.229E-01    0.117E-01
DAV:   7    -0.191666020383E+03    0.78232E-04   -0.48625E-04  8280   0.164E-01
  21 F= -.19166602E+03 E0= -.19157605E+03  d E =-.641431E-02
       N       E                     dE             d eps       ncg     rms          rms(c)
DAV:   1    -0.191670278443E+03   -0.41798E-02   -0.31798E-01  8160   0.122E+00    0.180E-01
DAV:   2    -0.191674439798E+03   -0.41614E-02   -0.15267E-02 12240   0.728E-01    0.639E-01
DAV:   3    -0.191670477983E+03    0.39618E-02   -0.73629E-03 11440   0.626E-01    0.126E-01
DAV:   4    -0.191670801722E+03   -0.32374E-03   -0.13259E-03  9880   0.256E-01    0.215E-01
DAV:   5    -0.191670324232E+03    0.47749E-03   -0.92173E-04  8880   0.226E-01    0.597E-02
DAV:   6    -0.191670350485E+03   -0.26253E-04   -0.22337E-04  6520   0.103E-01
  22 F= -.19167035E+03 E0= -.19158132E+03  d E =-.433010E-02
       N       E                     dE             d eps       ncg     rms          rms(c)
DAV:   1    -0.191705442876E+03   -0.35119E-01   -0.23606E+00  8160   0.336E+00    0.452E-01
DAV:   2    -0.191713189925E+03   -0.77470E-02   -0.90785E-02 13400   0.124E+00    0.720E-01
DAV:   3    -0.191708529618E+03    0.46603E-02   -0.17168E-02 12240   0.109E+00    0.397E-01
DAV:   4    -0.191706367161E+03    0.21625E-02   -0.46249E-03 12200   0.481E-01    0.199E-01
DAV:   5    -0.191706139997E+03    0.22716E-03   -0.28007E-03 11800   0.313E-01    0.210E-01
DAV:   6    -0.191706132748E+03    0.72481E-05   -0.26257E-03 11600   0.391E-01    0.222E-01
DAV:   7    -0.191705562959E+03    0.56979E-03   -0.10166E-03  9360   0.225E-01    0.561E-02
DAV:   8    -0.191705588585E+03   -0.25626E-04   -0.21961E-04  6520   0.105E-01
  23 F= -.19170559E+03 E0= -.19161905E+03  d E =-.352381E-01
       N       E                     dE             d eps       ncg     rms          rms(c)
DAV:   1    -0.191727804864E+03   -0.22242E-01   -0.10232E+00  8160   0.215E+00    0.221E-01
DAV:   2    -0.191730751247E+03   -0.29464E-02   -0.31787E-02 12000   0.637E-01    0.368E-01
DAV:   3    -0.191730218237E+03    0.53301E-03   -0.59065E-03 12400   0.563E-01    0.305E-01
DAV:   4    -0.191729457823E+03    0.76041E-03   -0.19227E-03  9800   0.310E-01    0.146E-01
DAV:   5    -0.191729387471E+03    0.70352E-04   -0.97913E-04 10160   0.255E-01
  24 F= -.19172939E+03 E0= -.19164538E+03  d E =-.237989E-01
       N       E                     dE             d eps       ncg     rms          rms(c)
DAV:   1    -0.191765422220E+03   -0.35964E-01   -0.22380E+00  8160   0.320E+00    0.333E-01
DAV:   2    -0.191769467067E+03   -0.40448E-02   -0.62360E-02 12080   0.741E-01    0.344E-01
DAV:   3    -0.191770603084E+03   -0.11360E-02   -0.94498E-03 12240   0.716E-01    0.492E-01
DAV:   4    -0.191768518438E+03    0.20846E-02   -0.58053E-03 10840   0.542E-01    0.258E-01
DAV:   5    -0.191768202542E+03    0.31590E-03   -0.20595E-03  9960   0.380E-01    0.197E-01
DAV:   6    -0.191767993519E+03    0.20902E-03   -0.11601E-03 11720   0.242E-01    0.108E-01
DAV:   7    -0.191767837759E+03    0.15576E-03   -0.41833E-04  9040   0.147E-01    0.723E-02
DAV:   8    -0.191767784363E+03    0.53396E-04   -0.12008E-04  6000   0.953E-02
  25 F= -.19176778E+03 E0= -.19168680E+03  d E =-.383969E-01
       N       E                     dE             d eps       ncg     rms          rms(c)
DAV:   1    -0.191774918650E+03   -0.70809E-02   -0.84847E-02  8160   0.624E-01    0.676E-02
DAV:   2    -0.191775101688E+03   -0.18304E-03   -0.27811E-03 12640   0.159E-01    0.719E-02
DAV:   3    -0.191775147601E+03   -0.45913E-04   -0.41174E-04  9560   0.151E-01
  26 F= -.19177515E+03 E0= -.19169528E+03  d E =-.736324E-02
       N       E                     dE             d eps       ncg     rms          rms(c)
DAV:   1    -0.191838672394E+03   -0.63571E-01   -0.73484E+00  8160   0.581E+00    0.608E-01
DAV:   2    -0.191853125988E+03   -0.14454E-01   -0.21734E-01 12000   0.141E+00    0.610E-01
DAV:   3    -0.191855771382E+03   -0.26454E-02   -0.28806E-02 12200   0.136E+00    0.805E-01
DAV:   4    -0.191848095420E+03    0.76760E-02   -0.12880E-02 11480   0.965E-01    0.289E-01
DAV:   5    -0.191847869690E+03    0.22573E-03   -0.46951E-03 11200   0.467E-01    0.297E-01
DAV:   6    -0.191847587965E+03    0.28172E-03   -0.41737E-03 12960   0.531E-01    0.245E-01
DAV:   7    -0.191846708282E+03    0.87968E-03   -0.14699E-03 10720   0.272E-01    0.615E-02
DAV:   8    -0.191846731057E+03   -0.22775E-04   -0.29075E-04  8600   0.122E-01
  27 F= -.19184673E+03 E0= -.19177187E+03  d E =-.715835E-01
       N       E                     dE             d eps       ncg     rms          rms(c)
DAV:   1    -0.191879717391E+03   -0.33009E-01   -0.15725E+00  8160   0.269E+00    0.357E-01
DAV:   2    -0.191894014636E+03   -0.14297E-01   -0.69711E-02 12000   0.134E+00    0.102E+00
DAV:   3    -0.191882500827E+03    0.11514E-01   -0.17715E-02 11760   0.113E+00    0.240E-01
DAV:   4    -0.191882426231E+03    0.74596E-04   -0.24517E-03 11520   0.360E-01    0.227E-01
DAV:   5    -0.191881918779E+03    0.50745E-03   -0.14677E-03 11440   0.337E-01    0.136E-01
DAV:   6    -0.191881867491E+03    0.51289E-04   -0.74582E-04 10480   0.186E-01
  28 F= -.19188187E+03 E0= -.19180858E+03  d E =-.351364E-01
       N       E                     dE             d eps       ncg     rms          rms(c)
DAV:   1    -0.191904515173E+03   -0.22596E-01   -0.77220E-01  8160   0.188E+00    0.231E-01
DAV:   2    -0.191909024387E+03   -0.45092E-02   -0.28544E-02 11840   0.752E-01    0.541E-01
DAV:   3    -0.191905937389E+03    0.30870E-02   -0.69439E-03 12080   0.684E-01    0.193E-01
DAV:   4    -0.191905927153E+03    0.10236E-04   -0.12336E-03  9880   0.287E-01    0.188E-01
DAV:   5    -0.191905545637E+03    0.38152E-03   -0.70180E-04 10440   0.248E-01    0.766E-02
DAV:   6    -0.191905595102E+03   -0.49466E-04   -0.33210E-04  8960   0.117E-01
  29 F= -.19190560E+03 E0= -.19183387E+03  d E =-.237276E-01
       N       E                     dE             d eps       ncg     rms          rms(c)
DAV:   1    -0.191981762944E+03   -0.76217E-01   -0.19943E+01  8160   0.954E+00    0.108E+00
DAV:   2    -0.192068257582E+03   -0.86495E-01   -0.71895E-01 11760   0.327E+00    0.197E+00
DAV:   3    -0.192027957491E+03    0.40300E-01   -0.10823E-01 11440   0.284E+00    0.105E+00
DAV:   4    -0.192018319258E+03    0.96382E-02   -0.27077E-02 12640   0.126E+00    0.574E-01
DAV:   5    -0.192015879084E+03    0.24402E-02   -0.12500E-02 11840   0.966E-01    0.463E-01
DAV:   6    -0.192014966731E+03    0.91235E-03   -0.79343E-03 12840   0.701E-01    0.314E-01
DAV:   7    -0.192013300309E+03    0.16664E-02   -0.36874E-03 12000   0.355E-01    0.131E-01
DAV:   8    -0.192013205669E+03    0.94639E-04   -0.76464E-04 11480   0.217E-01
  30 F= -.19201321E+03 E0= -.19194661E+03  d E =-.107611E+00
       N       E                     dE             d eps       ncg     rms          rms(c)
DAV:   1    -0.192052279445E+03   -0.38979E-01   -0.18198E+01  8160   0.905E+00    0.103E+00
DAV:   2    -0.192130589773E+03   -0.78310E-01   -0.69953E-01 12080   0.315E+00    0.175E+00
DAV:   3    -0.192100701373E+03    0.29888E-01   -0.97787E-02 11880   0.273E+00    0.102E+00
DAV:   4    -0.192090724515E+03    0.99769E-02   -0.23736E-02 12480   0.124E+00    0.515E-01
DAV:   5    -0.192088897513E+03    0.18270E-02   -0.10169E-02 12400   0.890E-01    0.430E-01
DAV:   6    -0.192088276932E+03    0.62058E-03   -0.69191E-03 12800   0.665E-01    0.308E-01
DAV:   7    -0.192086842189E+03    0.14347E-02   -0.34577E-03 12160   0.377E-01    0.153E-01
DAV:   8    -0.192086637227E+03    0.20496E-03   -0.79109E-04 11200   0.224E-01    0.730E-02
DAV:   9    -0.192086575934E+03    0.61293E-04   -0.16728E-04  7880   0.879E-02
  31 F= -.19208658E+03 E0= -.19202365E+03  d E =-.733703E-01
       N       E                     dE             d eps       ncg     rms          rms(c)
DAV:   1    -0.192044488843E+03    0.42148E-01   -0.88079E+00  8160   0.638E+00    0.812E-01
DAV:   2    -0.192115888140E+03   -0.71399E-01   -0.29719E-01 11560   0.307E+00    0.258E+00
DAV:   3    -0.192054209954E+03    0.61678E-01   -0.13012E-01 11840   0.287E+00    0.569E-01
DAV:   4    -0.192052576177E+03    0.16338E-02   -0.11636E-02 12320   0.834E-01    0.514E-01
DAV:   5    -0.192049687572E+03    0.28886E-02   -0.76671E-03 12160   0.808E-01    0.324E-01
DAV:   6    -0.192048877207E+03    0.81036E-03   -0.38597E-03 12080   0.426E-01    0.175E-01
DAV:   7    -0.192048341273E+03    0.53593E-03   -0.15209E-03 12080   0.210E-01    0.101E-01
DAV:   8    -0.192048255612E+03    0.85661E-04   -0.37896E-04  9440   0.164E-01
  32 F= -.19204826E+03 E0= -.19198385E+03  d E =0.383203E-01
       N       E                     dE             d eps       ncg     rms          rms(c)
DAV:   1    -0.192093293205E+03   -0.44952E-01   -0.21121E+01  8160   0.988E+00    0.116E+00
DAV:   2    -0.192195537897E+03   -0.10224E+00   -0.74144E-01 12160   0.376E+00    0.230E+00
DAV:   3    -0.192132554835E+03    0.62983E-01   -0.12262E-01 12120   0.319E+00    0.917E-01
DAV:   4    -0.192124400368E+03    0.81545E-02   -0.24640E-02 12640   0.115E+00    0.562E-01
DAV:   5    -0.192121605723E+03    0.27946E-02   -0.13277E-02 12520   0.957E-01    0.457E-01
DAV:   6    -0.192121121061E+03    0.48466E-03   -0.84435E-03 12720   0.777E-01    0.364E-01
DAV:   7    -0.192118792177E+03    0.23289E-02   -0.35753E-03 12320   0.382E-01    0.840E-02
DAV:   8    -0.192118879824E+03   -0.87647E-04   -0.59005E-04 11520   0.187E-01
  33 F= -.19211888E+03 E0= -.19205662E+03  d E =-.706242E-01
       N       E                     dE             d eps       ncg     rms          rms(c)
DAV:   1    -0.192120274227E+03   -0.14820E-02   -0.18112E-01  8280   0.945E-01    0.193E-01
DAV:   2    -0.192122769003E+03   -0.24948E-02   -0.10973E-02 12200   0.735E-01    0.492E-01
DAV:   3    -0.192119847490E+03    0.29215E-02   -0.38842E-03 12280   0.592E-01    0.104E-01
DAV:   4    -0.192119876660E+03   -0.29170E-04   -0.71647E-04 10160   0.219E-01
  34 F= -.19211988E+03 E0= -.19205797E+03  d E =-.996836E-03
       N       E                     dE             d eps       ncg     rms          rms(c)
DAV:   1    -0.192128067876E+03   -0.82204E-02   -0.66737E-01  8160   0.175E+00    0.231E-01
DAV:   2    -0.192133068946E+03   -0.50011E-02   -0.27727E-02 12720   0.801E-01    0.570E-01
DAV:   3    -0.192129379417E+03    0.36895E-02   -0.61289E-03 12280   0.735E-01    0.165E-01
DAV:   4    -0.192129123928E+03    0.25549E-03   -0.85170E-04 10360   0.184E-01    0.807E-02
DAV:   5    -0.192129060312E+03    0.63617E-04   -0.39755E-04 11040   0.115E-01
  35 F= -.19212906E+03 E0= -.19206756E+03  d E =-.918365E-02
       N       E                     dE             d eps       ncg     rms          rms(c)
DAV:   1    -0.192137155427E+03   -0.80315E-02   -0.68580E-01  8160   0.178E+00    0.268E-01
DAV:   2    -0.192144671168E+03   -0.75157E-02   -0.32394E-02 12840   0.106E+00    0.741E-01
DAV:   3    -0.192138139910E+03    0.65313E-02   -0.97223E-03 12520   0.931E-01    0.151E-01
DAV:   4    -0.192137989922E+03    0.14999E-03   -0.77406E-04 10440   0.178E-01    0.114E-01
DAV:   5    -0.192137940128E+03    0.49793E-04   -0.52929E-04 10960   0.212E-01
  36 F= -.19213794E+03 E0= -.19207654E+03  d E =-.887982E-02
       N       E                     dE             d eps       ncg     rms          rms(c)
DAV:   1    -0.192144573441E+03   -0.65835E-02   -0.63027E-01  8160   0.169E+00    0.225E-01
DAV:   2    -0.192148235476E+03   -0.36620E-02   -0.24415E-02 12800   0.784E-01    0.480E-01
DAV:   3    -0.192145601979E+03    0.26335E-02   -0.51665E-03 12440   0.665E-01    0.163E-01
DAV:   4    -0.192145435192E+03    0.16679E-03   -0.87167E-04 10520   0.244E-01    0.127E-01
DAV:   5    -0.192145339090E+03    0.96102E-04   -0.52693E-04 10520   0.226E-01
  37 F= -.19214534E+03 E0= -.19208429E+03  d E =-.739896E-02
       N       E                     dE             d eps       ncg     rms          rms(c)
DAV:   1    -0.192152455229E+03   -0.70200E-02   -0.95262E+00  8160   0.657E+00    0.824E-01
DAV:   2    -0.192209887422E+03   -0.57432E-01   -0.37795E-01 13040   0.297E+00    0.176E+00
DAV:   3    -0.192171671211E+03    0.38216E-01   -0.69474E-02 12280   0.242E+00    0.575E-01
DAV:   4    -0.192169673907E+03    0.19973E-02   -0.11026E-02 12600   0.860E-01    0.481E-01
DAV:   5    -0.192167478404E+03    0.21955E-02   -0.66032E-03 11560   0.771E-01    0.308E-01
DAV:   6    -0.192167116759E+03    0.36165E-03   -0.40118E-03 12560   0.431E-01    0.192E-01
DAV:   7    -0.192166427113E+03    0.68965E-03   -0.15462E-03 11200   0.202E-01    0.776E-02
DAV:   8    -0.192166394511E+03    0.32602E-04   -0.27874E-04 10560   0.133E-01
  38 F= -.19216639E+03 E0= -.19210621E+03  d E =-.210554E-01
       N       E                     dE             d eps       ncg     rms          rms(c)
DAV:   1    -0.192158317348E+03    0.81098E-02   -0.16290E+00  8160   0.273E+00    0.381E-01
DAV:   2    -0.192172221389E+03   -0.13904E-01   -0.72910E-02 12360   0.153E+00    0.101E+00
DAV:   3    -0.192160828730E+03    0.11393E-01   -0.19764E-02 12280   0.126E+00    0.237E-01
DAV:   4    -0.192160608189E+03    0.22054E-03   -0.24109E-03 12480   0.407E-01    0.242E-01
DAV:   5    -0.192160023697E+03    0.58449E-03   -0.15966E-03 11760   0.384E-01    0.151E-01
DAV:   6    -0.192159878046E+03    0.14565E-03   -0.96605E-04 10320   0.204E-01    0.880E-02
DAV:   7    -0.192159802814E+03    0.75232E-04   -0.40085E-04  9720   0.151E-01
  39 F= -.19215980E+03 E0= -.19209912E+03  d E =0.659170E-02
       N       E                     dE             d eps       ncg     rms          rms(c)
DAV:   1    -0.192163526962E+03   -0.36489E-02   -0.51595E-01  8160   0.152E+00    0.169E-01
DAV:   2    -0.192165996826E+03   -0.24699E-02   -0.18166E-02 12720   0.614E-01    0.350E-01
DAV:   3    -0.192164592266E+03    0.14046E-02   -0.30638E-03 12200   0.499E-01    0.130E-01
DAV:   4    -0.192164452325E+03    0.13994E-03   -0.48655E-04  9160   0.181E-01    0.949E-02
DAV:   5    -0.192164387333E+03    0.64992E-04   -0.28136E-04  9200   0.165E-01
  40 F= -.19216439E+03 E0= -.19210386E+03  d E =-.458452E-02
       N       E                     dE             d eps       ncg     rms          rms(c)
DAV:   1    -0.192166350247E+03   -0.18979E-02   -0.13043E-01  8160   0.773E-01    0.984E-02
DAV:   2    -0.192167007007E+03   -0.65676E-03   -0.48767E-03 13440   0.308E-01    0.189E-01
DAV:   3    -0.192166599619E+03    0.40739E-03   -0.92997E-04 11080   0.272E-01    0.762E-02
DAV:   4    -0.192166570778E+03    0.28842E-04   -0.13691E-04  6840   0.106E-01
  41 F= -.19216657E+03 E0= -.19210613E+03  d E =-.218344E-02
       N       E                     dE             d eps       ncg     rms          rms(c)
DAV:   1    -0.192168522522E+03   -0.19229E-02   -0.14834E-01  8160   0.821E-01    0.101E-01
DAV:   2    -0.192169017963E+03   -0.49544E-03   -0.47844E-03 12920   0.256E-01    0.164E-01
DAV:   3    -0.192168800242E+03    0.21772E-03   -0.86326E-04 11040   0.267E-01    0.106E-01
DAV:   4    -0.192168675021E+03    0.12522E-03   -0.17870E-04  7320   0.108E-01    0.348E-02
DAV:   5    -0.192168672587E+03    0.24336E-05   -0.98752E-05  6880   0.505E-02
  42 F= -.19216867E+03 E0= -.19210819E+03  d E =-.210181E-02
       N       E                     dE             d eps       ncg     rms          rms(c)
DAV:   1    -0.192170567230E+03   -0.18922E-02   -0.42207E+00  8160   0.435E+00    0.466E-01
DAV:   2    -0.192185628746E+03   -0.15062E-01   -0.14343E-01 12320   0.136E+00    0.726E-01
DAV:   3    -0.192181140730E+03    0.44880E-02   -0.20980E-02 12400   0.125E+00    0.489E-01
DAV:   4    -0.192178659125E+03    0.24816E-02   -0.47775E-03 12520   0.570E-01    0.230E-01
DAV:   5    -0.192178380925E+03    0.27820E-03   -0.20811E-03 12280   0.421E-01    0.211E-01
DAV:   6    -0.192178189578E+03    0.19135E-03   -0.15715E-03 12320   0.313E-01    0.132E-01
DAV:   7    -0.192177954828E+03    0.23475E-03   -0.71279E-04 10480   0.170E-01    0.718E-02
DAV:   8    -0.192177899266E+03    0.55562E-04   -0.13353E-04  7600   0.104E-01
  43 F= -.19217790E+03 E0= -.19211727E+03  d E =-.922668E-02
       N       E                     dE             d eps       ncg     rms          rms(c)
DAV:   1    -0.192175241667E+03    0.27132E-02   -0.42832E-01  8160   0.140E+00    0.173E-01
DAV:   2    -0.192176095999E+03   -0.85433E-03   -0.15639E-02 11600   0.362E-01    0.158E-01
DAV:   3    -0.192176362538E+03   -0.26654E-03   -0.22789E-03 12080   0.391E-01    0.243E-01
DAV:   4    -0.192175657233E+03    0.70531E-03   -0.92090E-04 10320   0.278E-01    0.679E-02
DAV:   5    -0.192175626376E+03    0.30857E-04   -0.32974E-04  8640   0.106E-01
  44 F= -.19217563E+03 E0= -.19211528E+03  d E =0.227289E-02
       N       E                     dE             d eps       ncg     rms          rms(c)
DAV:   1    -0.192177278337E+03   -0.16211E-02   -0.28307E-01  8160   0.112E+00    0.111E-01
DAV:   2    -0.192178171187E+03   -0.89285E-03   -0.84035E-03 12080   0.317E-01    0.179E-01
DAV:   3    -0.192177893503E+03    0.27768E-03   -0.13035E-03 12320   0.304E-01    0.125E-01
DAV:   4    -0.192177730083E+03    0.16342E-03   -0.29570E-04  8680   0.149E-01    0.498E-02
DAV:   5    -0.192177707796E+03    0.22286E-04   -0.10335E-04  6800   0.719E-02
  45 F= -.19217771E+03 E0= -.19211735E+03  d E =-.208142E-02
       N       E                     dE             d eps       ncg     rms          rms(c)
DAV:   1    -0.192178711047E+03   -0.98096E-03   -0.91500E-02  8160   0.643E-01    0.773E-02
DAV:   2    -0.192179047755E+03   -0.33671E-03   -0.30685E-03 11960   0.224E-01    0.131E-01
DAV:   3    -0.192178877064E+03    0.17069E-03   -0.47988E-04 10320   0.201E-01    0.660E-02
DAV:   4    -0.192178835584E+03    0.41480E-04   -0.75439E-05  6120   0.849E-02
  46 F= -.19217884E+03 E0= -.19211851E+03  d E =-.112779E-02
       N       E                     dE             d eps       ncg     rms          rms(c)
DAV:   1    -0.192179902350E+03   -0.10253E-02   -0.14062E-01  8160   0.795E-01    0.975E-02
DAV:   2    -0.192180750674E+03   -0.84832E-03   -0.49033E-03 12160   0.341E-01    0.224E-01
DAV:   3    -0.192180135924E+03    0.61475E-03   -0.11388E-03 11240   0.299E-01    0.674E-02
DAV:   4    -0.192180126139E+03    0.97849E-05   -0.13219E-04  6360   0.103E-01
  47 F= -.19218013E+03 E0= -.19211986E+03  d E =-.129055E-02
       N       E                     dE             d eps       ncg     rms          rms(c)
DAV:   1    -0.192180221551E+03   -0.85627E-04   -0.28297E-03  8240   0.147E-01    0.455E-02
DAV:   2    -0.192180439319E+03   -0.21777E-03   -0.41486E-04  9400   0.186E-01    0.141E-01
DAV:   3    -0.192180191212E+03    0.24811E-03   -0.23578E-04  8440   0.165E-01    0.241E-02
DAV:   4    -0.192180199391E+03   -0.81787E-05   -0.34013E-05  6080   0.461E-02
  48 F= -.19218020E+03 E0= -.19211989E+03  d E =-.732520E-04
