<?xml version="1.0" encoding="ISO-8859-1"?>
<modeling>
 <generator>
  <i name="program" type="string">vasp </i>
  <i name="version" type="string">5.4.1  </i>
  <i name="subversion" type="string">05Feb16 (build Jul 05 2020 17:13:04) complex                          parallel </i>
  <i name="platform" type="string">IFC91_ompi </i>
  <i name="date" type="string">2024 04 20 </i>
  <i name="time" type="string">17:01:28 </i>
 </generator>
 <incar>
  <i type="int" name="ISTART">     0</i>
  <i type="string" name="PREC">normal</i>
  <i type="string" name="ALGO"> Normal</i>
  <i type="int" name="ISPIN">     1</i>
  <i type="int" name="ICHARG">     2</i>
  <i type="int" name="IBRION">     1</i>
  <i type="int" name="NSW">   100</i>
  <i type="int" name="ISIF">     3</i>
  <i type="int" name="ISYM">     0</i>
  <i name="SYMPREC">      0.00000001</i>
  <i name="POTIM">      0.50000000</i>
  <i type="logical" name="LREAL"> F  </i>
  <i type="logical" name="LPLANE"> F  </i>
  <i type="int" name="ISMEAR">     0</i>
  <i type="logical" name="LWAVE"> F  </i>
  <i type="logical" name="LCHARG"> F  </i>
  <v type="int" name="KPOINT_BSE">    -1     0     0     0</v>
 </incar>
 <kpoints>
  <generation param="Gamma">
   <v type="int" name="divisions">       8        8        1 </v>
   <v name="usershift">      0.00000000       0.00000000       0.00000000 </v>
   <v name="genvec1">      0.12500000       0.00000000       0.00000000 </v>
   <v name="genvec2">     -0.00000000       0.12500000       0.00000000 </v>
   <v name="genvec3">      0.00000000       0.00000000       1.00000000 </v>
   <v name="shift">      0.00000000       0.00000000       0.00000000 </v>
  </generation>
  <varray name="kpointlist" >
   <v>       0.00000000       0.00000000       0.00000000 </v>
   <v>       0.12500000       0.00000000       0.00000000 </v>
   <v>       0.25000000       0.00000000       0.00000000 </v>
   <v>       0.37500000       0.00000000       0.00000000 </v>
   <v>       0.50000000       0.00000000       0.00000000 </v>
   <v>       0.00000000       0.12500000       0.00000000 </v>
   <v>       0.12500000       0.12500000       0.00000000 </v>
   <v>       0.25000000       0.12500000       0.00000000 </v>
   <v>       0.37500000       0.12500000       0.00000000 </v>
   <v>       0.50000000       0.12500000       0.00000000 </v>
   <v>      -0.37500000       0.12500000       0.00000000 </v>
   <v>      -0.25000000       0.12500000       0.00000000 </v>
   <v>      -0.12500000       0.12500000       0.00000000 </v>
   <v>       0.00000000       0.25000000       0.00000000 </v>
   <v>       0.12500000       0.25000000       0.00000000 </v>
   <v>       0.25000000       0.25000000       0.00000000 </v>
   <v>       0.37500000       0.25000000       0.00000000 </v>
   <v>       0.50000000       0.25000000       0.00000000 </v>
   <v>      -0.37500000       0.25000000       0.00000000 </v>
   <v>      -0.25000000       0.25000000       0.00000000 </v>
   <v>      -0.12500000       0.25000000       0.00000000 </v>
   <v>      -0.00000000       0.37500000       0.00000000 </v>
   <v>       0.12500000       0.37500000       0.00000000 </v>
   <v>       0.25000000       0.37500000       0.00000000 </v>
   <v>       0.37500000       0.37500000       0.00000000 </v>
   <v>       0.50000000       0.37500000       0.00000000 </v>
   <v>      -0.37500000       0.37500000       0.00000000 </v>
   <v>      -0.25000000       0.37500000       0.00000000 </v>
   <v>      -0.12500000       0.37500000       0.00000000 </v>
   <v>       0.00000000       0.50000000       0.00000000 </v>
   <v>       0.12500000       0.50000000       0.00000000 </v>
   <v>       0.25000000       0.50000000       0.00000000 </v>
   <v>       0.37500000       0.50000000       0.00000000 </v>
   <v>       0.50000000       0.50000000       0.00000000 </v>
  </varray>
  <varray name="weights" >
   <v>       0.01562500 </v>
   <v>       0.03125000 </v>
   <v>       0.03125000 </v>
   <v>       0.03125000 </v>
   <v>       0.01562500 </v>
   <v>       0.03125000 </v>
   <v>       0.03125000 </v>
   <v>       0.03125000 </v>
   <v>       0.03125000 </v>
   <v>       0.03125000 </v>
   <v>       0.03125000 </v>
   <v>       0.03125000 </v>
   <v>       0.03125000 </v>
   <v>       0.03125000 </v>
   <v>       0.03125000 </v>
   <v>       0.03125000 </v>
   <v>       0.03125000 </v>
   <v>       0.03125000 </v>
   <v>       0.03125000 </v>
   <v>       0.03125000 </v>
   <v>       0.03125000 </v>
   <v>       0.03125000 </v>
   <v>       0.03125000 </v>
   <v>       0.03125000 </v>
   <v>       0.03125000 </v>
   <v>       0.03125000 </v>
   <v>       0.03125000 </v>
   <v>       0.03125000 </v>
   <v>       0.03125000 </v>
   <v>       0.01562500 </v>
   <v>       0.03125000 </v>
   <v>       0.03125000 </v>
   <v>       0.03125000 </v>
   <v>       0.01562500 </v>
  </varray>
 </kpoints>
 <parameters>
  <separator name="general" >
   <i type="string" name="SYSTEM">unknown system</i>
   <i type="logical" name="LCOMPAT"> F  </i>
  </separator>
  <separator name="electronic" >
   <i type="string" name="PREC">normal</i>
   <i name="ENMAX">    280.00000000</i>
   <i name="ENAUG">    373.43800000</i>
   <i name="EDIFF">      0.00010000</i>
   <i type="int" name="IALGO">    38</i>
   <i type="int" name="IWAVPR">    11</i>
   <i type="int" name="NBANDS">   120</i>
   <i name="NELECT">    159.00000000</i>
   <i type="int" name="TURBO">     0</i>
   <i type="int" name="IRESTART">     0</i>
   <i type="int" name="NREBOOT">     0</i>
   <i type="int" name="NMIN">     0</i>
   <i name="EREF">      0.00000000</i>
   <separator name="electronic smearing" >
    <i type="int" name="ISMEAR">     0</i>
    <i name="SIGMA">      0.20000000</i>
    <i name="KSPACING">      0.50000000</i>
    <i type="logical" name="KGAMMA"> T  </i>
   </separator>
   <separator name="electronic projectors" >
    <i type="logical" name="LREAL"> F  </i>
    <v name="ROPT">      0.00000000      0.00000000      0.00000000      0.00000000</v>
    <i type="int" name="LMAXPAW">  -100</i>
    <i type="int" name="LMAXMIX">     2</i>
    <i type="logical" name="NLSPLINE"> F  </i>
   </separator>
   <separator name="electronic startup" >
    <i type="int" name="ISTART">     0</i>
    <i type="int" name="ICHARG">     2</i>
    <i type="int" name="INIWAV">     1</i>
   </separator>
   <separator name="electronic spin" >
    <i type="int" name="ISPIN">     1</i>
    <i type="logical" name="LNONCOLLINEAR"> F  </i>
    <v name="MAGMOM">      1.00000000      1.00000000      1.00000000      1.00000000      1.00000000      1.00000000      1.00000000      1.00000000      1.00000000      1.00000000      1.00000000      1.00000000      1.00000000      1.00000000      1.00000000      1.00000000      1.00000000      1.00000000      1.00000000      1.00000000
      1.00000000      1.00000000      1.00000000      1.00000000      1.00000000      1.00000000      1.00000000</v>
    <i name="NUPDOWN">     -1.00000000</i>
    <i type="logical" name="LSORBIT"> F  </i>
    <v name="SAXIS">      0.00000000      0.00000000      1.00000000</v>
    <i type="logical" name="LSPIRAL"> F  </i>
    <v name="QSPIRAL">      0.00000000      0.00000000      0.00000000</v>
    <i type="logical" name="LZEROZ"> F  </i>
   </separator>
   <separator name="electronic exchange-correlation" >
    <i type="logical" name="LASPH"> F  </i>
    <i type="logical" name="LMETAGGA"> F  </i>
   </separator>
   <separator name="electronic convergence" >
    <i type="int" name="NELM">    60</i>
    <i type="int" name="NELMDL">    -5</i>
    <i type="int" name="NELMIN">     2</i>
    <i name="ENINI">    280.00000000</i>
    <separator name="electronic convergence detail" >
     <i type="logical" name="LDIAG"> T  </i>
     <i type="logical" name="LSUBROT"> F  </i>
     <i name="WEIMIN">      0.00100000</i>
     <i name="EBREAK">      0.00000021</i>
     <i name="DEPER">      0.30000000</i>
     <i type="int" name="NRMM">     4</i>
     <i name="TIME">      0.40000000</i>
    </separator>
   </separator>
   <separator name="electronic mixer" >
    <i name="AMIX">      0.40000000</i>
    <i name="BMIX">      1.00000000</i>
    <i name="AMIN">      0.10000000</i>
    <i name="AMIX_MAG">      1.60000000</i>
    <i name="BMIX_MAG">      1.00000000</i>
    <separator name="electronic mixer details" >
     <i type="int" name="IMIX">     4</i>
     <i type="logical" name="MIXFIRST"> F  </i>
     <i type="int" name="MAXMIX">   -45</i>
     <i name="WC">    100.00000000</i>
     <i type="int" name="INIMIX">     1</i>
     <i type="int" name="MIXPRE">     1</i>
     <i type="int" name="MREMOVE">     5</i>
    </separator>
   </separator>
   <separator name="electronic dipolcorrection" >
    <i type="logical" name="LDIPOL"> F  </i>
    <i type="logical" name="LMONO"> F  </i>
    <i type="int" name="IDIPOL">     0</i>
    <i name="EPSILON">      1.00000000</i>
    <v name="DIPOL">   -100.00000000   -100.00000000   -100.00000000</v>
    <i name="EFIELD">      0.00000000</i>
   </separator>
  </separator>
  <separator name="grids" >
   <i type="int" name="NGX">    42</i>
   <i type="int" name="NGY">    42</i>
   <i type="int" name="NGZ">   126</i>
   <i type="int" name="NGXF">    84</i>
   <i type="int" name="NGYF">    84</i>
   <i type="int" name="NGZF">   252</i>
   <i type="logical" name="ADDGRID"> F  </i>
  </separator>
  <separator name="ionic" >
   <i type="int" name="NSW">   100</i>
   <i type="int" name="IBRION">     1</i>
   <i type="int" name="ISIF">     3</i>
   <i name="PSTRESS">      0.00000000</i>
   <i name="EDIFFG">      0.00100000</i>
   <i type="int" name="NFREE">     0</i>
   <i name="POTIM">      0.50000000</i>
   <i name="SMASS">     -3.00000000</i>
   <i name="SCALEE">      1.00000000</i>
  </separator>
  <separator name="ionic md" >
   <i name="TEBEG">      0.00010000</i>
   <i name="TEEND">      0.00010000</i>
   <i type="int" name="NBLOCK">     1</i>
   <i type="int" name="KBLOCK">   100</i>
   <i type="int" name="NPACO">   256</i>
   <i name="APACO">     16.00000000</i>
  </separator>
  <separator name="symmetry" >
   <i type="int" name="ISYM">     0</i>
   <i name="SYMPREC">      0.00000001</i>
  </separator>
  <separator name="dos" >
   <i type="logical" name="LORBIT"> F  </i>
   <v name="RWIGS">     -1.00000000     -1.00000000     -1.00000000     -1.00000000</v>
   <i type="int" name="NEDOS">   301</i>
   <i name="EMIN">     10.00000000</i>
   <i name="EMAX">    -10.00000000</i>
   <i name="EFERMI">      0.00000000</i>
  </separator>
  <separator name="writing" >
   <i type="int" name="NWRITE">     2</i>
   <i type="logical" name="LWAVE"> F  </i>
   <i type="logical" name="LCHARG"> F  </i>
   <i type="logical" name="LPARD"> F  </i>
   <i type="logical" name="LVTOT"> F  </i>
   <i type="logical" name="LVHAR"> F  </i>
   <i type="logical" name="LELF"> F  </i>
   <i type="logical" name="LOPTICS"> F  </i>
   <v name="STM">      0.00000000      0.00000000      0.00000000      0.00000000      0.00000000      0.00000000      0.00000000</v>
  </separator>
  <separator name="performance" >
   <i type="int" name="NPAR">    40</i>
   <i type="int" name="NSIM">     4</i>
   <i type="int" name="NBLK">    -1</i>
   <i type="logical" name="LPLANE"> F  </i>
   <i type="logical" name="LSCALAPACK"> T  </i>
   <i type="logical" name="LSCAAWARE"> F  </i>
   <i type="logical" name="LSCALU"> F  </i>
   <i type="logical" name="LASYNC"> F  </i>
   <i type="logical" name="LORBITALREAL"> F  </i>
  </separator>
  <separator name="miscellaneous" >
   <i type="int" name="IDIOT">     3</i>
   <i type="logical" name="LMUSIC"> F  </i>
   <v name="POMASS">     50.94100000     95.94000000    183.85000000     32.06600000</v>
   <v name="DARWINR">      0.00000000      0.00000000      0.00000000      0.00000000</v>
   <v name="DARWINV">      1.00000000      1.00000000      1.00000000      1.00000000</v>
   <i type="logical" name="LCORR"> T  </i>
  </separator>
  <i type="logical" name="GGA_COMPAT"> T  </i>
  <i type="logical" name="LBERRY"> F  </i>
  <i type="int" name="ICORELEVEL">     0</i>
  <i type="logical" name="LDAU"> F  </i>
  <i type="int" name="I_CONSTRAINED_M">     0</i>
  <separator name="electronic exchange-correlation" >
   <i type="string" name="GGA">--</i>
   <i type="int" name="VOSKOWN">     0</i>
   <i type="logical" name="LHFCALC"> F  </i>
   <i type="string" name="PRECFOCK"></i>
   <i type="logical" name="LSYMGRAD"> F  </i>
   <i type="logical" name="LHFONE"> F  </i>
   <i type="logical" name="LRHFCALC"> F  </i>
   <i type="logical" name="LTHOMAS"> F  </i>
   <i type="logical" name="LMODELHF"> F  </i>
   <i name="ENCUT4O">     -1.00000000</i>
   <i type="int" name="EXXOEP">     0</i>
   <i type="int" name="FOURORBIT">     0</i>
   <i name="AEXX">      0.00000000</i>
   <i name="HFALPHA">      0.00000000</i>
   <i name="MCALPHA">      0.00000000</i>
   <i name="ALDAX">      1.00000000</i>
   <i name="AGGAX">      1.00000000</i>
   <i name="ALDAC">      1.00000000</i>
   <i name="AGGAC">      1.00000000</i>
   <i type="int" name="NKREDX">     1</i>
   <i type="int" name="NKREDY">     1</i>
   <i type="int" name="NKREDZ">     1</i>
   <i type="logical" name="SHIFTRED"> F  </i>
   <i type="logical" name="ODDONLY"> F  </i>
   <i type="logical" name="EVENONLY"> F  </i>
   <i type="int" name="LMAXFOCK">     0</i>
   <i type="int" name="NMAXFOCKAE">     0</i>
   <i type="logical" name="LFOCKAEDFT"> F  </i>
   <i name="HFSCREEN">      0.00000000</i>
   <i name="HFSCREENC">      0.00000000</i>
   <i type="int" name="NBANDSGWLOW">     0</i>
  </separator>
  <separator name="vdW DFT" >
   <i type="logical" name="LUSE_VDW"> F  </i>
   <i name="Zab_VDW">     -0.84910000</i>
   <i name="PARAM1">      0.12340000</i>
   <i name="PARAM2">      1.00000000</i>
   <i name="PARAM3">      0.00000000</i>
  </separator>
  <separator name="model GW" >
   <i type="int" name="MODEL_GW">     0</i>
   <i name="MODEL_EPS0">     58.26239943</i>
   <i name="MODEL_ALPHA">      1.00000000</i>
  </separator>
  <separator name="linear response parameters" >
   <i type="logical" name="LEPSILON"> F  </i>
   <i type="logical" name="LRPA"> F  </i>
   <i type="logical" name="LNABLA"> F  </i>
   <i type="logical" name="LVEL"> F  </i>
   <i type="int" name="KINTER">     0</i>
   <i name="CSHIFT">      0.10000000</i>
   <i name="OMEGAMAX">     -1.00000000</i>
   <i name="DEG_THRESHOLD">      0.00200000</i>
  </separator>
  <separator name="orbital magnetization" >
   <i type="logical" name="NUCIND"> F  </i>
   <v name="MAGPOS">      0.00000000      0.00000000      0.00000000</v>
   <i type="logical" name="LNICSALL"> T  </i>
   <i type="logical" name="ORBITALMAG"> F  </i>
   <i type="logical" name="LMAGBLOCH"> F  </i>
   <i type="logical" name="LCHIMAG"> F  </i>
   <i type="logical" name="LGAUGE"> T  </i>
   <i type="int" name="MAGATOM">     0</i>
   <v name="MAGDIPOL">      0.00000000      0.00000000      0.00000000</v>
   <v name="AVECCONST">      0.00000000      0.00000000      0.00000000</v>
  </separator>
  <separator name="response functions" >
   <i type="logical" name="LADDER"> F  </i>
   <i type="logical" name="LFXC"> F  </i>
   <i type="logical" name="LHARTREE"> T  </i>
   <i type="int" name="IBSE">     0</i>
   <v type="int" name="KPOINT">    -1     0     0     0</v>
   <i type="logical" name="LTCTE"> F  </i>
   <i type="logical" name="LTETE"> F  </i>
   <i type="logical" name="LTRIPLET"> F  </i>
   <i type="logical" name="LFXCEPS"> F  </i>
   <i type="logical" name="LFXHEG"> F  </i>
   <i type="int" name="NATURALO">     0</i>
   <i type="logical" name="L2ORDER"> F  </i>
   <i type="logical" name="LUSEW"> F  </i>
   <i name="ENCUTGW">     -2.00000000</i>
   <i name="ENCUTGWSOFT">     -2.00000000</i>
   <i name="ENCUTLF">     -1.00000000</i>
   <i type="int" name="LMAXMP2">    -1</i>
   <i name="SCISSOR">      0.00000000</i>
   <i type="int" name="NOMEGA">     0</i>
   <i type="int" name="NOMEGAR">     0</i>
   <i type="int" name="NBANDSGW">    -1</i>
   <i type="int" name="NBANDSO">    -1</i>
   <i type="int" name="NBANDSV">    -1</i>
   <i type="int" name="NELM">     1</i>
   <i type="int" name="NELMHF">     1</i>
   <i type="int" name="DIM">     3</i>
   <i type="int" name="ANTIRES">     0</i>
   <i name="OMEGAMAX">    -30.00000000</i>
   <i name="OMEGAMIN">    -30.00000000</i>
   <i name="OMEGATL">   -200.00000000</i>
   <i type="int" name="OMEGAGRID">     0</i>
   <i name="CSHIFT">     -0.10000000</i>
   <i type="logical" name="SELFENERGY"> F  </i>
   <i type="logical" name="LSPECTRAL"> F  </i>
   <i type="logical" name="LSPECTRALGW"> F  </i>
   <i type="logical" name="LSINGLES"> F  </i>
   <i type="logical" name="LFERMIGW"> F  </i>
   <i type="logical" name="ODDONLYGW"> F  </i>
   <i type="logical" name="EVENONLYGW"> F  </i>
   <i type="int" name="NKREDLFX">     1</i>
   <i type="int" name="NKREDLFY">     1</i>
   <i type="int" name="NKREDLFZ">     1</i>
   <i type="int" name="MAXMEM">  1800</i>
   <i type="int" name="TELESCOPE">     0</i>
   <i type="int" name="TAUPAR">     1</i>
   <i type="int" name="OMEGAPAR">    -1</i>
   <i name="LAMBDA">      1.00000000</i>
  </separator>
  <separator name="External order field" >
   <i name="OFIELD_KAPPA">      0.00000000</i>
   <v name="OFIELD_K">      0.00000000      0.00000000      0.00000000</v>
   <i name="OFIELD_Q6_NEAR">      0.00000000</i>
   <i name="OFIELD_Q6_FAR">      0.00000000</i>
   <i name="OFIELD_A">      0.00000000</i>
  </separator>
 </parameters>
 <atominfo>
  <atoms>      27 </atoms>
  <types>       4 </types>
  <array name="atoms" >
   <dimension dim="1">ion</dimension>
   <field type="string">element</field>
   <field type="int">atomtype</field>
   <set>
    <rc><c>V </c><c>   1</c></rc>
    <rc><c>V </c><c>   1</c></rc>
    <rc><c>V </c><c>   1</c></rc>
    <rc><c>Mo</c><c>   2</c></rc>
    <rc><c>Mo</c><c>   2</c></rc>
    <rc><c>Mo</c><c>   2</c></rc>
    <rc><c>W </c><c>   3</c></rc>
    <rc><c>W </c><c>   3</c></rc>
    <rc><c>W </c><c>   3</c></rc>
    <rc><c>S </c><c>   4</c></rc>
    <rc><c>S </c><c>   4</c></rc>
    <rc><c>S </c><c>   4</c></rc>
    <rc><c>S </c><c>   4</c></rc>
    <rc><c>S </c><c>   4</c></rc>
    <rc><c>S </c><c>   4</c></rc>
    <rc><c>S </c><c>   4</c></rc>
    <rc><c>S </c><c>   4</c></rc>
    <rc><c>S </c><c>   4</c></rc>
    <rc><c>S </c><c>   4</c></rc>
    <rc><c>S </c><c>   4</c></rc>
    <rc><c>S </c><c>   4</c></rc>
    <rc><c>S </c><c>   4</c></rc>
    <rc><c>S </c><c>   4</c></rc>
    <rc><c>S </c><c>   4</c></rc>
    <rc><c>S </c><c>   4</c></rc>
    <rc><c>S </c><c>   4</c></rc>
    <rc><c>S </c><c>   4</c></rc>
   </set>
  </array>
  <array name="atomtypes" >
   <dimension dim="1">type</dimension>
   <field type="int">atomspertype</field>
   <field type="string">element</field>
   <field>mass</field>
   <field>valence</field>
   <field type="string">pseudopotential</field>
   <set>
    <rc><c>   3</c><c>V </c><c>     50.94100000</c><c>      5.00000000</c><c> PAW_PBE V 08Apr2002                    </c></rc>
    <rc><c>   3</c><c>Mo</c><c>     95.94000000</c><c>      6.00000000</c><c> PAW_PBE Mo 08Apr2002                   </c></rc>
    <rc><c>   3</c><c>W </c><c>    183.85000000</c><c>      6.00000000</c><c> PAW_PBE W 08Apr2002                    </c></rc>
    <rc><c>  18</c><c>S </c><c>     32.06600000</c><c>      6.00000000</c><c>  PAW_PBE S 17Jan2003                   </c></rc>
   </set>
  </array>
 </atominfo>
 <structure name="initialpos" >
  <crystal>
   <varray name="basis" >
    <v>       8.66999996       5.03999989       0.00000000 </v>
    <v>      -8.66999982       5.04000013       0.00000000 </v>
    <v>       0.00000000       0.00000000      30.00000000 </v>
   </varray>
   <i name="volume">   2621.80797419 </i>
   <varray name="rec_basis" >
    <v>       0.05767013       0.09920635       0.00000000 </v>
    <v>      -0.05767013       0.09920635       0.00000000 </v>
    <v>       0.00000000       0.00000000       0.03333333 </v>
   </varray>
  </crystal>
  <varray name="positions" >
   <v>       0.66666669       0.66666669       0.00000000 </v>
   <v>       0.00000000       0.00000000       0.00000000 </v>
   <v>       0.33333334       0.00000000       0.00000000 </v>
   <v>       0.66666669       0.33333334       0.00000000 </v>
   <v>       0.33333334       0.66666669       0.00000000 </v>
   <v>       0.66666669       0.00000000       0.00000000 </v>
   <v>       1.00000000       0.33333334       0.00000000 </v>
   <v>       0.00000000       0.66666669       0.00000000 </v>
   <v>       0.33333334       0.33333334       0.00000000 </v>
   <v>       0.11068511       0.22244981       0.95539999 </v>
   <v>       0.22244981       0.11068511       0.04460000 </v>
   <v>       0.11068511       0.55578315       0.95539999 </v>
   <v>       0.22244981       0.44401845       0.04460000 </v>
   <v>       0.11068511       0.88911647       0.95539999 </v>
   <v>       0.22244981       0.77735180       0.04460000 </v>
   <v>       0.44401845       0.22244981       0.95539999 </v>
   <v>       0.55578315       0.11068511       0.04460000 </v>
   <v>       0.44401845       0.55578315       0.95539999 </v>
   <v>       0.55578315       0.44401845       0.04460000 </v>
   <v>       0.44401845       0.88911647       0.95539999 </v>
   <v>       0.55578315       0.77735180       0.04460000 </v>
   <v>       0.77735180       0.22244981       0.95539999 </v>
   <v>       0.88911647       0.11068511       0.04460000 </v>
   <v>       0.77735180       0.55578315       0.95539999 </v>
   <v>       0.88911647       0.44401845       0.04460000 </v>
   <v>       0.77735180       0.88911647       0.95539999 </v>
   <v>       0.88911647       0.77735180       0.04460000 </v>
  </varray>
 </structure>
 <calculation>
  <scstep>
   <time name="dav">   22.77   22.83</time>
   <time name="total">   22.82   22.88</time>
   <energy>
    <i name="alphaZ">     81.65567618 </i>
    <i name="ewald">  41890.23009657 </i>
    <i name="hartreedc"> -47722.86556130 </i>
    <i name="XCdc">   -242.92862461 </i>
    <i name="pawpsdc">   3467.42045192 </i>
    <i name="pawaedc">  -2871.19716117 </i>
    <i name="eentropy">     -0.54185843 </i>
    <i name="bandstr">   -236.94913278 </i>
    <i name="atom">   6761.44252427 </i>
    <i name="e_fr_energy">   1126.26641065 </i>
    <i name="e_wo_entrp">   1126.80826908 </i>
    <i name="e_0_energy">   1126.53733986 </i>
   </energy>
  </scstep>
  <scstep>
   <time name="dav">   29.64   29.71</time>
   <time name="total">   29.64   29.71</time>
   <energy>
    <i name="e_fr_energy">     -0.72019355 </i>
    <i name="e_wo_entrp">     -0.50451181 </i>
    <i name="e_0_energy">     -0.61235268 </i>
   </energy>
  </scstep>
  <scstep>
   <time name="dav">   28.85   28.92</time>
   <time name="total">   28.85   28.93</time>
   <energy>
    <i name="e_fr_energy">   -199.74410540 </i>
    <i name="e_wo_entrp">   -199.48433342 </i>
    <i name="e_0_energy">   -199.61421941 </i>
   </energy>
  </scstep>
  <scstep>
   <time name="dav">   31.33   31.41</time>
   <time name="total">   31.33   31.42</time>
   <energy>
    <i name="e_fr_energy">   -208.97962915 </i>
    <i name="e_wo_entrp">   -208.69566701 </i>
    <i name="e_0_energy">   -208.83764808 </i>
   </energy>
  </scstep>
  <scstep>
   <time name="dav">   30.04   30.12</time>
   <time name="total">   30.60   30.68</time>
   <energy>
    <i name="e_fr_energy">   -209.31410055 </i>
    <i name="e_wo_entrp">   -209.03342480 </i>
    <i name="e_0_energy">   -209.17376267 </i>
   </energy>
  </scstep>
  <scstep>
   <time name="dav">   32.49   32.57</time>
   <time name="total">   33.08   33.17</time>
   <energy>
    <i name="e_fr_energy">   -237.22573017 </i>
    <i name="e_wo_entrp">   -236.94998998 </i>
    <i name="e_0_energy">   -237.08786007 </i>
   </energy>
  </scstep>
  <scstep>
   <time name="dav">   33.60   33.68</time>
   <time name="total">   34.19   34.28</time>
   <energy>
    <i name="e_fr_energy">   -196.47178722 </i>
    <i name="e_wo_entrp">   -196.14131686 </i>
    <i name="e_0_energy">   -196.30655204 </i>
   </energy>
  </scstep>
  <scstep>
   <time name="dav">   30.75   30.82</time>
   <time name="total">   31.35   31.43</time>
   <energy>
    <i name="e_fr_energy">   -189.42604072 </i>
    <i name="e_wo_entrp">   -189.13447740 </i>
    <i name="e_0_energy">   -189.28025906 </i>
   </energy>
  </scstep>
  <scstep>
   <time name="dav">   32.27   32.34</time>
   <time name="total">   32.88   32.96</time>
   <energy>
    <i name="e_fr_energy">   -188.22957691 </i>
    <i name="e_wo_entrp">   -187.90959820 </i>
    <i name="e_0_energy">   -188.06958756 </i>
   </energy>
  </scstep>
  <scstep>
   <time name="dav">   33.98   34.06</time>
   <time name="total">   34.59   34.68</time>
   <energy>
    <i name="e_fr_energy">   -187.07947381 </i>
    <i name="e_wo_entrp">   -186.73248346 </i>
    <i name="e_0_energy">   -186.90597863 </i>
   </energy>
  </scstep>
  <scstep>
   <time name="dav">   34.50   34.58</time>
   <time name="total">   35.12   35.21</time>
   <energy>
    <i name="e_fr_energy">   -187.02983856 </i>
    <i name="e_wo_entrp">   -186.68183958 </i>
    <i name="e_0_energy">   -186.85583907 </i>
   </energy>
  </scstep>
  <scstep>
   <time name="dav">   32.43   32.51</time>
   <time name="total">   33.04   33.13</time>
   <energy>
    <i name="e_fr_energy">   -187.17350493 </i>
    <i name="e_wo_entrp">   -186.83512454 </i>
    <i name="e_0_energy">   -187.00431474 </i>
   </energy>
  </scstep>
  <scstep>
   <time name="dav">   33.77   33.86</time>
   <time name="total">   34.39   34.48</time>
   <energy>
    <i name="e_fr_energy">   -186.92701354 </i>
    <i name="e_wo_entrp">   -186.59244167 </i>
    <i name="e_0_energy">   -186.75972760 </i>
   </energy>
  </scstep>
  <scstep>
   <time name="dav">   33.97   34.05</time>
   <time name="total">   34.59   34.68</time>
   <energy>
    <i name="e_fr_energy">   -186.87970673 </i>
    <i name="e_wo_entrp">   -186.53596807 </i>
    <i name="e_0_energy">   -186.70783740 </i>
   </energy>
  </scstep>
  <scstep>
   <time name="dav">   31.68   31.76</time>
   <time name="total">   32.29   32.38</time>
   <energy>
    <i name="e_fr_energy">   -186.88163634 </i>
    <i name="e_wo_entrp">   -186.53666991 </i>
    <i name="e_0_energy">   -186.70915312 </i>
   </energy>
  </scstep>
  <scstep>
   <time name="dav">   34.24   34.32</time>
   <time name="total">   34.86   34.95</time>
   <energy>
    <i name="e_fr_energy">   -186.87261472 </i>
    <i name="e_wo_entrp">   -186.52713909 </i>
    <i name="e_0_energy">   -186.69987691 </i>
   </energy>
  </scstep>
  <scstep>
   <time name="dav">   32.18   32.25</time>
   <time name="total">   32.79   32.88</time>
   <energy>
    <i name="e_fr_energy">   -186.86927814 </i>
    <i name="e_wo_entrp">   -186.52624098 </i>
    <i name="e_0_energy">   -186.69775956 </i>
   </energy>
  </scstep>
  <scstep>
   <time name="dav">   30.72   30.79</time>
   <time name="total">   31.34   31.42</time>
   <energy>
    <i name="e_fr_energy">   -186.86908638 </i>
    <i name="e_wo_entrp">   -186.52563504 </i>
    <i name="e_0_energy">   -186.69736071 </i>
   </energy>
  </scstep>
  <scstep>
   <time name="dav">   29.33   29.40</time>
   <time name="total">   29.94   30.02</time>
   <energy>
    <i name="e_fr_energy">   -186.86873840 </i>
    <i name="e_wo_entrp">   -186.52515011 </i>
    <i name="e_0_energy">   -186.69694426 </i>
   </energy>
  </scstep>
  <scstep>
   <time name="dav">   24.99   25.05</time>
   <time name="total">   25.61   25.68</time>
   <energy>
    <i name="e_fr_energy">   -186.86950486 </i>
    <i name="e_wo_entrp">   -186.52618573 </i>
    <i name="e_0_energy">   -186.69784529 </i>
   </energy>
  </scstep>
  <scstep>
   <time name="dav">   22.81   22.87</time>
   <time name="total">   23.43   23.50</time>
   <energy>
    <i name="e_fr_energy">   -186.87010995 </i>
    <i name="e_wo_entrp">   -186.52676244 </i>
    <i name="e_0_energy">   -186.69843619 </i>
   </energy>
  </scstep>
  <scstep>
   <time name="dav">   21.53   21.58</time>
   <time name="total">   22.15   22.21</time>
   <energy>
    <i name="e_fr_energy">   -186.87122052 </i>
    <i name="e_wo_entrp">   -186.52784309 </i>
    <i name="e_0_energy">   -186.69953181 </i>
   </energy>
  </scstep>
  <scstep>
   <time name="dav">   21.49   21.54</time>
   <time name="total">   22.11   22.16</time>
   <energy>
    <i name="e_fr_energy">   -186.87244663 </i>
    <i name="e_wo_entrp">   -186.52915329 </i>
    <i name="e_0_energy">   -186.70079996 </i>
   </energy>
  </scstep>
  <scstep>
   <time name="dav">   20.10   20.15</time>
   <time name="total">   20.72   20.78</time>
   <energy>
    <i name="e_fr_energy">   -186.87303238 </i>
    <i name="e_wo_entrp">   -186.52971000 </i>
    <i name="e_0_energy">   -186.70137119 </i>
   </energy>
  </scstep>
  <scstep>
   <time name="dav">   17.13   17.17</time>
   <time name="total">   17.74   17.80</time>
   <energy>
    <i name="e_fr_energy">   -186.87341109 </i>
    <i name="e_wo_entrp">   -186.53005180 </i>
    <i name="e_0_energy">   -186.70173144 </i>
   </energy>
  </scstep>
  <scstep>
   <time name="dav">   20.08   20.13</time>
   <time name="total">   20.70   20.76</time>
   <energy>
    <i name="e_fr_energy">   -186.87362970 </i>
    <i name="e_wo_entrp">   -186.53028465 </i>
    <i name="e_0_energy">   -186.70195718 </i>
   </energy>
  </scstep>
  <scstep>
   <time name="dav">   20.24   20.29</time>
   <time name="total">   20.85   20.91</time>
   <energy>
    <i name="e_fr_energy">   -186.87373365 </i>
    <i name="e_wo_entrp">   -186.53039296 </i>
    <i name="e_0_energy">   -186.70206330 </i>
   </energy>
  </scstep>
  <scstep>
   <time name="dav">   20.92   20.97</time>
   <time name="total">   20.96   21.01</time>
   <energy>
    <i name="alphaZ">     81.65567618 </i>
    <i name="ewald">  41890.23009657 </i>
    <i name="hartreedc"> -47833.03455522 </i>
    <i name="XCdc">   -231.60127538 </i>
    <i name="pawpsdc">   4192.08581520 </i>
    <i name="pawaedc">  -3610.10364771 </i>
    <i name="eentropy">     -0.34334100 </i>
    <i name="bandstr">  -1437.20507680 </i>
    <i name="atom">   6761.44252427 </i>
    <i name="e_fr_energy">   -186.87378388 </i>
    <i name="e_wo_entrp">   -186.53044288 </i>
    <i name="e_0_energy">   -186.70211338 </i>
   </energy>
  </scstep>
  <structure>
   <crystal>
    <varray name="basis" >
     <v>       8.66999996       5.03999989       0.00000000 </v>
     <v>      -8.66999982       5.04000013       0.00000000 </v>
     <v>       0.00000000       0.00000000      30.00000000 </v>
    </varray>
    <i name="volume">   2621.80797419 </i>
    <varray name="rec_basis" >
     <v>       0.05767013       0.09920635       0.00000000 </v>
     <v>      -0.05767013       0.09920635       0.00000000 </v>
     <v>       0.00000000       0.00000000       0.03333333 </v>
    </varray>
   </crystal>
   <varray name="positions" >
    <v>       0.66666669       0.66666669       0.00000000 </v>
    <v>       0.00000000       0.00000000       0.00000000 </v>
    <v>       0.33333334       0.00000000       0.00000000 </v>
    <v>       0.66666669       0.33333334       0.00000000 </v>
    <v>       0.33333334       0.66666669       0.00000000 </v>
    <v>       0.66666669       0.00000000       0.00000000 </v>
    <v>       1.00000000       0.33333334       0.00000000 </v>
    <v>       0.00000000       0.66666669       0.00000000 </v>
    <v>       0.33333334       0.33333334       0.00000000 </v>
    <v>       0.11068511       0.22244981       0.95539999 </v>
    <v>       0.22244981       0.11068511       0.04460000 </v>
    <v>       0.11068511       0.55578315       0.95539999 </v>
    <v>       0.22244981       0.44401845       0.04460000 </v>
    <v>       0.11068511       0.88911647       0.95539999 </v>
    <v>       0.22244981       0.77735180       0.04460000 </v>
    <v>       0.44401845       0.22244981       0.95539999 </v>
    <v>       0.55578315       0.11068511       0.04460000 </v>
    <v>       0.44401845       0.55578315       0.95539999 </v>
    <v>       0.55578315       0.44401845       0.04460000 </v>
    <v>       0.44401845       0.88911647       0.95539999 </v>
    <v>       0.55578315       0.77735180       0.04460000 </v>
    <v>       0.77735180       0.22244981       0.95539999 </v>
    <v>       0.88911647       0.11068511       0.04460000 </v>
    <v>       0.77735180       0.55578315       0.95539999 </v>
    <v>       0.88911647       0.44401845       0.04460000 </v>
    <v>       0.77735180       0.88911647       0.95539999 </v>
    <v>       0.88911647       0.77735180       0.04460000 </v>
   </varray>
  </structure>
  <varray name="forces" >
   <v>      -0.23314440      -0.05447794      -0.11879690 </v>
   <v>      -0.14064336      -0.14495298      -0.01462834 </v>
   <v>       0.36508463       0.19904374       0.10415078 </v>
   <v>       0.26486150      -0.12134403       0.10080653 </v>
   <v>      -0.00496227       0.27061877      -0.07665992 </v>
   <v>      -0.21570724      -0.16567691      -0.02233503 </v>
   <v>      -0.27178614      -0.20672665       0.01904520 </v>
   <v>       0.12857470      -0.07225074      -0.02350993 </v>
   <v>       0.10587096       0.27465017       0.04916598 </v>
   <v>       0.45422195      -0.56213687      -2.15396951 </v>
   <v>       0.25085200      -0.51659512       1.40958973 </v>
   <v>       0.07999442      -0.11900588      -2.92829857 </v>
   <v>      -0.05888306      -0.15348036       2.85136824 </v>
   <v>      -0.23707784       0.51614393      -1.39210471 </v>
   <v>      -0.64015416       0.57542646       2.15874593 </v>
   <v>       0.35782324      -0.70698163      -2.14163463 </v>
   <v>      -0.54862044      -0.71244065       2.19743977 </v>
   <v>       0.61461286       0.57468935      -2.20841476 </v>
   <v>      -0.60160845       0.53669444       2.14786923 </v>
   <v>      -0.73201113      -0.00648285      -2.13618070 </v>
   <v>       0.74361146       0.01464983       2.11223239 </v>
   <v>       0.23052038       0.16368607      -2.89561832 </v>
   <v>       0.65777974       0.16626154       2.10154321 </v>
   <v>      -0.69053769       0.16149757      -2.09122610 </v>
   <v>      -0.05046684       0.11394281       2.95833095 </v>
   <v>       0.91411929      -0.02206729      -1.46265811 </v>
   <v>      -0.74232411      -0.00268478       1.45574760 </v>
  </varray>
  <varray name="stress" >
   <v>       7.43252222       0.00215745      -1.61709936 </v>
   <v>       0.00215732       4.30860038       0.01840732 </v>
   <v>      -1.61709945       0.01840723      30.31163514 </v>
  </varray>
  <energy>
   <i name="e_fr_energy">   -186.87378388 </i>
   <i name="e_wo_entrp">   -186.70211338 </i>
   <i name="e_0_energy">     -0.34334100 </i>
  </energy>
  <time name="totalsc">  845.83  848.09</time>
 </calculation>
 <calculation>
  <scstep>
   <time name="dav">   22.78   22.84</time>
   <time name="total">   23.41   23.47</time>
   <energy>
    <i name="alphaZ">     78.92462671 </i>
    <i name="ewald">  39381.34524474 </i>
    <i name="hartreedc"> -45338.90856534 </i>
    <i name="XCdc">   -239.05453476 </i>
    <i name="pawpsdc">   4192.08574939 </i>
    <i name="pawaedc">  -3610.10359976 </i>
    <i name="eentropy">     -0.27942326 </i>
    <i name="bandstr">  -1412.95123519 </i>
    <i name="atom">   6761.44252427 </i>
    <i name="e_fr_energy">   -187.49921318 </i>
    <i name="e_wo_entrp">   -187.21978993 </i>
    <i name="e_0_energy">   -187.35950155 </i>
   </energy>
  </scstep>
  <scstep>
   <time name="dav">   31.65   31.73</time>
   <time name="total">   32.27   32.36</time>
   <energy>
    <i name="e_fr_energy">   -189.50033740 </i>
    <i name="e_wo_entrp">   -189.16656316 </i>
    <i name="e_0_energy">   -189.33345028 </i>
   </energy>
  </scstep>
  <scstep>
   <time name="dav">   31.96   32.04</time>
   <time name="total">   32.59   32.68</time>
   <energy>
    <i name="e_fr_energy">   -189.34059551 </i>
    <i name="e_wo_entrp">   -189.07696402 </i>
    <i name="e_0_energy">   -189.20877976 </i>
   </energy>
  </scstep>
  <scstep>
   <time name="dav">   30.85   30.93</time>
   <time name="total">   31.48   31.56</time>
   <energy>
    <i name="e_fr_energy">   -188.76737020 </i>
    <i name="e_wo_entrp">   -188.48481879 </i>
    <i name="e_0_energy">   -188.62609450 </i>
   </energy>
  </scstep>
  <scstep>
   <time name="dav">   31.35   31.43</time>
   <time name="total">   31.97   32.06</time>
   <energy>
    <i name="e_fr_energy">   -188.89981381 </i>
    <i name="e_wo_entrp">   -188.61316136 </i>
    <i name="e_0_energy">   -188.75648758 </i>
   </energy>
  </scstep>
  <scstep>
   <time name="dav">   32.61   32.68</time>
   <time name="total">   33.23   33.32</time>
   <energy>
    <i name="e_fr_energy">   -188.74260466 </i>
    <i name="e_wo_entrp">   -188.45877974 </i>
    <i name="e_0_energy">   -188.60069220 </i>
   </energy>
  </scstep>
  <scstep>
   <time name="dav">   30.52   30.59</time>
   <time name="total">   31.14   31.22</time>
   <energy>
    <i name="e_fr_energy">   -188.71207989 </i>
    <i name="e_wo_entrp">   -188.42717465 </i>
    <i name="e_0_energy">   -188.56962727 </i>
   </energy>
  </scstep>
  <scstep>
   <time name="dav">   33.15   33.23</time>
   <time name="total">   33.78   33.87</time>
   <energy>
    <i name="e_fr_energy">   -188.69559282 </i>
    <i name="e_wo_entrp">   -188.41505022 </i>
    <i name="e_0_energy">   -188.55532152 </i>
   </energy>
  </scstep>
  <scstep>
   <time name="dav">   31.05   31.13</time>
   <time name="total">   31.68   31.76</time>
   <energy>
    <i name="e_fr_energy">   -188.67040110 </i>
    <i name="e_wo_entrp">   -188.38868650 </i>
    <i name="e_0_energy">   -188.52954380 </i>
   </energy>
  </scstep>
  <scstep>
   <time name="dav">   29.15   29.22</time>
   <time name="total">   29.78   29.86</time>
   <energy>
    <i name="e_fr_energy">   -188.66872522 </i>
    <i name="e_wo_entrp">   -188.38842148 </i>
    <i name="e_0_energy">   -188.52857335 </i>
   </energy>
  </scstep>
  <scstep>
   <time name="dav">   33.59   33.67</time>
   <time name="total">   34.21   34.29</time>
   <energy>
    <i name="e_fr_energy">   -188.66817324 </i>
    <i name="e_wo_entrp">   -188.38860801 </i>
    <i name="e_0_energy">   -188.52839062 </i>
   </energy>
  </scstep>
  <scstep>
   <time name="dav">   30.70   30.77</time>
   <time name="total">   31.32   31.41</time>
   <energy>
    <i name="e_fr_energy">   -188.66811090 </i>
    <i name="e_wo_entrp">   -188.38871399 </i>
    <i name="e_0_energy">   -188.52841245 </i>
   </energy>
  </scstep>
  <scstep>
   <time name="dav">   21.68   21.74</time>
   <time name="total">   21.72   21.78</time>
   <energy>
    <i name="alphaZ">     78.92462671 </i>
    <i name="ewald">  39381.34524474 </i>
    <i name="hartreedc"> -45349.61863754 </i>
    <i name="XCdc">   -237.97298175 </i>
    <i name="pawpsdc">   3950.53727931 </i>
    <i name="pawaedc">  -3365.05028555 </i>
    <i name="eentropy">     -0.27973080 </i>
    <i name="bandstr">  -1407.99613096 </i>
    <i name="atom">   6761.44252427 </i>
    <i name="e_fr_energy">   -188.66809156 </i>
    <i name="e_wo_entrp">   -188.38836076 </i>
    <i name="e_0_energy">   -188.52822616 </i>
   </energy>
  </scstep>
  <structure>
   <crystal>
    <varray name="basis" >
     <v>       8.85844569       5.10354738       0.00000000 </v>
     <v>      -8.85838197       5.10343824       0.00000000 </v>
     <v>       0.00000000       0.00000000      30.00000000 </v>
    </varray>
    <i name="volume">   2712.53107993 </i>
    <varray name="rec_basis" >
     <v>       0.05644291       0.09797177       0.00000000 </v>
     <v>      -0.05644412       0.09797247       0.00000000 </v>
     <v>       0.00000000       0.00000000       0.03333333 </v>
    </varray>
   </crystal>
   <varray name="positions" >
    <v>       0.66575731       0.66705460      -0.00019104 </v>
    <v>      -0.00108503      -0.00030245      -0.00002352 </v>
    <v>       0.33530169      -0.00006310       0.00016748 </v>
    <v>       0.66682282       0.33201571       0.00016211 </v>
    <v>       0.33461471       0.66797567      -0.00012328 </v>
    <v>       0.66527363      -0.00019279      -0.00003592 </v>
    <v>       0.99825446       0.33310011       0.00003063 </v>
    <v>       0.00001192       0.66596318      -0.00003781 </v>
    <v>       0.33494236       0.33435326       0.00007906 </v>
    <v>       0.10925845       0.21849572       0.95193622 </v>
    <v>       0.22067531       0.10751479       0.04686674 </v>
    <v>       0.11033811       0.55499104       0.95069103 </v>
    <v>       0.22155143       0.44344772       0.04918525 </v>
    <v>       0.11249577       0.89224631       0.95316136 </v>
    <v>       0.22342278       0.78188679       0.04807145 </v>
    <v>       0.44163038       0.21807069       0.95195605 </v>
    <v>       0.55084708       0.10880173       0.04813368 </v>
    <v>       0.44847886       0.55682365       0.95184866 </v>
    <v>       0.55667799       0.44826083       0.04805396 </v>
    <v>       0.44195085       0.89112201       0.95196482 </v>
    <v>       0.55792211       0.77535306       0.04799666 </v>
    <v>       0.77877654       0.22259186       0.95074358 </v>
    <v>       0.89174224       0.10965079       0.04797947 </v>
    <v>       0.77620353       0.55847726       0.95203711 </v>
    <v>       0.88952139       0.44470419       0.04935726 </v>
    <v>       0.77978941       0.88646763       0.95304791 </v>
    <v>       0.88703835       0.77940421       0.04694097 </v>
   </varray>
  </structure>
  <varray name="forces" >
   <v>      -0.24548252      -0.11252803      -0.04123877 </v>
   <v>      -0.13311546      -0.08430080      -0.01710182 </v>
   <v>       0.32210356       0.21150762       0.03050812 </v>
   <v>       0.40924154      -0.00451258      -0.03633492 </v>
   <v>       0.03477954       0.12558053       0.04213061 </v>
   <v>      -0.31048433      -0.06273354       0.00494946 </v>
   <v>      -0.43129786      -0.11827788       0.00559839 </v>
   <v>       0.37318835      -0.22927478      -0.09927319 </v>
   <v>      -0.02660793       0.27834550       0.08585935 </v>
   <v>      -0.05410567       0.07032597       0.16852337 </v>
   <v>      -0.05101102       0.07717349      -0.19081347 </v>
   <v>      -0.06617733      -0.09752632      -0.02524194 </v>
   <v>       0.07471096      -0.10371483      -0.11169805 </v>
   <v>       0.06625806      -0.06999212       0.22881005 </v>
   <v>      -0.09472469      -0.03820699      -0.02214149 </v>
   <v>      -0.10833875      -0.06530875       0.07333709 </v>
   <v>      -0.02845513      -0.09211857       0.19754010 </v>
   <v>       0.08942774      -0.02640437      -0.09652026 </v>
   <v>      -0.07651219      -0.04463006      -0.03227709 </v>
   <v>      -0.07214497       0.00008593      -0.16490015 </v>
   <v>       0.06109172       0.01506698       0.05403001 </v>
   <v>       0.05507682       0.09753472      -0.14596500 </v>
   <v>      -0.02005087       0.08970998      -0.02454169 </v>
   <v>       0.02740160       0.10942186       0.09294205 </v>
   <v>       0.07398457       0.09180998       0.14256666 </v>
   <v>       0.02919855      -0.01257918       0.06088044 </v>
   <v>       0.10204572      -0.00445378      -0.17962784 </v>
  </varray>
  <varray name="stress" >
   <v>     -19.94128633       0.01048443       0.06869193 </v>
   <v>       0.01048444     -19.46686989      -0.01178918 </v>
   <v>       0.06869199      -0.01178915      -1.73858504 </v>
  </varray>
  <energy>
   <i name="e_fr_energy">   -188.66809156 </i>
   <i name="e_wo_entrp">   -188.52822616 </i>
   <i name="e_0_energy">     -0.27973080 </i>
  </energy>
  <time name="totalsc">  442.23  443.40</time>
 </calculation>
 <calculation>
  <scstep>
   <time name="dav">   24.98   25.05</time>
   <time name="total">   25.60   25.67</time>
   <energy>
    <i name="alphaZ">     82.35844662 </i>
    <i name="ewald">  41309.99469717 </i>
    <i name="hartreedc"> -47308.94964646 </i>
    <i name="XCdc">   -233.83838112 </i>
    <i name="pawpsdc">   3950.05749752 </i>
    <i name="pawaedc">  -3364.56578026 </i>
    <i name="eentropy">     -0.23298373 </i>
    <i name="bandstr">  -1386.85687928 </i>
    <i name="atom">   6761.44252427 </i>
    <i name="e_fr_energy">   -190.59050528 </i>
    <i name="e_wo_entrp">   -190.35752155 </i>
    <i name="e_0_energy">   -190.47401341 </i>
   </energy>
  </scstep>
  <scstep>
   <time name="dav">   29.12   29.19</time>
   <time name="total">   29.72   29.80</time>
   <energy>
    <i name="e_fr_energy">   -190.57311643 </i>
    <i name="e_wo_entrp">   -190.34512823 </i>
    <i name="e_0_energy">   -190.45912233 </i>
   </energy>
  </scstep>
  <scstep>
   <time name="dav">   31.63   31.71</time>
   <time name="total">   32.24   32.33</time>
   <energy>
    <i name="e_fr_energy">   -190.06242905 </i>
    <i name="e_wo_entrp">   -189.81383191 </i>
    <i name="e_0_energy">   -189.93813048 </i>
   </energy>
  </scstep>
  <scstep>
   <time name="dav">   32.69   32.77</time>
   <time name="total">   33.31   33.39</time>
   <energy>
    <i name="e_fr_energy">   -189.85619846 </i>
    <i name="e_wo_entrp">   -189.62779992 </i>
    <i name="e_0_energy">   -189.74199919 </i>
   </energy>
  </scstep>
  <scstep>
   <time name="dav">   28.97   29.03</time>
   <time name="total">   29.58   29.66</time>
   <energy>
    <i name="e_fr_energy">   -189.79230380 </i>
    <i name="e_wo_entrp">   -189.54971993 </i>
    <i name="e_0_energy">   -189.67101187 </i>
   </energy>
  </scstep>
  <scstep>
   <time name="dav">   32.57   32.65</time>
   <time name="total">   33.19   33.28</time>
   <energy>
    <i name="e_fr_energy">   -189.75977032 </i>
    <i name="e_wo_entrp">   -189.52723174 </i>
    <i name="e_0_energy">   -189.64350103 </i>
   </energy>
  </scstep>
  <scstep>
   <time name="dav">   32.12   32.19</time>
   <time name="total">   32.74   32.82</time>
   <energy>
    <i name="e_fr_energy">   -189.75232549 </i>
    <i name="e_wo_entrp">   -189.51765847 </i>
    <i name="e_0_energy">   -189.63499198 </i>
   </energy>
  </scstep>
  <scstep>
   <time name="dav">   27.22   27.28</time>
   <time name="total">   27.83   27.91</time>
   <energy>
    <i name="e_fr_energy">   -189.75234136 </i>
    <i name="e_wo_entrp">   -189.51788402 </i>
    <i name="e_0_energy">   -189.63511269 </i>
   </energy>
  </scstep>
  <scstep>
   <time name="dav">   27.58   27.65</time>
   <time name="total">   28.20   28.28</time>
   <energy>
    <i name="e_fr_energy">   -189.75255983 </i>
    <i name="e_wo_entrp">   -189.51801206 </i>
    <i name="e_0_energy">   -189.63528594 </i>
   </energy>
  </scstep>
  <scstep>
   <time name="dav">   24.71   24.77</time>
   <time name="total">   25.33   25.40</time>
   <energy>
    <i name="e_fr_energy">   -189.75243057 </i>
    <i name="e_wo_entrp">   -189.51770248 </i>
    <i name="e_0_energy">   -189.63506652 </i>
   </energy>
  </scstep>
  <scstep>
   <time name="dav">   20.50   20.55</time>
   <time name="total">   20.54   20.60</time>
   <energy>
    <i name="alphaZ">     82.35844662 </i>
    <i name="ewald">  41309.99469717 </i>
    <i name="hartreedc"> -47282.17858142 </i>
    <i name="XCdc">   -235.23572044 </i>
    <i name="pawpsdc">   4038.73810445 </i>
    <i name="pawaedc">  -3454.44601185 </i>
    <i name="eentropy">     -0.23466440 </i>
    <i name="bandstr">  -1410.19124175 </i>
    <i name="atom">   6761.44252427 </i>
    <i name="e_fr_energy">   -189.75244735 </i>
    <i name="e_wo_entrp">   -189.51778295 </i>
    <i name="e_0_energy">   -189.63511515 </i>
   </energy>
  </scstep>
  <structure>
   <crystal>
    <varray name="basis" >
     <v>       8.66962005       4.99741597       0.00000000 </v>
     <v>      -8.66944326       4.99711048       0.00000000 </v>
     <v>       0.00000000       0.00000000      30.00000000 </v>
    </varray>
    <i name="volume">   2599.43590166 </i>
    <varray name="rec_basis" >
     <v>       0.05767148       0.10005375       0.00000000 </v>
     <v>      -0.05767501       0.10005579       0.00000000 </v>
     <v>       0.00000000       0.00000000       0.03333333 </v>
    </varray>
   </crystal>
   <varray name="positions" >
    <v>       0.66533305       0.66710288      -0.00021448 </v>
    <v>      -0.00135399      -0.00031516      -0.00003324 </v>
    <v>       0.33596506      -0.00001977       0.00018482 </v>
    <v>       0.66720917       0.33161427       0.00014145 </v>
    <v>       0.33485799       0.66815199      -0.00009933 </v>
    <v>       0.66486999       0.00000124      -0.00003310 </v>
    <v>       0.99764174       0.33331763       0.00003381 </v>
    <v>      -0.00001192       0.66522095      -0.00009423 </v>
    <v>       0.33538177       0.33484389       0.00012787 </v>
    <v>       0.10932387       0.21866528       0.95203201 </v>
    <v>       0.22075514       0.10769281       0.04675828 </v>
    <v>       0.11011148       0.55489180       0.95067668 </v>
    <v>       0.22145007       0.44320254       0.04912176 </v>
    <v>       0.11244262       0.89206560       0.95329142 </v>
    <v>       0.22326778       0.78191413       0.04805887 </v>
    <v>       0.44141700       0.21806586       0.95199774 </v>
    <v>       0.55066579       0.10867523       0.04824596 </v>
    <v>       0.44852082       0.55669347       0.95179380 </v>
    <v>       0.55652979       0.44825991       0.04803562 </v>
    <v>       0.44188156       0.89119159       0.95187109 </v>
    <v>       0.55800608       0.77531944       0.04802737 </v>
    <v>       0.77899249       0.22270180       0.95066061 </v>
    <v>       0.89187281       0.10981996       0.04796552 </v>
    <v>       0.77641271       0.55863369       0.95208994 </v>
    <v>       0.88974598       0.44478636       0.04943829 </v>
    <v>       0.77979650       0.88641851       0.95308251 </v>
    <v>       0.88712913       0.77929855       0.04683887 </v>
   </varray>
  </structure>
  <varray name="forces" >
   <v>      -0.25993862      -0.15956633      -0.01288091 </v>
   <v>      -0.14712685      -0.05637548      -0.01239249 </v>
   <v>       0.32506549       0.21378664       0.00519818 </v>
   <v>       0.46274582       0.04561842      -0.05121684 </v>
   <v>       0.05477326       0.06838277       0.05264132 </v>
   <v>      -0.33450206      -0.02331620       0.01140900 </v>
   <v>      -0.48290411      -0.08613145       0.00276896 </v>
   <v>       0.45300268      -0.28578939      -0.08532758 </v>
   <v>      -0.08303722       0.27727623       0.06805364 </v>
   <v>       0.01473358      -0.04206553      -0.32172394 </v>
   <v>       0.02704428      -0.05684880       0.26109238 </v>
   <v>      -0.00984839      -0.02899683      -0.59453268 </v>
   <v>       0.02916270      -0.04847589       0.42960560 </v>
   <v>      -0.00672965       0.06598945      -0.21613569 </v>
   <v>      -0.09403637       0.08382870       0.47788331 </v>
   <v>       0.00536973      -0.12306320      -0.41728707 </v>
   <v>      -0.06087772      -0.15112881       0.71448622 </v>
   <v>       0.08176732       0.10551313      -0.61756610 </v>
   <v>      -0.05676294       0.10614698       0.46368360 </v>
   <v>      -0.14531446       0.00056865      -0.66449605 </v>
   <v>       0.13307642       0.02716173       0.54076085 </v>
   <v>       0.02618557       0.01608142      -0.71361827 </v>
   <v>       0.08261629       0.01219867       0.46825602 </v>
   <v>      -0.08457037       0.03287628      -0.40002464 </v>
   <v>       0.02511940       0.02906546       0.73610861 </v>
   <v>       0.08783265      -0.01317473      -0.39093605 </v>
   <v>      -0.04284642      -0.00956189       0.26619064 </v>
  </varray>
  <varray name="stress" >
   <v>     -10.17719522      -0.00015265       0.07200963 </v>
   <v>      -0.00015267      -9.78960760      -0.01314088 </v>
   <v>       0.07200962      -0.01314070       6.55415734 </v>
  </varray>
  <energy>
   <i name="e_fr_energy">   -189.75244735 </i>
   <i name="e_wo_entrp">   -189.63511515 </i>
   <i name="e_0_energy">     -0.23466440 </i>
  </energy>
  <time name="totalsc">  361.95  362.91</time>
 </calculation>
 <calculation>
  <scstep>
   <time name="dav">   22.75   22.80</time>
   <time name="total">   23.35   23.41</time>
   <energy>
    <i name="alphaZ">     85.83443675 </i>
    <i name="ewald">  42838.27652580 </i>
    <i name="hartreedc"> -48854.97324442 </i>
    <i name="XCdc">   -232.95857339 </i>
    <i name="pawpsdc">   4038.90613201 </i>
    <i name="pawaedc">  -3454.61324460 </i>
    <i name="eentropy">     -0.19133542 </i>
    <i name="bandstr">  -1373.01996308 </i>
    <i name="atom">   6761.44252427 </i>
    <i name="e_fr_energy">   -191.29674207 </i>
    <i name="e_wo_entrp">   -191.10540666 </i>
    <i name="e_0_energy">   -191.20107437 </i>
   </energy>
  </scstep>
  <scstep>
   <time name="dav">   34.17   34.25</time>
   <time name="total">   34.77   34.86</time>
   <energy>
    <i name="e_fr_energy">   -191.18638344 </i>
    <i name="e_wo_entrp">   -190.98817753 </i>
    <i name="e_0_energy">   -191.08728049 </i>
   </energy>
  </scstep>
  <scstep>
   <time name="dav">   30.56   30.64</time>
   <time name="total">   31.16   31.25</time>
   <energy>
    <i name="e_fr_energy">   -191.23644617 </i>
    <i name="e_wo_entrp">   -191.02465438 </i>
    <i name="e_0_energy">   -191.13055027 </i>
   </energy>
  </scstep>
  <scstep>
   <time name="dav">   32.32   32.40</time>
   <time name="total">   32.93   33.01</time>
   <energy>
    <i name="e_fr_energy">   -190.90745228 </i>
    <i name="e_wo_entrp">   -190.69843910 </i>
    <i name="e_0_energy">   -190.80294569 </i>
   </energy>
  </scstep>
  <scstep>
   <time name="dav">   29.25   29.32</time>
   <time name="total">   29.86   29.94</time>
   <energy>
    <i name="e_fr_energy">   -190.89643566 </i>
    <i name="e_wo_entrp">   -190.71095845 </i>
    <i name="e_0_energy">   -190.80369705 </i>
   </energy>
  </scstep>
  <scstep>
   <time name="dav">   29.20   29.27</time>
   <time name="total">   29.81   29.89</time>
   <energy>
    <i name="e_fr_energy">   -190.71305137 </i>
    <i name="e_wo_entrp">   -190.51563951 </i>
    <i name="e_0_energy">   -190.61434544 </i>
   </energy>
  </scstep>
  <scstep>
   <time name="dav">   29.74   29.81</time>
   <time name="total">   30.34   30.42</time>
   <energy>
    <i name="e_fr_energy">   -190.71199729 </i>
    <i name="e_wo_entrp">   -190.51575824 </i>
    <i name="e_0_energy">   -190.61387777 </i>
   </energy>
  </scstep>
  <scstep>
   <time name="dav">   29.89   29.96</time>
   <time name="total">   30.49   30.57</time>
   <energy>
    <i name="e_fr_energy">   -190.71048768 </i>
    <i name="e_wo_entrp">   -190.51367190 </i>
    <i name="e_0_energy">   -190.61207979 </i>
   </energy>
  </scstep>
  <scstep>
   <time name="dav">   29.25   29.32</time>
   <time name="total">   29.85   29.94</time>
   <energy>
    <i name="e_fr_energy">   -190.70820237 </i>
    <i name="e_wo_entrp">   -190.51138047 </i>
    <i name="e_0_energy">   -190.60979142 </i>
   </energy>
  </scstep>
  <scstep>
   <time name="dav">   27.83   27.90</time>
   <time name="total">   28.44   28.51</time>
   <energy>
    <i name="e_fr_energy">   -190.70843551 </i>
    <i name="e_wo_entrp">   -190.51165773 </i>
    <i name="e_0_energy">   -190.61004662 </i>
   </energy>
  </scstep>
  <scstep>
   <time name="dav">   25.61   25.68</time>
   <time name="total">   25.65   25.72</time>
   <energy>
    <i name="alphaZ">     85.83443675 </i>
    <i name="ewald">  42838.27652580 </i>
    <i name="hartreedc"> -48826.24258673 </i>
    <i name="XCdc">   -234.29326422 </i>
    <i name="pawpsdc">   4062.70651042 </i>
    <i name="pawaedc">  -3478.57637262 </i>
    <i name="eentropy">     -0.19678769 </i>
    <i name="bandstr">  -1399.65933934 </i>
    <i name="atom">   6761.44252427 </i>
    <i name="e_fr_energy">   -190.70835335 </i>
    <i name="e_wo_entrp">   -190.51156566 </i>
    <i name="e_0_energy">   -190.60995951 </i>
   </energy>
  </scstep>
  <structure>
   <crystal>
    <varray name="basis" >
     <v>       8.48675361       4.89814792       0.00000000 </v>
     <v>      -8.48676260       4.89816433       0.00000000 </v>
     <v>       0.00000000       0.00000000      30.00000000 </v>
    </varray>
    <i name="volume">   2494.16797096 </i>
    <varray name="rec_basis" >
     <v>       0.05891541       0.10207928       0.00000000 </v>
     <v>      -0.05891521       0.10207917       0.00000000 </v>
     <v>       0.00000000       0.00000000       0.03333333 </v>
    </varray>
   </crystal>
   <varray name="positions" >
    <v>       0.66325586       0.66694583      -0.00021716 </v>
    <v>      -0.00218966      -0.00004731      -0.00005492 </v>
    <v>       0.33848968       0.00014694       0.00017417 </v>
    <v>       0.66936864       0.33027588       0.00002281 </v>
    <v>       0.33537096       0.66821181       0.00001856 </v>
    <v>       0.66357867       0.00119639      -0.00000401 </v>
    <v>       0.99536281       0.33467680       0.00003715 </v>
    <v>      -0.00019246       0.66153754      -0.00025912 </v>
    <v>       0.33673619       0.33696020       0.00025372 </v>
    <v>       0.10893258       0.21797026       0.95095106 </v>
    <v>       0.22027509       0.10679364       0.04768125 </v>
    <v>       0.11014525       0.55483534       0.94896397 </v>
    <v>       0.22132371       0.44299591       0.05046929 </v>
    <v>       0.11306550       0.89294627       0.95246744 </v>
    <v>       0.22375785       0.78308191       0.04947143 </v>
    <v>       0.44068431       0.21696854       0.95071860 </v>
    <v>       0.54930532       0.10784763       0.05016276 </v>
    <v>       0.44979472       0.55739836       0.95007422 </v>
    <v>       0.55739323       0.44947705       0.04941534 </v>
    <v>       0.44125638       0.89182634       0.95007248 </v>
    <v>       0.55879043       0.77493571       0.04955888 </v>
    <v>       0.77894398       0.22254681       0.94870271 </v>
    <v>       0.89220216       0.10925802       0.04935203 </v>
    <v>       0.77596242       0.55911547       0.95084456 </v>
    <v>       0.88979291       0.44479175       0.05146467 </v>
    <v>       0.78011383       0.88593302       0.95189077 </v>
    <v>       0.88669409       0.77958834       0.04776724 </v>
   </varray>
  </structure>
  <varray name="forces" >
   <v>      -0.31690607      -0.17863109       0.04312297 </v>
   <v>      -0.12414964      -0.02941087      -0.00359713 </v>
   <v>       0.27636828       0.19020081      -0.04787125 </v>
   <v>       0.53457386       0.10552416      -0.02450054 </v>
   <v>       0.08652400       0.03357383       0.03116659 </v>
   <v>      -0.32701248       0.01603600       0.01258772 </v>
   <v>      -0.52954238      -0.09108842      -0.01052851 </v>
   <v>       0.46455057      -0.31332288      -0.02167657 </v>
   <v>      -0.11258878       0.25957045       0.01977783 </v>
   <v>      -0.03666418       0.01089863      -0.16782797 </v>
   <v>       0.02487377       0.00251676       0.17751339 </v>
   <v>       0.06908783       0.01452035      -0.46010653 </v>
   <v>      -0.03255301      -0.02971296       0.26860168 </v>
   <v>       0.05559493       0.00454743      -0.09485198 </v>
   <v>      -0.02617284       0.02236680       0.30208140 </v>
   <v>       0.02802859      -0.00466983      -0.21626967 </v>
   <v>      -0.02275011      -0.03375923       0.54563030 </v>
   <v>       0.00235089       0.07188479      -0.46674906 </v>
   <v>       0.04463424       0.07371235       0.25831751 </v>
   <v>      -0.03759419       0.00049096      -0.44239768 </v>
   <v>       0.00703015       0.04376065       0.37239079 </v>
   <v>       0.03644157      -0.04201185      -0.54400441 </v>
   <v>      -0.03615513      -0.01826471       0.29915168 </v>
   <v>       0.00244076      -0.02121671      -0.24421349 </v>
   <v>      -0.02041625      -0.03151302       0.59900081 </v>
   <v>      -0.03297603      -0.02608547      -0.31939948 </v>
   <v>       0.02298166      -0.02991694       0.13465160 </v>
  </varray>
  <varray name="stress" >
   <v>      -5.74091141       0.02017333      -0.12571099 </v>
   <v>       0.02017317      -5.94876434      -0.00805846 </v>
   <v>      -0.12571087      -0.00805852       4.55039445 </v>
  </varray>
  <energy>
   <i name="e_fr_energy">   -190.70835335 </i>
   <i name="e_wo_entrp">   -190.60995951 </i>
   <i name="e_0_energy">     -0.19678769 </i>
  </energy>
  <time name="totalsc">  370.47  371.44</time>
 </calculation>
 <calculation>
  <scstep>
   <time name="dav">   22.73   22.79</time>
   <time name="total">   23.34   23.39</time>
   <energy>
    <i name="alphaZ">     90.31979355 </i>
    <i name="ewald">  44738.61102803 </i>
    <i name="hartreedc"> -50783.15938670 </i>
    <i name="XCdc">   -231.70992187 </i>
    <i name="pawpsdc">   4063.11246476 </i>
    <i name="pawaedc">  -3478.98144944 </i>
    <i name="eentropy">     -0.17736683 </i>
    <i name="bandstr">  -1351.58986720 </i>
    <i name="atom">   6761.44252427 </i>
    <i name="e_fr_energy">   -192.13218142 </i>
    <i name="e_wo_entrp">   -191.95481459 </i>
    <i name="e_0_energy">   -192.04349801 </i>
   </energy>
  </scstep>
  <scstep>
   <time name="dav">   31.42   31.50</time>
   <time name="total">   32.02   32.10</time>
   <energy>
    <i name="e_fr_energy">   -191.96113166 </i>
    <i name="e_wo_entrp">   -191.76240780 </i>
    <i name="e_0_energy">   -191.86176973 </i>
   </energy>
  </scstep>
  <scstep>
   <time name="dav">   31.50   31.58</time>
   <time name="total">   32.10   32.18</time>
   <energy>
    <i name="e_fr_energy">   -192.41062774 </i>
    <i name="e_wo_entrp">   -192.21929431 </i>
    <i name="e_0_energy">   -192.31496102 </i>
   </energy>
  </scstep>
  <scstep>
   <time name="dav">   31.73   31.80</time>
   <time name="total">   32.32   32.41</time>
   <energy>
    <i name="e_fr_energy">   -191.53951616 </i>
    <i name="e_wo_entrp">   -191.35933036 </i>
    <i name="e_0_energy">   -191.44942326 </i>
   </energy>
  </scstep>
  <scstep>
   <time name="dav">   30.62   30.70</time>
   <time name="total">   31.22   31.30</time>
   <energy>
    <i name="e_fr_energy">   -191.50984406 </i>
    <i name="e_wo_entrp">   -191.31301834 </i>
    <i name="e_0_energy">   -191.41143120 </i>
   </energy>
  </scstep>
  <scstep>
   <time name="dav">   31.45   31.52</time>
   <time name="total">   32.04   32.13</time>
   <energy>
    <i name="e_fr_energy">   -191.37298191 </i>
    <i name="e_wo_entrp">   -191.19057292 </i>
    <i name="e_0_energy">   -191.28177742 </i>
   </energy>
  </scstep>
  <scstep>
   <time name="dav">   30.87   30.94</time>
   <time name="total">   31.47   31.55</time>
   <energy>
    <i name="e_fr_energy">   -191.34831574 </i>
    <i name="e_wo_entrp">   -191.16329052 </i>
    <i name="e_0_energy">   -191.25580313 </i>
   </energy>
  </scstep>
  <scstep>
   <time name="dav">   31.22   31.30</time>
   <time name="total">   31.82   31.90</time>
   <energy>
    <i name="e_fr_energy">   -191.34693352 </i>
    <i name="e_wo_entrp">   -191.16028095 </i>
    <i name="e_0_energy">   -191.25360724 </i>
   </energy>
  </scstep>
  <scstep>
   <time name="dav">   29.74   29.81</time>
   <time name="total">   30.34   30.42</time>
   <energy>
    <i name="e_fr_energy">   -191.34147540 </i>
    <i name="e_wo_entrp">   -191.15569515 </i>
    <i name="e_0_energy">   -191.24858528 </i>
   </energy>
  </scstep>
  <scstep>
   <time name="dav">   30.01   30.08</time>
   <time name="total">   30.60   30.68</time>
   <energy>
    <i name="e_fr_energy">   -191.34159864 </i>
    <i name="e_wo_entrp">   -191.15549755 </i>
    <i name="e_0_energy">   -191.24854809 </i>
   </energy>
  </scstep>
  <scstep>
   <time name="dav">   28.31   28.37</time>
   <time name="total">   28.90   28.98</time>
   <energy>
    <i name="e_fr_energy">   -191.34145740 </i>
    <i name="e_wo_entrp">   -191.15506909 </i>
    <i name="e_0_energy">   -191.24826324 </i>
   </energy>
  </scstep>
  <scstep>
   <time name="dav">   20.82   20.87</time>
   <time name="total">   20.86   20.92</time>
   <energy>
    <i name="alphaZ">     90.31979355 </i>
    <i name="ewald">  44738.61102803 </i>
    <i name="hartreedc"> -50748.28262708 </i>
    <i name="XCdc">   -233.29762324 </i>
    <i name="pawpsdc">   4086.59093500 </i>
    <i name="pawaedc">  -3502.55689387 </i>
    <i name="eentropy">     -0.18628306 </i>
    <i name="bandstr">  -1383.98227750 </i>
    <i name="atom">   6761.44252427 </i>
    <i name="e_fr_energy">   -191.34142389 </i>
    <i name="e_wo_entrp">   -191.15514083 </i>
    <i name="e_0_energy">   -191.24828236 </i>
   </energy>
  </scstep>
  <structure>
   <crystal>
    <varray name="basis" >
     <v>       8.27857344       4.77309723       0.00000000 </v>
     <v>      -8.27759533       4.77140369       0.00000000 </v>
     <v>       0.00000000       0.00000000      30.00000000 </v>
    </varray>
    <i name="volume">   2370.30549465 </i>
    <varray name="rec_basis" >
     <v>       0.06038973       0.10476618       0.00000000 </v>
     <v>      -0.06041117       0.10477856       0.00000000 </v>
     <v>       0.00000000       0.00000000       0.03333333 </v>
    </varray>
   </crystal>
   <varray name="positions" >
    <v>       0.65870910       0.66686267      -0.00004557 </v>
    <v>      -0.00345016       0.00055695      -0.00006952 </v>
    <v>       0.34291534       0.00052089      -0.00001513 </v>
    <v>       0.67455628       0.32778923      -0.00010514 </v>
    <v>       0.33629913       0.66789902       0.00016622 </v>
    <v>       0.66144272       0.00382587       0.00005248 </v>
    <v>       0.99051512       0.33747420      -0.00000090 </v>
    <v>      -0.00074745       0.65410279      -0.00036714 </v>
    <v>       0.33910485       0.34106854       0.00034194 </v>
    <v>       0.10855468       0.21778517       0.94970593 </v>
    <v>       0.22012673       0.10602412       0.04888940 </v>
    <v>       0.11096190       0.55463004       0.94647296 </v>
    <v>       0.22083639       0.44300611       0.05217502 </v>
    <v>       0.11383506       0.89328781       0.95157897 </v>
    <v>       0.22424157       0.78406918       0.05127927 </v>
    <v>       0.44062754       0.21617433       0.94925232 </v>
    <v>       0.54826408       0.10731418       0.05296533 </v>
    <v>       0.45120593       0.55864714       0.94759532 </v>
    <v>       0.55905188       0.45062936       0.05105875 </v>
    <v>       0.44076808       0.89232988       0.94767440 </v>
    <v>       0.55963259       0.77519085       0.05163295 </v>
    <v>       0.77848694       0.22168613       0.94585609 </v>
    <v>       0.89183148       0.10882838       0.05113728 </v>
    <v>       0.77531348       0.55897639       0.94928780 </v>
    <v>       0.88913918       0.44450482       0.05454101 </v>
    <v>       0.77979146       0.88564994       0.95011728 </v>
    <v>       0.88620056       0.77938046       0.04882255 </v>
   </varray>
  </structure>
  <varray name="forces" >
   <v>      -0.41052815      -0.06722501       0.01251959 </v>
   <v>      -0.08213887      -0.03023222       0.00083062 </v>
   <v>       0.15942837       0.11628080       0.00220847 </v>
   <v>       0.32773598       0.08529997       0.05726940 </v>
   <v>       0.11908297       0.00194162      -0.03112805 </v>
   <v>      -0.09112422       0.05226586      -0.02045213 </v>
   <v>      -0.23792877      -0.07764527      -0.07963121 </v>
   <v>       0.27026466      -0.19887546       0.02189853 </v>
   <v>      -0.16474685       0.12995737       0.01157782 </v>
   <v>      -0.15202410       0.08398204       0.06539904 </v>
   <v>       0.01653014       0.08648411      -0.06027395 </v>
   <v>       0.12982836       0.01416301      -0.19407507 </v>
   <v>      -0.08965306      -0.07644791       0.01156733 </v>
   <v>       0.14429589      -0.09524909       0.12047399 </v>
   <v>       0.04775215      -0.06180072       0.01395115 </v>
   <v>       0.03235097       0.16054599       0.06340630 </v>
   <v>       0.01388567       0.08164270       0.16870984 </v>
   <v>      -0.07117316       0.02592196      -0.17366522 </v>
   <v>       0.14726414       0.02932567      -0.07497213 </v>
   <v>       0.05505469      -0.00286213      -0.09817377 </v>
   <v>      -0.13672799       0.05101025       0.12118586 </v>
   <v>       0.07928960      -0.05823732      -0.25208713 </v>
   <v>      -0.17158283       0.01028036       0.02709521 </v>
   <v>       0.11068052      -0.06109761       0.08442340 </v>
   <v>      -0.02077671      -0.07714657       0.35155441 </v>
   <v>      -0.13068811      -0.05367346      -0.04591222 </v>
   <v>       0.10564873      -0.06860892      -0.10370007 </v>
  </varray>
  <varray name="stress" >
   <v>       0.37012857      -0.03133347      -0.31833098 </v>
   <v>      -0.03133361      -0.13203961      -0.04237489 </v>
   <v>      -0.31833093      -0.04237467      -0.20353096 </v>
  </varray>
  <energy>
   <i name="e_fr_energy">   -191.34142389 </i>
   <i name="e_wo_entrp">   -191.24828236 </i>
   <i name="e_0_energy">     -0.18628306 </i>
  </energy>
  <time name="totalsc">  400.62  401.68</time>
 </calculation>
 <calculation>
  <scstep>
   <time name="dav">   22.80   22.85</time>
   <time name="total">   23.40   23.46</time>
   <energy>
    <i name="alphaZ">     90.22213374 </i>
    <i name="ewald">  44671.19910493 </i>
    <i name="hartreedc"> -50680.61340085 </i>
    <i name="XCdc">   -233.45917624 </i>
    <i name="pawpsdc">   4086.47400745 </i>
    <i name="pawaedc">  -3502.43542609 </i>
    <i name="eentropy">     -0.18943479 </i>
    <i name="bandstr">  -1384.02860505 </i>
    <i name="atom">   6761.44252427 </i>
    <i name="e_fr_energy">   -191.38827262 </i>
    <i name="e_wo_entrp">   -191.19883784 </i>
    <i name="e_0_energy">   -191.29355523 </i>
   </energy>
  </scstep>
  <scstep>
   <time name="dav">   31.88   31.96</time>
   <time name="total">   32.48   32.56</time>
   <energy>
    <i name="e_fr_energy">   -191.44676654 </i>
    <i name="e_wo_entrp">   -191.24609838 </i>
    <i name="e_0_energy">   -191.34643246 </i>
   </energy>
  </scstep>
  <scstep>
   <time name="dav">   31.09   31.16</time>
   <time name="total">   31.69   31.77</time>
   <energy>
    <i name="e_fr_energy">   -191.39712500 </i>
    <i name="e_wo_entrp">   -191.20731289 </i>
    <i name="e_0_energy">   -191.30221895 </i>
   </energy>
  </scstep>
  <scstep>
   <time name="dav">   29.90   29.97</time>
   <time name="total">   30.50   30.58</time>
   <energy>
    <i name="e_fr_energy">   -191.39744110 </i>
    <i name="e_wo_entrp">   -191.20604400 </i>
    <i name="e_0_energy">   -191.30174255 </i>
   </energy>
  </scstep>
  <scstep>
   <time name="dav">   30.04   30.11</time>
   <time name="total">   30.64   30.72</time>
   <energy>
    <i name="e_fr_energy">   -191.39450549 </i>
    <i name="e_wo_entrp">   -191.20341308 </i>
    <i name="e_0_energy">   -191.29895928 </i>
   </energy>
  </scstep>
  <scstep>
   <time name="dav">   29.90   29.97</time>
   <time name="total">   30.49   30.57</time>
   <energy>
    <i name="e_fr_energy">   -191.39462290 </i>
    <i name="e_wo_entrp">   -191.20335873 </i>
    <i name="e_0_energy">   -191.29899081 </i>
   </energy>
  </scstep>
  <scstep>
   <time name="dav">   28.81   28.88</time>
   <time name="total">   29.40   29.48</time>
   <energy>
    <i name="e_fr_energy">   -191.39447940 </i>
    <i name="e_wo_entrp">   -191.20349940 </i>
    <i name="e_0_energy">   -191.29898940 </i>
   </energy>
  </scstep>
  <scstep>
   <time name="dav">   24.68   24.74</time>
   <time name="total">   25.28   25.34</time>
   <energy>
    <i name="e_fr_energy">   -191.39408350 </i>
    <i name="e_wo_entrp">   -191.20311026 </i>
    <i name="e_0_energy">   -191.29859688 </i>
   </energy>
  </scstep>
  <scstep>
   <time name="dav">   19.21   19.25</time>
   <time name="total">   19.25   19.30</time>
   <energy>
    <i name="alphaZ">     90.22213374 </i>
    <i name="ewald">  44671.19910493 </i>
    <i name="hartreedc"> -50682.34824025 </i>
    <i name="XCdc">   -233.40487244 </i>
    <i name="pawpsdc">   4082.53082389 </i>
    <i name="pawaedc">  -3498.43494611 </i>
    <i name="eentropy">     -0.19101061 </i>
    <i name="bandstr">  -1382.40961637 </i>
    <i name="atom">   6761.44252427 </i>
    <i name="e_fr_energy">   -191.39409895 </i>
    <i name="e_wo_entrp">   -191.20308834 </i>
    <i name="e_0_energy">   -191.29859364 </i>
   </energy>
  </scstep>
  <structure>
   <crystal>
    <varray name="basis" >
     <v>       8.28795678       4.77195096       0.00000000 </v>
     <v>      -8.28775918       4.77161349       0.00000000 </v>
     <v>       0.00000000       0.00000000      30.00000000 </v>
    </varray>
    <i name="volume">   2372.87120194 </i>
    <varray name="rec_basis" >
     <v>       0.06032709       0.10478140       0.00000000 </v>
     <v>      -0.06033135       0.10478390       0.00000000 </v>
     <v>       0.00000000       0.00000000       0.03333333 </v>
    </varray>
   </crystal>
   <varray name="positions" >
    <v>       0.65728405       0.66769994      -0.00002858 </v>
    <v>      -0.00381254       0.00063109      -0.00006799 </v>
    <v>       0.34387085       0.00063512      -0.00000877 </v>
    <v>       0.67582550       0.32731701      -0.00001314 </v>
    <v>       0.33663339       0.66757644       0.00011495 </v>
    <v>       0.66147452       0.00430028       0.00001951 </v>
    <v>       0.98953195       0.33772259      -0.00012511 </v>
    <v>      -0.00095106       0.65247367      -0.00033095 </v>
    <v>       0.33924086       0.34211171       0.00035863 </v>
    <v>       0.10854514       0.21863924       0.94983349 </v>
    <v>       0.22060546       0.10642140       0.04877122 </v>
    <v>       0.11138601       0.55433323       0.94621398 </v>
    <v>       0.22021188       0.44288254       0.05216036 </v>
    <v>       0.11376044       0.89239675       0.95178666 </v>
    <v>       0.22406126       0.78360858       0.05126710 </v>
    <v>       0.44151283       0.21689091       0.94938045 </v>
    <v>       0.54872637       0.10768794       0.05318009 </v>
    <v>       0.45110452       0.55895368       0.94736773 </v>
    <v>       0.55958419       0.45033205       0.05090968 </v>
    <v>       0.44092014       0.89214932       0.94756401 </v>
    <v>       0.55948007       0.77582875       0.05178484 </v>
    <v>       0.77843433       0.22118836       0.94551190 </v>
    <v>       0.89139967       0.10937758       0.05114616 </v>
    <v>       0.77534097       0.55836195       0.94945002 </v>
    <v>       0.88871167       0.44418878       0.05503740 </v>
    <v>       0.77915880       0.88576308       0.95007778 </v>
    <v>       0.88617319       0.77874248       0.04863849 </v>
   </varray>
  </structure>
  <varray name="forces" >
   <v>      -0.42540436      -0.04599723       0.01998597 </v>
   <v>      -0.07672814      -0.03752611       0.02111203 </v>
   <v>       0.15812609       0.12551485      -0.00572529 </v>
   <v>       0.37858156       0.07027265       0.01604759 </v>
   <v>       0.12687465       0.00294541      -0.01496969 </v>
   <v>      -0.09690185       0.04479220      -0.01391923 </v>
   <v>      -0.28072373      -0.07773981      -0.02904638 </v>
   <v>       0.31853236      -0.20584785       0.00598338 </v>
   <v>      -0.18777065       0.14061908       0.03065503 </v>
   <v>      -0.09463781       0.05280314       0.04609519 </v>
   <v>       0.00883221       0.06305685      -0.09573946 </v>
   <v>       0.08121628       0.00711847      -0.12072971 </v>
   <v>      -0.06079360      -0.05928370      -0.01481919 </v>
   <v>       0.10127623      -0.06706968       0.14470835 </v>
   <v>       0.04293944      -0.03599329      -0.00910952 </v>
   <v>       0.01102299       0.11374459       0.10190947 </v>
   <v>       0.02483064       0.04431369       0.12828668 </v>
   <v>      -0.05032823       0.02470973      -0.14943085 </v>
   <v>       0.08345973       0.03629795      -0.11183134 </v>
   <v>       0.02546601      -0.00524215      -0.06088047 </v>
   <v>      -0.09755312       0.02925116       0.09805572 </v>
   <v>       0.05033045      -0.04551237      -0.18144395 </v>
   <v>      -0.10595417       0.01332594       0.00481647 </v>
   <v>       0.05797873      -0.04890427       0.12547554 </v>
   <v>       0.02553221      -0.04727461       0.23233696 </v>
   <v>      -0.08273092      -0.03758191      -0.04073658 </v>
   <v>       0.06452700      -0.05479274      -0.12708673 </v>
  </varray>
  <varray name="stress" >
   <v>      -0.18579192       0.01556796      -0.12181935 </v>
   <v>       0.01556791      -0.26895378      -0.00598470 </v>
   <v>      -0.12181932      -0.00598482      -0.98654760 </v>
  </varray>
  <energy>
   <i name="e_fr_energy">   -191.39409895 </i>
   <i name="e_wo_entrp">   -191.29859364 </i>
   <i name="e_0_energy">     -0.19101061 </i>
  </energy>
  <time name="totalsc">  297.16  297.95</time>
 </calculation>
 <calculation>
  <scstep>
   <time name="dav">   22.78   22.83</time>
   <time name="total">   23.38   23.43</time>
   <energy>
    <i name="alphaZ">     90.45950494 </i>
    <i name="ewald">  44768.04890900 </i>
    <i name="hartreedc"> -50782.06276466 </i>
    <i name="XCdc">   -233.28704058 </i>
    <i name="pawpsdc">   4082.36787107 </i>
    <i name="pawaedc">  -3498.26974502 </i>
    <i name="eentropy">     -0.19068167 </i>
    <i name="bandstr">  -1379.97247588 </i>
    <i name="atom">   6761.44252427 </i>
    <i name="e_fr_energy">   -191.46389853 </i>
    <i name="e_wo_entrp">   -191.27321686 </i>
    <i name="e_0_energy">   -191.36855770 </i>
   </energy>
  </scstep>
  <scstep>
   <time name="dav">   32.22   32.30</time>
   <time name="total">   32.82   32.90</time>
   <energy>
    <i name="e_fr_energy">   -191.56484169 </i>
    <i name="e_wo_entrp">   -191.34838542 </i>
    <i name="e_0_energy">   -191.45661355 </i>
   </energy>
  </scstep>
  <scstep>
   <time name="dav">   30.92   31.00</time>
   <time name="total">   31.52   31.60</time>
   <energy>
    <i name="e_fr_energy">   -191.47921245 </i>
    <i name="e_wo_entrp">   -191.28767677 </i>
    <i name="e_0_energy">   -191.38344461 </i>
   </energy>
  </scstep>
  <scstep>
   <time name="dav">   29.70   29.77</time>
   <time name="total">   30.30   30.38</time>
   <energy>
    <i name="e_fr_energy">   -191.47864456 </i>
    <i name="e_wo_entrp">   -191.28539990 </i>
    <i name="e_0_energy">   -191.38202223 </i>
   </energy>
  </scstep>
  <scstep>
   <time name="dav">   30.36   30.43</time>
   <time name="total">   30.95   31.04</time>
   <energy>
    <i name="e_fr_energy">   -191.47022875 </i>
    <i name="e_wo_entrp">   -191.27627654 </i>
    <i name="e_0_energy">   -191.37325264 </i>
   </energy>
  </scstep>
  <scstep>
   <time name="dav">   29.79   29.87</time>
   <time name="total">   30.39   30.47</time>
   <energy>
    <i name="e_fr_energy">   -191.47006219 </i>
    <i name="e_wo_entrp">   -191.27529258 </i>
    <i name="e_0_energy">   -191.37267739 </i>
   </energy>
  </scstep>
  <scstep>
   <time name="dav">   29.20   29.27</time>
   <time name="total">   29.80   29.87</time>
   <energy>
    <i name="e_fr_energy">   -191.46944406 </i>
    <i name="e_wo_entrp">   -191.27491575 </i>
    <i name="e_0_energy">   -191.37217991 </i>
   </energy>
  </scstep>
  <scstep>
   <time name="dav">   27.40   27.47</time>
   <time name="total">   28.00   28.08</time>
   <energy>
    <i name="e_fr_energy">   -191.46862021 </i>
    <i name="e_wo_entrp">   -191.27381501 </i>
    <i name="e_0_energy">   -191.37121761 </i>
   </energy>
  </scstep>
  <scstep>
[...]
      <set comment="kpoint 31">
       <r>  -17.5932    1.0000 </r>
       <r>  -17.2463    1.0000 </r>
       <r>  -16.9275    1.0000 </r>
       <r>  -16.6837    1.0000 </r>
       <r>  -16.5263    1.0000 </r>
       <r>  -16.4813    1.0000 </r>
       <r>  -16.3538    1.0000 </r>
       <r>  -16.2307    1.0000 </r>
       <r>  -16.1633    1.0000 </r>
       <r>  -16.0152    1.0000 </r>
       <r>  -15.9392    1.0000 </r>
       <r>  -15.8740    1.0000 </r>
       <r>  -15.7153    1.0000 </r>
       <r>  -15.6411    1.0000 </r>
       <r>  -15.5714    1.0000 </r>
       <r>  -15.4126    1.0000 </r>
       <r>  -15.3415    1.0000 </r>
       <r>  -15.2415    1.0000 </r>
       <r>   -9.8042    1.0000 </r>
       <r>   -9.4934    1.0000 </r>
       <r>   -9.3883    1.0000 </r>
       <r>   -9.0768    1.0000 </r>
       <r>   -8.8505    1.0000 </r>
       <r>   -8.7108    1.0000 </r>
       <r>   -8.5947    1.0000 </r>
       <r>   -8.5035    1.0000 </r>
       <r>   -8.3833    1.0000 </r>
       <r>   -8.3437    1.0000 </r>
       <r>   -8.2588    1.0000 </r>
       <r>   -8.2252    1.0000 </r>
       <r>   -8.1420    1.0000 </r>
       <r>   -8.0491    1.0000 </r>
       <r>   -7.9343    1.0000 </r>
       <r>   -7.8840    1.0000 </r>
       <r>   -7.8541    1.0000 </r>
       <r>   -7.6929    1.0000 </r>
       <r>   -7.6018    1.0000 </r>
       <r>   -7.5464    1.0000 </r>
       <r>   -7.4120    1.0000 </r>
       <r>   -7.2217    1.0000 </r>
       <r>   -7.1619    1.0000 </r>
       <r>   -7.0718    1.0000 </r>
       <r>   -6.9986    1.0000 </r>
       <r>   -6.9662    1.0000 </r>
       <r>   -6.9252    1.0000 </r>
       <r>   -6.7574    1.0000 </r>
       <r>   -6.6436    1.0000 </r>
       <r>   -6.5831    1.0000 </r>
       <r>   -6.5354    1.0000 </r>
       <r>   -6.4410    1.0000 </r>
       <r>   -6.3824    1.0000 </r>
       <r>   -6.3237    1.0000 </r>
       <r>   -6.2224    1.0000 </r>
       <r>   -6.1499    1.0000 </r>
       <r>   -6.0895    1.0000 </r>
       <r>   -6.0254    1.0000 </r>
       <r>   -5.9720    1.0000 </r>
       <r>   -5.9168    1.0000 </r>
       <r>   -5.8908    1.0000 </r>
       <r>   -5.7027    1.0000 </r>
       <r>   -5.6497    1.0000 </r>
       <r>   -5.5267    1.0000 </r>
       <r>   -5.4840    1.0000 </r>
       <r>   -5.3950    1.0000 </r>
       <r>   -5.2661    1.0000 </r>
       <r>   -5.2338    1.0000 </r>
       <r>   -4.9459    1.0000 </r>
       <r>   -4.8472    1.0000 </r>
       <r>   -4.7679    1.0000 </r>
       <r>   -4.7386    1.0000 </r>
       <r>   -4.4901    1.0000 </r>
       <r>   -4.4318    1.0000 </r>
       <r>   -4.3205    1.0000 </r>
       <r>   -4.1272    1.0000 </r>
       <r>   -4.0768    1.0000 </r>
       <r>   -3.9873    1.0000 </r>
       <r>   -3.8615    1.0000 </r>
       <r>   -3.7095    0.9996 </r>
       <r>   -3.6202    0.9967 </r>
       <r>   -3.1510    0.2736 </r>
       <r>   -3.0181    0.0616 </r>
       <r>   -2.8822    0.0062 </r>
       <r>   -2.6667    0.0000 </r>
       <r>   -2.5429    0.0000 </r>
       <r>   -2.4975    0.0000 </r>
       <r>   -2.3573    0.0000 </r>
       <r>   -2.2058    0.0000 </r>
       <r>   -2.0445    0.0000 </r>
       <r>   -1.9840    0.0000 </r>
       <r>   -1.8875    0.0000 </r>
       <r>   -1.7439    0.0000 </r>
       <r>   -1.4969    0.0000 </r>
       <r>   -1.3454    0.0000 </r>
       <r>   -1.2803    0.0000 </r>
       <r>   -1.2021    0.0000 </r>
       <r>   -1.1692    0.0000 </r>
       <r>   -1.0467    0.0000 </r>
       <r>   -0.9445    0.0000 </r>
       <r>   -0.9092    0.0000 </r>
       <r>   -0.8791    0.0000 </r>
       <r>   -0.8196    0.0000 </r>
       <r>   -0.7575    0.0000 </r>
       <r>   -0.6730    0.0000 </r>
       <r>   -0.5836    0.0000 </r>
       <r>   -0.4936    0.0000 </r>
       <r>   -0.2347    0.0000 </r>
       <r>   -0.1945    0.0000 </r>
       <r>   -0.1402    0.0000 </r>
       <r>    0.0143    0.0000 </r>
       <r>    0.1176    0.0000 </r>
       <r>    0.3307    0.0000 </r>
       <r>    0.6296    0.0000 </r>
       <r>    0.6868    0.0000 </r>
       <r>    1.0777    0.0000 </r>
       <r>    1.1527    0.0000 </r>
       <r>    1.3288    0.0000 </r>
       <r>    1.4311    0.0000 </r>
       <r>    2.1453    0.0000 </r>
       <r>    2.3127    0.0000 </r>
       <r>    2.4063    0.0000 </r>
      </set>
      <set comment="kpoint 32">
       <r>  -17.6058    1.0000 </r>
       <r>  -17.1566    1.0000 </r>
       <r>  -17.0578    1.0000 </r>
       <r>  -16.6971    1.0000 </r>
       <r>  -16.4867    1.0000 </r>
       <r>  -16.3962    1.0000 </r>
       <r>  -16.3022    1.0000 </r>
       <r>  -16.2579    1.0000 </r>
       <r>  -16.1991    1.0000 </r>
       <r>  -16.0360    1.0000 </r>
       <r>  -15.9527    1.0000 </r>
       <r>  -15.8698    1.0000 </r>
       <r>  -15.7249    1.0000 </r>
       <r>  -15.6390    1.0000 </r>
       <r>  -15.5997    1.0000 </r>
       <r>  -15.4585    1.0000 </r>
       <r>  -15.3210    1.0000 </r>
       <r>  -15.1987    1.0000 </r>
       <r>   -9.7013    1.0000 </r>
       <r>   -9.5722    1.0000 </r>
       <r>   -9.4977    1.0000 </r>
       <r>   -9.1175    1.0000 </r>
       <r>   -8.7826    1.0000 </r>
       <r>   -8.5884    1.0000 </r>
       <r>   -8.4778    1.0000 </r>
       <r>   -8.4152    1.0000 </r>
       <r>   -8.3807    1.0000 </r>
       <r>   -8.3521    1.0000 </r>
       <r>   -8.3188    1.0000 </r>
       <r>   -8.2821    1.0000 </r>
       <r>   -8.2139    1.0000 </r>
       <r>   -8.1027    1.0000 </r>
       <r>   -7.9594    1.0000 </r>
       <r>   -7.9269    1.0000 </r>
       <r>   -7.8590    1.0000 </r>
       <r>   -7.7330    1.0000 </r>
       <r>   -7.5510    1.0000 </r>
       <r>   -7.4811    1.0000 </r>
       <r>   -7.3982    1.0000 </r>
       <r>   -7.2369    1.0000 </r>
       <r>   -7.1510    1.0000 </r>
       <r>   -7.1104    1.0000 </r>
       <r>   -7.0624    1.0000 </r>
       <r>   -6.9560    1.0000 </r>
       <r>   -6.9034    1.0000 </r>
       <r>   -6.7715    1.0000 </r>
       <r>   -6.6585    1.0000 </r>
       <r>   -6.5528    1.0000 </r>
       <r>   -6.4719    1.0000 </r>
       <r>   -6.4034    1.0000 </r>
       <r>   -6.3281    1.0000 </r>
       <r>   -6.3105    1.0000 </r>
       <r>   -6.2747    1.0000 </r>
       <r>   -6.1895    1.0000 </r>
       <r>   -6.1039    1.0000 </r>
       <r>   -6.0407    1.0000 </r>
       <r>   -5.9734    1.0000 </r>
       <r>   -5.8759    1.0000 </r>
       <r>   -5.8102    1.0000 </r>
       <r>   -5.7066    1.0000 </r>
       <r>   -5.6358    1.0000 </r>
       <r>   -5.5614    1.0000 </r>
       <r>   -5.5088    1.0000 </r>
       <r>   -5.4173    1.0000 </r>
       <r>   -5.3544    1.0000 </r>
       <r>   -5.2156    1.0000 </r>
       <r>   -5.1447    1.0000 </r>
       <r>   -4.8072    1.0000 </r>
       <r>   -4.7117    1.0000 </r>
       <r>   -4.6708    1.0000 </r>
       <r>   -4.4858    1.0000 </r>
       <r>   -4.3503    1.0000 </r>
       <r>   -4.3207    1.0000 </r>
       <r>   -4.1967    1.0000 </r>
       <r>   -4.1050    1.0000 </r>
       <r>   -4.0429    1.0000 </r>
       <r>   -3.9919    1.0000 </r>
       <r>   -3.6851    0.9993 </r>
       <r>   -3.5437    0.9852 </r>
       <r>   -3.1270    0.2203 </r>
       <r>   -2.9496    0.0214 </r>
       <r>   -2.7852    0.0007 </r>
       <r>   -2.6847    0.0000 </r>
       <r>   -2.5123    0.0000 </r>
       <r>   -2.4764    0.0000 </r>
       <r>   -2.3544    0.0000 </r>
       <r>   -2.1153    0.0000 </r>
       <r>   -2.0224    0.0000 </r>
       <r>   -1.9450    0.0000 </r>
       <r>   -1.8973    0.0000 </r>
       <r>   -1.7566    0.0000 </r>
       <r>   -1.5693    0.0000 </r>
       <r>   -1.3790    0.0000 </r>
       <r>   -1.3461    0.0000 </r>
       <r>   -1.2502    0.0000 </r>
       <r>   -1.2138    0.0000 </r>
       <r>   -1.0278    0.0000 </r>
       <r>   -0.9708    0.0000 </r>
       <r>   -0.9283    0.0000 </r>
       <r>   -0.8893    0.0000 </r>
       <r>   -0.8277    0.0000 </r>
       <r>   -0.7854    0.0000 </r>
       <r>   -0.6456    0.0000 </r>
       <r>   -0.5760    0.0000 </r>
       <r>   -0.4100    0.0000 </r>
       <r>   -0.2111    0.0000 </r>
       <r>   -0.1439    0.0000 </r>
       <r>   -0.0903    0.0000 </r>
       <r>    0.0892    0.0000 </r>
       <r>    0.1566    0.0000 </r>
       <r>    0.3575    0.0000 </r>
       <r>    0.5875    0.0000 </r>
       <r>    0.6737    0.0000 </r>
       <r>    1.0179    0.0000 </r>
       <r>    1.1049    0.0000 </r>
       <r>    1.2606    0.0000 </r>
       <r>    1.3147    0.0000 </r>
       <r>    2.1039    0.0000 </r>
       <r>    2.2838    0.0000 </r>
       <r>    2.5505    0.0000 </r>
      </set>
      <set comment="kpoint 33">
       <r>  -17.6008    1.0000 </r>
       <r>  -17.2477    1.0000 </r>
       <r>  -16.9143    1.0000 </r>
       <r>  -16.7069    1.0000 </r>
       <r>  -16.5026    1.0000 </r>
       <r>  -16.4360    1.0000 </r>
       <r>  -16.3851    1.0000 </r>
       <r>  -16.2600    1.0000 </r>
       <r>  -16.1105    1.0000 </r>
       <r>  -16.0077    1.0000 </r>
       <r>  -15.9302    1.0000 </r>
       <r>  -15.8603    1.0000 </r>
       <r>  -15.7395    1.0000 </r>
       <r>  -15.6461    1.0000 </r>
       <r>  -15.6148    1.0000 </r>
       <r>  -15.5265    1.0000 </r>
       <r>  -15.2803    1.0000 </r>
       <r>  -15.1927    1.0000 </r>
       <r>   -9.7455    1.0000 </r>
       <r>   -9.4723    1.0000 </r>
       <r>   -9.4255    1.0000 </r>
       <r>   -9.1372    1.0000 </r>
       <r>   -8.9462    1.0000 </r>
       <r>   -8.7373    1.0000 </r>
       <r>   -8.5110    1.0000 </r>
       <r>   -8.3875    1.0000 </r>
       <r>   -8.3558    1.0000 </r>
       <r>   -8.3311    1.0000 </r>
       <r>   -8.2771    1.0000 </r>
       <r>   -8.2155    1.0000 </r>
       <r>   -8.1769    1.0000 </r>
       <r>   -8.1193    1.0000 </r>
       <r>   -8.0058    1.0000 </r>
       <r>   -7.8995    1.0000 </r>
       <r>   -7.7647    1.0000 </r>
       <r>   -7.6958    1.0000 </r>
       <r>   -7.6379    1.0000 </r>
       <r>   -7.4044    1.0000 </r>
       <r>   -7.3139    1.0000 </r>
       <r>   -7.2617    1.0000 </r>
       <r>   -7.2155    1.0000 </r>
       <r>   -7.1101    1.0000 </r>
       <r>   -7.0647    1.0000 </r>
       <r>   -6.8847    1.0000 </r>
       <r>   -6.8502    1.0000 </r>
       <r>   -6.7491    1.0000 </r>
       <r>   -6.6500    1.0000 </r>
       <r>   -6.5764    1.0000 </r>
       <r>   -6.4768    1.0000 </r>
       <r>   -6.4060    1.0000 </r>
       <r>   -6.3887    1.0000 </r>
       <r>   -6.3392    1.0000 </r>
       <r>   -6.2622    1.0000 </r>
       <r>   -6.1941    1.0000 </r>
       <r>   -6.1205    1.0000 </r>
       <r>   -6.0859    1.0000 </r>
       <r>   -6.0012    1.0000 </r>
       <r>   -5.9208    1.0000 </r>
       <r>   -5.8380    1.0000 </r>
       <r>   -5.8006    1.0000 </r>
       <r>   -5.6748    1.0000 </r>
       <r>   -5.5702    1.0000 </r>
       <r>   -5.5178    1.0000 </r>
       <r>   -5.3947    1.0000 </r>
       <r>   -5.3111    1.0000 </r>
       <r>   -5.2116    1.0000 </r>
       <r>   -5.0891    1.0000 </r>
       <r>   -4.7800    1.0000 </r>
       <r>   -4.7394    1.0000 </r>
       <r>   -4.5676    1.0000 </r>
       <r>   -4.4982    1.0000 </r>
       <r>   -4.3453    1.0000 </r>
       <r>   -4.3152    1.0000 </r>
       <r>   -4.1789    1.0000 </r>
       <r>   -4.1208    1.0000 </r>
       <r>   -4.0897    1.0000 </r>
       <r>   -4.0576    1.0000 </r>
       <r>   -3.7226    0.9997 </r>
       <r>   -3.5474    0.9862 </r>
       <r>   -3.0721    0.1231 </r>
       <r>   -2.9599    0.0254 </r>
       <r>   -2.7035    0.0001 </r>
       <r>   -2.6589    0.0000 </r>
       <r>   -2.5042    0.0000 </r>
       <r>   -2.4018    0.0000 </r>
       <r>   -2.3520    0.0000 </r>
       <r>   -2.0402    0.0000 </r>
       <r>   -1.9936    0.0000 </r>
       <r>   -1.9368    0.0000 </r>
       <r>   -1.8410    0.0000 </r>
       <r>   -1.7462    0.0000 </r>
       <r>   -1.6147    0.0000 </r>
       <r>   -1.4908    0.0000 </r>
       <r>   -1.3884    0.0000 </r>
       <r>   -1.2796    0.0000 </r>
       <r>   -1.2493    0.0000 </r>
       <r>   -1.0780    0.0000 </r>
       <r>   -0.9712    0.0000 </r>
       <r>   -0.9259    0.0000 </r>
       <r>   -0.8942    0.0000 </r>
       <r>   -0.8588    0.0000 </r>
       <r>   -0.8062    0.0000 </r>
       <r>   -0.6423    0.0000 </r>
       <r>   -0.5564    0.0000 </r>
       <r>   -0.3435    0.0000 </r>
       <r>   -0.2404    0.0000 </r>
       <r>   -0.0989    0.0000 </r>
       <r>   -0.0144    0.0000 </r>
       <r>    0.0900    0.0000 </r>
       <r>    0.2134    0.0000 </r>
       <r>    0.4139    0.0000 </r>
       <r>    0.5791    0.0000 </r>
       <r>    0.6662    0.0000 </r>
       <r>    0.9880    0.0000 </r>
       <r>    1.0761    0.0000 </r>
       <r>    1.1378    0.0000 </r>
       <r>    1.3079    0.0000 </r>
       <r>    2.1197    0.0000 </r>
       <r>    2.3144    0.0000 </r>
       <r>    2.3842    0.0000 </r>
      </set>
      <set comment="kpoint 34">
       <r>  -17.5928    1.0000 </r>
       <r>  -17.2959    1.0000 </r>
       <r>  -16.7428    1.0000 </r>
       <r>  -16.7071    1.0000 </r>
       <r>  -16.6716    1.0000 </r>
       <r>  -16.4397    1.0000 </r>
       <r>  -16.3752    1.0000 </r>
       <r>  -16.2836    1.0000 </r>
       <r>  -16.0664    1.0000 </r>
       <r>  -16.0111    1.0000 </r>
       <r>  -15.8812    1.0000 </r>
       <r>  -15.8491    1.0000 </r>
       <r>  -15.7301    1.0000 </r>
       <r>  -15.6867    1.0000 </r>
       <r>  -15.6030    1.0000 </r>
       <r>  -15.5686    1.0000 </r>
       <r>  -15.2537    1.0000 </r>
       <r>  -15.2046    1.0000 </r>
       <r>   -9.7831    1.0000 </r>
       <r>   -9.3893    1.0000 </r>
       <r>   -9.2975    1.0000 </r>
       <r>   -9.1449    1.0000 </r>
       <r>   -9.0693    1.0000 </r>
       <r>   -8.9032    1.0000 </r>
       <r>   -8.5207    1.0000 </r>
       <r>   -8.3997    1.0000 </r>
       <r>   -8.3703    1.0000 </r>
       <r>   -8.3230    1.0000 </r>
       <r>   -8.2642    1.0000 </r>
       <r>   -8.1909    1.0000 </r>
       <r>   -8.1463    1.0000 </r>
       <r>   -8.0555    1.0000 </r>
       <r>   -7.9955    1.0000 </r>
       <r>   -7.8700    1.0000 </r>
       <r>   -7.8127    1.0000 </r>
       <r>   -7.7481    1.0000 </r>
       <r>   -7.5124    1.0000 </r>
       <r>   -7.3832    1.0000 </r>
       <r>   -7.2982    1.0000 </r>
       <r>   -7.2484    1.0000 </r>
       <r>   -7.1309    1.0000 </r>
       <r>   -7.0992    1.0000 </r>
       <r>   -7.0584    1.0000 </r>
       <r>   -7.0197    1.0000 </r>
       <r>   -6.8530    1.0000 </r>
       <r>   -6.6970    1.0000 </r>
       <r>   -6.6100    1.0000 </r>
       <r>   -6.5716    1.0000 </r>
       <r>   -6.5273    1.0000 </r>
       <r>   -6.4511    1.0000 </r>
       <r>   -6.3763    1.0000 </r>
       <r>   -6.3445    1.0000 </r>
       <r>   -6.2494    1.0000 </r>
       <r>   -6.2222    1.0000 </r>
       <r>   -6.1540    1.0000 </r>
       <r>   -6.1073    1.0000 </r>
       <r>   -6.0593    1.0000 </r>
       <r>   -5.9114    1.0000 </r>
       <r>   -5.8219    1.0000 </r>
       <r>   -5.8021    1.0000 </r>
       <r>   -5.7047    1.0000 </r>
       <r>   -5.6719    1.0000 </r>
       <r>   -5.4681    1.0000 </r>
       <r>   -5.4102    1.0000 </r>
       <r>   -5.2982    1.0000 </r>
       <r>   -5.2314    1.0000 </r>
       <r>   -4.9046    1.0000 </r>
       <r>   -4.8390    1.0000 </r>
       <r>   -4.6897    1.0000 </r>
       <r>   -4.5827    1.0000 </r>
       <r>   -4.5202    1.0000 </r>
       <r>   -4.3694    1.0000 </r>
       <r>   -4.2893    1.0000 </r>
       <r>   -4.2075    1.0000 </r>
       <r>   -4.1342    1.0000 </r>
       <r>   -4.0851    1.0000 </r>
       <r>   -4.0032    1.0000 </r>
       <r>   -3.7657    0.9999 </r>
       <r>   -3.5687    0.9907 </r>
       <r>   -3.0677    0.1169 </r>
       <r>   -2.9666    0.0284 </r>
       <r>   -2.6750    0.0000 </r>
       <r>   -2.6391    0.0000 </r>
       <r>   -2.4896    0.0000 </r>
       <r>   -2.3922    0.0000 </r>
       <r>   -2.3224    0.0000 </r>
       <r>   -2.0174    0.0000 </r>
       <r>   -1.9782    0.0000 </r>
       <r>   -1.9085    0.0000 </r>
       <r>   -1.8668    0.0000 </r>
       <r>   -1.6901    0.0000 </r>
       <r>   -1.6216    0.0000 </r>
       <r>   -1.5518    0.0000 </r>
       <r>   -1.4173    0.0000 </r>
       <r>   -1.2909    0.0000 </r>
       <r>   -1.2725    0.0000 </r>
       <r>   -1.0942    0.0000 </r>
       <r>   -0.9854    0.0000 </r>
       <r>   -0.9262    0.0000 </r>
       <r>   -0.8820    0.0000 </r>
       <r>   -0.8617    0.0000 </r>
       <r>   -0.8264    0.0000 </r>
       <r>   -0.6486    0.0000 </r>
       <r>   -0.5526    0.0000 </r>
       <r>   -0.3114    0.0000 </r>
       <r>   -0.2505    0.0000 </r>
       <r>   -0.0920    0.0000 </r>
       <r>   -0.0005    0.0000 </r>
       <r>    0.0783    0.0000 </r>
       <r>    0.2509    0.0000 </r>
       <r>    0.4378    0.0000 </r>
       <r>    0.5813    0.0000 </r>
       <r>    0.6736    0.0000 </r>
       <r>    1.0035    0.0000 </r>
       <r>    1.0159    0.0000 </r>
       <r>    1.1303    0.0000 </r>
       <r>    1.3135    0.0000 </r>
       <r>    2.1608    0.0000 </r>
       <r>    2.2725    0.0000 </r>
       <r>    2.4040    0.0000 </r>
      </set>
     </set>
    </set>
   </array>
  </eigenvalues>
  <separator name="orbital magnetization" >
   <v name="MAGDIPOLOUT">      0.00000000      0.00000000      0.00000000</v>
  </separator>
 </calculation>
 <structure name="finalpos" >
  <crystal>
   <varray name="basis" >
    <v>       8.34531451       4.79387807       0.00000000 </v>
    <v>      -8.33483529       4.77560234       0.00000000 </v>
    <v>       0.00000000       0.00000000      30.00000000 </v>
   </varray>
   <i name="volume">   2394.30262741 </i>
   <varray name="rec_basis" >
    <v>       0.05983708       0.10443336       0.00000000 </v>
    <v>      -0.06006607       0.10456466       0.00000000 </v>
    <v>       0.00000000       0.00000000       0.03333333 </v>
   </varray>
  </crystal>
  <varray name="positions" >
   <v>       0.64697913       0.68370011      -0.00237731 </v>
   <v>      -0.02013037       0.01156300      -0.00149448 </v>
   <v>       0.35792846      -0.00913255       0.00204588 </v>
   <v>       0.68805140       0.31527040       0.00221661 </v>
   <v>       0.34689427       0.67800996       0.00002615 </v>
   <v>       0.66264442       0.00242545      -0.00022346 </v>
   <v>       0.98434095       0.32443278      -0.00024494 </v>
   <v>       0.01057107       0.63957056       0.00201469 </v>
   <v>       0.31817763       0.35678817      -0.00207043 </v>
   <v>       0.10528184       0.21694020       0.94574914 </v>
   <v>       0.22206923       0.11106811       0.04246726 </v>
   <v>       0.11437962       0.55012711       0.94655347 </v>
   <v>       0.21839898       0.44996457       0.05308918 </v>
   <v>       0.11270781       0.88958948       0.95852533 </v>
   <v>       0.22673214       0.78389551       0.05407319 </v>
   <v>       0.44378510       0.22173558       0.95593964 </v>
   <v>       0.55307591       0.10612528       0.05622773 </v>
   <v>       0.44892258       0.56444005       0.94381834 </v>
   <v>       0.55819920       0.44834132       0.04335100 </v>
   <v>       0.44352437       0.89335953       0.94588324 </v>
   <v>       0.55934875       0.77855355       0.05356473 </v>
   <v>       0.77905871       0.21691542       0.94400560 </v>
   <v>       0.88861112       0.10824929       0.05356491 </v>
   <v>       0.77573903       0.55616724       0.95561067 </v>
   <v>       0.89104560       0.43731224       0.05814144 </v>
   <v>       0.77707089       0.88726704       0.94632857 </v>
   <v>       0.88480661       0.77553506       0.04321375 </v>
  </varray>
 </structure>
</modeling>
