unknown system                          
           1
     8.858446    5.103547    0.000000
    -8.858382    5.103438    0.000000
     0.000000    0.000000   30.000000
   V    Mo   W    S 
   3   3   3  18
Direct configuration=     1
   0.66666669  0.66666669  0.00000000
   0.00000000  0.00000000  0.00000000
   0.33333334  0.00000000  0.00000000
   0.66666669  0.33333334  0.00000000
   0.33333334  0.66666669  0.00000000
   0.66666669  0.00000000  0.00000000
   1.00000000  0.33333334  0.00000000
   0.00000000  0.66666669  0.00000000
   0.33333334  0.33333334  0.00000000
   0.11068511  0.22244981  0.95539999
   0.22244981  0.11068511  0.04460000
   0.11068511  0.55578315  0.95539999
   0.22244981  0.44401845  0.04460000
   0.11068511  0.88911647  0.95539999
   0.22244981  0.77735180  0.04460000
   0.44401845  0.22244981  0.95539999
   0.55578315  0.11068511  0.04460000
   0.44401845  0.55578315  0.95539999
   0.55578315  0.44401845  0.04460000
   0.44401845  0.88911647  0.95539999
   0.55578315  0.77735180  0.04460000
   0.77735180  0.22244981  0.95539999
   0.88911647  0.11068511  0.04460000
   0.77735180  0.55578315  0.95539999
   0.88911647  0.44401845  0.04460000
   0.77735180  0.88911647  0.95539999
   0.88911647  0.77735180  0.04460000
unknown system                          
           1
     8.669620    4.997416    0.000000
    -8.669443    4.997110    0.000000
     0.000000    0.000000   30.000000
   V    Mo   W    S 
   3   3   3  18
Direct configuration=     2
   0.66575731  0.66705460 -0.00019104
  -0.00108503 -0.00030245 -0.00002352
   0.33530169 -0.00006310  0.00016748
   0.66682282  0.33201571  0.00016211
   0.33461471  0.66797567 -0.00012328
   0.66527363 -0.00019279 -0.00003592
   0.99825446  0.33310011  0.00003063
   0.00001192  0.66596318 -0.00003781
   0.33494236  0.33435326  0.00007906
   0.10925845  0.21849572  0.95193622
   0.22067531  0.10751479  0.04686674
   0.11033811  0.55499104  0.95069103
   0.22155143  0.44344772  0.04918525
   0.11249577  0.89224631  0.95316136
   0.22342278  0.78188679  0.04807145
   0.44163038  0.21807069  0.95195605
   0.55084708  0.10880173  0.04813368
   0.44847886  0.55682365  0.95184866
   0.55667799  0.44826083  0.04805396
   0.44195085  0.89112201  0.95196482
   0.55792211  0.77535306  0.04799666
   0.77877654  0.22259186  0.95074358
   0.89174224  0.10965079  0.04797947
   0.77620353  0.55847726  0.95203711
   0.88952139  0.44470419  0.04935726
   0.77978941  0.88646763  0.95304791
   0.88703835  0.77940421  0.04694097
unknown system                          
           1
     8.486754    4.898148    0.000000
    -8.486763    4.898164    0.000000
     0.000000    0.000000   30.000000
   V    Mo   W    S 
   3   3   3  18
Direct configuration=     3
   0.66533305  0.66710288 -0.00021448
  -0.00135399 -0.00031516 -0.00003324
   0.33596506 -0.00001977  0.00018482
   0.66720917  0.33161427  0.00014145
   0.33485799  0.66815199 -0.00009933
   0.66486999  0.00000124 -0.00003310
   0.99764174  0.33331763  0.00003381
  -0.00001192  0.66522095 -0.00009423
   0.33538177  0.33484389  0.00012787
   0.10932387  0.21866528  0.95203201
   0.22075514  0.10769281  0.04675828
   0.11011148  0.55489180  0.95067668
   0.22145007  0.44320254  0.04912176
   0.11244262  0.89206560  0.95329142
   0.22326778  0.78191413  0.04805887
   0.44141700  0.21806586  0.95199774
   0.55066579  0.10867523  0.04824596
   0.44852082  0.55669347  0.95179380
   0.55652979  0.44825991  0.04803562
   0.44188156  0.89119159  0.95187109
   0.55800608  0.77531944  0.04802737
   0.77899249  0.22270180  0.95066061
   0.89187281  0.10981996  0.04796552
   0.77641271  0.55863369  0.95208994
   0.88974598  0.44478636  0.04943829
   0.77979650  0.88641851  0.95308251
   0.88712913  0.77929855  0.04683887
unknown system                          
           1
     8.278573    4.773097    0.000000
    -8.277595    4.771404    0.000000
     0.000000    0.000000   30.000000
   V    Mo   W    S 
   3   3   3  18
Direct configuration=     4
   0.66325586  0.66694583 -0.00021716
  -0.00218966 -0.00004731 -0.00005492
   0.33848968  0.00014694  0.00017417
   0.66936864  0.33027588  0.00002281
   0.33537096  0.66821181  0.00001856
   0.66357867  0.00119639 -0.00000401
   0.99536281  0.33467680  0.00003715
  -0.00019246  0.66153754 -0.00025912
   0.33673619  0.33696020  0.00025372
   0.10893258  0.21797026  0.95095106
   0.22027509  0.10679364  0.04768125
   0.11014525  0.55483534  0.94896397
   0.22132371  0.44299591  0.05046929
   0.11306550  0.89294627  0.95246744
   0.22375785  0.78308191  0.04947143
   0.44068431  0.21696854  0.95071860
   0.54930532  0.10784763  0.05016276
   0.44979472  0.55739836  0.95007422
   0.55739323  0.44947705  0.04941534
   0.44125638  0.89182634  0.95007248
   0.55879043  0.77493571  0.04955888
   0.77894398  0.22254681  0.94870271
   0.89220216  0.10925802  0.04935203
   0.77596242  0.55911547  0.95084456
   0.88979291  0.44479175  0.05146467
   0.78011383  0.88593302  0.95189077
   0.88669409  0.77958834  0.04776724
unknown system                          
           1
     8.287957    4.771951    0.000000
    -8.287759    4.771613    0.000000
     0.000000    0.000000   30.000000
   V    Mo   W    S 
   3   3   3  18
Direct configuration=     5
   0.65870910  0.66686267 -0.00004557
  -0.00345016  0.00055695 -0.00006952
   0.34291534  0.00052089 -0.00001513
   0.67455628  0.32778923 -0.00010514
   0.33629913  0.66789902  0.00016622
   0.66144272  0.00382587  0.00005248
   0.99051512  0.33747420 -0.00000090
  -0.00074745  0.65410279 -0.00036714
   0.33910485  0.34106854  0.00034194
   0.10855468  0.21778517  0.94970593
   0.22012673  0.10602412  0.04888940
   0.11096190  0.55463004  0.94647296
   0.22083639  0.44300611  0.05217502
   0.11383506  0.89328781  0.95157897
   0.22424157  0.78406918  0.05127927
   0.44062754  0.21617433  0.94925232
   0.54826408  0.10731418  0.05296533
   0.45120593  0.55864714  0.94759532
   0.55905188  0.45062936  0.05105875
   0.44076808  0.89232988  0.94767440
   0.55963259  0.77519085  0.05163295
   0.77848694  0.22168613  0.94585609
   0.89183148  0.10882838  0.05113728
   0.77531348  0.55897639  0.94928780
   0.88913918  0.44450482  0.05454101
   0.77979146  0.88564994  0.95011728
   0.88620056  0.77938046  0.04882255
unknown system                          
           1
     8.279051    4.765173    0.000000
    -8.278314    4.763898    0.000000
     0.000000    0.000000   30.000000
   V    Mo   W    S 
   3   3   3  18
Direct configuration=     6
   0.65728405  0.66769994 -0.00002858
  -0.00381254  0.00063109 -0.00006799
   0.34387085  0.00063512 -0.00000877
   0.67582550  0.32731701 -0.00001314
   0.33663339  0.66757644  0.00011495
   0.66147452  0.00430028  0.00001951
   0.98953195  0.33772259 -0.00012511
  -0.00095106  0.65247367 -0.00033095
   0.33924086  0.34211171  0.00035863
   0.10854514  0.21863924  0.94983349
   0.22060546  0.10642140  0.04877122
   0.11138601  0.55433323  0.94621398
   0.22021188  0.44288254  0.05216036
   0.11376044  0.89239675  0.95178666
   0.22406126  0.78360858  0.05126710
   0.44151283  0.21689091  0.94938045
   0.54872637  0.10768794  0.05318009
   0.45110452  0.55895368  0.94736773
   0.55958419  0.45033205  0.05090968
   0.44092014  0.89214932  0.94756401
   0.55948007  0.77582875  0.05178484
   0.77843433  0.22118836  0.94551190
   0.89139967  0.10937758  0.05114616
   0.77534097  0.55836195  0.94945002
   0.88871167  0.44418878  0.05503740
   0.77915880  0.88576308  0.95007778
   0.88617319  0.77874248  0.04863849
unknown system                          
           1
     8.289894    4.769499    0.000000
    -8.288970    4.767901    0.000000
     0.000000    0.000000   30.000000
   V    Mo   W    S 
   3   3   3  18
Direct configuration=     7
   0.65497207  0.66916682  0.00002342
  -0.00445905  0.00070399 -0.00002018
   0.34562068  0.00090053 -0.00002751
   0.67813034  0.32615221  0.00002368
   0.33722427  0.66704365  0.00008325
   0.66132852  0.00513423 -0.00001209
   0.98760676  0.33843107 -0.00019920
  -0.00114089  0.64934850 -0.00031927
   0.33955691  0.34408682  0.00043252
   0.10851503  0.21943656  0.94989337
   0.22110770  0.10682063  0.04859570
   0.11182471  0.55402855  0.94583082
   0.21948855  0.44270510  0.05219390
   0.11372510  0.89147481  0.95208875
   0.22399470  0.78319116  0.05131639
   0.44241593  0.21766298  0.94956011
   0.54912835  0.10790024  0.05358745
   0.45112468  0.55940360  0.94692194
   0.56028052  0.45028080  0.05071210
   0.44097533  0.89201791  0.94732887
   0.55931123  0.77647908  0.05209575
   0.77829393  0.22059771  0.94497376
   0.89102491  0.10991673  0.05122741
   0.77520154  0.55773708  0.94968288
   0.88843146  0.44371695  0.05570743
   0.77850808  0.88582798  0.94991526
   0.88602310  0.77804876  0.04838339
unknown system                          
           1
     8.294770    4.769475    0.000000
    -8.293293    4.766916    0.000000
     0.000000    0.000000   30.000000
   V    Mo   W    S 
   3   3   3  18
Direct configuration=     8
   0.65481789  0.66954809  0.00001684
  -0.00458507  0.00067484 -0.00001396
   0.34580568  0.00091741 -0.00002455
   0.67812791  0.32597104  0.00004766
   0.33732470  0.66699338  0.00008014
   0.66138388  0.00506097 -0.00002653
   0.98763535  0.33830763 -0.00024442
  -0.00104215  0.64925279 -0.00030756
   0.33945620  0.34435187  0.00043438
   0.10851628  0.21944589  0.94993853
   0.22114251  0.10688709  0.04850986
   0.11185028  0.55397002  0.94586073
   0.21939081  0.44268386  0.05216058
   0.11370007  0.89138225  0.95218693
   0.22396326  0.78314872  0.05126115
   0.44249276  0.21775495  0.94965463
   0.54917580  0.10791283  0.05355032
   0.45109399  0.55941119  0.94693323
   0.56033001  0.45031700  0.05059900
   0.44097159  0.89199293  0.94737741
   0.55923044  0.77653458  0.05208904
   0.77833414  0.22052582  0.94498875
   0.89104706  0.10997166  0.05119228
   0.77515682  0.55770962  0.94979875
   0.88840706  0.44366748  0.05570419
   0.77850489  0.88582783  0.94993670
   0.88598232  0.77799274  0.04829581
unknown system                          
           1
     8.297400    4.770221    0.000000
    -8.295789    4.767430    0.000000
     0.000000    0.000000   30.000000
   V    Mo   W    S 
   3   3   3  18
Direct configuration=     9
   0.65356576  0.67087320  0.00002156
  -0.00512013  0.00068783  0.00002958
   0.34700821  0.00106670 -0.00003242
   0.67919962  0.32502924  0.00008794
   0.33773508  0.66667145  0.00006690
   0.66135050  0.00533180 -0.00005686
   0.98680725  0.33845594 -0.00032252
  -0.00091586  0.64764895 -0.00029259
   0.33935751  0.34573366  0.00048093
   0.10851211  0.21973286  0.95000468
   0.22140899  0.10717293  0.04828637
   0.11206803  0.55375861  0.94573199
   0.21895142  0.44259108  0.05214318
   0.11366720  0.89088818  0.95248104
   0.22389583  0.78294191  0.05121376
   0.44292912  0.21819844  0.94988872
   0.54939190  0.10796591  0.05369305
   0.45105603  0.55962976  0.94673224
   0.56070776  0.45040338  0.05032455
   0.44097017  0.89191202  0.94732896
   0.55903104  0.77688470  0.05224588
   0.77831510  0.22015160  0.94477091
   0.89094060  0.11025075  0.05118391
   0.77501634  0.55743074  0.95010709
   0.88828225  0.44334839  0.05596848
   0.77825349  0.88585873  0.94986348
   0.88582914  0.77759570  0.04804911
unknown system                          
           1
     8.302328    4.771756    0.000000
    -8.300678    4.768898    0.000000
     0.000000    0.000000   30.000000
   V    Mo   W    S 
   3   3   3  18
Direct configuration=    10
   0.65330915  0.67117669  0.00002020
  -0.00527936  0.00069419  0.00003944
   0.34727959  0.00108446 -0.00003369
   0.67940233  0.32482437  0.00010043
   0.33783281  0.66660656  0.00006631
   0.66136567  0.00536762 -0.00006461
   0.98666851  0.33845450 -0.00034582
  -0.00086855  0.64732561 -0.00028647
   0.33930776  0.34606291  0.00048972
   0.10850748  0.21976876  0.95000863
   0.22145934  0.10723133  0.04823954
   0.11212294  0.55371326  0.94569438
   0.21885745  0.44258353  0.05215453
   0.11366218  0.89079388  0.95254340
   0.22388077  0.78290711  0.05121283
   0.44301757  0.21828870  0.94993539
   0.54943484  0.10797107  0.05373616
   0.45105287  0.55968556  0.94668024
   0.56079963  0.45043678  0.05026436
   0.44096867  0.89189062  0.94730728
   0.55898501  0.77696026  0.05228848
   0.77831408  0.22005861  0.94471358
   0.89092033  0.11029737  0.05119369
   0.77497089  0.55737737  0.95017188
   0.88824998  0.44327530  0.05603500
   0.77820530  0.88586587  0.94983729
   0.88578721  0.77751216  0.04799775
unknown system                          
           1
     8.303013    4.772536    0.000000
    -8.302524    4.771697    0.000000
     0.000000    0.000000   30.000000
   V    Mo   W    S 
   3   3   3  18
Direct configuration=    11
   0.65271563  0.67181631  0.00001723
  -0.00553090  0.00065511  0.00005914
   0.34788730  0.00116834 -0.00003566
   0.67976544  0.32432436  0.00012564
   0.33809149  0.66651489  0.00006524
   0.66129929  0.00542089 -0.00007910
   0.98636395  0.33847672 -0.00039144
  -0.00076546  0.64667960 -0.00027423
   0.33927063  0.34674628  0.00050813
   0.10850831  0.21987293  0.95002501
   0.22159634  0.10734547  0.04813534
   0.11223204  0.55361549  0.94562099
   0.21865177  0.44254757  0.05216252
   0.11369146  0.89060034  0.95267839
   0.22386285  0.78285785  0.05119346
   0.44319500  0.21845480  0.95004594
   0.54949261  0.10796688  0.05381382
   0.45106467  0.55980528  0.94658178
   0.56100341  0.45053687  0.05012628
   0.44094661  0.89186571  0.94727734
   0.55889664  0.77710366  0.05236877
   0.77830829  0.21986585  0.94459457
   0.89087703  0.11040612  0.05120443
   0.77486109  0.55727815  0.95032528
   0.88818607  0.44313061  0.05617198
   0.77807969  0.88584885  0.94979319
   0.88566321  0.77730949  0.04788584
unknown system                          
           1
     8.309026    4.773085    0.000000
    -8.306461    4.768636    0.000000
     0.000000    0.000000   30.000000
   V    Mo   W    S 
   3   3   3  18
Direct configuration=    12
   0.65101523  0.67273546 -0.00004720
  -0.00589395  0.00005709  0.00009211
   0.34946942  0.00167935 -0.00000479
   0.67983287  0.32306941  0.00018879
   0.33929975  0.66670118  0.00008518
   0.66064403  0.00521733 -0.00011740
   0.98573286  0.33850051 -0.00049011
  -0.00060276  0.64568581 -0.00023721
   0.33986076  0.34844326  0.00054705
   0.10863252  0.22015098  0.95007480
   0.22215126  0.10762295  0.04787046
   0.11232167  0.55342980  0.94553087
   0.21831492  0.44244376  0.05212369
   0.11408540  0.89029121  0.95295471
   0.22385841  0.78301240  0.05107051
   0.44343932  0.21855214  0.95032391
   0.54936015  0.10784571  0.05393524
   0.45136665  0.56016673  0.94646649
   0.56156315  0.45114515  0.04975007
   0.44079257  0.89195341  0.94724118
   0.55887768  0.77720386  0.05247453
   0.77828336  0.21952069  0.94441454
   0.89077374  0.11063518  0.05120687
   0.77443931  0.55724045  0.95078530
   0.88806531  0.44284504  0.05635516
   0.77756755  0.88543625  0.94977308
   0.88496326  0.77662933  0.04763207
unknown system                          
           1
     8.315556    4.774294    0.000000
    -8.312418    4.768851    0.000000
     0.000000    0.000000   30.000000
   V    Mo   W    S 
   3   3   3  18
Direct configuration=    13
   0.65173368  0.67313390 -0.00000613
  -0.00636862  0.00071394  0.00011341
   0.34902919  0.00120694 -0.00003679
   0.68061234  0.32349605  0.00017331
   0.33848859  0.66618703  0.00006505
   0.66149755  0.00553100 -0.00011483
   0.98585870  0.33838679 -0.00047643
  -0.00053143  0.64535567 -0.00025037
   0.33892493  0.34821583  0.00055503
   0.10850629  0.21993724  0.95005214
   0.22179240  0.10765951  0.04788250
   0.11240967  0.55343932  0.94553578
   0.21831277  0.44255198  0.05218649
   0.11362336  0.89021416  0.95298332
   0.22376300  0.78269160  0.05116188
   0.44351799  0.21885750  0.95029203
   0.54971486  0.10797523  0.05394378
   0.45101820  0.56002260  0.94641376
   0.56133320  0.45068521  0.04980785
   0.44096327  0.89175521  0.94722085
   0.55868208  0.77739928  0.05251484
   0.77831246  0.21950383  0.94444516
   0.89082298  0.11057746  0.05121013
   0.77468641  0.55708003  0.95066783
   0.88809987  0.44278075  0.05632899
   0.77792152  0.88589122  0.94970323
   0.88548919  0.77696519  0.04762708
unknown system                          
           1
     8.308464    4.772838    0.000000
    -8.305858    4.768318    0.000000
     0.000000    0.000000   30.000000
   V    Mo   W    S 
   3   3   3  18
Direct configuration=    14
   0.65097921  0.67441733 -0.00002967
  -0.00739685  0.00093856  0.00016415
   0.35034437  0.00106996 -0.00004309
   0.68130404  0.32256661  0.00022663
   0.33878241  0.66601336  0.00007893
   0.66159659  0.00559298 -0.00014310
   0.98560634  0.33815716 -0.00057829
  -0.00011667  0.64418435 -0.00022493
   0.33827769  0.34970335  0.00059043
   0.10852299  0.21990496  0.95002594
   0.22198709  0.10797690  0.04760004
   0.11262156  0.55326085  0.94543985
   0.21798613  0.44263887  0.05227088
   0.11356896  0.88988701  0.95332573
   0.22369215  0.78258929  0.05114320
   0.44377922  0.21922412  0.95057528
   0.54991693  0.10792320  0.05406453
   0.45092915  0.56023738  0.94621770
   0.56164593  0.45081775  0.04947093
   0.44099038  0.89165436  0.94716787
   0.55843368  0.77772567  0.05267396
   0.77833152  0.21911854  0.94428899
   0.89077277  0.11069686  0.05126701
   0.77449855  0.55692497  0.95100888
   0.88803506  0.44239821  0.05649161
   0.77780949  0.88599425  0.94955788
   0.88531578  0.77659759  0.04736855
unknown system                          
           1
     8.317162    4.774482    0.000000
    -8.313943    4.768898    0.000000
     0.000000    0.000000   30.000000
   V    Mo   W    S 
   3   3   3  18
Direct configuration=    15
   0.65174572  0.67303759  0.00001779
  -0.00587027  0.00043197  0.00010995
   0.34875774  0.00144881 -0.00004388
   0.68049732  0.32356897  0.00016358
   0.33849762  0.66615168  0.00005388
   0.66138431  0.00556422 -0.00010562
   0.98566599  0.33859215 -0.00047272
  -0.00066254  0.64547622 -0.00026178
   0.33933816  0.34790701  0.00055782
   0.10846553  0.22003812  0.95012745
   0.22176518  0.10759471  0.04797270
   0.11238610  0.55347221  0.94555578
   0.21831110  0.44242720  0.05211412
   0.11364387  0.89021685  0.95288547
   0.22376968  0.78264037  0.05113150
   0.44353935  0.21881522  0.95020193
   0.54969077  0.10800592  0.05391429
   0.45101769  0.55995626  0.94641551
   0.56136005  0.45071135  0.04990654
   0.44091770  0.89177272  0.94725874
   0.55870923  0.77737589  0.05251285
   0.77828551  0.21954549  0.94445107
   0.89084528  0.11060756  0.05114466
   0.77470069  0.55707689  0.95060297
   0.88804704  0.44288325  0.05634870
   0.77792143  0.88587014  0.94975001
   0.88548421  0.77702567  0.04768659
unknown system                          
           1
     8.311301    4.770507    0.000000
    -8.308343    4.765378    0.000000
     0.000000    0.000000   30.000000
   V    Mo   W    S 
   3   3   3  18
Direct configuration=    16
   0.65128987  0.67360000 -0.00001054
  -0.00498543 -0.00067176  0.00013037
   0.34879623  0.00232360 -0.00004407
   0.68043795  0.32328896  0.00019678
   0.33884396  0.66589534  0.00005334
   0.66114849  0.00562574 -0.00010540
   0.98486177  0.33904187 -0.00047754
  -0.00088393  0.64509391 -0.00023444
   0.34044894  0.34813101  0.00055416
   0.10838625  0.22031163  0.95037324
   0.22190647  0.10765322  0.04805559
   0.11250913  0.55345868  0.94549722
   0.21797268  0.44205545  0.05194219
   0.11371431  0.88996512  0.95281218
   0.22371936  0.78246986  0.05099812
   0.44381019  0.21892803  0.95011939
   0.54963597  0.10798527  0.05394315
   0.45103866  0.55994515  0.94635965
   0.56168193  0.45096679  0.04992304
   0.44076777  0.89175325  0.94731268
   0.55853583  0.77758648  0.05262115
   0.77818744  0.21931213  0.94432597
   0.89093115  0.11084101  0.05094661
   0.77456415  0.55703347  0.95071905
   0.88781957  0.44287186  0.05647022
   0.77780865  0.88586939  0.94982415
   0.88526710  0.77687900  0.04769363
unknown system                          
           1
     8.320223    4.774043    0.000000
    -8.316999    4.768452    0.000000
     0.000000    0.000000   30.000000
   V    Mo   W    S 
   3   3   3  18
Direct configuration=    17
   0.65118020  0.67389419 -0.00001125
  -0.00384418 -0.00209483  0.00014066
   0.34858429  0.00332485 -0.00003779
   0.68018965  0.32309394  0.00017540
   0.33903805  0.66562985  0.00004980
   0.66082089  0.00577695 -0.00009486
   0.98412468  0.33958115 -0.00052347
  -0.00109617  0.64503417 -0.00025794
   0.34158042  0.34798515  0.00054446
   0.10836156  0.22055174  0.95066891
   0.22203770  0.10770201  0.04819243
   0.11249233  0.55350265  0.94554442
   0.21779825  0.44166372  0.05172849
   0.11381353  0.88981799  0.95264717
   0.22366280  0.78233660  0.05086223
   0.44397996  0.21897929  0.94996606
   0.54954296  0.10794178  0.05393367
   0.45101605  0.55990191  0.94634609
   0.56187080  0.45121119  0.05001281
   0.44060807  0.89173188  0.94740886
   0.55841770  0.77770259  0.05265032
   0.77807845  0.21926218  0.94433497
   0.89104921  0.11099522  0.05070586
   0.77449309  0.55706994  0.95077502
   0.88757746  0.44289019  0.05652215
   0.77775930  0.88594091  0.94991860
   0.88507741  0.77678726  0.04779683
unknown system                          
           1
     8.328092    4.776517    0.000000
    -8.324553    4.770379    0.000000
     0.000000    0.000000   30.000000
   V    Mo   W    S 
   3   3   3  18
Direct configuration=    18
   0.65065849  0.67492672 -0.00005187
  -0.00537641 -0.00152723  0.00018091
   0.34993826  0.00282981 -0.00002945
   0.68079501  0.32229855  0.00023450
   0.33922991  0.66560316  0.00007470
   0.66103527  0.00576019 -0.00012382
   0.98432459  0.33907310 -0.00060217
  -0.00058759  0.64410728 -0.00021893
   0.34042521  0.34945981  0.00056423
   0.10842403  0.22033329  0.95051440
   0.22219740  0.10800410  0.04786149
   0.11267740  0.55333869  0.94544226
   0.21760159  0.44194558  0.05192206
   0.11376853  0.88962975  0.95302084
   0.22361346  0.78237236  0.05091572
   0.44410361  0.21927626  0.95028757
   0.54972353  0.10787902  0.05407022
   0.45096273  0.56017042  0.94618196
   0.56206101  0.45127195  0.04964814
   0.44069079  0.89163701  0.94730202
   0.55824878  0.77793732  0.05276483
   0.77813053  0.21895384  0.94421014
   0.89098291  0.11100186  0.05086111
   0.77431920  0.55697095  0.95108252
   0.88761175  0.44247072  0.05661213
   0.77769771  0.88603677  0.94973038
   0.88495675  0.77645319  0.04754402
unknown system                          
           1
     8.329584    4.777003    0.000000
    -8.326030    4.770839    0.000000
     0.000000    0.000000   30.000000
   V    Mo   W    S 
   3   3   3  18
Direct configuration=    19
   0.65006657  0.67619307 -0.00011106
  -0.00659293 -0.00183315  0.00024989
   0.35137536  0.00277614 -0.00002811
   0.68127665  0.32134260  0.00030265
   0.33954710  0.66545973  0.00009676
   0.66115019  0.00580824 -0.00015054
   0.98422168  0.33879490 -0.00069265
  -0.00015448  0.64309451 -0.00018307
   0.33971238  0.35110617  0.00058646
   0.10846052  0.22016616  0.95048120
   0.22244909  0.10839497  0.04755393
   0.11288520  0.55319615  0.94535515
   0.21730741  0.44208142  0.05203768
   0.11381984  0.88935847  0.95334432
   0.22351807  0.78236340  0.05091091
   0.44432251  0.21961853  0.95056797
   0.54987940  0.10779419  0.05422191
   0.45091415  0.56049197  0.94600044
   0.56238727  0.45150435  0.04927362
   0.44069125  0.89154005  0.94723603
   0.55802047  0.77825371  0.05290250
   0.77811850  0.21857650  0.94407530
   0.89099144  0.11107952  0.05089357
   0.77406705  0.55689432  0.95147061
   0.88752838  0.44198075  0.05670622
   0.77759600  0.88618159  0.94956762
   0.88465540  0.77599619  0.04733058
unknown system                          
           1
     8.321387    4.772938    0.000000
    -8.318399    4.767762    0.000000
     0.000000    0.000000   30.000000
   V    Mo   W    S 
   3   3   3  18
Direct configuration=    20
   0.65000756  0.67633522 -0.00012132
  -0.00668434 -0.00201208  0.00025780
   0.35151979  0.00282602 -0.00002471
   0.68129849  0.32123516  0.00031133
   0.33959110  0.66543572  0.00010242
   0.66114573  0.00581893 -0.00015211
   0.98418959  0.33878987 -0.00070839
  -0.00012074  0.64300767 -0.00017839
   0.33968764  0.35128542  0.00058261
   0.10846361  0.22014606  0.95049588
   0.22248750  0.10844773  0.04752518
   0.11291003  0.55318528  0.94534631
   0.21726548  0.44208730  0.05204533
   0.11384130  0.88932568  0.95336710
   0.22350389  0.78236338  0.05090326
   0.44435251  0.21966004  0.95058993
   0.54988961  0.10778206  0.05424013
   0.45091432  0.56053558  0.94597788
   0.56243338  0.45154611  0.04923674
   0.44068606  0.89153070  0.94723132
   0.55799234  0.77829705  0.05291823
   0.77811479  0.21853596  0.94406094
   0.89100538  0.11109335  0.05088239
   0.77402980  0.55689420  0.95151700
   0.88750384  0.44192328  0.05671957
   0.77758717  0.88620653  0.94955350
   0.88459863  0.77593223  0.04731996
unknown system                          
           1
     8.324554    4.773673    0.000000
    -8.321367    4.768152    0.000000
     0.000000    0.000000   30.000000
   V    Mo   W    S 
   3   3   3  18
Direct configuration=    21
   0.64996107  0.67630282 -0.00009931
  -0.00698242 -0.00074573  0.00023789
   0.35193841  0.00240438 -0.00004120
   0.68123625  0.32100723  0.00030124
   0.33958491  0.66574793  0.00010305
   0.66103316  0.00576337 -0.00016095
   0.98441229  0.33842510 -0.00072391
   0.00006905  0.64296094 -0.00018139
   0.33924316  0.35123306  0.00060855
   0.10850565  0.22014955  0.95034891
   0.22244894  0.10830313  0.04748383
   0.11290221  0.55311296  0.94531474
   0.21732720  0.44217619  0.05211454
   0.11380865  0.88940386  0.95348268
   0.22358604  0.78248573  0.05094575
   0.44425706  0.21951628  0.95066055
   0.54981350  0.10773405  0.05423540
   0.45090740  0.56044560  0.94597782
   0.56239844  0.45146597  0.04921951
   0.44066712  0.89157460  0.94720112
   0.55803485  0.77821873  0.05292713
   0.77815626  0.21853295  0.94403901
   0.89090521  0.11099774  0.05103100
   0.77407608  0.55687456  0.95148089
   0.88759350  0.44198203  0.05675210
   0.77758278  0.88612232  0.94951016
   0.88474770  0.77601906  0.04723080
unknown system                          
           1
     8.337102    4.780720    0.000000
    -8.332975    4.773560    0.000000
     0.000000    0.000000   30.000000
   V    Mo   W    S 
   3   3   3  18
Direct configuration=    22
   0.64985422  0.67662113 -0.00012590
  -0.00706481 -0.00186990  0.00027069
   0.35203455  0.00269529 -0.00003318
   0.68137354  0.32086589  0.00031889
   0.33966464  0.66550310  0.00011208
   0.66108643  0.00584973 -0.00015738
   0.98424569  0.33864932 -0.00075703
   0.00005300  0.64279234 -0.00017545
   0.33935121  0.35169706  0.00058546
   0.10848574  0.22010947  0.95046634
   0.22254059  0.10851301  0.04743162
   0.11294697  0.55313061  0.94532892
   0.21722070  0.44214880  0.05209305
   0.11385562  0.88928288  0.95347401
   0.22349827  0.78239366  0.05089951
   0.44437744  0.21970357  0.95069601
   0.54990698  0.10774329  0.05424979
   0.45089877  0.56059018  0.94593755
   0.56247785  0.45157312  0.04913428
   0.44068755  0.89154469  0.94723433
   0.55794703  0.77834008  0.05293754
   0.77814860  0.21847471  0.94404063
   0.89099388  0.11108929  0.05091788
   0.77400083  0.55688373  0.95160219
   0.88751616  0.44183764  0.05675755
   0.77756646  0.88622295  0.94950562
   0.88454655  0.77582883  0.04725491
unknown system                          
           1
     8.336089    4.778832    0.000000
    -8.331740    4.771285    0.000000
     0.000000    0.000000   30.000000
   V    Mo   W    S 
   3   3   3  18
Direct configuration=    23
   0.64953733  0.67723799 -0.00017403
  -0.00835605 -0.00081387  0.00029456
   0.35301242  0.00213049 -0.00001812
   0.68182374  0.32050777  0.00036469
   0.33975764  0.66560364  0.00012820
   0.66138378  0.00572406 -0.00019554
   0.98445260  0.33807356 -0.00077956
   0.00043671  0.64207421 -0.00015353
   0.33842138  0.35266691  0.00062932
   0.10856661  0.21990585  0.95025842
   0.22266679  0.10870702  0.04717671
   0.11308374  0.55299533  0.94524626
   0.21712367  0.44244032  0.05225679
   0.11383432  0.88918462  0.95379529
   0.22350530  0.78249845  0.05098477
   0.44440611  0.21985954  0.95090768
   0.55000895  0.10767731  0.05441824
   0.45086852  0.56077582  0.94581991
   0.56264523  0.45161386  0.04887339
   0.44074387  0.89144071  0.94707130
   0.55786283  0.77852829  0.05305583
   0.77814384  0.21819441  0.94393682
   0.89087558  0.11102469  0.05110409
   0.77384427  0.55678796  0.95183259
   0.88755673  0.44148680  0.05678791
   0.77750655  0.88627615  0.94934941
   0.88450198  0.77561254  0.04702851
unknown system                          
           1
     8.334441    4.777115    0.000000
    -8.329698    4.768883    0.000000
     0.000000    0.000000   30.000000
   V    Mo   W    S 
   3   3   3  18
Direct configuration=    24
   0.64924608  0.67780197 -0.00021148
  -0.00917341 -0.00133144  0.00033223
   0.35375120  0.00202524 -0.00000836
   0.68213427  0.32002556  0.00040212
   0.33992792  0.66556631  0.00015183
   0.66140864  0.00574668 -0.00020124
   0.98446083  0.33795922 -0.00085569
   0.00068121  0.64162574 -0.00013791
   0.33792554  0.35361494  0.00061016
   0.10862020  0.21978387  0.95027397
   0.22283558  0.10901653  0.04696617
   0.11317145  0.55292337  0.94524067
   0.21699950  0.44260028  0.05232679
   0.11388535  0.88902785  0.95397381
   0.22342391  0.78247791  0.05096311
   0.44450713  0.22008843  0.95110413
   0.55015726  0.10764108  0.05445814
   0.45083635  0.56100268  0.94573936
   0.56272952  0.45169599  0.04863671
   0.44082608  0.89141377  0.94706743