   27   27  100    1
  0.9710400E+02  0.1002848E-08  0.1002848E-08  0.3000000E-08  0.5000000E-15
  1.000000000000000E-004
  CAR 
 unknown system                          
    159     34    120
 
  0.0000000E+00  0.0000000E+00  0.0000000E+00  0.1562500E-01
    1      -17.802167   1.000000
    2      -16.622283   1.000000
    3      -16.560308   1.000000
    4      -16.510593   1.000000
    5      -16.473783   1.000000
    6      -16.445429   1.000000
    7      -16.377444   1.000000
    8      -16.322454   1.000000
    9      -16.083164   1.000000
   10      -16.062732   1.000000
   11      -16.030057   1.000000
   12      -15.926894   1.000000
   13      -15.919233   1.000000
   14      -15.860423   1.000000
   15      -15.599531   1.000000
   16      -15.561349   1.000000
   17      -15.476458   1.000000
   18      -15.394946   1.000000
   19       -9.285725   1.000000
   20       -8.940463   1.000000
   21       -8.835312   1.000000
   22       -8.776619   1.000000
   23       -8.688201   1.000000
   24       -8.581481   1.000000
   25       -8.555617   1.000000
   26       -8.520766   1.000000
   27       -8.457415   1.000000
   28       -8.404464   1.000000
   29       -8.328470   1.000000
   30       -8.298698   1.000000
   31       -8.259433   1.000000
   32       -8.178513   1.000000
   33       -8.156738   1.000000
   34       -8.136119   1.000000
   35       -7.936770   1.000000
   36       -7.906473   1.000000
   37       -7.693014   1.000000
   38       -7.620320   1.000000
   39       -7.526333   1.000000
   40       -7.410957   1.000000
   41       -7.335915   1.000000
   42       -7.243220   1.000000
   43       -7.191248   1.000000
   44       -6.902708   1.000000
   45       -6.847084   1.000000
   46       -6.748526   1.000000
   47       -6.657037   1.000000
   48       -6.596391   1.000000
   49       -6.573020   1.000000
   50       -6.515262   1.000000
   51       -6.458313   1.000000
   52       -6.435760   1.000000
   53       -6.276095   1.000000
   54       -6.264013   1.000000
   55       -6.202404   1.000000
   56       -6.171839   1.000000
   57       -6.085352   1.000000
   58       -5.794154   1.000000
   59       -5.700752   1.000000
   60       -5.543226   1.000000
   61       -5.512255   1.000000
   62       -5.393431   1.000000
   63       -5.343660   1.000000
   64       -5.240632   1.000000
   65       -4.951711   1.000000
   66       -4.896780   1.000000
   67       -4.820609   1.000000
   68       -4.789557   1.000000
   69       -4.744752   1.000000
   70       -4.680407   1.000000
   71       -4.496626   1.000000
   72       -4.431514   1.000000
   73       -4.393421   1.000000
   74       -4.346486   1.000000
   75       -4.132583   1.000000
   76       -4.092627   1.000000
   77       -3.540878   0.998433
   78       -3.534269   0.998179
   79       -3.470191   0.992945
   80       -3.177660   0.650231
   81       -3.117813   0.485147
   82       -2.747188   0.003931
   83       -2.645142   0.000363
   84       -2.624408   0.000211
   85       -2.368353   0.000000
   86       -2.344634   0.000000
   87       -2.320380   0.000000
   88       -2.229302   0.000000
   89       -2.176451   0.000000
   90       -2.038480   0.000000
   91       -1.911224   0.000000
   92       -1.852281   0.000000
   93       -1.708773   0.000000
   94       -1.512268   0.000000
   95       -1.371742   0.000000
   96       -1.271018   0.000000
   97       -1.168782   0.000000
   98       -0.919058   0.000000
   99       -0.825633   0.000000
  100       -0.439877   0.000000
  101       -0.401548   0.000000
  102       -0.371509   0.000000
  103       -0.339944   0.000000
  104       -0.239632   0.000000
  105       -0.196836   0.000000
  106        0.116301   0.000000
  107        0.229720   0.000000
  108        0.239899   0.000000
  109        0.331899   0.000000
  110        0.357468   0.000000
  111        0.454531   0.000000
  112        0.688165   0.000000
  113        0.730516   0.000000
  114        0.821921   0.000000
  115        0.889200   0.000000
  116        0.948538   0.000000
  117        1.019209   0.000000
  118        1.664694   0.000000
  119        1.835479   0.000000
  120        2.172371   0.000000
 
  0.1250000E+00  0.2775558E-16  0.0000000E+00  0.3125000E-01
    1      -17.776221   1.000000
    2      -16.746188   1.000000
    3      -16.590956   1.000000
    4      -16.545545   1.000000
    5      -16.508725   1.000000
    6      -16.364607   1.000000
    7      -16.318797   1.000000
    8      -16.281651   1.000000
    9      -16.141538   1.000000
   10      -16.087908   1.000000
   11      -15.976373   1.000000
   12      -15.917595   1.000000
   13      -15.868243   1.000000
   14      -15.814291   1.000000
   15      -15.624843   1.000000
   16      -15.562460   1.000000
   17      -15.484260   1.000000
   18      -15.405626   1.000000
   19       -9.275184   1.000000
   20       -9.130036   1.000000
   21       -8.927712   1.000000
   22       -8.883387   1.000000
   23       -8.737907   1.000000
   24       -8.628332   1.000000
   25       -8.566324   1.000000
   26       -8.537024   1.000000
   27       -8.462383   1.000000
   28       -8.387728   1.000000
   29       -8.322132   1.000000
   30       -8.275578   1.000000
   31       -8.167763   1.000000
   32       -8.090865   1.000000
   33       -8.043581   1.000000
   34       -8.009290   1.000000
   35       -7.827710   1.000000
   36       -7.780335   1.000000
   37       -7.706213   1.000000
   38       -7.593735   1.000000
   39       -7.500771   1.000000
   40       -7.444238   1.000000
   41       -7.342456   1.000000
   42       -7.214151   1.000000
   43       -7.137748   1.000000
   44       -7.008548   1.000000
   45       -6.875327   1.000000
   46       -6.795675   1.000000
   47       -6.652225   1.000000
   48       -6.625238   1.000000
   49       -6.559280   1.000000
   50       -6.519486   1.000000
   51       -6.461506   1.000000
   52       -6.342180   1.000000
   53       -6.314505   1.000000
   54       -6.288798   1.000000
   55       -6.227013   1.000000
   56       -6.182573   1.000000
   57       -6.089440   1.000000
   58       -5.787203   1.000000
   59       -5.682531   1.000000
   60       -5.561068   1.000000
   61       -5.480750   1.000000
   62       -5.359947   1.000000
   63       -5.269041   1.000000
   64       -5.150469   1.000000
   65       -5.103187   1.000000
   66       -5.075684   1.000000
   67       -5.017646   1.000000
   68       -4.916271   1.000000
   69       -4.716022   1.000000
   70       -4.647660   1.000000
   71       -4.562463   1.000000
   72       -4.442567   1.000000
   73       -4.200345   1.000000
   74       -4.184763   1.000000
   75       -4.039597   1.000000
   76       -3.926513   1.000000
   77       -3.758996   0.999997
   78       -3.623363   0.999798
   79       -3.531202   0.998048
   80       -3.105675   0.451027
   81       -3.017295   0.227228
   82       -2.744648   0.003726
   83       -2.666012   0.000615
   84       -2.585087   0.000071
   85       -2.393678   0.000000
   86       -2.354253   0.000000
   87       -2.327761   0.000000
   88       -2.267064   0.000000
   89       -2.164166   0.000000
   90       -2.079000   0.000000
   91       -1.894247   0.000000
   92       -1.847539   0.000000
   93       -1.655194   0.000000
   94       -1.492843   0.000000
   95       -1.353526   0.000000
   96       -1.277151   0.000000
   97       -1.136565   0.000000
   98       -0.904717   0.000000
   99       -0.800989   0.000000
  100       -0.559831   0.000000
  101       -0.482544   0.000000
  102       -0.439343   0.000000
  103       -0.376415   0.000000
  104       -0.270308   0.000000
  105       -0.194299   0.000000
  106       -0.013457   0.000000
  107        0.113676   0.000000
  108        0.247793   0.000000
  109        0.292367   0.000000
  110        0.426217   0.000000
  111        0.498384   0.000000
  112        0.624241   0.000000
  113        0.761503   0.000000
  114        0.810049   0.000000
  115        0.909294   0.000000
  116        1.029930   0.000000
  117        1.132264   0.000000
  118        1.708022   0.000000
  119        1.873963   0.000000
  120        2.207594   0.000000
 
  0.2500000E+00  0.5551115E-16  0.0000000E+00  0.3125000E-01
    1      -17.699311   1.000000
    2      -16.970265   1.000000
    3      -16.639990   1.000000
    4      -16.579155   1.000000
    5      -16.528125   1.000000
    6      -16.332320   1.000000
    7      -16.240482   1.000000
    8      -16.218774   1.000000
    9      -16.133669   1.000000
   10      -16.118591   1.000000
   11      -15.975980   1.000000
   12      -15.856570   1.000000
   13      -15.814598   1.000000
   14      -15.691188   1.000000
   15      -15.659714   1.000000
   16      -15.582415   1.000000
   17      -15.509403   1.000000
   18      -15.432463   1.000000
   19       -9.468324   1.000000
   20       -9.255174   1.000000
   21       -9.062060   1.000000
   22       -8.961928   1.000000
   23       -8.883123   1.000000
   24       -8.749517   1.000000
   25       -8.568676   1.000000
   26       -8.450347   1.000000
   27       -8.412141   1.000000
   28       -8.405730   1.000000
   29       -8.312084   1.000000
   30       -8.179027   1.000000
   31       -8.169842   1.000000
   32       -8.045294   1.000000
   33       -7.891494   1.000000
   34       -7.801722   1.000000
   35       -7.745190   1.000000
   36       -7.655012   1.000000
   37       -7.582695   1.000000
   38       -7.529858   1.000000
   39       -7.427043   1.000000
   40       -7.349460   1.000000
   41       -7.256334   1.000000
   42       -7.189980   1.000000
   43       -7.102313   1.000000
   44       -7.021773   1.000000
   45       -6.893255   1.000000
   46       -6.851693   1.000000
   47       -6.739606   1.000000
   48       -6.670699   1.000000
   49       -6.570878   1.000000
   50       -6.540209   1.000000
   51       -6.448844   1.000000
   52       -6.374332   1.000000
   53       -6.327411   1.000000
   54       -6.241159   1.000000
   55       -6.165506   1.000000
   56       -6.132679   1.000000
   57       -6.066019   1.000000
   58       -5.796453   1.000000
   59       -5.675696   1.000000
   60       -5.612027   1.000000
   61       -5.535560   1.000000
   62       -5.461495   1.000000
   63       -5.422544   1.000000
   64       -5.327174   1.000000
   65       -5.250650   1.000000
   66       -5.165178   1.000000
   67       -5.012791   1.000000
   68       -4.901786   1.000000
   69       -4.702094   1.000000
   70       -4.645940   1.000000
   71       -4.580639   1.000000
   72       -4.323506   1.000000
   73       -4.224948   1.000000
   74       -4.070870   1.000000
   75       -3.991160   1.000000
   76       -3.812616   0.999999
   77       -3.770835   0.999998
   78       -3.660815   0.999928
   79       -3.522930   0.997653
   80       -3.076048   0.369731
   81       -2.959052   0.123055
   82       -2.740045   0.003380
   83       -2.624247   0.000210
   84       -2.542296   0.000020
   85       -2.455951   0.000001
   86       -2.403019   0.000000
   87       -2.349546   0.000000
   88       -2.275994   0.000000
   89       -2.159822   0.000000
   90       -2.130603   0.000000
   91       -1.876282   0.000000
   92       -1.834748   0.000000
   93       -1.567879   0.000000
   94       -1.454801   0.000000
   95       -1.330953   0.000000
   96       -1.241246   0.000000
   97       -1.085944   0.000000
   98       -0.879517   0.000000
   99       -0.761247   0.000000
  100       -0.734003   0.000000
  101       -0.630164   0.000000
  102       -0.572544   0.000000
  103       -0.502369   0.000000
  104       -0.350335   0.000000
  105       -0.279702   0.000000
  106       -0.187944   0.000000
  107       -0.051904   0.000000
  108        0.181587   0.000000
  109        0.231345   0.000000
  110        0.371274   0.000000
  111        0.503716   0.000000
  112        0.582036   0.000000
  113        0.801423   0.000000
  114        0.916740   0.000000
  115        1.014553   0.000000
  116        1.154667   0.000000
  117        1.325084   0.000000
  118        1.829751   0.000000
  119        1.985150   0.000000
  120        2.312175   0.000000
 
  0.3750000E+00  0.0000000E+00  0.0000000E+00  0.3125000E-01
    1      -17.574657   1.000000
    2      -17.196487   1.000000
    3      -16.683415   1.000000
    4      -16.613975   1.000000
    5      -16.495710   1.000000
    6      -16.382335   1.000000
    7      -16.210986   1.000000
    8      -16.151425   1.000000
    9      -16.118973   1.000000
   10      -16.066727   1.000000
   11      -15.979825   1.000000
   12      -15.829902   1.000000
   13      -15.758731   1.000000
   14      -15.684135   1.000000
   15      -15.638377   1.000000
   16      -15.569721   1.000000
   17      -15.533839   1.000000
   18      -15.460082   1.000000
   19       -9.700552   1.000000
   20       -9.294728   1.000000
   21       -9.180595   1.000000
   22       -8.992203   1.000000
   23       -8.884246   1.000000
   24       -8.835086   1.000000
   25       -8.534382   1.000000
   26       -8.505516   1.000000
   27       -8.384567   1.000000
   28       -8.329473   1.000000
   29       -8.287479   1.000000
   30       -8.203055   1.000000
   31       -8.113908   1.000000
   32       -8.000648   1.000000
   33       -7.857415   1.000000
   34       -7.755643   1.000000
   35       -7.736221   1.000000
   36       -7.654639   1.000000
   37       -7.591867   1.000000
   38       -7.449169   1.000000
   39       -7.278945   1.000000
   40       -7.236236   1.000000
   41       -7.182054   1.000000
   42       -7.085846   1.000000
   43       -7.047841   1.000000
   44       -6.936295   1.000000
   45       -6.866953   1.000000
   46       -6.812907   1.000000
   47       -6.739975   1.000000
   48       -6.625678   1.000000
   49       -6.587567   1.000000
   50       -6.528154   1.000000
   51       -6.415966   1.000000
   52       -6.372350   1.000000
   53       -6.295037   1.000000
   54       -6.180932   1.000000
   55       -6.102618   1.000000
   56       -6.025449   1.000000
   57       -5.948052   1.000000
   58       -5.918156   1.000000
   59       -5.871843   1.000000
   60       -5.776378   1.000000
   61       -5.743319   1.000000
   62       -5.677617   1.000000
   63       -5.621810   1.000000
   64       -5.535493   1.000000
   65       -5.198254   1.000000
   66       -5.070680   1.000000
   67       -4.913452   1.000000
   68       -4.838026   1.000000
   69       -4.752451   1.000000
   70       -4.653532   1.000000
   71       -4.595919   1.000000
   72       -4.526699   1.000000
   73       -4.212747   1.000000
   74       -4.184634   1.000000
   75       -3.854361   1.000000
   76       -3.760590   0.999997
   77       -3.566655   0.999145
   78       -3.539169   0.998371
   79       -3.423084   0.983054
   80       -3.094386   0.419609
   81       -2.992460   0.177843
   82       -2.769445   0.006200
   83       -2.607326   0.000133
   84       -2.555552   0.000030
   85       -2.459901   0.000001
   86       -2.424818   0.000000
   87       -2.329979   0.000000
   88       -2.272135   0.000000
   89       -2.161820   0.000000
   90       -2.143629   0.000000
   91       -1.874694   0.000000
   92       -1.825272   0.000000
   93       -1.517976   0.000000
   94       -1.432620   0.000000
   95       -1.306030   0.000000
   96       -1.204767   0.000000
   97       -1.064238   0.000000
   98       -0.870622   0.000000
   99       -0.840753   0.000000
  100       -0.778510   0.000000
  101       -0.734797   0.000000
  102       -0.629739   0.000000
  103       -0.590798   0.000000
  104       -0.473926   0.000000
  105       -0.438928   0.000000
  106       -0.272933   0.000000
  107       -0.162509   0.000000
  108        0.042119   0.000000
  109        0.179719   0.000000
  110        0.261404   0.000000
  111        0.542388   0.000000
  112        0.608780   0.000000
  113        0.780704   0.000000
  114        1.031001   0.000000
  115        1.126688   0.000000
  116        1.276867   0.000000
  117        1.459083   0.000000
  118        2.013694   0.000000
  119        2.159376   0.000000
  120        2.483248   0.000000
 
  0.5000000E+00  0.1110223E-15  0.0000000E+00  0.1562500E-01
    1      -17.431419   1.000000
    2      -17.375301   1.000000
    3      -16.698790   1.000000
    4      -16.627080   1.000000
    5      -16.457064   1.000000
    6      -16.428750   1.000000
    7      -16.211489   1.000000
    8      -16.148066   1.000000
    9      -16.050866   1.000000
   10      -16.041713   1.000000
   11      -16.014699   1.000000
   12      -15.811713   1.000000
   13      -15.723435   1.000000
   14      -15.708159   1.000000
   15      -15.639559   1.000000
   16      -15.584601   1.000000
   17      -15.519485   1.000000
   18      -15.462898   1.000000
   19       -9.783968   1.000000
   20       -9.317679   1.000000
   21       -9.224404   1.000000
   22       -9.028351   1.000000
   23       -8.871185   1.000000
   24       -8.745753   1.000000
   25       -8.664252   1.000000
   26       -8.509118   1.000000
   27       -8.363755   1.000000
   28       -8.309171   1.000000
   29       -8.273513   1.000000
   30       -8.148450   1.000000
   31       -8.094697   1.000000
   32       -7.961860   1.000000
   33       -7.864114   1.000000
   34       -7.766265   1.000000
   35       -7.748935   1.000000
   36       -7.691221   1.000000
   37       -7.643526   1.000000
   38       -7.468166   1.000000
   39       -7.244910   1.000000
   40       -7.165564   1.000000
   41       -7.156804   1.000000
   42       -7.037733   1.000000
   43       -6.937471   1.000000
   44       -6.875181   1.000000
   45       -6.827368   1.000000
   46       -6.748935   1.000000
   47       -6.725670   1.000000
   48       -6.579653   1.000000
   49       -6.548448   1.000000
   50       -6.494842   1.000000
   51       -6.446906   1.000000
   52       -6.430372   1.000000
   53       -6.297059   1.000000
   54       -6.154815   1.000000
   55       -6.104581   1.000000
   56       -6.022871   1.000000
   57       -5.976348   1.000000
   58       -5.965724   1.000000
   59       -5.867635   1.000000
   60       -5.795639   1.000000
   61       -5.757257   1.000000
   62       -5.688751   1.000000
   63       -5.664665   1.000000
   64       -5.623207   1.000000
   65       -5.402896   1.000000
   66       -5.061635   1.000000
   67       -4.973821   1.000000
   68       -4.841360   1.000000
   69       -4.736866   1.000000
   70       -4.637420   1.000000
   71       -4.598238   1.000000
   72       -4.459973   1.000000
   73       -4.338038   1.000000
   74       -4.161334   1.000000
   75       -3.776913   0.999998
   76       -3.717559   0.999987
   77       -3.578584   0.999361
   78       -3.434360   0.986135
   79       -3.348383   0.944435
   80       -3.107657   0.456580
   81       -3.016176   0.224849
   82       -2.796019   0.010371
   83       -2.635632   0.000284
   84       -2.581480   0.000064
   85       -2.429815   0.000000
   86       -2.420159   0.000000
   87       -2.302395   0.000000
   88       -2.277982   0.000000
   89       -2.163335   0.000000
   90       -2.137567   0.000000
   91       -1.879050   0.000000
   92       -1.822529   0.000000
   93       -1.503767   0.000000
   94       -1.429809   0.000000
   95       -1.298791   0.000000
   96       -1.198339   0.000000
   97       -1.067037   0.000000
   98       -0.870089   0.000000
   99       -0.861318   0.000000
  100       -0.816170   0.000000
  101       -0.758451   0.000000
  102       -0.617468   0.000000
  103       -0.597026   0.000000
  104       -0.577259   0.000000
  105       -0.495830   0.000000
  106       -0.313556   0.000000
  107       -0.187339   0.000000
  108       -0.020967   0.000000
  109        0.153145   0.000000
  110        0.228167   0.000000
  111        0.556437   0.000000
  112        0.620997   0.000000
  113        0.771586   0.000000
  114        1.073631   0.000000
  115        1.168778   0.000000
  116        1.322081   0.000000
  117        1.505075   0.000000
  118        2.246968   0.000000
  119        2.251157   0.000000
  120        2.367395   0.000000
 
  0.0000000E+00  0.1250000E+00  0.0000000E+00  0.3125000E-01
    1      -17.777125   1.000000
    2      -16.716334   1.000000
    3      -16.601245   1.000000
    4      -16.559906   1.000000
    5      -16.521397   1.000000
    6      -16.393941   1.000000
    7      -16.298438   1.000000
    8      -16.267578   1.000000
    9      -16.148850   1.000000
   10      -16.064599   1.000000
   11      -15.967508   1.000000
   12      -15.940959   1.000000
   13      -15.880485   1.000000
   14      -15.800543   1.000000
   15      -15.613774   1.000000
   16      -15.576381   1.000000
   17      -15.480578   1.000000
   18      -15.406148   1.000000
   19       -9.279295   1.000000
   20       -9.099048   1.000000
   21       -8.954251   1.000000
   22       -8.858042   1.000000
   23       -8.752743   1.000000
   24       -8.650649   1.000000
   25       -8.556047   1.000000
   26       -8.505738   1.000000
   27       -8.477794   1.000000
   28       -8.411420   1.000000
   29       -8.349452   1.000000
   30       -8.228577   1.000000
   31       -8.198097   1.000000
   32       -8.119421   1.000000
   33       -8.031507   1.000000
   34       -7.962348   1.000000
   35       -7.859689   1.000000
   36       -7.744307   1.000000
   37       -7.685467   1.000000
   38       -7.626445   1.000000
   39       -7.546941   1.000000
   40       -7.442797   1.000000
   41       -7.292118   1.000000
   42       -7.216529   1.000000
   43       -7.164126   1.000000
   44       -6.962283   1.000000
   45       -6.896251   1.000000
   46       -6.808269   1.000000
   47       -6.667327   1.000000
   48       -6.632022   1.000000
   49       -6.557530   1.000000
   50       -6.511568   1.000000
   51       -6.442746   1.000000
   52       -6.377094   1.000000
   53       -6.296783   1.000000
   54       -6.253820   1.000000
   55       -6.237342   1.000000
   56       -6.159517   1.000000
   57       -6.116777   1.000000
   58       -5.793144   1.000000
   59       -5.657636   1.000000
   60       -5.552270   1.000000
   61       -5.516844   1.000000
   62       -5.345622   1.000000
   63       -5.266314   1.000000
   64       -5.192584   1.000000
   65       -5.099393   1.000000
   66       -5.053539   1.000000
   67       -4.981945   1.000000
   68       -4.903459   1.000000
   69       -4.732313   1.000000
   70       -4.641467   1.000000
   71       -4.589997   1.000000
   72       -4.421277   1.000000
   73       -4.268303   1.000000
   74       -4.185350   1.000000
   75       -4.009509   1.000000
   76       -3.915768   1.000000
   77       -3.738101   0.999993
   78       -3.651154   0.999906
   79       -3.531511   0.998062
   80       -3.087733   0.401318
   81       -3.040712   0.280141
   82       -2.751712   0.004320
   83       -2.638416   0.000305
   84       -2.610738   0.000146
   85       -2.390519   0.000000
   86       -2.358864   0.000000
   87       -2.314673   0.000000
   88       -2.249762   0.000000
   89       -2.200956   0.000000
   90       -2.034740   0.000000
   91       -1.900050   0.000000
   92       -1.836287   0.000000
   93       -1.710093   0.000000
   94       -1.486650   0.000000
   95       -1.359206   0.000000
   96       -1.230022   0.000000
   97       -1.144242   0.000000
   98       -0.902088   0.000000
   99       -0.805421   0.000000
  100       -0.554024   0.000000
  101       -0.476364   0.000000
  102       -0.430687   0.000000
  103       -0.388241   0.000000
  104       -0.250915   0.000000
  105       -0.159865   0.000000
  106       -0.038388   0.000000
  107        0.124339   0.000000
  108        0.194131   0.000000
  109        0.269215   0.000000
  110        0.329937   0.000000
  111        0.465185   0.000000
  112        0.743168   0.000000
  113        0.805630   0.000000
  114        0.891934   0.000000
  115        0.935856   0.000000
  116        1.006548   0.000000
  117        1.041131   0.000000
  118        1.707299   0.000000
  119        1.874769   0.000000
  120        2.207513   0.000000
 
  0.1250000E+00  0.1250000E+00  0.0000000E+00  0.3125000E-01
    1      -17.726294   1.000000
    2      -16.866982   1.000000
    3      -16.729419   1.000000
    4      -16.552360   1.000000
    5      -16.445842   1.000000
    6      -16.349370   1.000000
    7      -16.300403   1.000000
    8      -16.206698   1.000000
    9      -16.157493   1.000000
   10      -16.117044   1.000000
   11      -15.935824   1.000000
   12      -15.922502   1.000000
   13      -15.794771   1.000000
   14      -15.739336   1.000000
   15      -15.643968   1.000000
   16      -15.582344   1.000000
   17      -15.490996   1.000000
   18      -15.430906   1.000000
   19       -9.343263   1.000000
   20       -9.297567   1.000000
   21       -9.084433   1.000000
   22       -8.946015   1.000000
   23       -8.771779   1.000000
   24       -8.695051   1.000000
   25       -8.560631   1.000000
   26       -8.486463   1.000000
   27       -8.429320   1.000000
   28       -8.392293   1.000000
   29       -8.306481   1.000000
   30       -8.247423   1.000000
   31       -8.164001   1.000000
   32       -8.063674   1.000000
   33       -7.986686   1.000000
   34       -7.842597   1.000000
   35       -7.735646   1.000000
   36       -7.698274   1.000000
   37       -7.639629   1.000000
   38       -7.489468   1.000000
   39       -7.428212   1.000000
   40       -7.352986   1.000000
   41       -7.271227   1.000000
   42       -7.212226   1.000000
   43       -7.135946   1.000000
   44       -7.032896   1.000000
   45       -6.944104   1.000000
   46       -6.844801   1.000000
   47       -6.710826   1.000000
   48       -6.653906   1.000000
   49       -6.588811   1.000000
   50       -6.518227   1.000000
   51       -6.429910   1.000000
   52       -6.353257   1.000000
   53       -6.311141   1.000000
   54       -6.264259   1.000000
   55       -6.212264   1.000000
   56       -6.140415   1.000000
   57       -6.090090   1.000000
   58       -5.793088   1.000000
   59       -5.688993   1.000000
   60       -5.563257   1.000000
   61       -5.471552   1.000000
   62       -5.413926   1.000000
   63       -5.350824   1.000000
   64       -5.262679   1.000000
   65       -5.208190   1.000000
   66       -5.054611   1.000000
   67       -4.997239   1.000000
   68       -4.966817   1.000000
   69       -4.921189   1.000000
   70       -4.727674   1.000000
   71       -4.408798   1.000000
   72       -4.334012   1.000000
   73       -4.147536   1.000000
   74       -4.089661   1.000000
   75       -3.978057   1.000000
   76       -3.900426   1.000000
   77       -3.874567   1.000000
   78       -3.687868   0.999967
   79       -3.499801   0.996137
   80       -3.074598   0.365869
   81       -2.933977   0.090585
   82       -2.770139   0.006286
   83       -2.637370   0.000297
   84       -2.559059   0.000033
   85       -2.432583   0.000001
   86       -2.366795   0.000000
   87       -2.334825   0.000000
   88       -2.291278   0.000000
   89       -2.194033   0.000000
   90       -2.064393   0.000000
   91       -1.884024   0.000000
   92       -1.822267   0.000000
   93       -1.658778   0.000000
   94       -1.448233   0.000000
   95       -1.341119   0.000000
   96       -1.222798   0.000000
   97       -1.101254   0.000000
   98       -0.884563   0.000000
   99       -0.758218   0.000000
  100       -0.694733   0.000000
  101       -0.572262   0.000000
  102       -0.526370   0.000000
  103       -0.419389   0.000000
  104       -0.372605   0.000000
  105       -0.243899   0.000000
  106       -0.169211   0.000000
  107        0.049661   0.000000
  108        0.147336   0.000000
  109        0.231899   0.000000
  110        0.356998   0.000000
  111        0.515504   0.000000
  112        0.613877   0.000000
  113        0.801481   0.000000
  114        0.949588   0.000000
  115        0.992017   0.000000
  116        1.128542   0.000000
  117        1.184908   0.000000
  118        1.789605   0.000000
  119        1.949145   0.000000
  120        2.277326   0.000000
 
  0.2500000E+00  0.1250000E+00  0.0000000E+00  0.3125000E-01
    1      -17.626426   1.000000
    2      -17.073946   1.000000
    3      -16.828618   1.000000
    4      -16.517360   1.000000
    5      -16.437793   1.000000
    6      -16.355393   1.000000
    7      -16.226198   1.000000
    8      -16.188112   1.000000
    9      -16.147823   1.000000
   10      -16.090674   1.000000
   11      -15.959988   1.000000
   12      -15.881342   1.000000
   13      -15.771717   1.000000
   14      -15.663652   1.000000
   15      -15.617026   1.000000
   16      -15.593673   1.000000
   17      -15.534998   1.000000
   18      -15.444179   1.000000
   19       -9.591955   1.000000
   20       -9.392504   1.000000
   21       -9.196173   1.000000
   22       -8.967198   1.000000
   23       -8.788776   1.000000
   24       -8.734854   1.000000
   25       -8.546705   1.000000
   26       -8.436658   1.000000
   27       -8.402456   1.000000
   28       -8.351126   1.000000
   29       -8.281654   1.000000
   30       -8.226666   1.000000
   31       -8.133834   1.000000
   32       -8.070480   1.000000
   33       -7.984141   1.000000
   34       -7.842243   1.000000
   35       -7.794291   1.000000
   36       -7.545957   1.000000
   37       -7.474364   1.000000
   38       -7.395425   1.000000
   39       -7.310534   1.000000
   40       -7.290488   1.000000
   41       -7.204892   1.000000
   42       -7.165386   1.000000
   43       -7.101605   1.000000
   44       -6.948160   1.000000
   45       -6.886041   1.000000
   46       -6.798225   1.000000
   47       -6.756009   1.000000