       N       E                     dE             d eps       ncg     rms          rms(c)
DAV:   1     0.112438632291E+04    0.11244E+04   -0.35864E+04  8160   0.577E+02
DAV:   2    -0.180177157036E+01   -0.11262E+04   -0.10827E+04 11160   0.173E+02
DAV:   3    -0.199676475869E+03   -0.19787E+03   -0.18981E+03 10880   0.821E+01
DAV:   4    -0.208930935207E+03   -0.92545E+01   -0.89613E+01 11880   0.263E+01
DAV:   5    -0.209287551774E+03   -0.35662E+00   -0.35569E+00 11400   0.388E+00    0.275E+01
DAV:   6    -0.236805846609E+03   -0.27518E+02   -0.11043E+02 12880   0.603E+01    0.594E+01
DAV:   7    -0.196660819697E+03    0.40145E+02   -0.17886E+02 13320   0.152E+02    0.203E+01
DAV:   8    -0.190030375119E+03    0.66304E+01   -0.20846E+01 11800   0.134E+01    0.136E+01
DAV:   9    -0.188239669377E+03    0.17907E+01   -0.30962E+00 11720   0.627E+00    0.918E+00
DAV:  10    -0.187056294635E+03    0.11834E+01   -0.18251E+00 13280   0.774E+00    0.297E+00
DAV:  11    -0.186998896008E+03    0.57399E-01   -0.60866E-01 12520   0.239E+00    0.249E+00
DAV:  12    -0.187083937215E+03   -0.85041E-01   -0.62547E-01 12280   0.424E+00    0.460E+00
DAV:  13    -0.186909066294E+03    0.17487E+00   -0.44136E-01 13080   0.367E+00    0.187E+00
DAV:  14    -0.186897830943E+03    0.11235E-01   -0.12189E-01 12960   0.212E+00    0.182E+00
DAV:  15    -0.186872326204E+03    0.25505E-01   -0.59469E-02 12640   0.150E+00    0.722E-01
DAV:  16    -0.186867846173E+03    0.44800E-02   -0.84951E-03 12760   0.366E-01    0.390E-01
DAV:  17    -0.186866089775E+03    0.17564E-02   -0.71512E-03 12840   0.350E-01    0.222E-01
DAV:  18    -0.186865427579E+03    0.66220E-03   -0.17591E-03 11680   0.126E-01    0.132E-01
DAV:  19    -0.186865301817E+03    0.12576E-03   -0.61276E-04  9920   0.102E-01    0.448E-02
DAV:  20    -0.186866146814E+03   -0.84500E-03   -0.76184E-04  9120   0.505E-02    0.378E-02
DAV:  21    -0.186866830981E+03   -0.68417E-03   -0.19284E-04  8280   0.395E-02    0.340E-02
DAV:  22    -0.186867853309E+03   -0.10223E-02   -0.15943E-04  7480   0.448E-02    0.390E-02
DAV:  23    -0.186869014080E+03   -0.11608E-02   -0.13538E-04  7440   0.474E-02    0.161E-02
DAV:  24    -0.186869588295E+03   -0.57421E-03   -0.28576E-05  6800   0.171E-02    0.444E-03
DAV:  25    -0.186869951465E+03   -0.36317E-03   -0.16770E-05  5480   0.957E-03    0.429E-03
DAV:  26    -0.186870195307E+03   -0.24384E-03   -0.93568E-06  6800   0.717E-03    0.159E-03
DAV:  27    -0.186870284926E+03   -0.89619E-04   -0.32544E-06  7320   0.415E-03
   1 F= -.18687028E+03 E0= -.18669809E+03  d E =-.186870E+03
       N       E                     dE             d eps       ncg     rms          rms(c)
DAV:   1    -0.187505794775E+03   -0.63560E+00   -0.27129E+02  8160   0.350E+01    0.465E+00
DAV:   2    -0.189498234958E+03   -0.19924E+01   -0.20355E+01 12240   0.156E+01    0.969E+00
DAV:   3    -0.189355488912E+03    0.14275E+00   -0.46642E+00 12360   0.124E+01    0.654E+00
DAV:   4    -0.188794792450E+03    0.56070E+00   -0.63690E-01 12400   0.461E+00    0.236E+00
DAV:   5    -0.188868196410E+03   -0.73404E-01   -0.43556E-01 11440   0.356E+00    0.490E+00
DAV:   6    -0.188782737727E+03    0.85459E-01   -0.71970E-01 12600   0.414E+00    0.267E+00
DAV:   7    -0.188700010423E+03    0.82727E-01   -0.24014E-01 11600   0.154E+00    0.116E+00
DAV:   8    -0.188683087765E+03    0.16923E-01   -0.63032E-02 11560   0.878E-01    0.826E-01
DAV:   9    -0.188680226263E+03    0.28615E-02   -0.21944E-02 11520   0.806E-01    0.810E-01
DAV:  10    -0.188675981905E+03    0.42444E-02   -0.85868E-03 11720   0.523E-01    0.314E-01
DAV:  11    -0.188675352307E+03    0.62960E-03   -0.29714E-03 13080   0.241E-01    0.138E-01
DAV:  12    -0.188675190300E+03    0.16201E-03   -0.12182E-03 12080   0.112E-01    0.990E-02
DAV:  13    -0.188675223159E+03   -0.32859E-04   -0.28931E-04  7720   0.669E-02
   2 F= -.18867522E+03 E0= -.18853383E+03  d E =-.180494E+01
       N       E                     dE             d eps       ncg     rms          rms(c)
DAV:   1    -0.190594587012E+03   -0.19194E+01   -0.31163E+01  9120   0.142E+01    0.444E+00
DAV:   2    -0.190559519321E+03    0.35068E-01   -0.28008E+00 11160   0.952E+00    0.733E+00
DAV:   3    -0.190079116579E+03    0.48040E+00   -0.13978E+00 12320   0.859E+00    0.422E+00
DAV:   4    -0.189875144084E+03    0.20397E+00   -0.75879E-01 12680   0.419E+00    0.264E+00
DAV:   5    -0.189914579584E+03   -0.39435E-01   -0.47354E-01 12240   0.403E+00    0.373E+00
DAV:   6    -0.189770956867E+03    0.14362E+00   -0.21358E-01 12280   0.315E+00    0.668E-01
DAV:   7    -0.189764419896E+03    0.65370E-02   -0.16435E-02 12240   0.499E-01    0.230E-01
DAV:   8    -0.189765112639E+03   -0.69274E-03   -0.40499E-03 11760   0.314E-01    0.326E-01
DAV:   9    -0.189764488148E+03    0.62449E-03   -0.22041E-03 10280   0.308E-01    0.168E-01
DAV:  10    -0.189764639229E+03   -0.15108E-03   -0.99383E-04  9960   0.152E-01    0.129E-01
DAV:  11    -0.189764456452E+03    0.18278E-03   -0.45309E-04  8800   0.805E-02    0.176E-02
DAV:  12    -0.189764476629E+03   -0.20177E-04   -0.66538E-05  7360   0.260E-02
   3 F= -.18976448E+03 E0= -.18964432E+03  d E =-.108925E+01
       N       E                     dE             d eps       ncg     rms          rms(c)
DAV:   1    -0.191333693304E+03   -0.15692E+01   -0.76226E+01  8160   0.199E+01    0.461E+00
DAV:   2    -0.191179778480E+03    0.15391E+00   -0.54189E+00 13160   0.793E+00    0.486E+00
DAV:   3    -0.191278494231E+03   -0.98716E-01   -0.16086E+00 12240   0.914E+00    0.647E+00
DAV:   4    -0.190880428383E+03    0.39807E+00   -0.12556E+00 12920   0.730E+00    0.269E+00
DAV:   5    -0.190805316922E+03    0.75111E-01   -0.33986E-01 12240   0.301E+00    0.213E+00
DAV:   6    -0.190772288593E+03    0.33028E-01   -0.17567E-01 12520   0.278E+00    0.156E+00
DAV:   7    -0.190752941432E+03    0.19347E-01   -0.60293E-02 11800   0.144E+00    0.470E-01
DAV:   8    -0.190749810052E+03    0.31314E-02   -0.80936E-03 11120   0.421E-01    0.269E-01
DAV:   9    -0.190749587594E+03    0.22246E-03   -0.24408E-03 11040   0.334E-01    0.224E-01
DAV:  10    -0.190749664101E+03   -0.76507E-04   -0.15727E-03 11280   0.224E-01    0.139E-01
DAV:  11    -0.190749432263E+03    0.23184E-03   -0.89499E-04 10040   0.114E-01    0.476E-02
DAV:  12    -0.190749426535E+03    0.57281E-05   -0.13843E-04  7400   0.440E-02
   4 F= -.19074943E+03 E0= -.19064446E+03  d E =-.984950E+00
       N       E                     dE             d eps       ncg     rms          rms(c)
DAV:   1    -0.192121182723E+03   -0.13718E+01   -0.16531E+02  8160   0.287E+01    0.571E+00
DAV:   2    -0.191853474483E+03    0.26771E+00   -0.95845E+00 11240   0.814E+00    0.380E+00
DAV:   3    -0.191981776428E+03   -0.12830E+00   -0.19897E+00 11920   0.844E+00    0.721E+00
DAV:   4    -0.191747850265E+03    0.23393E+00   -0.24200E+00 11440   0.106E+01    0.452E+00
DAV:   5    -0.191576898143E+03    0.17095E+00   -0.75414E-01 12280   0.571E+00    0.338E+00
DAV:   6    -0.191435646543E+03    0.14125E+00   -0.26972E-01 12320   0.375E+00    0.122E+00
DAV:   7    -0.191427918052E+03    0.77285E-02   -0.74502E-02 12280   0.147E+00    0.864E-01
DAV:   8    -0.191425681628E+03    0.22364E-02   -0.35451E-02 12080   0.125E+00    0.776E-01
DAV:   9    -0.191419010006E+03    0.66716E-02   -0.10564E-02 12440   0.696E-01    0.181E-01
DAV:  10    -0.191419317132E+03   -0.30713E-03   -0.23418E-03 11040   0.178E-01    0.109E-01
DAV:  11    -0.191419167454E+03    0.14968E-03   -0.64397E-04 11160   0.969E-02    0.547E-02
DAV:  12    -0.191419150732E+03    0.16723E-04   -0.10637E-04  6960   0.458E-02
   5 F= -.19141915E+03 E0= -.19131664E+03  d E =-.669724E+00
       N       E                     dE             d eps       ncg     rms          rms(c)
DAV:   1    -0.191488097225E+03   -0.68930E-01   -0.56328E+00  8160   0.500E+00    0.664E-01
DAV:   2    -0.191555458876E+03   -0.67362E-01   -0.30372E-01 13520   0.309E+00    0.232E+00
DAV:   3    -0.191501328519E+03    0.54130E-01   -0.11323E-01 12400   0.236E+00    0.477E-01
DAV:   4    -0.191503089377E+03   -0.17609E-02   -0.17315E-02 11360   0.844E-01    0.674E-01
DAV:   5    -0.191498645445E+03    0.44439E-02   -0.99697E-03 11360   0.664E-01    0.220E-01
DAV:   6    -0.191498519103E+03    0.12634E-03   -0.26509E-03 10600   0.241E-01    0.189E-01
DAV:   7    -0.191499078229E+03   -0.55913E-03   -0.35133E-03 11520   0.391E-01    0.328E-01
DAV:   8    -0.191498016512E+03    0.10617E-02   -0.19131E-03  9520   0.288E-01    0.403E-02
DAV:   9    -0.191498027943E+03   -0.11431E-04   -0.98667E-05  5720   0.409E-02
   6 F= -.19149803E+03 E0= -.19139315E+03  d E =-.788772E-01
       N       E                     dE             d eps       ncg     rms          rms(c)
DAV:   1    -0.191544926111E+03   -0.46910E-01   -0.23505E+00  8160   0.322E+00    0.370E-01
DAV:   2    -0.191561584516E+03   -0.16658E-01   -0.78727E-02 13600   0.135E+00    0.115E+00
DAV:   3    -0.191548169503E+03    0.13415E-01   -0.32387E-02 12280   0.123E+00    0.323E-01
DAV:   4    -0.191548693468E+03   -0.52397E-03   -0.63972E-03 11080   0.498E-01    0.403E-01
DAV:   5    -0.191547128653E+03    0.15648E-02   -0.36809E-03 11040   0.404E-01    0.126E-01
DAV:   6    -0.191547071620E+03    0.57033E-04   -0.81373E-04 10120   0.124E-01
   7 F= -.19154707E+03 E0= -.19144132E+03  d E =-.490437E-01
       N       E                     dE             d eps       ncg     rms          rms(c)
DAV:   1    -0.191506649819E+03    0.40479E-01   -0.14586E+00  8160   0.255E+00    0.325E-01
DAV:   2    -0.191522416108E+03   -0.15766E-01   -0.62110E-02 13560   0.141E+00    0.113E+00
DAV:   3    -0.191508474747E+03    0.13941E-01   -0.23077E-02 11440   0.112E+00    0.229E-01
DAV:   4    -0.191508957946E+03   -0.48320E-03   -0.35860E-03 10040   0.396E-01    0.314E-01
DAV:   5    -0.191507959769E+03    0.99818E-03   -0.21513E-03 10160   0.313E-01    0.988E-02
DAV:   6    -0.191507934930E+03    0.24839E-04   -0.54296E-04 10280   0.106E-01
   8 F= -.19150793E+03 E0= -.19140290E+03  d E =0.391367E-01
       N       E                     dE             d eps       ncg     rms          rms(c)
DAV:   1    -0.191406731507E+03    0.10123E+00   -0.11428E+01  8160   0.716E+00    0.775E-01
DAV:   2    -0.191465473670E+03   -0.58742E-01   -0.33681E-01 12840   0.251E+00    0.199E+00
DAV:   3    -0.191421585690E+03    0.43888E-01   -0.89620E-02 11960   0.219E+00    0.649E-01
DAV:   4    -0.191423835535E+03   -0.22498E-02   -0.23324E-02 11680   0.977E-01    0.833E-01
DAV:   5    -0.191416915571E+03    0.69200E-02   -0.15687E-02 11040   0.873E-01    0.254E-01
DAV:   6    -0.191417004220E+03   -0.88649E-04   -0.37165E-03 10760   0.288E-01    0.195E-01
DAV:   7    -0.191416594486E+03    0.40973E-03   -0.23463E-03 12720   0.291E-01    0.209E-01
DAV:   8    -0.191416193415E+03    0.40107E-03   -0.92807E-04  8720   0.207E-01    0.536E-02
DAV:   9    -0.191416182319E+03    0.11096E-04   -0.10858E-04  5960   0.541E-02
   9 F= -.19141618E+03 E0= -.19131387E+03  d E =0.917526E-01
       N       E                     dE             d eps       ncg     rms          rms(c)
DAV:   1    -0.191434563129E+03   -0.18370E-01   -0.15713E+00  8160   0.269E+00    0.345E-01
DAV:   2    -0.191438638574E+03   -0.40754E-02   -0.57945E-02 11120   0.743E-01    0.469E-01
DAV:   3    -0.191438639442E+03   -0.86756E-06   -0.16943E-02 12160   0.845E-01    0.529E-01
DAV:   4    -0.191436076699E+03    0.25627E-02   -0.65240E-03 11160   0.523E-01    0.234E-01
DAV:   5    -0.191435981859E+03    0.94840E-04   -0.28105E-03  9800   0.382E-01    0.238E-01
DAV:   6    -0.191435429459E+03    0.55240E-03   -0.17226E-03 10200   0.257E-01    0.881E-02
DAV:   7    -0.191435381420E+03    0.48039E-04   -0.52022E-04 10120   0.109E-01
  10 F= -.19143538E+03 E0= -.19133249E+03  d E =-.191991E-01
       N       E                     dE             d eps       ncg     rms          rms(c)
DAV:   1    -0.191486282516E+03   -0.50853E-01   -0.37531E+00  8160   0.412E+00    0.570E-01
DAV:   2    -0.191527145120E+03   -0.40863E-01   -0.16462E-01 13600   0.235E+00    0.197E+00
DAV:   3    -0.191489880169E+03    0.37265E-01   -0.77272E-02 12120   0.197E+00    0.441E-01
DAV:   4    -0.191491271079E+03   -0.13909E-02   -0.13568E-02 10240   0.768E-01    0.590E-01
DAV:   5    -0.191487674030E+03    0.35970E-02   -0.79468E-03 10440   0.603E-01    0.210E-01
DAV:   6    -0.191487274377E+03    0.39965E-03   -0.22534E-03 11320   0.212E-01    0.125E-01
DAV:   7    -0.191487518344E+03   -0.24397E-03   -0.18444E-03 10560   0.263E-01    0.226E-01
DAV:   8    -0.191487020838E+03    0.49751E-03   -0.10484E-03  8520   0.212E-01    0.451E-02
DAV:   9    -0.191487009519E+03    0.11319E-04   -0.76865E-05  5720   0.431E-02
  11 F= -.19148701E+03 E0= -.19138181E+03  d E =-.516281E-01
       N       E                     dE             d eps       ncg     rms          rms(c)
DAV:   1    -0.191528283143E+03   -0.41262E-01   -0.23714E+00  8160   0.325E+00    0.408E-01
DAV:   2    -0.191551188716E+03   -0.22906E-01   -0.96738E-02 13600   0.178E+00    0.137E+00
DAV:   3    -0.191531265268E+03    0.19923E-01   -0.38424E-02 12240   0.142E+00    0.265E-01
DAV:   4    -0.191532156506E+03   -0.89124E-03   -0.56541E-03 11200   0.474E-01    0.413E-01
DAV:   5    -0.191530589484E+03    0.15670E-02   -0.38575E-03 10160   0.414E-01    0.153E-01
DAV:   6    -0.191530410414E+03    0.17907E-03   -0.95263E-04  9840   0.141E-01    0.808E-02
DAV:   7    -0.191530386442E+03    0.23972E-04   -0.52324E-04 10480   0.113E-01
  12 F= -.19153039E+03 E0= -.19142379E+03  d E =-.433769E-01
       N       E                     dE             d eps       ncg     rms          rms(c)
DAV:   1    -0.191402741078E+03    0.12767E+00   -0.16687E+01  8160   0.863E+00    0.105E+00
DAV:   2    -0.191537449642E+03   -0.13471E+00   -0.63414E-01 13600   0.432E+00    0.303E+00
DAV:   3    -0.191423387294E+03    0.11406E+00   -0.17660E-01 12240   0.322E+00    0.572E-01
DAV:   4    -0.191424328036E+03   -0.94074E-03   -0.24006E-02 12240   0.860E-01    0.767E-01
DAV:   5    -0.191420236374E+03    0.40917E-02   -0.21108E-02 11440   0.975E-01    0.516E-01
DAV:   6    -0.191418090766E+03    0.21456E-02   -0.77887E-03 12320   0.506E-01    0.216E-01
DAV:   7    -0.191417353284E+03    0.73748E-03   -0.24268E-03 10600   0.189E-01    0.720E-02
DAV:   8    -0.191417305449E+03    0.47834E-04   -0.43280E-04 10320   0.104E-01
  13 F= -.19141731E+03 E0= -.19131456E+03  d E =0.113081E+00
       N       E                     dE             d eps       ncg     rms          rms(c)
DAV:   1    -0.191377422944E+03    0.39930E-01   -0.34483E+00  8160   0.392E+00    0.415E-01
DAV:   2    -0.191391422548E+03   -0.14000E-01   -0.91275E-02 13520   0.125E+00    0.962E-01
DAV:   3    -0.191382318024E+03    0.91045E-02   -0.27854E-02 12080   0.119E+00    0.467E-01
DAV:   4    -0.191381333926E+03    0.98410E-03   -0.71547E-03 11280   0.521E-01    0.354E-01
DAV:   5    -0.191380353040E+03    0.98089E-03   -0.39472E-03 10360   0.440E-01    0.213E-01
DAV:   6    -0.191379916196E+03    0.43684E-03   -0.14639E-03 10360   0.232E-01    0.988E-02
DAV:   7    -0.191379893159E+03    0.23037E-04   -0.63277E-04 10120   0.120E-01
  14 F= -.19137989E+03 E0= -.19127828E+03  d E =0.374123E-01
       N       E                     dE             d eps       ncg     rms          rms(c)
DAV:   1    -0.191411801324E+03   -0.31885E-01   -0.24594E+00  8160   0.331E+00    0.370E-01
DAV:   2    -0.191425259169E+03   -0.13458E-01   -0.84238E-02 13120   0.112E+00    0.948E-01
DAV:   3    -0.191416715896E+03    0.85433E-02   -0.29770E-02 12040   0.116E+00    0.428E-01
DAV:   4    -0.191415735507E+03    0.98039E-03   -0.63371E-03 10960   0.482E-01    0.329E-01
DAV:   5    -0.191414759510E+03    0.97600E-03   -0.30039E-03 11160   0.377E-01    0.160E-01
DAV:   6    -0.191414558916E+03    0.20059E-03   -0.11142E-03 10000   0.165E-01    0.985E-02
DAV:   7    -0.191414514391E+03    0.44526E-04   -0.67173E-04 10800   0.121E-01
  15 F= -.19141451E+03 E0= -.19131070E+03  d E =-.346212E-01
       N       E                     dE             d eps       ncg     rms          rms(c)
DAV:   1    -0.191436144038E+03   -0.21585E-01   -0.80963E-01  8160   0.192E+00    0.288E-01
DAV:   2    -0.191446844063E+03   -0.10700E-01   -0.40976E-02 13600   0.119E+00    0.102E+00
DAV:   3    -0.191436777066E+03    0.10067E-01   -0.19803E-02 11880   0.100E+00    0.222E-01
DAV:   4    -0.191437059532E+03   -0.28247E-03   -0.30438E-03 10200   0.370E-01    0.274E-01
DAV:   5    -0.191436303679E+03    0.75585E-03   -0.18539E-03  9720   0.298E-01    0.113E-01
DAV:   6    -0.191436176690E+03    0.12699E-03   -0.54561E-04  9760   0.105E-01    0.481E-02
DAV:   7    -0.191436139767E+03    0.36923E-04   -0.15585E-04  6800   0.475E-02
  16 F= -.19143614E+03 E0= -.19133133E+03  d E =-.216254E-01
       N       E                     dE             d eps       ncg     rms          rms(c)
DAV:   1    -0.191489357512E+03   -0.53181E-01   -0.45961E+00  8160   0.453E+00    0.581E-01
DAV:   2    -0.191535573672E+03   -0.46216E-01   -0.19188E-01 13600   0.251E+00    0.203E+00
DAV:   3    -0.191495499098E+03    0.40075E-01   -0.88632E-02 12160   0.204E+00    0.465E-01
DAV:   4    -0.191496817645E+03   -0.13185E-02   -0.15468E-02 11320   0.787E-01    0.614E-01
DAV:   5    -0.191493098907E+03    0.37187E-02   -0.87290E-03 11520   0.600E-01    0.196E-01
DAV:   6    -0.191492856661E+03    0.24225E-03   -0.21300E-03 10400   0.208E-01    0.147E-01
DAV:   7    -0.191493342973E+03   -0.48631E-03   -0.24647E-03 10920   0.324E-01    0.286E-01
DAV:   8    -0.191492536988E+03    0.80598E-03   -0.13912E-03  8920   0.248E-01    0.373E-02
DAV:   9    -0.191492545096E+03   -0.81078E-05   -0.80059E-05  5680   0.373E-02
  17 F= -.19149255E+03 E0= -.19138528E+03  d E =-.564053E-01
       N       E                     dE             d eps       ncg     rms          rms(c)
DAV:   1    -0.191448297780E+03    0.44239E-01   -0.25530E+00  8160   0.336E+00    0.366E-01
DAV:   2    -0.191463584382E+03   -0.15287E-01   -0.76627E-02 13560   0.133E+00    0.106E+00
DAV:   3    -0.191451388262E+03    0.12196E-01   -0.24533E-02 11800   0.114E+00    0.299E-01
DAV:   4    -0.191451961503E+03   -0.57324E-03   -0.55455E-03 10360   0.460E-01    0.396E-01
DAV:   5    -0.191450489560E+03    0.14719E-02   -0.36215E-03 10280   0.401E-01    0.134E-01
DAV:   6    -0.191450396310E+03    0.93250E-04   -0.83289E-04 10360   0.132E-01
  18 F= -.19145040E+03 E0= -.19134445E+03  d E =0.421488E-01
       N       E                     dE             d eps       ncg     rms          rms(c)
DAV:   1    -0.191386710999E+03    0.63779E-01   -0.80412E+00  8160   0.602E+00    0.751E-01
DAV:   2    -0.191439117835E+03   -0.52407E-01   -0.27864E-01 13600   0.286E+00    0.200E+00
DAV:   3    -0.191394020863E+03    0.45097E-01   -0.80872E-02 12040   0.216E+00    0.516E-01
DAV:   4    -0.191396700466E+03   -0.26796E-02   -0.19781E-02 11320   0.902E-01    0.808E-01
DAV:   5    -0.191391266806E+03    0.54337E-02   -0.17460E-02 10320   0.888E-01    0.347E-01
DAV:   6    -0.191390223904E+03    0.10429E-02   -0.43125E-03 11280   0.323E-01    0.152E-01
DAV:   7    -0.191389942325E+03    0.28158E-03   -0.15627E-03 10880   0.190E-01    0.128E-01
DAV:   8    -0.191389858546E+03    0.83779E-04   -0.73302E-04  8680   0.183E-01
  19 F= -.19138986E+03 E0= -.19128674E+03  d E =0.605378E-01
       N       E                     dE             d eps       ncg     rms          rms(c)
DAV:   1    -0.191460529901E+03   -0.70588E-01   -0.10792E+01  8160   0.697E+00    0.899E-01
DAV:   2    -0.191557036937E+03   -0.96507E-01   -0.43416E-01 13600   0.365E+00    0.296E+00
DAV:   3    -0.191473963468E+03    0.83073E-01   -0.19251E-01 12160   0.305E+00    0.719E-01
DAV:   4    -0.191477567287E+03   -0.36038E-02   -0.37011E-02 10880   0.124E+00    0.978E-01
DAV:   5    -0.191467643011E+03    0.99243E-02   -0.21783E-02 11280   0.983E-01    0.339E-01
DAV:   6    -0.191466732517E+03    0.91049E-03   -0.62823E-03 11680   0.363E-01    0.234E-01
DAV:   7    -0.191467712958E+03   -0.98044E-03   -0.61760E-03 11840   0.501E-01    0.431E-01
DAV:   8    -0.191465936274E+03    0.17767E-02   -0.34261E-03  9760   0.380E-01    0.652E-02
DAV:   9    -0.191465903533E+03    0.32742E-04   -0.18542E-04  5600   0.597E-02
  20 F= -.19146590E+03 E0= -.19135882E+03  d E =-.760450E-01
       N       E                     dE             d eps       ncg     rms          rms(c)
DAV:   1    -0.191473252206E+03   -0.73159E-02   -0.15973E-01  8160   0.847E-01    0.107E-01
DAV:   2    -0.191474629092E+03   -0.13769E-02   -0.64370E-03 13320   0.433E-01    0.326E-01
DAV:   3    -0.191473474321E+03    0.11548E-02   -0.22920E-03 11280   0.348E-01    0.751E-02
DAV:   4    -0.191473545287E+03   -0.70966E-04   -0.39949E-04  8000   0.126E-01
  21 F= -.19147355E+03 E0= -.19136608E+03  d E =-.764175E-02
       N       E                     dE             d eps       ncg     rms          rms(c)
DAV:   1    -0.191523310231E+03   -0.49836E-01   -0.41041E+00  8160   0.426E+00    0.457E-01
DAV:   2    -0.191545123806E+03   -0.21814E-01   -0.11632E-01 13480   0.148E+00    0.134E+00
DAV:   3    -0.191529042455E+03    0.16081E-01   -0.47694E-02 12240   0.146E+00    0.479E-01
DAV:   4    -0.191529123666E+03   -0.81211E-04   -0.10671E-02 11000   0.629E-01    0.488E-01
DAV:   5    -0.191526757395E+03    0.23663E-02   -0.56910E-03 10560   0.507E-01    0.181E-01
DAV:   6    -0.191526611352E+03    0.14604E-03   -0.16167E-03 11200   0.190E-01    0.134E-01
DAV:   7    -0.191526879889E+03   -0.26854E-03   -0.17702E-03 10800   0.261E-01    0.230E-01
DAV:   8    -0.191526381800E+03    0.49809E-03   -0.10498E-03  8680   0.212E-01    0.443E-02
DAV:   9    -0.191526378291E+03    0.35094E-05   -0.73655E-05  5720   0.409E-02
  22 F= -.19152638E+03 E0= -.19141775E+03  d E =-.528330E-01
       N       E                     dE             d eps       ncg     rms          rms(c)
DAV:   1    -0.191496432160E+03    0.29950E-01   -0.12814E+00  8160   0.239E+00    0.272E-01
DAV:   2    -0.191504080779E+03   -0.76486E-02   -0.38779E-02 13360   0.102E+00    0.789E-01
DAV:   3    -0.191497680029E+03    0.64008E-02   -0.13470E-02 11640   0.824E-01    0.231E-01
DAV:   4    -0.191498045835E+03   -0.36581E-03   -0.34909E-03 10600   0.368E-01    0.304E-01
DAV:   5    -0.191497186313E+03    0.85952E-03   -0.23839E-03  9880   0.320E-01    0.111E-01
DAV:   6    -0.191497099708E+03    0.86605E-04   -0.56381E-04 10160   0.111E-01
  23 F= -.19149710E+03 E0= -.19138900E+03  d E =0.292786E-01
       N       E                     dE             d eps       ncg     rms          rms(c)
DAV:   1    -0.191310368870E+03    0.18682E+00   -0.66458E+01  8160   0.173E+01    0.181E+00
DAV:   2    -0.191603374991E+03   -0.29301E+00   -0.17931E+00 13400   0.572E+00    0.425E+00
DAV:   3    -0.191403548951E+03    0.19983E+00   -0.43125E-01 12120   0.495E+00    0.168E+00
DAV:   4    -0.191407489313E+03   -0.39404E-02   -0.12156E-01 11240   0.238E+00    0.193E+00
DAV:   5    -0.191373370142E+03    0.34119E-01   -0.90499E-02 11160   0.216E+00    0.724E-01
DAV:   6    -0.191372224937E+03    0.11452E-02   -0.25671E-02 12600   0.914E-01    0.651E-01
DAV:   7    -0.191373339756E+03   -0.11148E-02   -0.27727E-02 11600   0.116E+00    0.822E-01
DAV:   8    -0.191366359446E+03    0.69803E-02   -0.12253E-02 11480   0.749E-01    0.118E-01
DAV:   9    -0.191366261234E+03    0.98212E-04   -0.97891E-04 10240   0.119E-01
  24 F= -.19136626E+03 E0= -.19126434E+03  d E =0.130838E+00
       N       E                     dE             d eps       ncg     rms          rms(c)
DAV:   1    -0.191370616900E+03   -0.42575E-02   -0.86312E-01  8160   0.197E+00    0.216E-01
DAV:   2    -0.191373039313E+03   -0.24224E-02   -0.20373E-02 13520   0.577E-01    0.438E-01
DAV:   3    -0.191371700680E+03    0.13386E-02   -0.64408E-03 12120   0.565E-01    0.262E-01
DAV:   4    -0.191371125632E+03    0.57505E-03   -0.16574E-03  9800   0.245E-01    0.107E-01
DAV:   5    -0.191371064570E+03    0.61062E-04   -0.72572E-04 10680   0.147E-01
  25 F= -.19137106E+03 E0= -.19126916E+03  d E =-.480334E-02
       N       E                     dE             d eps       ncg     rms          rms(c)
DAV:   1    -0.191394508477E+03   -0.23383E-01   -0.23651E+00  8160   0.329E+00    0.542E-01
DAV:   2    -0.191429909125E+03   -0.35401E-01   -0.13687E-01 13360   0.227E+00    0.183E+00
DAV:   3    -0.191396151479E+03    0.33758E-01   -0.63632E-02 12160   0.187E+00    0.394E-01
DAV:   4    -0.191397290464E+03   -0.11390E-02   -0.11185E-02 11240   0.717E-01    0.547E-01
DAV:   5    -0.191394352776E+03    0.29377E-02   -0.68391E-03 10320   0.578E-01    0.215E-01
DAV:   6    -0.191393711271E+03    0.64150E-03   -0.20080E-03 10840   0.204E-01    0.837E-02
DAV:   7    -0.191393779278E+03   -0.68006E-04   -0.86118E-04 10680   0.160E-01
  26 F= -.19139378E+03 E0= -.19129021E+03  d E =-.227147E-01
       N       E                     dE             d eps       ncg     rms          rms(c)
DAV:   1    -0.191410870589E+03   -0.17159E-01   -0.11381E+00  8160   0.228E+00    0.235E-01
DAV:   2    -0.191413214927E+03   -0.23443E-02   -0.28977E-02 12280   0.532E-01    0.292E-01
DAV:   3    -0.191413224948E+03   -0.10021E-04   -0.58647E-03 11360   0.541E-01    0.347E-01
DAV:   4    -0.191412223126E+03    0.10018E-02   -0.24990E-03 10800   0.351E-01    0.155E-01
DAV:   5    -0.191412166593E+03    0.56533E-04   -0.12599E-03  9800   0.247E-01    0.164E-01
DAV:   6    -0.191411961745E+03    0.20485E-03   -0.85745E-04  9640   0.201E-01    0.801E-02
DAV:   7    -0.191411893549E+03    0.68196E-04   -0.17476E-04  6680   0.799E-02
  27 F= -.19141189E+03 E0= -.19130817E+03  d E =-.181143E-01
       N       E                     dE             d eps       ncg     rms          rms(c)
DAV:   1    -0.191428461876E+03   -0.16500E-01   -0.93821E-01  8160   0.205E+00    0.220E-01
DAV:   2    -0.191432157328E+03   -0.36955E-02   -0.27045E-02 13600   0.710E-01    0.487E-01
DAV:   3    -0.191429970641E+03    0.21867E-02   -0.72964E-03 12080   0.619E-01    0.234E-01
DAV:   4    -0.191429805806E+03    0.16483E-03   -0.20018E-03  9640   0.294E-01    0.206E-01
DAV:   5    -0.191429458430E+03    0.34738E-03   -0.11149E-03  9520   0.246E-01    0.111E-01
DAV:   6    -0.191429333181E+03    0.12525E-03   -0.41509E-04  8720   0.117E-01    0.457E-02
DAV:   7    -0.191429340614E+03   -0.74331E-05   -0.14583E-04  6240   0.686E-02
  28 F= -.19142934E+03 E0= -.19132533E+03  d E =-.174471E-01
       N       E                     dE             d eps       ncg     rms          rms(c)
DAV:   1    -0.191369695174E+03    0.59638E-01   -0.11405E+01  8160   0.713E+00    0.779E-01
DAV:   2    -0.191429932731E+03   -0.60238E-01   -0.34852E-01 13480   0.270E+00    0.200E+00
DAV:   3    -0.191386094469E+03    0.43838E-01   -0.95222E-02 11760   0.227E+00    0.718E-01
DAV:   4    -0.191385158613E+03    0.93586E-03   -0.21284E-02 11640   0.961E-01    0.683E-01
DAV:   5    -0.191381027740E+03    0.41309E-02   -0.12698E-02 11720   0.826E-01    0.361E-01
DAV:   6    -0.191379824776E+03    0.12030E-02   -0.47252E-03 11840   0.408E-01    0.203E-01
DAV:   7    -0.191381049512E+03   -0.12247E-02   -0.45461E-03 11880   0.480E-01    0.414E-01
DAV:   8    -0.191379321164E+03    0.17283E-02   -0.26873E-03  9720   0.370E-01    0.505E-02
DAV:   9    -0.191379328186E+03   -0.70223E-05   -0.12972E-04  5600   0.499E-02
  29 F= -.19137933E+03 E0= -.19127672E+03  d E =0.500124E-01
       N       E                     dE             d eps       ncg     rms          rms(c)
DAV:   1    -0.191371613826E+03    0.77073E-02   -0.18976E+00  8160   0.288E+00    0.301E-01
DAV:   2    -0.191380767237E+03   -0.91534E-02   -0.49298E-02 13560   0.101E+00    0.854E-01
DAV:   3    -0.191373940653E+03    0.68266E-02   -0.16902E-02 12240   0.933E-01    0.285E-01
DAV:   4    -0.191373459292E+03    0.48136E-03   -0.25526E-03 10360   0.289E-01    0.186E-01
DAV:   5    -0.191373228782E+03    0.23051E-03   -0.15075E-03 11240   0.279E-01    0.162E-01
DAV:   6    -0.191373082425E+03    0.14636E-03   -0.97596E-04  9760   0.216E-01    0.108E-01
DAV:   7    -0.191373169771E+03   -0.87346E-04   -0.66394E-04  8920   0.189E-01
  30 F= -.19137317E+03 E0= -.19127130E+03  d E =0.615841E-02
       N       E                     dE             d eps       ncg     rms          rms(c)
DAV:   1    -0.191369296728E+03    0.37857E-02   -0.46017E-02  8160   0.490E-01    0.607E-02
DAV:   2    -0.191369442231E+03   -0.14550E-03   -0.16915E-03 11800   0.153E-01    0.100E-01
DAV:   3    -0.191369382381E+03    0.59850E-04   -0.48765E-04  9000   0.153E-01
  31 F= -.19136938E+03 E0= -.19126733E+03  d E =0.378739E-02
       N       E                     dE             d eps       ncg     rms          rms(c)
DAV:   1    -0.191380582135E+03   -0.11140E-01   -0.62999E-01  8160   0.168E+00    0.172E-01
DAV:   2    -0.191383642546E+03   -0.30604E-02   -0.20477E-02 13600   0.616E-01    0.451E-01
DAV:   3    -0.191381876777E+03    0.17658E-02   -0.55294E-03 11160   0.530E-01    0.182E-01
DAV:   4    -0.191381596084E+03    0.28069E-03   -0.91751E-04  9120   0.174E-01    0.883E-02
DAV:   5    -0.191381561187E+03    0.34897E-04   -0.38710E-04  8880   0.139E-01
  32 F= -.19138156E+03 E0= -.19127942E+03  d E =-.121788E-01
       N       E                     dE             d eps       ncg     rms          rms(c)
DAV:   1    -0.191381791008E+03   -0.19492E-03   -0.78986E-02  8160   0.599E-01    0.128E-01
DAV:   2    -0.191385686366E+03   -0.38954E-02   -0.92080E-03 12560   0.653E-01    0.619E-01
DAV:   3    -0.191381717637E+03    0.39687E-02   -0.57983E-03 11080   0.561E-01    0.562E-02
DAV:   4    -0.191381771184E+03   -0.53547E-04   -0.22659E-04  7560   0.952E-02
  33 F= -.19138177E+03 E0= -.19127969E+03  d E =-.209996E-03
       N       E                     dE             d eps       ncg     rms          rms(c)
DAV:   1    -0.191404871960E+03   -0.23154E-01   -0.18916E+00  8160   0.299E+00    0.421E-01
DAV:   2    -0.191420921525E+03   -0.16050E-01   -0.80607E-02 13240   0.150E+00    0.124E+00
DAV:   3    -0.191406010895E+03    0.14911E-01   -0.37209E-02 12400   0.132E+00    0.336E-01
DAV:   4    -0.191406230325E+03   -0.21943E-03   -0.61449E-03 12280   0.556E-01    0.396E-01
DAV:   5    -0.191404839367E+03    0.13910E-02   -0.41202E-03 11080   0.498E-01    0.223E-01
DAV:   6    -0.191404214455E+03    0.62491E-03   -0.17968E-03 10440   0.240E-01    0.928E-02
DAV:   7    -0.191404447230E+03   -0.23278E-03   -0.97149E-04 10600   0.215E-01    0.184E-01
DAV:   8    -0.191404111949E+03    0.33528E-03   -0.53597E-04  8600   0.173E-01    0.353E-02
DAV:   9    -0.191404110385E+03    0.15643E-05   -0.47858E-05  5800   0.353E-02
  34 F= -.19140411E+03 E0= -.19130204E+03  d E =-.223392E-01
       N       E                     dE             d eps       ncg     rms          rms(c)
DAV:   1    -0.191412393635E+03   -0.82817E-02   -0.20324E-01  8160   0.965E-01    0.104E-01
DAV:   2    -0.191412889688E+03   -0.49605E-03   -0.57047E-03 12480   0.254E-01    0.146E-01
DAV:   3    -0.191412794254E+03    0.95433E-04   -0.12805E-03 11000   0.237E-01    0.134E-01
DAV:   4    -0.191412672056E+03    0.12220E-03   -0.49546E-04  8440   0.155E-01    0.839E-02
DAV:   5    -0.191412628370E+03    0.43686E-04   -0.21403E-04  6800   0.114E-01
  35 F= -.19141263E+03 E0= -.19131068E+03  d E =-.851799E-02
       N       E                     dE             d eps       ncg     rms          rms(c)
DAV:   1    -0.191419776385E+03   -0.71043E-02   -0.21406E-01  8160   0.100E+00    0.129E-01
DAV:   2    -0.191421087680E+03   -0.13113E-02   -0.84316E-03 13600   0.411E-01    0.326E-01
DAV:   3    -0.191420115447E+03    0.97223E-03   -0.28376E-03 10480   0.378E-01    0.124E-01
DAV:   4    -0.191419978059E+03    0.13739E-03   -0.36574E-04  7720   0.105E-01    0.493E-02
DAV:   5    -0.191420002160E+03   -0.24101E-04   -0.22380E-04  7920   0.980E-02
  36 F= -.19142000E+03 E0= -.19131826E+03  d E =-.737379E-02
       N       E                     dE             d eps       ncg     rms          rms(c)
DAV:   1    -0.191435765715E+03   -0.15788E-01   -0.60090E-01  8160   0.169E+00    0.282E-01
DAV:   2    -0.191440930135E+03   -0.51644E-02   -0.28495E-02 12400   0.945E-01    0.745E-01
DAV:   3    -0.191435418903E+03    0.55112E-02   -0.13042E-02 11560   0.811E-01    0.225E-01
DAV:   4    -0.191435784573E+03   -0.36567E-03   -0.31964E-03 11400   0.412E-01    0.315E-01
DAV:   5    -0.191434852665E+03    0.93191E-03   -0.22790E-03 10160   0.365E-01    0.137E-01
DAV:   6    -0.191434626420E+03    0.22624E-03   -0.80550E-04  9640   0.150E-01    0.618E-02
DAV:   7    -0.191434639825E+03   -0.13404E-04   -0.28229E-04  7800   0.115E-01
  37 F= -.19143464E+03 E0= -.19133283E+03  d E =-.146377E-01
       N       E                     dE             d eps       ncg     rms          rms(c)
DAV:   1    -0.191437658803E+03   -0.30324E-02   -0.25799E-02  8160   0.356E-01    0.470E-02
DAV:   2    -0.191437844262E+03   -0.18546E-03   -0.96515E-04 12080   0.135E-01    0.122E-01
DAV:   3    -0.191437688744E+03    0.15552E-03   -0.37679E-04  8320   0.139E-01    0.515E-02
DAV:   4    -0.191437678782E+03    0.99622E-05   -0.71215E-05  5520   0.564E-02
  38 F= -.19143768E+03 E0= -.19133607E+03  d E =-.303896E-02
       N       E                     dE             d eps       ncg     rms          rms(c)
DAV:   1    -0.191453210104E+03   -0.15521E-01   -0.79993E-01  8160   0.190E+00    0.205E-01
DAV:   2    -0.191456290260E+03   -0.30802E-02   -0.23630E-02 13600   0.664E-01    0.452E-01
DAV:   3    -0.191454625366E+03    0.16649E-02   -0.63745E-03 12200   0.578E-01    0.228E-01
DAV:   4    -0.191454176489E+03    0.44888E-03   -0.13462E-03  9640   0.225E-01    0.100E-01
DAV:   5    -0.191454116056E+03    0.60432E-04   -0.54753E-04  9640   0.158E-01
  39 F= -.19145412E+03 E0= -.19135297E+03  d E =-.164373E-01
       N       E                     dE             d eps       ncg     rms          rms(c)
DAV:   1    -0.191456597135E+03   -0.24206E-02   -0.58186E-02  8160   0.584E-01    0.136E-01
DAV:   2    -0.191459756893E+03   -0.31598E-02   -0.70373E-03 12240   0.601E-01    0.554E-01
DAV:   3    -0.191456439825E+03    0.33171E-02   -0.40925E-03 10200   0.519E-01    0.781E-02
DAV:   4    -0.191456510428E+03   -0.70603E-04   -0.42429E-04  8560   0.138E-01
  40 F= -.19145651E+03 E0= -.19135533E+03  d E =-.239437E-02
       N       E                     dE             d eps       ncg     rms          rms(c)
DAV:   1    -0.191481292432E+03   -0.24853E-01   -0.19850E+00  8160   0.299E+00    0.318E-01
DAV:   2    -0.191488836997E+03   -0.75446E-02   -0.57150E-02 13600   0.978E-01    0.702E-01
DAV:   3    -0.191484846189E+03    0.39908E-02   -0.14692E-02 11400   0.899E-01    0.340E-01
DAV:   4    -0.191483930435E+03    0.91575E-03   -0.28681E-03 11040   0.337E-01    0.187E-01
DAV:   5    -0.191483735558E+03    0.19488E-03   -0.15209E-03 10600   0.300E-01    0.162E-01
DAV:   6    -0.191483585785E+03    0.14977E-03   -0.96288E-04 11080   0.208E-01    0.869E-02
DAV:   7    -0.191483456223E+03    0.12956E-03   -0.32779E-04  7360   0.972E-02    0.453E-02
DAV:   8    -0.191483447452E+03    0.87706E-05   -0.80476E-05  6200   0.641E-02
  41 F= -.19148345E+03 E0= -.19138330E+03  d E =-.269370E-01
       N       E                     dE             d eps       ncg     rms          rms(c)
DAV:   1    -0.191469467915E+03    0.13988E-01   -0.47991E-01  8160   0.147E+00    0.145E-01
DAV:   2    -0.191470768809E+03   -0.13009E-02   -0.12050E-02 13560   0.392E-01    0.263E-01
DAV:   3    -0.191470308849E+03    0.45996E-03   -0.27373E-03 10960   0.381E-01    0.185E-01
DAV:   4    -0.191470026261E+03    0.28259E-03   -0.79590E-04  8320   0.176E-01    0.794E-02
DAV:   5    -0.191469986159E+03    0.40102E-04   -0.32963E-04  7840   0.117E-01
  42 F= -.19146999E+03 E0= -.19136945E+03  d E =0.134613E-01
       N       E                     dE             d eps       ncg     rms          rms(c)
DAV:   1    -0.191417433392E+03    0.52593E-01   -0.71329E+00  8160   0.565E+00    0.610E-01
DAV:   2    -0.191451999156E+03   -0.34566E-01   -0.21048E-01 13600   0.205E+00    0.155E+00
DAV:   3    -0.191428487489E+03    0.23512E-01   -0.59605E-02 11600   0.180E+00    0.565E-01
DAV:   4    -0.191427157555E+03    0.13299E-02   -0.10351E-02 11120   0.661E-01    0.463E-01
DAV:   5    -0.191425323483E+03    0.18341E-02   -0.65640E-03 12080   0.625E-01    0.287E-01
DAV:   6    -0.191425537271E+03   -0.21379E-03   -0.38895E-03 11720   0.416E-01    0.308E-01
DAV:   7    -0.191425017455E+03    0.51982E-03   -0.29922E-03 10040   0.411E-01    0.217E-01
DAV:   8    -0.191424423958E+03    0.59350E-03   -0.84588E-04  9760   0.193E-01    0.243E-02
DAV:   9    -0.191424436545E+03   -0.12588E-04   -0.79291E-05  6600   0.305E-02
  43 F= -.19142444E+03 E0= -.19132301E+03  d E =0.455496E-01
       N       E                     dE             d eps       ncg     rms          rms(c)
DAV:   1    -0.191403886963E+03    0.20537E-01   -0.27437E+00  8160   0.348E+00    0.376E-01
DAV:   2    -0.191419435922E+03   -0.15549E-01   -0.75165E-02 13600   0.134E+00    0.112E+00
DAV:   3    -0.191406872161E+03    0.12564E-01   -0.27808E-02 12120   0.121E+00    0.311E-01
DAV:   4    -0.191406431538E+03    0.44062E-03   -0.32171E-03 11000   0.336E-01    0.234E-01
DAV:   5    -0.191406173963E+03    0.25758E-03   -0.23744E-03 11440   0.367E-01    0.223E-01
DAV:   6    -0.191405884482E+03    0.28948E-03   -0.14818E-03  9600   0.264E-01    0.142E-01
DAV:   7    -0.191405966632E+03   -0.82149E-04   -0.10110E-03  9600   0.235E-01    0.159E-01
DAV:   8    -0.191405664778E+03    0.30185E-03   -0.39188E-04  9000   0.146E-01    0.154E-02
DAV:   9    -0.191405677916E+03   -0.13139E-04   -0.32966E-05  6000   0.214E-02
  44 F= -.19140568E+03 E0= -.19130436E+03  d E =0.187586E-01
       N       E                     dE             d eps       ncg     rms          rms(c)
DAV:   1    -0.191389536632E+03    0.16128E-01   -0.87116E+00  8160   0.617E+00    0.698E-01
DAV:   2    -0.191452640765E+03   -0.63104E-01   -0.25771E-01 13600   0.270E+00    0.236E+00
DAV:   3    -0.191397993552E+03    0.54647E-01   -0.11637E-01 12320   0.243E+00    0.520E-01
DAV:   4    -0.191397263974E+03    0.72958E-03   -0.11134E-02 11080   0.616E-01    0.501E-01
DAV:   5    -0.191396192861E+03    0.10711E-02   -0.10258E-02 12640   0.733E-01    0.454E-01
DAV:   6    -0.191394479505E+03    0.17134E-02   -0.48774E-03 11480   0.448E-01    0.180E-01
DAV:   7    -0.191394985343E+03   -0.50584E-03   -0.23886E-03 11800   0.370E-01    0.267E-01
DAV:   8    -0.191394109502E+03    0.87584E-03   -0.11400E-03  9800   0.269E-01    0.329E-02
DAV:   9    -0.191394122865E+03   -0.13363E-04   -0.76415E-05  6280   0.369E-02
  45 F= -.19139412E+03 E0= -.19129330E+03  d E =0.115551E-01
       N       E                     dE             d eps       ncg     rms          rms(c)
DAV:   1    -0.191403130121E+03   -0.90206E-02   -0.29100E-01  8160   0.115E+00    0.118E-01
DAV:   2    -0.191403786605E+03   -0.65648E-03   -0.76840E-03 12640   0.279E-01    0.147E-01
DAV:   3    -0.191403691393E+03    0.95212E-04   -0.12452E-03 11200   0.260E-01    0.145E-01
DAV:   4    -0.191403493441E+03    0.19795E-03   -0.45693E-04  8400   0.161E-01    0.664E-02
DAV:   5    -0.191403467916E+03    0.25526E-04   -0.18731E-04  6040   0.937E-02
  46 F= -.19140347E+03 E0= -.19130271E+03  d E =-.934505E-02
       N       E                     dE             d eps       ncg     rms          rms(c)
DAV:   1    -0.191394782234E+03    0.87112E-02   -0.43523E-01  8160   0.141E+00    0.177E-01
DAV:   2    -0.191398008174E+03   -0.32259E-02   -0.15558E-02 13520   0.639E-01    0.534E-01
DAV:   3    -0.191395258235E+03    0.27499E-02   -0.59639E-03 11480   0.570E-01    0.159E-01
DAV:   4    -0.191395131780E+03    0.12646E-03   -0.92485E-04  9640   0.186E-01    0.117E-01
DAV:   5    -0.191395072810E+03    0.58970E-04   -0.57237E-04  9000   0.182E-01
  47 F= -.19139507E+03 E0= -.19129443E+03  d E =0.839511E-02
       N       E                     dE             d eps       ncg     rms          rms(c)
DAV:   1    -0.191375329310E+03    0.19802E-01   -0.24437E+00  8160   0.333E+00    0.400E-01
DAV:   2    -0.191382489301E+03   -0.71600E-02   -0.69010E-02 13600   0.103E+00    0.746E-01
DAV:   3    -0.191378759133E+03    0.37302E-02   -0.19493E-02 12040   0.103E+00    0.494E-01
DAV:   4    -0.191376741589E+03    0.20175E-02   -0.58291E-03 11280   0.504E-01    0.254E-01
DAV:   5    -0.191376637526E+03    0.10406E-03   -0.34140E-03 10760   0.429E-01    0.272E-01
DAV:   6    -0.191376000254E+03    0.63727E-03   -0.23120E-03 11120   0.328E-01    0.140E-01
DAV:   7    -0.191376094594E+03   -0.94341E-04   -0.12397E-03  9880   0.236E-01    0.171E-01
DAV:   8    -0.191375790439E+03    0.30416E-03   -0.54057E-04  8720   0.161E-01    0.297E-02
DAV:   9    -0.191375792391E+03   -0.19523E-05   -0.43217E-05  5960   0.323E-02
  48 F= -.19137579E+03 E0= -.19127535E+03  d E =0.192804E-01
       N       E                     dE             d eps       ncg     rms          rms(c)
DAV:   1    -0.191401734375E+03   -0.25944E-01   -0.29194E+00  8160   0.364E+00    0.399E-01
DAV:   2    -0.191411493719E+03   -0.97593E-02   -0.85472E-02 13600   0.118E+00    0.746E-01
DAV:   3    -0.191406720474E+03    0.47732E-02   -0.18441E-02 11600   0.104E+00    0.424E-01
DAV:   4    -0.191405743334E+03    0.97714E-03   -0.59446E-03 11480   0.513E-01    0.339E-01
DAV:   5    -0.191404940945E+03    0.80239E-03   -0.38161E-03 10080   0.443E-01    0.245E-01
DAV:   6    -0.191404423779E+03    0.51717E-03   -0.18471E-03  9800   0.267E-01    0.109E-01
DAV:   7    -0.191404512826E+03   -0.89047E-04   -0.96815E-04 10120   0.195E-01
  49 F= -.19140451E+03 E0= -.19130470E+03  d E =-.287204E-01
       N       E                     dE             d eps       ncg     rms          rms(c)
DAV:   1    -0.191430055528E+03   -0.25632E-01   -0.22213E+00  8160   0.320E+00    0.379E-01
DAV:   2    -0.191439150551E+03   -0.90950E-02   -0.73693E-02 13600   0.114E+00    0.788E-01
DAV:   3    -0.191433712000E+03    0.54386E-02   -0.20014E-02 12120   0.994E-01    0.389E-01
DAV:   4    -0.191433318442E+03    0.39356E-03   -0.63343E-03 11640   0.533E-01    0.369E-01
DAV:   5    -0.191432166224E+03    0.11522E-02   -0.36587E-03 11280   0.452E-01    0.215E-01
DAV:   6    -0.191431748251E+03    0.41797E-03   -0.16263E-03 10040   0.253E-01    0.111E-01
DAV:   7    -0.191431932518E+03   -0.18427E-03   -0.99167E-04 10440   0.224E-01    0.184E-01
DAV:   8    -0.191431579553E+03    0.35296E-03   -0.54948E-04  8560   0.178E-01    0.314E-02
DAV:   9    -0.191431579319E+03    0.23387E-06   -0.41250E-05  5880   0.324E-02
  50 F= -.19143158E+03 E0= -.19133188E+03  d E =-.270665E-01
       N       E                     dE             d eps       ncg     rms          rms(c)
DAV:   1    -0.191437085675E+03   -0.55061E-02   -0.17167E-01  8160   0.873E-01    0.864E-02
DAV:   2    -0.191437554032E+03   -0.46836E-03   -0.44873E-03 13320   0.260E-01    0.147E-01
DAV:   3    -0.191437360547E+03    0.19348E-03   -0.77317E-04  9760   0.213E-01    0.844E-02
DAV:   4    -0.191437285518E+03    0.75029E-04   -0.14794E-04  5920   0.874E-02
  51 F= -.19143729E+03 E0= -.19133756E+03  d E =-.570620E-02
       N       E                     dE             d eps       ncg     rms          rms(c)
DAV:   1    -0.191454084991E+03   -0.16724E-01   -0.96797E-01  8160   0.209E+00    0.219E-01
DAV:   2    -0.191457164227E+03   -0.30792E-02   -0.26137E-02 13280   0.579E-01    0.450E-01
DAV:   3    -0.191455554025E+03    0.16102E-02   -0.67996E-03 11520   0.575E-01    0.234E-01
DAV:   4    -0.191455119230E+03    0.43479E-03   -0.15039E-03  9680   0.238E-01    0.120E-01
DAV:   5    -0.191455125072E+03   -0.58420E-05   -0.86831E-04  9840   0.197E-01
  52 F= -.19145513E+03 E0= -.19135577E+03  d E =-.178396E-01
       N       E                     dE             d eps       ncg     rms          rms(c)
DAV:   1    -0.191451496304E+03    0.36229E-02   -0.40671E-01  8160   0.137E+00    0.179E-01
DAV:   2    -0.191456421325E+03   -0.49250E-02   -0.16894E-02 13400   0.688E-01    0.691E-01
DAV:   3    -0.191451878281E+03    0.45430E-02   -0.85787E-03 11000   0.651E-01    0.142E-01
DAV:   4    -0.191451766913E+03    0.11137E-03   -0.89900E-04 10040   0.164E-01    0.962E-02
DAV:   5    -0.191451767624E+03   -0.71075E-06   -0.47618E-04  9320   0.162E-01
  53 F= -.19145177E+03 E0= -.19135212E+03  d E =0.335745E-02
       N       E                     dE             d eps       ncg     rms          rms(c)
DAV:   1    -0.191479824582E+03   -0.28058E-01   -0.24972E+00  8160   0.337E+00    0.370E-01
DAV:   2    -0.191489619944E+03   -0.97954E-02   -0.77136E-02 13240   0.117E+00    0.828E-01
DAV:   3    -0.191484017263E+03    0.56027E-02   -0.20463E-02 11480   0.999E-01    0.388E-01
DAV:   4    -0.191483488955E+03    0.52831E-03   -0.56552E-03 11200   0.511E-01    0.339E-01
DAV:   5    -0.191482433747E+03    0.10552E-02   -0.30578E-03 10880   0.425E-01    0.193E-01
DAV:   6    -0.191482192476E+03    0.24127E-03   -0.14476E-03  9720   0.236E-01    0.125E-01
DAV:   7    -0.191482331174E+03   -0.13870E-03   -0.10597E-03 10720   0.244E-01    0.183E-01
DAV:   8    -0.191481969849E+03    0.36133E-03   -0.52095E-04  8320   0.174E-01    0.266E-02
DAV:   9    -0.191481972283E+03   -0.24339E-05   -0.40217E-05  5640   0.291E-02
  54 F= -.19148197E+03 E0= -.19138298E+03  d E =-.302047E-01
       N       E                     dE             d eps       ncg     rms          rms(c)
DAV:   1    -0.191492356102E+03   -0.10386E-01   -0.36978E-01  8160   0.128E+00    0.125E-01
DAV:   2    -0.191493328359E+03   -0.97226E-03   -0.87673E-03 12360   0.336E-01    0.225E-01
DAV:   3    -0.191492931671E+03    0.39669E-03   -0.20120E-03 11280   0.322E-01    0.145E-01
DAV:   4    -0.191492805409E+03    0.12626E-03   -0.54646E-04  8240   0.166E-01    0.921E-02
DAV:   5    -0.191492747722E+03    0.57687E-04   -0.28120E-04  7800   0.133E-01
  55 F= -.19149275E+03 E0= -.19139399E+03  d E =-.107754E-01
       N       E                     dE             d eps       ncg     rms          rms(c)
DAV:   1    -0.191509989275E+03   -0.17184E-01   -0.91232E-01  8160   0.204E+00    0.225E-01
DAV:   2    -0.191511360835E+03   -0.13716E-02   -0.24719E-02 11600   0.461E-01    0.239E-01
DAV:   3    -0.191512238205E+03   -0.87737E-03   -0.54856E-03 12280   0.511E-01    0.404E-01
DAV:   4    -0.191510662955E+03    0.15752E-02   -0.28304E-03 10280   0.380E-01    0.102E-01
DAV:   5    -0.191510607776E+03    0.55180E-04   -0.61943E-04  9880   0.117E-01
  56 F= -.19151061E+03 E0= -.19141213E+03  d E =-.178601E-01
       N       E                     dE             d eps       ncg     rms          rms(c)
DAV:   1    -0.191527040603E+03   -0.16378E-01   -0.75684E-01  8160   0.185E+00    0.296E-01
DAV:   2    -0.191540827382E+03   -0.13787E-01   -0.40860E-02 13560   0.134E+00    0.116E+00
DAV:   3    -0.191527093985E+03    0.13733E-01   -0.22018E-02 11840   0.112E+00    0.168E-01
DAV:   4    -0.191527312559E+03   -0.21857E-03   -0.19572E-03 10480   0.307E-01    0.211E-01
DAV:   5    -0.191526926179E+03    0.38638E-03   -0.12412E-03 10080   0.282E-01    0.125E-01
DAV:   6    -0.191526765372E+03    0.16081E-03   -0.57188E-04  9880   0.143E-01    0.638E-02
DAV:   7    -0.191526853536E+03   -0.88164E-04   -0.38833E-04  8720   0.141E-01
  57 F= -.19152685E+03 E0= -.19142873E+03  d E =-.162458E-01
       N       E                     dE             d eps       ncg     rms          rms(c)
DAV:   1    -0.191553675072E+03   -0.26910E-01   -0.18236E+00  8160   0.286E+00    0.298E-01
DAV:   2    -0.191559496550E+03   -0.58215E-02   -0.52994E-02 13520   0.912E-01    0.557E-01
DAV:   3    -0.191557271183E+03    0.22254E-02   -0.11461E-02 11760   0.774E-01    0.353E-01
DAV:   4    -0.191556696473E+03    0.57471E-03   -0.39410E-03 11800   0.425E-01    0.275E-01
DAV:   5    -0.191556037432E+03    0.65904E-03   -0.20243E-03 10040   0.344E-01    0.155E-01
DAV:   6    -0.191555880638E+03    0.15679E-03   -0.85679E-04  9920   0.177E-01    0.851E-02
DAV:   7    -0.191555882701E+03   -0.20627E-05   -0.38947E-04  8800   0.132E-01
  58 F= -.19155588E+03 E0= -.19145775E+03  d E =-.290292E-01
       N       E                     dE             d eps       ncg     rms          rms(c)
DAV:   1    -0.191531435484E+03    0.24445E-01   -0.12704E+00  8160   0.238E+00    0.232E-01
DAV:   2    -0.191534572845E+03   -0.31374E-02   -0.32854E-02 12440   0.601E-01    0.354E-01
DAV:   3    -0.191534108480E+03    0.46437E-03   -0.58988E-03 12160   0.586E-01    0.326E-01
DAV:   4    -0.191533273595E+03    0.83488E-03   -0.21569E-03 10920   0.328E-01    0.167E-01
DAV:   5    -0.191533091355E+03    0.18224E-03   -0.10250E-03  9920   0.240E-01    0.130E-01
DAV:   6    -0.191533033506E+03    0.57849E-04   -0.62157E-04  8520   0.168E-01
  59 F= -.19153303E+03 E0= -.19143516E+03  d E =0.228492E-01
       N       E                     dE             d eps       ncg     rms          rms(c)
DAV:   1    -0.191471137261E+03    0.61954E-01   -0.92044E+00  8160   0.637E+00    0.689E-01
DAV:   2    -0.191513237314E+03   -0.42100E-01   -0.26772E-01 13360   0.234E+00    0.167E+00
DAV:   3    -0.191486502881E+03    0.26734E-01   -0.67633E-02 12280   0.200E+00    0.682E-01
DAV:   4    -0.191486473666E+03    0.29215E-04   -0.17847E-02 11120   0.944E-01    0.702E-01
DAV:   5    -0.191481693944E+03    0.47797E-02   -0.10962E-02 11960   0.805E-01    0.282E-01
DAV:   6    -0.191482028759E+03   -0.33481E-03   -0.46161E-03 12440   0.436E-01    0.318E-01
DAV:   7    -0.191481806482E+03    0.22228E-03   -0.42206E-03 11440   0.488E-01    0.282E-01
DAV:   8    -0.191480824467E+03    0.98201E-03   -0.14248E-03 10040   0.249E-01    0.346E-02
DAV:   9    -0.191480843788E+03   -0.19321E-04   -0.11559E-04  6520   0.396E-02
  60 F= -.19148084E+03 E0= -.19138340E+03  d E =0.521897E-01
       N       E                     dE             d eps       ncg     rms          rms(c)
DAV:   1    -0.191428661628E+03    0.52163E-01   -0.11214E+01  8160   0.701E+00    0.736E-01
DAV:   2    -0.191475150438E+03   -0.46489E-01   -0.29018E-01 13200   0.235E+00    0.185E+00
DAV:   3    -0.191445524768E+03    0.29626E-01   -0.90770E-02 12320   0.218E+00    0.777E-01
DAV:   4    -0.191443060547E+03    0.24642E-02   -0.19802E-02 11760   0.926E-01    0.632E-01
DAV:   5    -0.191439708252E+03    0.33523E-02   -0.12138E-02 12160   0.840E-01    0.388E-01
DAV:   6    -0.191438967192E+03    0.74106E-03   -0.59968E-03 11520   0.515E-01    0.297E-01
DAV:   7    -0.191439283491E+03   -0.31630E-03   -0.46475E-03 10800   0.509E-01    0.325E-01
DAV:   8    -0.191437992986E+03    0.12905E-02   -0.17756E-03 10080   0.299E-01    0.396E-02
DAV:   9    -0.191438003697E+03   -0.10711E-04   -0.12968E-04  6440   0.422E-02
  61 F= -.19143800E+03 E0= -.19134068E+03  d E =0.428401E-01
       N       E                     dE             d eps       ncg     rms          rms(c)
DAV:   1    -0.191360082997E+03    0.77910E-01   -0.33602E+01  8160   0.121E+01    0.127E+00
DAV:   2    -0.191498830904E+03   -0.13875E+00   -0.86434E-01 12960   0.391E+00    0.329E+00
DAV:   3    -0.191411013502E+03    0.87817E-01   -0.31635E-01 12240   0.382E+00    0.136E+00
DAV:   4    -0.191401256736E+03    0.97568E-02   -0.61294E-02 12160   0.159E+00    0.107E+00
DAV:   5    -0.191392240286E+03    0.90165E-02   -0.38470E-02 12600   0.147E+00    0.697E-01
DAV:   6    -0.191389329790E+03    0.29105E-02   -0.19269E-02 11000   0.924E-01    0.522E-01
DAV:   7    -0.191389814714E+03   -0.48492E-03   -0.14888E-02 11080   0.883E-01    0.539E-01
DAV:   8    -0.191386294515E+03    0.35202E-02   -0.56551E-03 11320   0.516E-01    0.810E-02
DAV:   9    -0.191386252178E+03    0.42337E-04   -0.48960E-04  9960   0.773E-02
  62 F= -.19138625E+03 E0= -.19128634E+03  d E =0.517515E-01
       N       E                     dE             d eps       ncg     rms          rms(c)
DAV:   1    -0.191416070299E+03   -0.29776E-01   -0.11136E+01  8160   0.700E+00    0.751E-01
DAV:   2    -0.191470514504E+03   -0.54444E-01   -0.33114E-01 13360   0.266E+00    0.199E+00
DAV:   3    -0.191434338067E+03    0.36176E-01   -0.97638E-02 12160   0.235E+00    0.701E-01
DAV:   4    -0.191431991628E+03    0.23464E-02   -0.17423E-02 11240   0.842E-01    0.562E-01
DAV:   5    -0.191429202339E+03    0.27893E-02   -0.10309E-02 11080   0.766E-01    0.377E-01
DAV:   6    -0.191428574423E+03    0.62792E-03   -0.58877E-03 12600   0.477E-01    0.275E-01
DAV:   7    -0.191429089732E+03   -0.51531E-03   -0.53992E-03 10960   0.510E-01    0.365E-01
DAV:   8    -0.191427608371E+03    0.14814E-02   -0.22632E-03 10000   0.331E-01    0.436E-02
DAV:   9    -0.191427605967E+03    0.24035E-05   -0.13276E-04  6160   0.472E-02
  63 F= -.19142761E+03 E0= -.19132907E+03  d E =-.413538E-01
       N       E                     dE             d eps       ncg     rms          rms(c)
DAV:   1    -0.191432984086E+03   -0.53757E-02   -0.49672E-01  8160   0.149E+00    0.168E-01
DAV:   2    -0.191434863909E+03   -0.18798E-02   -0.14719E-02 13040   0.460E-01    0.356E-01
DAV:   3    -0.191433909568E+03    0.95434E-03   -0.49310E-03 11640   0.476E-01    0.227E-01
DAV:   4    -0.191433471423E+03    0.43814E-03   -0.12253E-03  9840   0.214E-01    0.858E-02
DAV:   5    -0.191433449979E+03    0.21444E-04   -0.46777E-04  8920   0.130E-01
  64 F= -.19143345E+03 E0= -.19133457E+03  d E =-.584401E-02
       N       E                     dE             d eps       ncg     rms          rms(c)
DAV:   1    -0.191449068995E+03   -0.15598E-01   -0.13193E+00  8160   0.243E+00    0.237E-01
DAV:   2    -0.191452955741E+03   -0.38867E-02   -0.35104E-02 13040   0.663E-01    0.446E-01
DAV:   3    -0.191451617531E+03    0.13382E-02   -0.77102E-03 12280   0.626E-01    0.298E-01
DAV:   4    -0.191451146997E+03    0.47053E-03   -0.25689E-03  9880   0.331E-01    0.205E-01
DAV:   5    -0.191450737916E+03    0.40908E-03   -0.11317E-03  9840   0.256E-01    0.103E-01
DAV:   6    -0.191450732552E+03    0.53649E-05   -0.51708E-04 10240   0.128E-01
  65 F= -.19145073E+03 E0= -.19135280E+03  d E =-.172826E-01
       N       E                     dE             d eps       ncg     rms          rms(c)
DAV:   1    -0.191420346186E+03    0.30392E-01   -0.46269E+00  8160   0.455E+00    0.473E-01
DAV:   2    -0.191432961642E+03   -0.12615E-01   -0.12431E-01 13240   0.120E+00    0.849E-01
DAV:   3    -0.191429544538E+03    0.34171E-02   -0.31861E-02 12240   0.123E+00    0.665E-01
DAV:   4    -0.191425397336E+03    0.41472E-02   -0.92920E-03 11880   0.594E-01    0.236E-01
DAV:   5    -0.191425125925E+03    0.27141E-03   -0.33377E-03 10960   0.391E-01    0.243E-01
DAV:   6    -0.191425016670E+03    0.10925E-03   -0.28446E-03 10360   0.405E-01    0.213E-01
DAV:   7    -0.191424606741E+03    0.40993E-03   -0.14152E-03 10600   0.252E-01    0.126E-01
DAV:   8    -0.191424472607E+03    0.13413E-03   -0.47717E-04  8520   0.159E-01    0.568E-02
DAV:   9    -0.191424433722E+03    0.38885E-04   -0.76468E-05  6240   0.551E-02
  66 F= -.19142443E+03 E0= -.19132470E+03  d E =0.262988E-01
       N       E                     dE             d eps       ncg     rms          rms(c)
DAV:   1    -0.191395753627E+03    0.28719E-01   -0.52155E+00  8160   0.481E+00    0.483E-01
DAV:   2    -0.191411988284E+03   -0.16235E-01   -0.13498E-01 13120   0.143E+00    0.951E-01
DAV:   3    -0.191405014169E+03    0.69741E-02   -0.30793E-02 12320   0.128E+00    0.575E-01
DAV:   4    -0.191403531258E+03    0.14829E-02   -0.10175E-02 11520   0.659E-01    0.432E-01
DAV:   5    -0.191401711401E+03    0.18199E-02   -0.51404E-03 11400   0.536E-01    0.207E-01
DAV:   6    -0.191401698540E+03    0.12861E-04   -0.20943E-03 11960   0.261E-01    0.152E-01
DAV:   7    -0.191401563420E+03    0.13512E-03   -0.13349E-03 10480   0.230E-01    0.160E-01
DAV:   8    -0.191401295625E+03    0.26779E-03   -0.52792E-04  8960   0.163E-01    0.281E-02
DAV:   9    -0.191401299601E+03   -0.39764E-05   -0.46725E-05  6280   0.316E-02
  67 F= -.19140130E+03 E0= -.19130015E+03  d E =0.231341E-01
       N       E                     dE             d eps       ncg     rms          rms(c)
DAV:   1    -0.191416298940E+03   -0.15003E-01   -0.11691E+00  8160   0.231E+00    0.258E-01
DAV:   2    -0.191420692508E+03   -0.43936E-02   -0.39876E-02 13120   0.807E-01    0.480E-01
DAV:   3    -0.191418600696E+03    0.20918E-02   -0.74364E-03 11840   0.665E-01    0.252E-01
DAV:   4    -0.191418173918E+03    0.42678E-03   -0.21899E-03 11200   0.313E-01    0.200E-01
DAV:   5    -0.191417932753E+03    0.24117E-03   -0.16593E-03  9920   0.285E-01    0.158E-01
DAV:   6    -0.191417757763E+03    0.17499E-03   -0.87568E-04  9840   0.176E-01    0.809E-02
DAV:   7    -0.191417777748E+03   -0.19985E-04   -0.51799E-04  8640   0.147E-01
  68 F= -.19141778E+03 E0= -.19131705E+03  d E =-.164781E-01
       N       E                     dE             d eps       ncg     rms          rms(c)
DAV:   1    -0.191422859140E+03   -0.51014E-02   -0.12305E-01  8160   0.755E-01    0.842E-02
DAV:   2    -0.191423232605E+03   -0.37346E-03   -0.39926E-03 11920   0.200E-01    0.128E-01
DAV:   3    -0.191423169730E+03    0.62875E-04   -0.96953E-04 11000   0.218E-01
  69 F= -.19142317E+03 E0= -.19132215E+03  d E =-.539198E-02
       N       E                     dE             d eps       ncg     rms          rms(c)
DAV:   1    -0.191432609657E+03   -0.93771E-02   -0.44179E-01  8160   0.142E+00    0.165E-01
DAV:   2    -0.191433868338E+03   -0.12587E-02   -0.13487E-02 12280   0.385E-01    0.251E-01
DAV:   3    -0.191433587887E+03    0.28045E-03   -0.34191E-03 12000   0.390E-01    0.237E-01
DAV:   4    -0.191433168907E+03    0.41898E-03   -0.14765E-03  9680   0.251E-01    0.113E-01
DAV:   5    -0.191433073411E+03    0.95496E-04   -0.50598E-04  8320   0.151E-01
  70 F= -.19143307E+03 E0= -.19133261E+03  d E =-.990368E-02
       N       E                     dE             d eps       ncg     rms          rms(c)
DAV:   1    -0.191440968203E+03   -0.77993E-02   -0.31995E-01  8160   0.120E+00    0.182E-01
DAV:   2    -0.191445562707E+03   -0.45945E-02   -0.15406E-02 13520   0.778E-01    0.634E-01
DAV:   3    -0.191441117332E+03    0.44454E-02   -0.75820E-03 11000   0.665E-01    0.116E-01
DAV:   4    -0.191441291348E+03   -0.17402E-03   -0.10087E-03  9680   0.221E-01    0.164E-01
DAV:   5    -0.191441004298E+03    0.28705E-03   -0.56459E-04  9200   0.174E-01    0.545E-02
DAV:   6    -0.191441050395E+03   -0.46097E-04   -0.23193E-04  6480   0.102E-01
  71 F= -.19144105E+03 E0= -.19134064E+03  d E =-.797698E-02
       N       E                     dE             d eps       ncg     rms          rms(c)
DAV:   1    -0.191458555889E+03   -0.17552E-01   -0.13677E+00  8160   0.249E+00    0.264E-01
DAV:   2    -0.191463007194E+03   -0.44513E-02   -0.41773E-02 13200   0.808E-01    0.466E-01
DAV:   3    -0.191460957431E+03    0.20498E-02   -0.75163E-03 12240   0.664E-01    0.242E-01
DAV:   4    -0.191460411448E+03    0.54598E-03   -0.18268E-03 10960   0.277E-01    0.150E-01
DAV:   5    -0.191460437021E+03   -0.25574E-04   -0.16017E-03 10120   0.265E-01    0.188E-01
DAV:   6    -0.191460224399E+03    0.21262E-03   -0.11243E-03  9760   0.221E-01    0.943E-02
DAV:   7    -0.191460120568E+03    0.10383E-03   -0.31318E-04  6920   0.105E-01    0.626E-02
DAV:   8    -0.191460087697E+03    0.32871E-04   -0.11363E-04  6560   0.786E-02
  72 F= -.19146009E+03 E0= -.19136017E+03  d E =-.190373E-01
       N       E                     dE             d eps       ncg     rms          rms(c)
DAV:   1    -0.191460398964E+03   -0.27840E-03   -0.66131E-04  8760   0.602E-02    0.131E-02
DAV:   2    -0.191460406403E+03   -0.74394E-05   -0.39350E-05  7120   0.375E-02
  73 F= -.19146041E+03 E0= -.19136057E+03  d E =-.318706E-03
       N       E                     dE             d eps       ncg     rms          rms(c)
DAV:   1    -0.191481703193E+03   -0.21304E-01   -0.18994E+00  8160   0.293E+00    0.271E-01
DAV:   2    -0.191484767215E+03   -0.30640E-02   -0.40378E-02 12120   0.640E-01    0.339E-01
DAV:   3    -0.191484674056E+03    0.93160E-04   -0.78530E-03 12400   0.603E-01    0.351E-01
DAV:   4    -0.191483543975E+03    0.11301E-02   -0.33510E-03 11320   0.412E-01    0.179E-01
DAV:   5    -0.191483370291E+03    0.17368E-03   -0.12153E-03  9760   0.264E-01    0.156E-01
DAV:   6    -0.191483279803E+03    0.90488E-04   -0.10551E-03 10640   0.239E-01    0.109E-01
DAV:   7    -0.191483122416E+03    0.15739E-03   -0.34510E-04  8080   0.116E-01    0.456E-02
DAV:   8    -0.191483115700E+03    0.67158E-05   -0.10651E-04  5760   0.726E-02
  74 F= -.19148312E+03 E0= -.19138409E+03  d E =-.227093E-01
       N       E                     dE             d eps       ncg     rms          rms(c)
DAV:   1    -0.191474574038E+03    0.85484E-02   -0.22541E-01  8160   0.101E+00    0.975E-02
DAV:   2    -0.191475057730E+03   -0.48369E-03   -0.54928E-03 12160   0.265E-01    0.145E-01
DAV:   3    -0.191474911874E+03    0.14586E-03   -0.88187E-04 11040   0.223E-01    0.105E-01
DAV:   4    -0.191474835731E+03    0.76144E-04   -0.35197E-04  7200   0.128E-01
  75 F= -.19147484E+03 E0= -.19137553E+03  d E =0.827997E-02
       N       E                     dE             d eps       ncg     rms          rms(c)
DAV:   1    -0.191400172395E+03    0.74739E-01   -0.20119E+01  8160   0.952E+00    0.937E-01
DAV:   2    -0.191435794305E+03   -0.35622E-01   -0.46017E-01 12080   0.218E+00    0.116E+00
DAV:   3    -0.191432464930E+03    0.33294E-02   -0.77294E-02 12320   0.202E+00    0.116E+00
DAV:   4    -0.191421707917E+03    0.10757E-01   -0.41049E-02 11280   0.137E+00    0.697E-01
DAV:   5    -0.191419394807E+03    0.23131E-02   -0.20904E-02 12640   0.105E+00    0.615E-01
DAV:   6    -0.191416743552E+03    0.26513E-02   -0.13259E-02 12600   0.749E-01    0.305E-01
DAV:   7    -0.191416092028E+03    0.65152E-03   -0.42408E-03 11720   0.413E-01    0.274E-01
DAV:   8    -0.191415343857E+03    0.74817E-03   -0.17475E-03 10360   0.302E-01    0.823E-02
DAV:   9    -0.191415284423E+03    0.59434E-04   -0.20933E-04  6720   0.812E-02
  76 F= -.19141528E+03 E0= -.19131450E+03  d E =0.595513E-01
       N       E                     dE             d eps       ncg     rms          rms(c)
DAV:   1    -0.191442505936E+03   -0.27162E-01   -0.63877E+00  8160   0.540E+00    0.584E-01
DAV:   2    -0.191461934973E+03   -0.19429E-01   -0.18857E-01 13120   0.175E+00    0.101E+00
DAV:   3    -0.191452977043E+03    0.89579E-02   -0.36038E-02 12200   0.147E+00    0.553E-01
DAV:   4    -0.191449965097E+03    0.30119E-02   -0.10173E-02 11920   0.639E-01    0.349E-01
DAV:   5    -0.191449989613E+03   -0.24517E-04   -0.87689E-03 12000   0.637E-01    0.426E-01
DAV:   6    -0.191448457088E+03    0.15325E-02   -0.51633E-03 11400   0.488E-01    0.155E-01
DAV:   7    -0.191448099918E+03    0.35717E-03   -0.10579E-03 10400   0.153E-01    0.612E-02
DAV:   8    -0.191448084996E+03    0.14923E-04   -0.26707E-04  8520   0.100E-01
  77 F= -.19144808E+03 E0= -.19134760E+03  d E =-.328006E-01
       N       E                     dE             d eps       ncg     rms          rms(c)
DAV:   1    -0.191445946952E+03    0.21530E-02   -0.25908E-01  8160   0.108E+00    0.129E-01
DAV:   2    -0.191447123208E+03   -0.11763E-02   -0.74492E-03 12400   0.413E-01    0.320E-01
DAV:   3    -0.191446108819E+03    0.10144E-02   -0.25390E-03 10720   0.359E-01    0.113E-01
DAV:   4    -0.191446116089E+03   -0.72705E-05   -0.60550E-04  8240   0.170E-01
  78 F= -.19144612E+03 E0= -.19134554E+03  d E =0.196891E-02
       N       E                     dE             d eps       ncg     rms          rms(c)
DAV:   1    -0.191458622530E+03   -0.12514E-01   -0.10418E+00  8160   0.216E+00    0.226E-01
DAV:   2    -0.191462643406E+03   -0.40209E-02   -0.31348E-02 12720   0.691E-01    0.470E-01
DAV:   3    -0.191460573569E+03    0.20698E-02   -0.78314E-03 12280   0.648E-01    0.238E-01
DAV:   4    -0.191460301266E+03    0.27230E-03   -0.19089E-03  9760   0.285E-01    0.184E-01
DAV:   5    -0.191460017181E+03    0.28409E-03   -0.11036E-03 10160   0.244E-01    0.118E-01
DAV:   6    -0.191459963310E+03    0.53870E-04   -0.52030E-04  8520   0.141E-01
  79 F= -.19145996E+03 E0= -.19135950E+03  d E =-.138472E-01
       N       E                     dE             d eps       ncg     rms          rms(c)
DAV:   1    -0.191429940712E+03    0.30076E-01   -0.36331E+00  8160   0.403E+00    0.448E-01
DAV:   2    -0.191452569273E+03   -0.22629E-01   -0.12619E-01 13040   0.160E+00    0.125E+00
DAV:   3    -0.191436236306E+03    0.16333E-01   -0.39395E-02 12200   0.145E+00    0.380E-01
DAV:   4    -0.191435099745E+03    0.11366E-02   -0.45352E-03 11160   0.401E-01    0.236E-01
DAV:   5    -0.191434689417E+03    0.41033E-03   -0.24466E-03 12720   0.373E-01    0.206E-01
DAV:   6    -0.191434500891E+03    0.18853E-03   -0.18366E-03 11560   0.283E-01    0.140E-01
DAV:   7    -0.191434464835E+03    0.36056E-04   -0.11534E-03 10200   0.219E-01    0.162E-01
DAV:   8    -0.191434201729E+03    0.26311E-03   -0.48627E-04  8360   0.155E-01    0.294E-02
DAV:   9    -0.191434208345E+03   -0.66162E-05   -0.48629E-05  5880   0.342E-02
  80 F= -.19143421E+03 E0= -.19133358E+03  d E =0.257550E-01
       N       E                     dE             d eps       ncg     rms          rms(c)
DAV:   1    -0.191404787492E+03    0.29414E-01   -0.37910E+00  8160   0.411E+00    0.430E-01
DAV:   2    -0.191422886657E+03   -0.18099E-01   -0.11962E-01 13120   0.148E+00    0.107E+00
DAV:   3    -0.191411809263E+03    0.11077E-01   -0.33557E-02 11880   0.132E+00    0.419E-01
DAV:   4    -0.191410413316E+03    0.13959E-02   -0.47719E-03 11160   0.416E-01    0.247E-01
DAV:   5    -0.191410045047E+03    0.36827E-03   -0.26234E-03 11720   0.378E-01    0.228E-01
DAV:   6    -0.191409970125E+03    0.74922E-04   -0.22039E-03 11440   0.309E-01    0.192E-01
DAV:   7    -0.191409881825E+03    0.88301E-04   -0.16559E-03  9600   0.277E-01    0.177E-01
DAV:   8    -0.191409513971E+03    0.36785E-03   -0.59142E-04  8480   0.171E-01    0.233E-02
DAV:   9    -0.191409524895E+03   -0.10924E-04   -0.53952E-05  6400   0.315E-02
  81 F= -.19140952E+03 E0= -.19130836E+03  d E =0.246834E-01
       N       E                     dE             d eps       ncg     rms          rms(c)
DAV:   1    -0.191347348762E+03    0.62165E-01   -0.15184E+01  8160   0.822E+00    0.870E-01
DAV:   2    -0.191426330547E+03   -0.78982E-01   -0.47984E-01 13280   0.302E+00    0.228E+00
DAV:   3    -0.191374852651E+03    0.51478E-01   -0.14024E-01 11560   0.271E+00    0.849E-01
DAV:   4    -0.191370788008E+03    0.40646E-02   -0.23431E-02 11280   0.942E-01    0.644E-01
DAV:   5    -0.191367486693E+03    0.33013E-02   -0.14527E-02 12000   0.873E-01    0.474E-01
DAV:   6    -0.191366765204E+03    0.72149E-03   -0.91798E-03 11840   0.604E-01    0.382E-01
DAV:   7    -0.191366815029E+03   -0.49825E-04   -0.71217E-03 10320   0.587E-01    0.369E-01
DAV:   8    -0.191365084785E+03    0.17302E-02   -0.28119E-03 11160   0.362E-01    0.474E-02
DAV:   9    -0.191365114424E+03   -0.29638E-04   -0.24544E-04  7440   0.589E-02
  82 F= -.19136511E+03 E0= -.19126290E+03  d E =0.444105E-01
       N       E                     dE             d eps       ncg     rms          rms(c)
DAV:   1    -0.191356259233E+03    0.88256E-02   -0.14798E+00  8160   0.257E+00    0.295E-01
DAV:   2    -0.191366227918E+03   -0.99687E-02   -0.51713E-02 13600   0.110E+00    0.883E-01
DAV:   3    -0.191358562247E+03    0.76657E-02   -0.20134E-02 12320   0.993E-01    0.266E-01
DAV:   4    -0.191358004505E+03    0.55774E-03   -0.22944E-03 11160   0.249E-01    0.155E-01
DAV:   5    -0.191357999483E+03    0.50219E-05   -0.15625E-03 11400   0.261E-01    0.207E-01
DAV:   6    -0.191357698489E+03    0.30099E-03   -0.12023E-03  9120   0.229E-01    0.951E-02
DAV:   7    -0.191357672299E+03    0.26190E-04   -0.38757E-04  8160   0.110E-01
  83 F= -.19135767E+03 E0= -.19125510E+03  d E =0.744212E-02
       N       E                     dE             d eps       ncg     rms          rms(c)
DAV:   1    -0.191357755463E+03   -0.56974E-04   -0.12554E+00  8160   0.239E+00    0.303E-01
DAV:   2    -0.191367487084E+03   -0.97316E-02   -0.50303E-02 13600   0.108E+00    0.913E-01
DAV:   3    -0.191359538864E+03    0.79482E-02   -0.21335E-02 12240   0.996E-01    0.260E-01
DAV:   4    -0.191359148171E+03    0.39069E-03   -0.25286E-03 11400   0.278E-01    0.196E-01
DAV:   5    -0.191359090233E+03    0.57938E-04   -0.22302E-03 10960   0.320E-01    0.231E-01
DAV:   6    -0.191358649936E+03    0.44030E-03   -0.13475E-03  9840   0.230E-01    0.800E-02
DAV:   7    -0.191358622551E+03    0.27384E-04   -0.31354E-04  8560   0.978E-02
  84 F= -.19135862E+03 E0= -.19125602E+03  d E =-.950252E-03
       N       E                     dE             d eps       ncg     rms          rms(c)
DAV:   1    -0.191366052280E+03   -0.74023E-02   -0.69982E-01  8160   0.177E+00    0.193E-01
DAV:   2    -0.191370095001E+03   -0.40427E-02   -0.23335E-02 13400   0.717E-01    0.539E-01
DAV:   3    -0.191367208329E+03    0.28867E-02   -0.77673E-03 12280   0.626E-01    0.175E-01
DAV:   4    -0.191366939477E+03    0.26885E-03   -0.90562E-04  9760   0.159E-01    0.811E-02
DAV:   5    -0.191366871045E+03    0.68431E-04   -0.38033E-04  8480   0.108E-01
  85 F= -.19136687E+03 E0= -.19126454E+03  d E =-.824849E-02
       N       E                     dE             d eps       ncg     rms          rms(c)
DAV:   1    -0.191354287224E+03    0.12652E-01   -0.87011E-01  8160   0.200E+00    0.239E-01
DAV:   2    -0.191361189893E+03   -0.69027E-02   -0.35561E-02 13480   0.856E-01    0.741E-01
DAV:   3    -0.191355854416E+03    0.53355E-02   -0.13875E-02 11600   0.791E-01    0.228E-01
DAV:   4    -0.191355636667E+03    0.21775E-03   -0.21191E-03 10440   0.277E-01    0.174E-01
DAV:   5    -0.191355352989E+03    0.28368E-03   -0.10335E-03 10280   0.235E-01    0.111E-01
DAV:   6    -0.191355222521E+03    0.13047E-03   -0.43541E-04  8800   0.131E-01    0.470E-02
DAV:   7    -0.191355209889E+03    0.12632E-04   -0.14323E-04  6520   0.541E-02
  86 F= -.19135521E+03 E0= -.19125256E+03  d E =0.116612E-01
       N       E                     dE             d eps       ncg     rms          rms(c)
DAV:   1    -0.191358080385E+03   -0.28579E-02   -0.10590E-01  8160   0.731E-01    0.130E-01
DAV:   2    -0.191358185114E+03   -0.10473E-03   -0.50882E-03 11440   0.261E-01    0.160E-01
DAV:   3    -0.191358117514E+03    0.67601E-04   -0.15454E-03 10120   0.276E-01    0.164E-01
DAV:   4    -0.191357904779E+03    0.21273E-03   -0.95912E-04  8760   0.209E-01    0.118E-01
DAV:   5    -0.191357856343E+03    0.48436E-04   -0.59591E-04  8080   0.164E-01
  87 F= -.19135786E+03 E0= -.19125493E+03  d E =-.264645E-02
       N       E                     dE             d eps       ncg     rms          rms(c)
DAV:   1    -0.191365886285E+03   -0.79815E-02   -0.51518E-01  8160   0.153E+00    0.167E-01
DAV:   2    -0.191367778222E+03   -0.18919E-02   -0.17208E-02 12440   0.468E-01    0.304E-01
DAV:   3    -0.191367093542E+03    0.68468E-03   -0.36370E-03 11320   0.446E-01    0.197E-01
DAV:   4    -0.191366817504E+03    0.27604E-03   -0.11256E-03  9320   0.219E-01    0.126E-01
DAV:   5    -0.191366694182E+03    0.12332E-03   -0.57947E-04  8440   0.173E-01    0.867E-02
DAV:   6    -0.191366670799E+03    0.23382E-04   -0.32470E-04  7480   0.109E-01
  88 F= -.19136667E+03 E0= -.19126396E+03  d E =-.881446E-02
       N       E                     dE             d eps       ncg     rms          rms(c)
DAV:   1    -0.191366230030E+03    0.46415E-03   -0.24798E-02  8160   0.359E-01    0.952E-02
DAV:   2    -0.191368190970E+03   -0.19609E-02   -0.45466E-03 11000   0.449E-01    0.456E-01
DAV:   3    -0.191366107304E+03    0.20837E-02   -0.32838E-03  9920   0.398E-01    0.484E-02
DAV:   4    -0.191366162087E+03   -0.54783E-04   -0.17021E-04  6320   0.886E-02
  89 F= -.19136616E+03 E0= -.19126355E+03  d E =0.508713E-03
       N       E                     dE             d eps       ncg     rms          rms(c)
DAV:   1    -0.191373318487E+03   -0.72112E-02   -0.58237E-01  8160   0.162E+00    0.173E-01
DAV:   2    -0.191374706708E+03   -0.13882E-02   -0.17612E-02 12280   0.399E-01    0.181E-01
DAV:   3    -0.191374547982E+03    0.15873E-03   -0.27117E-03 12440   0.315E-01    0.201E-01
DAV:   4    -0.191374291124E+03    0.25686E-03   -0.14134E-03  9640   0.267E-01    0.134E-01
DAV:   5    -0.191374081518E+03    0.20961E-03   -0.49659E-04  8200   0.140E-01    0.607E-02
DAV:   6    -0.191374183772E+03   -0.10225E-03   -0.33331E-04  9240   0.145E-01    0.102E-01
DAV:   7    -0.191374056511E+03    0.12726E-03   -0.19463E-04  7000   0.109E-01    0.159E-02
DAV:   8    -0.191374058913E+03   -0.24022E-05   -0.31832E-05  5720   0.226E-02
  90 F= -.19137406E+03 E0= -.19127172E+03  d E =-.789683E-02
       N       E                     dE             d eps       ncg     rms          rms(c)
DAV:   1    -0.191380308663E+03   -0.62522E-02   -0.33654E-01  8160   0.124E+00    0.146E-01
DAV:   2    -0.191382584933E+03   -0.22763E-02   -0.13200E-02 13240   0.548E-01    0.407E-01
DAV:   3    -0.191380922956E+03    0.16620E-02   -0.39132E-03 11160   0.460E-01    0.119E-01
DAV:   4    -0.191380874258E+03    0.48698E-04   -0.57260E-04  8320   0.158E-01
  91 F= -.19138087E+03 E0= -.19127903E+03  d E =-.681535E-02
       N       E                     dE             d eps       ncg     rms          rms(c)
DAV:   1    -0.191384859591E+03   -0.39366E-02   -0.13182E-01  8160   0.818E-01    0.127E-01
DAV:   2    -0.191385477312E+03   -0.61772E-03   -0.57298E-03 13440   0.290E-01    0.227E-01
DAV:   3    -0.191385083128E+03    0.39418E-03   -0.23721E-03 10240   0.330E-01    0.168E-01
DAV:   4    -0.191384871508E+03    0.21162E-03   -0.76040E-04  8320   0.170E-01    0.863E-02
DAV:   5    -0.191384847346E+03    0.24163E-04   -0.42237E-04  8720   0.152E-01
  92 F= -.19138485E+03 E0= -.19128284E+03  d E =-.397309E-02
       N       E                     dE             d eps       ncg     rms          rms(c)
DAV:   1    -0.191388758106E+03   -0.38866E-02   -0.64446E-01  8160   0.173E+00    0.210E-01
DAV:   2    -0.191390341499E+03   -0.15834E-02   -0.20828E-02 13440   0.460E-01    0.299E-01
DAV:   3    -0.191390164415E+03    0.17708E-03   -0.57046E-03 12240   0.524E-01    0.313E-01
DAV:   4    -0.191389225167E+03    0.93925E-03   -0.20106E-03 11080   0.307E-01    0.981E-02
DAV:   5    -0.191389104603E+03    0.12056E-03   -0.59344E-04  9520   0.116E-01    0.833E-02
DAV:   6    -0.191389218633E+03   -0.11403E-03   -0.71621E-04  8480   0.181E-01    0.140E-01
DAV:   7    -0.191389029471E+03    0.18916E-03   -0.40427E-04  7160   0.134E-01    0.270E-02
DAV:   8    -0.191389026603E+03    0.28679E-05   -0.42387E-05  5520   0.291E-02
  93 F= -.19138903E+03 E0= -.19128683E+03  d E =-.417926E-02
       N       E                     dE             d eps       ncg     rms          rms(c)
DAV:   1    -0.191390555900E+03   -0.15264E-02   -0.59248E-01  8160   0.168E+00    0.251E-01
DAV:   2    -0.191390629307E+03   -0.73407E-04   -0.19812E-02 12000   0.408E-01    0.218E-01
DAV:   3    -0.191391372587E+03   -0.74328E-03   -0.56124E-03 11600   0.482E-01    0.403E-01
DAV:   4    -0.191390033402E+03    0.13392E-02   -0.43150E-03 10960   0.450E-01    0.176E-01
DAV:   5    -0.191389707384E+03    0.32602E-03   -0.11964E-03  9560   0.182E-01    0.988E-02
DAV:   6    -0.191389733584E+03   -0.26200E-04   -0.78834E-04  9440   0.180E-01
  94 F= -.19138973E+03 E0= -.19128771E+03  d E =-.706981E-03
       N       E                     dE             d eps       ncg     rms          rms(c)
DAV:   1    -0.191401063153E+03   -0.11356E-01   -0.97031E-01  8160   0.210E+00    0.221E-01
DAV:   2    -0.191404506646E+03   -0.34435E-02   -0.29889E-02 13480   0.680E-01    0.440E-01
DAV:   3    -0.191403000452E+03    0.15062E-02   -0.78589E-03 11240   0.618E-01    0.266E-01
DAV:   4    -0.191402356790E+03    0.64366E-03   -0.19432E-03  9760   0.271E-01    0.126E-01
DAV:   5    -0.191402320166E+03    0.36624E-04   -0.86359E-04 10200   0.208E-01
  95 F= -.19140232E+03 E0= -.19130101E+03  d E =-.125866E-01
       N       E                     dE             d eps       ncg     rms          rms(c)
DAV:   1    -0.191373500276E+03    0.28857E-01   -0.37202E+00  8160   0.414E+00    0.459E-01
DAV:   2    -0.191387219399E+03   -0.13719E-01   -0.12449E-01 13240   0.128E+00    0.871E-01
DAV:   3    -0.191381822513E+03    0.53969E-02   -0.35249E-02 12280   0.125E+00    0.625E-01
DAV:   4    -0.191378684582E+03    0.31379E-02   -0.10589E-02 12240   0.644E-01    0.299E-01
DAV:   5    -0.191378059415E+03    0.62517E-03   -0.39345E-03 10600   0.443E-01    0.275E-01
DAV:   6    -0.191377409967E+03    0.64945E-03   -0.24913E-03 10920   0.350E-01    0.142E-01
DAV:   7    -0.191377520408E+03   -0.11044E-03   -0.13473E-03 10400   0.235E-01    0.178E-01
DAV:   8    -0.191377185435E+03    0.33497E-03   -0.75868E-04  8320   0.196E-01    0.529E-02
DAV:   9    -0.191377162641E+03    0.22794E-04   -0.90653E-05  5560   0.600E-02
  96 F= -.19137716E+03 E0= -.19127512E+03  d E =0.251575E-01
       N       E                     dE             d eps       ncg     rms          rms(c)
DAV:   1    -0.191317981202E+03    0.59204E-01   -0.15553E+01  8160   0.842E+00    0.901E-01
DAV:   2    -0.191367698724E+03   -0.49718E-01   -0.46542E-01 12400   0.235E+00    0.156E+00
DAV:   3    -0.191352294523E+03    0.15404E-01   -0.11140E-01 11200   0.237E+00    0.120E+00
DAV:   4    -0.191340138377E+03    0.12156E-01   -0.35123E-02 12120   0.122E+00    0.560E-01
DAV:   5    -0.191338221152E+03    0.19172E-02   -0.16814E-02 11320   0.853E-01    0.585E-01
DAV:   6    -0.191336149639E+03    0.20715E-02   -0.11537E-02 11720   0.731E-01    0.368E-01
DAV:   7    -0.191336681961E+03   -0.53232E-03   -0.75215E-03 10480   0.571E-01    0.427E-01
DAV:   8    -0.191334657754E+03    0.20242E-02   -0.37712E-03 10720   0.429E-01    0.820E-02
DAV:   9    -0.191334607950E+03    0.49804E-04   -0.33755E-04  8840   0.895E-02
  97 F= -.19133461E+03 E0= -.19123205E+03  d E =0.425547E-01
       N       E                     dE             d eps       ncg     rms          rms(c)
DAV:   1    -0.191361590548E+03   -0.26933E-01   -0.98535E+00  8160   0.677E+00    0.816E-01
DAV:   2    -0.191403430840E+03   -0.41840E-01   -0.35078E-01 13360   0.240E+00    0.163E+00
DAV:   3    -0.191380457402E+03    0.22973E-01   -0.95157E-02 12040   0.227E+00    0.901E-01
DAV:   4    -0.191375435816E+03    0.50216E-02   -0.30159E-02 12200   0.109E+00    0.661E-01
DAV:   5    -0.191372094052E+03    0.33418E-02   -0.17832E-02 10960   0.918E-01    0.530E-01
DAV:   6    -0.191369779888E+03    0.23142E-02   -0.98476E-03 12000   0.605E-01    0.284E-01
DAV:   7    -0.191370677070E+03   -0.89718E-03   -0.67537E-03 11400   0.548E-01    0.415E-01
DAV:   8    -0.191368824181E+03    0.18529E-02   -0.30682E-03 10240   0.389E-01    0.678E-02
DAV:   9    -0.191368772529E+03    0.51652E-04   -0.24117E-04  8000   0.700E-02
  98 F= -.19136877E+03 E0= -.19126614E+03  d E =-.341646E-01
       N       E                     dE             d eps       ncg     rms          rms(c)
DAV:   1    -0.191358933568E+03    0.98906E-02   -0.97145E-01  8160   0.212E+00    0.276E-01
DAV:   2    -0.191363312620E+03   -0.43791E-02   -0.34797E-02 12720   0.843E-01    0.577E-01
DAV:   3    -0.191360055711E+03    0.32569E-02   -0.10063E-02 11920   0.746E-01    0.278E-01
DAV:   4    -0.191359727295E+03    0.32842E-03   -0.32974E-03 11160   0.372E-01    0.245E-01
DAV:   5    -0.191359326422E+03    0.40087E-03   -0.25004E-03 10080   0.340E-01    0.183E-01
DAV:   6    -0.191359046964E+03    0.27946E-03   -0.11294E-03  9520   0.203E-01    0.104E-01
DAV:   7    -0.191359084477E+03   -0.37513E-04   -0.69874E-04  8280   0.180E-01
  99 F= -.19135908E+03 E0= -.19125619E+03  d E =0.968805E-02
       N       E                     dE             d eps       ncg     rms          rms(c)
DAV:   1    -0.191369306202E+03   -0.10259E-01   -0.95209E-01  8160   0.208E+00    0.227E-01
DAV:   2    -0.191372702488E+03   -0.33963E-02   -0.29631E-02 13120   0.675E-01    0.438E-01
DAV:   3    -0.191371088356E+03    0.16141E-02   -0.68779E-03 11280   0.615E-01    0.256E-01
DAV:   4    -0.191370579832E+03    0.50852E-03   -0.20443E-03 10840   0.295E-01    0.160E-01
DAV:   5    -0.191370421718E+03    0.15811E-03   -0.12168E-03  9760   0.242E-01    0.138E-01
DAV:   6    -0.191370267344E+03    0.15437E-03   -0.68463E-04  9360   0.162E-01    0.718E-02
DAV:   7    -0.191370333919E+03   -0.66576E-04   -0.45812E-04  8000   0.139E-01
 100 F= -.19137033E+03 E0= -.19126789E+03  d E =-.112494E-01
