<?xml version="1.0" encoding="ISO-8859-1"?>
<modeling>
 <generator>
  <i name="program" type="string">vasp </i>
  <i name="version" type="string">5.4.1  </i>
  <i name="subversion" type="string">05Feb16 (build Jul 05 2020 17:13:04) complex                          parallel </i>
  <i name="platform" type="string">IFC91_ompi </i>
  <i name="date" type="string">2024 04 20 </i>
  <i name="time" type="string">20:27:59 </i>
 </generator>
 <incar>
  <i type="int" name="ISTART">     0</i>
  <i type="string" name="PREC">normal</i>
  <i type="string" name="ALGO"> Normal</i>
  <i type="int" name="ISPIN">     1</i>
  <i type="int" name="ICHARG">     2</i>
  <i type="int" name="IBRION">     1</i>
  <i type="int" name="NSW">   100</i>
  <i type="int" name="ISIF">     3</i>
  <i type="int" name="ISYM">     0</i>
  <i name="SYMPREC">      0.00000001</i>
  <i name="POTIM">      0.50000000</i>
  <i type="logical" name="LREAL"> F  </i>
  <i type="logical" name="LPLANE"> F  </i>
  <i type="int" name="ISMEAR">     0</i>
  <i type="logical" name="LWAVE"> F  </i>
  <i type="logical" name="LCHARG"> F  </i>
  <v type="int" name="KPOINT_BSE">    -1     0     0     0</v>
 </incar>
 <kpoints>
  <generation param="Gamma">
   <v type="int" name="divisions">       8        8        1 </v>
   <v name="usershift">      0.00000000       0.00000000       0.00000000 </v>
   <v name="genvec1">      0.12500000       0.00000000       0.00000000 </v>
   <v name="genvec2">     -0.00000000       0.12500000       0.00000000 </v>
   <v name="genvec3">      0.00000000       0.00000000       1.00000000 </v>
   <v name="shift">      0.00000000       0.00000000       0.00000000 </v>
  </generation>
  <varray name="kpointlist" >
   <v>       0.00000000       0.00000000       0.00000000 </v>
   <v>       0.12500000       0.00000000       0.00000000 </v>
   <v>       0.25000000       0.00000000       0.00000000 </v>
   <v>       0.37500000       0.00000000       0.00000000 </v>
   <v>       0.50000000       0.00000000       0.00000000 </v>
   <v>       0.00000000       0.12500000       0.00000000 </v>
   <v>       0.12500000       0.12500000       0.00000000 </v>
   <v>       0.25000000       0.12500000       0.00000000 </v>
   <v>       0.37500000       0.12500000       0.00000000 </v>
   <v>       0.50000000       0.12500000       0.00000000 </v>
   <v>      -0.37500000       0.12500000       0.00000000 </v>
   <v>      -0.25000000       0.12500000       0.00000000 </v>
   <v>      -0.12500000       0.12500000       0.00000000 </v>
   <v>       0.00000000       0.25000000       0.00000000 </v>
   <v>       0.12500000       0.25000000       0.00000000 </v>
   <v>       0.25000000       0.25000000       0.00000000 </v>
   <v>       0.37500000       0.25000000       0.00000000 </v>
   <v>       0.50000000       0.25000000       0.00000000 </v>
   <v>      -0.37500000       0.25000000       0.00000000 </v>
   <v>      -0.25000000       0.25000000       0.00000000 </v>
   <v>      -0.12500000       0.25000000       0.00000000 </v>
   <v>      -0.00000000       0.37500000       0.00000000 </v>
   <v>       0.12500000       0.37500000       0.00000000 </v>
   <v>       0.25000000       0.37500000       0.00000000 </v>
   <v>       0.37500000       0.37500000       0.00000000 </v>
   <v>       0.50000000       0.37500000       0.00000000 </v>
   <v>      -0.37500000       0.37500000       0.00000000 </v>
   <v>      -0.25000000       0.37500000       0.00000000 </v>
   <v>      -0.12500000       0.37500000       0.00000000 </v>
   <v>       0.00000000       0.50000000       0.00000000 </v>
   <v>       0.12500000       0.50000000       0.00000000 </v>
   <v>       0.25000000       0.50000000       0.00000000 </v>
   <v>       0.37500000       0.50000000       0.00000000 </v>
   <v>       0.50000000       0.50000000       0.00000000 </v>
  </varray>
  <varray name="weights" >
   <v>       0.01562500 </v>
   <v>       0.03125000 </v>
   <v>       0.03125000 </v>
   <v>       0.03125000 </v>
   <v>       0.01562500 </v>
   <v>       0.03125000 </v>
   <v>       0.03125000 </v>
   <v>       0.03125000 </v>
   <v>       0.03125000 </v>
   <v>       0.03125000 </v>
   <v>       0.03125000 </v>
   <v>       0.03125000 </v>
   <v>       0.03125000 </v>
   <v>       0.03125000 </v>
   <v>       0.03125000 </v>
   <v>       0.03125000 </v>
   <v>       0.03125000 </v>
   <v>       0.03125000 </v>
   <v>       0.03125000 </v>
   <v>       0.03125000 </v>
   <v>       0.03125000 </v>
   <v>       0.03125000 </v>
   <v>       0.03125000 </v>
   <v>       0.03125000 </v>
   <v>       0.03125000 </v>
   <v>       0.03125000 </v>
   <v>       0.03125000 </v>
   <v>       0.03125000 </v>
   <v>       0.03125000 </v>
   <v>       0.01562500 </v>
   <v>       0.03125000 </v>
   <v>       0.03125000 </v>
   <v>       0.03125000 </v>
   <v>       0.01562500 </v>
  </varray>
 </kpoints>
 <parameters>
  <separator name="general" >
   <i type="string" name="SYSTEM">unknown system</i>
   <i type="logical" name="LCOMPAT"> F  </i>
  </separator>
  <separator name="electronic" >
   <i type="string" name="PREC">normal</i>
   <i name="ENMAX">    280.00000000</i>
   <i name="ENAUG">    373.43800000</i>
   <i name="EDIFF">      0.00010000</i>
   <i type="int" name="IALGO">    38</i>
   <i type="int" name="IWAVPR">    11</i>
   <i type="int" name="NBANDS">   120</i>
   <i name="NELECT">    159.00000000</i>
   <i type="int" name="TURBO">     0</i>
   <i type="int" name="IRESTART">     0</i>
   <i type="int" name="NREBOOT">     0</i>
   <i type="int" name="NMIN">     0</i>
   <i name="EREF">      0.00000000</i>
   <separator name="electronic smearing" >
    <i type="int" name="ISMEAR">     0</i>
    <i name="SIGMA">      0.20000000</i>
    <i name="KSPACING">      0.50000000</i>
    <i type="logical" name="KGAMMA"> T  </i>
   </separator>
   <separator name="electronic projectors" >
    <i type="logical" name="LREAL"> F  </i>
    <v name="ROPT">      0.00000000      0.00000000      0.00000000      0.00000000</v>
    <i type="int" name="LMAXPAW">  -100</i>
    <i type="int" name="LMAXMIX">     2</i>
    <i type="logical" name="NLSPLINE"> F  </i>
   </separator>
   <separator name="electronic startup" >
    <i type="int" name="ISTART">     0</i>
    <i type="int" name="ICHARG">     2</i>
    <i type="int" name="INIWAV">     1</i>
   </separator>
   <separator name="electronic spin" >
    <i type="int" name="ISPIN">     1</i>
    <i type="logical" name="LNONCOLLINEAR"> F  </i>
    <v name="MAGMOM">      1.00000000      1.00000000      1.00000000      1.00000000      1.00000000      1.00000000      1.00000000      1.00000000      1.00000000      1.00000000      1.00000000      1.00000000      1.00000000      1.00000000      1.00000000      1.00000000      1.00000000      1.00000000      1.00000000      1.00000000
      1.00000000      1.00000000      1.00000000      1.00000000      1.00000000      1.00000000      1.00000000</v>
    <i name="NUPDOWN">     -1.00000000</i>
    <i type="logical" name="LSORBIT"> F  </i>
    <v name="SAXIS">      0.00000000      0.00000000      1.00000000</v>
    <i type="logical" name="LSPIRAL"> F  </i>
    <v name="QSPIRAL">      0.00000000      0.00000000      0.00000000</v>
    <i type="logical" name="LZEROZ"> F  </i>
   </separator>
   <separator name="electronic exchange-correlation" >
    <i type="logical" name="LASPH"> F  </i>
    <i type="logical" name="LMETAGGA"> F  </i>
   </separator>
   <separator name="electronic convergence" >
    <i type="int" name="NELM">    60</i>
    <i type="int" name="NELMDL">    -5</i>
    <i type="int" name="NELMIN">     2</i>
    <i name="ENINI">    280.00000000</i>
    <separator name="electronic convergence detail" >
     <i type="logical" name="LDIAG"> T  </i>
     <i type="logical" name="LSUBROT"> F  </i>
     <i name="WEIMIN">      0.00100000</i>
     <i name="EBREAK">      0.00000021</i>
     <i name="DEPER">      0.30000000</i>
     <i type="int" name="NRMM">     4</i>
     <i name="TIME">      0.40000000</i>
    </separator>
   </separator>
   <separator name="electronic mixer" >
    <i name="AMIX">      0.40000000</i>
    <i name="BMIX">      1.00000000</i>
    <i name="AMIN">      0.10000000</i>
    <i name="AMIX_MAG">      1.60000000</i>
    <i name="BMIX_MAG">      1.00000000</i>
    <separator name="electronic mixer details" >
     <i type="int" name="IMIX">     4</i>
     <i type="logical" name="MIXFIRST"> F  </i>
     <i type="int" name="MAXMIX">   -45</i>
     <i name="WC">    100.00000000</i>
     <i type="int" name="INIMIX">     1</i>
     <i type="int" name="MIXPRE">     1</i>
     <i type="int" name="MREMOVE">     5</i>
    </separator>
   </separator>
   <separator name="electronic dipolcorrection" >
    <i type="logical" name="LDIPOL"> F  </i>
    <i type="logical" name="LMONO"> F  </i>
    <i type="int" name="IDIPOL">     0</i>
    <i name="EPSILON">      1.00000000</i>
    <v name="DIPOL">   -100.00000000   -100.00000000   -100.00000000</v>
    <i name="EFIELD">      0.00000000</i>
   </separator>
  </separator>
  <separator name="grids" >
   <i type="int" name="NGX">    42</i>
   <i type="int" name="NGY">    42</i>
   <i type="int" name="NGZ">   126</i>
   <i type="int" name="NGXF">    84</i>
   <i type="int" name="NGYF">    84</i>
   <i type="int" name="NGZF">   252</i>
   <i type="logical" name="ADDGRID"> F  </i>
  </separator>
  <separator name="ionic" >
   <i type="int" name="NSW">   100</i>
   <i type="int" name="IBRION">     1</i>
   <i type="int" name="ISIF">     3</i>
   <i name="PSTRESS">      0.00000000</i>
   <i name="EDIFFG">      0.00100000</i>
   <i type="int" name="NFREE">     0</i>
   <i name="POTIM">      0.50000000</i>
   <i name="SMASS">     -3.00000000</i>
   <i name="SCALEE">      1.00000000</i>
  </separator>
  <separator name="ionic md" >
   <i name="TEBEG">      0.00010000</i>
   <i name="TEEND">      0.00010000</i>
   <i type="int" name="NBLOCK">     1</i>
   <i type="int" name="KBLOCK">   100</i>
   <i type="int" name="NPACO">   256</i>
   <i name="APACO">     16.00000000</i>
  </separator>
  <separator name="symmetry" >
   <i type="int" name="ISYM">     0</i>
   <i name="SYMPREC">      0.00000001</i>
  </separator>
  <separator name="dos" >
   <i type="logical" name="LORBIT"> F  </i>
   <v name="RWIGS">     -1.00000000     -1.00000000     -1.00000000     -1.00000000</v>
   <i type="int" name="NEDOS">   301</i>
   <i name="EMIN">     10.00000000</i>
   <i name="EMAX">    -10.00000000</i>
   <i name="EFERMI">      0.00000000</i>
  </separator>
  <separator name="writing" >
   <i type="int" name="NWRITE">     2</i>
   <i type="logical" name="LWAVE"> F  </i>
   <i type="logical" name="LCHARG"> F  </i>
   <i type="logical" name="LPARD"> F  </i>
   <i type="logical" name="LVTOT"> F  </i>
   <i type="logical" name="LVHAR"> F  </i>
   <i type="logical" name="LELF"> F  </i>
   <i type="logical" name="LOPTICS"> F  </i>
   <v name="STM">      0.00000000      0.00000000      0.00000000      0.00000000      0.00000000      0.00000000      0.00000000</v>
  </separator>
  <separator name="performance" >
   <i type="int" name="NPAR">    40</i>
   <i type="int" name="NSIM">     4</i>
   <i type="int" name="NBLK">    -1</i>
   <i type="logical" name="LPLANE"> F  </i>
   <i type="logical" name="LSCALAPACK"> T  </i>
   <i type="logical" name="LSCAAWARE"> F  </i>
   <i type="logical" name="LSCALU"> F  </i>
   <i type="logical" name="LASYNC"> F  </i>
   <i type="logical" name="LORBITALREAL"> F  </i>
  </separator>
  <separator name="miscellaneous" >
   <i type="int" name="IDIOT">     3</i>
   <i type="logical" name="LMUSIC"> F  </i>
   <v name="POMASS">     50.94100000     95.94000000    183.85000000     32.06600000</v>
   <v name="DARWINR">      0.00000000      0.00000000      0.00000000      0.00000000</v>
   <v name="DARWINV">      1.00000000      1.00000000      1.00000000      1.00000000</v>
   <i type="logical" name="LCORR"> T  </i>
  </separator>
  <i type="logical" name="GGA_COMPAT"> T  </i>
  <i type="logical" name="LBERRY"> F  </i>
  <i type="int" name="ICORELEVEL">     0</i>
  <i type="logical" name="LDAU"> F  </i>
  <i type="int" name="I_CONSTRAINED_M">     0</i>
  <separator name="electronic exchange-correlation" >
   <i type="string" name="GGA">--</i>
   <i type="int" name="VOSKOWN">     0</i>
   <i type="logical" name="LHFCALC"> F  </i>
   <i type="string" name="PRECFOCK"></i>
   <i type="logical" name="LSYMGRAD"> F  </i>
   <i type="logical" name="LHFONE"> F  </i>
   <i type="logical" name="LRHFCALC"> F  </i>
   <i type="logical" name="LTHOMAS"> F  </i>
   <i type="logical" name="LMODELHF"> F  </i>
   <i name="ENCUT4O">     -1.00000000</i>
   <i type="int" name="EXXOEP">     0</i>
   <i type="int" name="FOURORBIT">     0</i>
   <i name="AEXX">      0.00000000</i>
   <i name="HFALPHA">      0.00000000</i>
   <i name="MCALPHA">      0.00000000</i>
   <i name="ALDAX">      1.00000000</i>
   <i name="AGGAX">      1.00000000</i>
   <i name="ALDAC">      1.00000000</i>
   <i name="AGGAC">      1.00000000</i>
   <i type="int" name="NKREDX">     1</i>
   <i type="int" name="NKREDY">     1</i>
   <i type="int" name="NKREDZ">     1</i>
   <i type="logical" name="SHIFTRED"> F  </i>
   <i type="logical" name="ODDONLY"> F  </i>
   <i type="logical" name="EVENONLY"> F  </i>
   <i type="int" name="LMAXFOCK">     0</i>
   <i type="int" name="NMAXFOCKAE">     0</i>
   <i type="logical" name="LFOCKAEDFT"> F  </i>
   <i name="HFSCREEN">      0.00000000</i>
   <i name="HFSCREENC">      0.00000000</i>
   <i type="int" name="NBANDSGWLOW">     0</i>
  </separator>
  <separator name="vdW DFT" >
   <i type="logical" name="LUSE_VDW"> F  </i>
   <i name="Zab_VDW">     -0.84910000</i>
   <i name="PARAM1">      0.12340000</i>
   <i name="PARAM2">      1.00000000</i>
   <i name="PARAM3">      0.00000000</i>
  </separator>
  <separator name="model GW" >
   <i type="int" name="MODEL_GW">     0</i>
   <i name="MODEL_EPS0">     58.26239943</i>
   <i name="MODEL_ALPHA">      1.00000000</i>
  </separator>
  <separator name="linear response parameters" >
   <i type="logical" name="LEPSILON"> F  </i>
   <i type="logical" name="LRPA"> F  </i>
   <i type="logical" name="LNABLA"> F  </i>
   <i type="logical" name="LVEL"> F  </i>
   <i type="int" name="KINTER">     0</i>
   <i name="CSHIFT">      0.10000000</i>
   <i name="OMEGAMAX">     -1.00000000</i>
   <i name="DEG_THRESHOLD">      0.00200000</i>
  </separator>
  <separator name="orbital magnetization" >
   <i type="logical" name="NUCIND"> F  </i>
   <v name="MAGPOS">      0.00000000      0.00000000      0.00000000</v>
   <i type="logical" name="LNICSALL"> T  </i>
   <i type="logical" name="ORBITALMAG"> F  </i>
   <i type="logical" name="LMAGBLOCH"> F  </i>
   <i type="logical" name="LCHIMAG"> F  </i>
   <i type="logical" name="LGAUGE"> T  </i>
   <i type="int" name="MAGATOM">     0</i>
   <v name="MAGDIPOL">      0.00000000      0.00000000      0.00000000</v>
   <v name="AVECCONST">      0.00000000      0.00000000      0.00000000</v>
  </separator>
  <separator name="response functions" >
   <i type="logical" name="LADDER"> F  </i>
   <i type="logical" name="LFXC"> F  </i>
   <i type="logical" name="LHARTREE"> T  </i>
   <i type="int" name="IBSE">     0</i>
   <v type="int" name="KPOINT">    -1     0     0     0</v>
   <i type="logical" name="LTCTE"> F  </i>
   <i type="logical" name="LTETE"> F  </i>
   <i type="logical" name="LTRIPLET"> F  </i>
   <i type="logical" name="LFXCEPS"> F  </i>
   <i type="logical" name="LFXHEG"> F  </i>
   <i type="int" name="NATURALO">     0</i>
   <i type="logical" name="L2ORDER"> F  </i>
   <i type="logical" name="LUSEW"> F  </i>
   <i name="ENCUTGW">     -2.00000000</i>
   <i name="ENCUTGWSOFT">     -2.00000000</i>
   <i name="ENCUTLF">     -1.00000000</i>
   <i type="int" name="LMAXMP2">    -1</i>
   <i name="SCISSOR">      0.00000000</i>
   <i type="int" name="NOMEGA">     0</i>
   <i type="int" name="NOMEGAR">     0</i>
   <i type="int" name="NBANDSGW">    -1</i>
   <i type="int" name="NBANDSO">    -1</i>
   <i type="int" name="NBANDSV">    -1</i>
   <i type="int" name="NELM">     1</i>
   <i type="int" name="NELMHF">     1</i>
   <i type="int" name="DIM">     3</i>
   <i type="int" name="ANTIRES">     0</i>
   <i name="OMEGAMAX">    -30.00000000</i>
   <i name="OMEGAMIN">    -30.00000000</i>
   <i name="OMEGATL">   -200.00000000</i>
   <i type="int" name="OMEGAGRID">     0</i>
   <i name="CSHIFT">     -0.10000000</i>
   <i type="logical" name="SELFENERGY"> F  </i>
   <i type="logical" name="LSPECTRAL"> F  </i>
   <i type="logical" name="LSPECTRALGW"> F  </i>
   <i type="logical" name="LSINGLES"> F  </i>
   <i type="logical" name="LFERMIGW"> F  </i>
   <i type="logical" name="ODDONLYGW"> F  </i>
   <i type="logical" name="EVENONLYGW"> F  </i>
   <i type="int" name="NKREDLFX">     1</i>
   <i type="int" name="NKREDLFY">     1</i>
   <i type="int" name="NKREDLFZ">     1</i>
   <i type="int" name="MAXMEM">  1800</i>
   <i type="int" name="TELESCOPE">     0</i>
   <i type="int" name="TAUPAR">     1</i>
   <i type="int" name="OMEGAPAR">    -1</i>
   <i name="LAMBDA">      1.00000000</i>
  </separator>
  <separator name="External order field" >
   <i name="OFIELD_KAPPA">      0.00000000</i>
   <v name="OFIELD_K">      0.00000000      0.00000000      0.00000000</v>
   <i name="OFIELD_Q6_NEAR">      0.00000000</i>
   <i name="OFIELD_Q6_FAR">      0.00000000</i>
   <i name="OFIELD_A">      0.00000000</i>
  </separator>
 </parameters>
 <atominfo>
  <atoms>      27 </atoms>
  <types>       4 </types>
  <array name="atoms" >
   <dimension dim="1">ion</dimension>
   <field type="string">element</field>
   <field type="int">atomtype</field>
   <set>
    <rc><c>V </c><c>   1</c></rc>
    <rc><c>V </c><c>   1</c></rc>
    <rc><c>V </c><c>   1</c></rc>
    <rc><c>Mo</c><c>   2</c></rc>
    <rc><c>Mo</c><c>   2</c></rc>
    <rc><c>Mo</c><c>   2</c></rc>
    <rc><c>W </c><c>   3</c></rc>
    <rc><c>W </c><c>   3</c></rc>
    <rc><c>W </c><c>   3</c></rc>
    <rc><c>S </c><c>   4</c></rc>
    <rc><c>S </c><c>   4</c></rc>
    <rc><c>S </c><c>   4</c></rc>
    <rc><c>S </c><c>   4</c></rc>
    <rc><c>S </c><c>   4</c></rc>
    <rc><c>S </c><c>   4</c></rc>
    <rc><c>S </c><c>   4</c></rc>
    <rc><c>S </c><c>   4</c></rc>
    <rc><c>S </c><c>   4</c></rc>
    <rc><c>S </c><c>   4</c></rc>
    <rc><c>S </c><c>   4</c></rc>
    <rc><c>S </c><c>   4</c></rc>
    <rc><c>S </c><c>   4</c></rc>
    <rc><c>S </c><c>   4</c></rc>
    <rc><c>S </c><c>   4</c></rc>
    <rc><c>S </c><c>   4</c></rc>
    <rc><c>S </c><c>   4</c></rc>
    <rc><c>S </c><c>   4</c></rc>
   </set>
  </array>
  <array name="atomtypes" >
   <dimension dim="1">type</dimension>
   <field type="int">atomspertype</field>
   <field type="string">element</field>
   <field>mass</field>
   <field>valence</field>
   <field type="string">pseudopotential</field>
   <set>
    <rc><c>   3</c><c>V </c><c>     50.94100000</c><c>      5.00000000</c><c> PAW_PBE V 08Apr2002                    </c></rc>
    <rc><c>   3</c><c>Mo</c><c>     95.94000000</c><c>      6.00000000</c><c> PAW_PBE Mo 08Apr2002                   </c></rc>
    <rc><c>   3</c><c>W </c><c>    183.85000000</c><c>      6.00000000</c><c> PAW_PBE W 08Apr2002                    </c></rc>
    <rc><c>  18</c><c>S </c><c>     32.06600000</c><c>      6.00000000</c><c>  PAW_PBE S 17Jan2003                   </c></rc>
   </set>
  </array>
 </atominfo>
 <structure name="initialpos" >
  <crystal>
   <varray name="basis" >
    <v>       8.66999996       5.03999989       0.00000000 </v>
    <v>      -8.66999982       5.04000013       0.00000000 </v>
    <v>       0.00000000       0.00000000      30.00000000 </v>
   </varray>
   <i name="volume">   2621.80797419 </i>
   <varray name="rec_basis" >
    <v>       0.05767013       0.09920635       0.00000000 </v>
    <v>      -0.05767013       0.09920635       0.00000000 </v>
    <v>       0.00000000       0.00000000       0.03333333 </v>
   </varray>
  </crystal>
  <varray name="positions" >
   <v>       0.33333334       0.00000000       0.00000000 </v>
   <v>       0.33333334       0.66666669       0.00000000 </v>
   <v>       1.00000000       0.33333334       0.00000000 </v>
   <v>       0.66666669       0.00000000       0.00000000 </v>
   <v>       0.00000000       0.66666669       0.00000000 </v>
   <v>       0.66666669       0.66666669       0.00000000 </v>
   <v>       0.00000000       0.00000000       0.00000000 </v>
   <v>       0.33333334       0.33333334       0.00000000 </v>
   <v>       0.66666669       0.33333334       0.00000000 </v>
   <v>       0.11068511       0.22244981       0.95539999 </v>
   <v>       0.22244981       0.11068511       0.04460000 </v>
   <v>       0.11068511       0.55578315       0.95539999 </v>
   <v>       0.22244981       0.44401845       0.04460000 </v>
   <v>       0.11068511       0.88911647       0.95539999 </v>
   <v>       0.22244981       0.77735180       0.04460000 </v>
   <v>       0.44401845       0.22244981       0.95539999 </v>
   <v>       0.55578315       0.11068511       0.04460000 </v>
   <v>       0.44401845       0.55578315       0.95539999 </v>
   <v>       0.55578315       0.44401845       0.04460000 </v>
   <v>       0.44401845       0.88911647       0.95539999 </v>
   <v>       0.55578315       0.77735180       0.04460000 </v>
   <v>       0.77735180       0.22244981       0.95539999 </v>
   <v>       0.88911647       0.11068511       0.04460000 </v>
   <v>       0.77735180       0.55578315       0.95539999 </v>
   <v>       0.88911647       0.44401845       0.04460000 </v>
   <v>       0.77735180       0.88911647       0.95539999 </v>
   <v>       0.88911647       0.77735180       0.04460000 </v>
  </varray>
 </structure>
 <calculation>
  <scstep>
   <time name="dav">   22.75   22.81</time>
   <time name="total">   22.80   22.86</time>
   <energy>
    <i name="alphaZ">     81.65567618 </i>
    <i name="ewald">  41890.23011114 </i>
    <i name="hartreedc"> -47722.86570036 </i>
    <i name="XCdc">   -242.92872164 </i>
    <i name="pawpsdc">   3467.42045192 </i>
    <i name="pawaedc">  -2871.19716117 </i>
    <i name="eentropy">     -0.53858792 </i>
    <i name="bandstr">   -238.83226950 </i>
    <i name="atom">   6761.44252427 </i>
    <i name="e_fr_energy">   1124.38632291 </i>
    <i name="e_wo_entrp">   1124.92491084 </i>
    <i name="e_0_energy">   1124.65561687 </i>
   </energy>
  </scstep>
  <scstep>
   <time name="dav">   29.32   29.39</time>
   <time name="total">   29.32   29.40</time>
   <energy>
    <i name="e_fr_energy">     -1.80177157 </i>
    <i name="e_wo_entrp">     -1.61427016 </i>
    <i name="e_0_energy">     -1.70802086 </i>
   </energy>
  </scstep>
  <scstep>
   <time name="dav">   28.72   28.78</time>
   <time name="total">   28.72   28.79</time>
   <energy>
    <i name="e_fr_energy">   -199.67647587 </i>
    <i name="e_wo_entrp">   -199.39856693 </i>
    <i name="e_0_energy">   -199.53752140 </i>
   </energy>
  </scstep>
  <scstep>
   <time name="dav">   30.88   30.95</time>
   <time name="total">   30.88   30.96</time>
   <energy>
    <i name="e_fr_energy">   -208.93093521 </i>
    <i name="e_wo_entrp">   -208.61388971 </i>
    <i name="e_0_energy">   -208.77241246 </i>
   </energy>
  </scstep>
  <scstep>
   <time name="dav">   29.71   29.78</time>
   <time name="total">   30.26   30.34</time>
   <energy>
    <i name="e_fr_energy">   -209.28755177 </i>
    <i name="e_wo_entrp">   -208.97337893 </i>
    <i name="e_0_energy">   -209.13046535 </i>
   </energy>
  </scstep>
  <scstep>
   <time name="dav">   32.89   32.97</time>
   <time name="total">   33.47   33.56</time>
   <energy>
    <i name="e_fr_energy">   -236.80584661 </i>
    <i name="e_wo_entrp">   -236.51850334 </i>
    <i name="e_0_energy">   -236.66217498 </i>
   </energy>
  </scstep>
  <scstep>
   <time name="dav">   33.88   33.96</time>
   <time name="total">   34.48   34.57</time>
   <energy>
    <i name="e_fr_energy">   -196.66081970 </i>
    <i name="e_wo_entrp">   -196.33884603 </i>
    <i name="e_0_energy">   -196.49983286 </i>
   </energy>
  </scstep>
  <scstep>
   <time name="dav">   30.56   30.63</time>
   <time name="total">   31.15   31.23</time>
   <energy>
    <i name="e_fr_energy">   -190.03037512 </i>
    <i name="e_wo_entrp">   -189.75648223 </i>
    <i name="e_0_energy">   -189.89342867 </i>
   </energy>
  </scstep>
  <scstep>
   <time name="dav">   30.39   30.46</time>
   <time name="total">   30.99   31.07</time>
   <energy>
    <i name="e_fr_energy">   -188.23966938 </i>
    <i name="e_wo_entrp">   -187.90118785 </i>
    <i name="e_0_energy">   -188.07042861 </i>
   </energy>
  </scstep>
  <scstep>
   <time name="dav">   33.79   33.87</time>
   <time name="total">   34.40   34.49</time>
   <energy>
    <i name="e_fr_energy">   -187.05629464 </i>
    <i name="e_wo_entrp">   -186.71251897 </i>
    <i name="e_0_energy">   -186.88440680 </i>
   </energy>
  </scstep>
  <scstep>
   <time name="dav">   32.17   32.25</time>
   <time name="total">   32.79   32.88</time>
   <energy>
    <i name="e_fr_energy">   -186.99889601 </i>
    <i name="e_wo_entrp">   -186.64748213 </i>
    <i name="e_0_energy">   -186.82318907 </i>
   </energy>
  </scstep>
  <scstep>
   <time name="dav">   31.63   31.71</time>
   <time name="total">   32.24   32.32</time>
   <energy>
    <i name="e_fr_energy">   -187.08393721 </i>
    <i name="e_wo_entrp">   -186.75008617 </i>
    <i name="e_0_energy">   -186.91701169 </i>
   </energy>
  </scstep>
  <scstep>
   <time name="dav">   33.35   33.43</time>
   <time name="total">   33.97   34.05</time>
   <energy>
    <i name="e_fr_energy">   -186.90906629 </i>
    <i name="e_wo_entrp">   -186.57088756 </i>
    <i name="e_0_energy">   -186.73997693 </i>
   </energy>
  </scstep>
  <scstep>
   <time name="dav">   33.12   33.20</time>
   <time name="total">   33.73   33.82</time>
   <energy>
    <i name="e_fr_energy">   -186.89783094 </i>
    <i name="e_wo_entrp">   -186.55381379 </i>
    <i name="e_0_energy">   -186.72582236 </i>
   </energy>
  </scstep>
  <scstep>
   <time name="dav">   32.40   32.48</time>
   <time name="total">   33.01   33.10</time>
   <energy>
    <i name="e_fr_energy">   -186.87232620 </i>
    <i name="e_wo_entrp">   -186.52558419 </i>
    <i name="e_0_energy">   -186.69895520 </i>
   </energy>
  </scstep>
  <scstep>
   <time name="dav">   32.66   32.74</time>
   <time name="total">   33.28   33.36</time>
   <energy>
    <i name="e_fr_energy">   -186.86784617 </i>
    <i name="e_wo_entrp">   -186.52212892 </i>
    <i name="e_0_energy">   -186.69498755 </i>
   </energy>
  </scstep>
  <scstep>
   <time name="dav">   32.80   32.88</time>
   <time name="total">   33.41   33.50</time>
   <energy>
    <i name="e_fr_energy">   -186.86608977 </i>
    <i name="e_wo_entrp">   -186.52189425 </i>
    <i name="e_0_energy">   -186.69399201 </i>
   </energy>
  </scstep>
  <scstep>
   <time name="dav">   30.31   30.39</time>
   <time name="total">   30.92   31.01</time>
   <energy>
    <i name="e_fr_energy">   -186.86542758 </i>
    <i name="e_wo_entrp">   -186.52107646 </i>
    <i name="e_0_energy">   -186.69325202 </i>
   </energy>
  </scstep>
  <scstep>
   <time name="dav">   26.51   26.57</time>
   <time name="total">   27.12   27.19</time>
   <energy>
    <i name="e_fr_energy">   -186.86530182 </i>
    <i name="e_wo_entrp">   -186.52071172 </i>
    <i name="e_0_energy">   -186.69300677 </i>
   </energy>
  </scstep>
  <scstep>
   <time name="dav">   24.74   24.80</time>
   <time name="total">   25.35   25.42</time>
   <energy>
    <i name="e_fr_energy">   -186.86614681 </i>
    <i name="e_wo_entrp">   -186.52174828 </i>
    <i name="e_0_energy">   -186.69394755 </i>
   </energy>
  </scstep>
  <scstep>
   <time name="dav">   23.05   23.10</time>
   <time name="total">   23.66   23.73</time>
   <energy>
    <i name="e_fr_energy">   -186.86683098 </i>
    <i name="e_wo_entrp">   -186.52250958 </i>
    <i name="e_0_energy">   -186.69467028 </i>
   </energy>
  </scstep>
  <scstep>
   <time name="dav">   21.30   21.35</time>
   <time name="total">   21.91   21.97</time>
   <energy>
    <i name="e_fr_energy">   -186.86785331 </i>
    <i name="e_wo_entrp">   -186.52339813 </i>
    <i name="e_0_energy">   -186.69562572 </i>
   </energy>
  </scstep>
  <scstep>
   <time name="dav">   21.23   21.28</time>
   <time name="total">   21.84   21.90</time>
   <energy>
    <i name="e_fr_energy">   -186.86901408 </i>
    <i name="e_wo_entrp">   -186.52468974 </i>
    <i name="e_0_energy">   -186.69685191 </i>
   </energy>
  </scstep>
  <scstep>
   <time name="dav">   19.93   19.98</time>
   <time name="total">   20.54   20.60</time>
   <energy>
    <i name="e_fr_energy">   -186.86958829 </i>
    <i name="e_wo_entrp">   -186.52521627 </i>
    <i name="e_0_energy">   -186.69740228 </i>
   </energy>
  </scstep>
  <scstep>
   <time name="dav">   17.11   17.16</time>
   <time name="total">   17.73   17.79</time>
   <energy>
    <i name="e_fr_energy">   -186.86995147 </i>
    <i name="e_wo_entrp">   -186.52555826 </i>
    <i name="e_0_energy">   -186.69775486 </i>
   </energy>
  </scstep>
  <scstep>
   <time name="dav">   19.92   19.97</time>
   <time name="total">   20.53   20.59</time>
   <energy>
    <i name="e_fr_energy">   -186.87019531 </i>
    <i name="e_wo_entrp">   -186.52581936 </i>
    <i name="e_0_energy">   -186.69800733 </i>
   </energy>
  </scstep>
  <scstep>
   <time name="dav">   21.08   21.13</time>
   <time name="total">   21.12   21.17</time>
   <energy>
    <i name="alphaZ">     81.65567618 </i>
    <i name="ewald">  41890.23011114 </i>
    <i name="hartreedc"> -47832.99260268 </i>
    <i name="XCdc">   -231.60402425 </i>
    <i name="pawpsdc">   4192.12464183 </i>
    <i name="pawaedc">  -3610.13961572 </i>
    <i name="eentropy">     -0.34438134 </i>
    <i name="bandstr">  -1437.24261436 </i>
    <i name="atom">   6761.44252427 </i>
    <i name="e_fr_energy">   -186.87028493 </i>
    <i name="e_wo_entrp">   -186.52590358 </i>
    <i name="e_0_energy">   -186.69809426 </i>
   </energy>
  </scstep>
  <structure>
   <crystal>
    <varray name="basis" >
     <v>       8.66999996       5.03999989       0.00000000 </v>
     <v>      -8.66999982       5.04000013       0.00000000 </v>
     <v>       0.00000000       0.00000000      30.00000000 </v>
    </varray>
    <i name="volume">   2621.80797419 </i>
    <varray name="rec_basis" >
     <v>       0.05767013       0.09920635       0.00000000 </v>
     <v>      -0.05767013       0.09920635       0.00000000 </v>
     <v>       0.00000000       0.00000000       0.03333333 </v>
    </varray>
   </crystal>
   <varray name="positions" >
    <v>       0.33333334       0.00000000       0.00000000 </v>
    <v>       0.33333334       0.66666669       0.00000000 </v>
    <v>       1.00000000       0.33333334       0.00000000 </v>
    <v>       0.66666669       0.00000000       0.00000000 </v>
    <v>       0.00000000       0.66666669       0.00000000 </v>
    <v>       0.66666669       0.66666669       0.00000000 </v>
    <v>       0.00000000       0.00000000       0.00000000 </v>
    <v>       0.33333334       0.33333334       0.00000000 </v>
    <v>       0.66666669       0.33333334       0.00000000 </v>
    <v>       0.11068511       0.22244981       0.95539999 </v>
    <v>       0.22244981       0.11068511       0.04460000 </v>
    <v>       0.11068511       0.55578315       0.95539999 </v>
    <v>       0.22244981       0.44401845       0.04460000 </v>
    <v>       0.11068511       0.88911647       0.95539999 </v>
    <v>       0.22244981       0.77735180       0.04460000 </v>
    <v>       0.44401845       0.22244981       0.95539999 </v>
    <v>       0.55578315       0.11068511       0.04460000 </v>
    <v>       0.44401845       0.55578315       0.95539999 </v>
    <v>       0.55578315       0.44401845       0.04460000 </v>
    <v>       0.44401845       0.88911647       0.95539999 </v>
    <v>       0.55578315       0.77735180       0.04460000 </v>
    <v>       0.77735180       0.22244981       0.95539999 </v>
    <v>       0.88911647       0.11068511       0.04460000 </v>
    <v>       0.77735180       0.55578315       0.95539999 </v>
    <v>       0.88911647       0.44401845       0.04460000 </v>
    <v>       0.77735180       0.88911647       0.95539999 </v>
    <v>       0.88911647       0.77735180       0.04460000 </v>
   </varray>
  </structure>
  <varray name="forces" >
   <v>       0.28550310      -0.15118603      -0.08098450 </v>
   <v>      -0.08436823       0.19468584      -0.01360434 </v>
   <v>      -0.22485799      -0.02489624       0.06404100 </v>
   <v>       0.26062520      -0.18681116       0.02533280 </v>
   <v>      -0.16804961      -0.11267831      -0.04985334 </v>
   <v>      -0.01803468       0.28450584       0.02625573 </v>
   <v>      -0.00751861      -0.61703233       0.12861351 </v>
   <v>      -0.09145677       0.30618001       0.02824637 </v>
   <v>       0.05841122       0.28776597      -0.10968933 </v>
   <v>      -0.59230303       0.01388518      -2.06496002 </v>
   <v>       0.58177827      -0.00252072       2.07064960 </v>
   <v>       0.88921687      -0.00294018      -1.43657132 </v>
   <v>      -0.73683270      -0.02462293       1.48308362 </v>
   <v>       0.39208842       0.72874610      -2.16385159 </v>
   <v>       0.32352265       0.66677083       1.42371735 </v>
   <v>       0.48218033      -0.58474205      -2.19507304 </v>
   <v>      -0.60904123      -0.55267212       2.10357479 </v>
   <v>      -0.65059922      -0.14542044      -2.11335690 </v>
   <v>      -0.08131623      -0.11666856       2.89125379 </v>
   <v>      -0.34381082      -0.67196268      -1.44733516 </v>
   <v>      -0.52393073      -0.69274258       2.14794849 </v>
   <v>       0.34422859       0.68735626      -2.14859139 </v>
   <v>      -0.35740485       0.73052167       2.17705070 </v>
   <v>       0.20220595      -0.17736936      -2.89553962 </v>
   <v>       0.69427779      -0.13877011       2.14826191 </v>
   <v>       0.19495485       0.13312298      -2.93515155 </v>
   <v>      -0.21946853       0.16949512       2.93653244 </v>
  </varray>
  <varray name="stress" >
   <v>       7.29404743       0.09681769      -1.50678652 </v>
   <v>       0.09681792       4.46907401       0.04750154 </v>
   <v>      -1.50678639       0.04750162      30.29950841 </v>
  </varray>
  <energy>
   <i name="e_fr_energy">   -186.87028493 </i>
   <i name="e_wo_entrp">   -186.69809426 </i>
   <i name="e_0_energy">     -0.34438134 </i>
  </energy>
  <time name="totalsc">  813.15  815.32</time>
 </calculation>
 <calculation>
  <scstep>
   <time name="dav">   22.75   22.81</time>
   <time name="total">   23.37   23.43</time>
   <energy>
    <i name="alphaZ">     78.91935214 </i>
    <i name="ewald">  39378.96605053 </i>
    <i name="hartreedc"> -45336.44927570 </i>
    <i name="XCdc">   -239.06233031 </i>
    <i name="pawpsdc">   4192.10647024 </i>
    <i name="pawaedc">  -3610.12157666 </i>
    <i name="eentropy">     -0.28525731 </i>
    <i name="bandstr">  -1413.02175199 </i>
    <i name="atom">   6761.44252427 </i>
    <i name="e_fr_energy">   -187.50579477 </i>
    <i name="e_wo_entrp">   -187.22053747 </i>
    <i name="e_0_energy">   -187.36316612 </i>
   </energy>
  </scstep>
  <scstep>
   <time name="dav">   31.59   31.67</time>
   <time name="total">   32.21   32.29</time>
   <energy>
    <i name="e_fr_energy">   -189.49823496 </i>
    <i name="e_wo_entrp">   -189.16453208 </i>
    <i name="e_0_energy">   -189.33138352 </i>
   </energy>
  </scstep>
  <scstep>
   <time name="dav">   31.71   31.78</time>
   <time name="total">   32.33   32.42</time>
   <energy>
    <i name="e_fr_energy">   -189.35548891 </i>
    <i name="e_wo_entrp">   -189.07634394 </i>
    <i name="e_0_energy">   -189.21591643 </i>
   </energy>
  </scstep>
  <scstep>
   <time name="dav">   31.79   31.87</time>
   <time name="total">   32.41   32.50</time>
   <energy>
    <i name="e_fr_energy">   -188.79479245 </i>
    <i name="e_wo_entrp">   -188.50974848 </i>
    <i name="e_0_energy">   -188.65227047 </i>
   </energy>
  </scstep>
  <scstep>
   <time name="dav">   29.80   29.87</time>
   <time name="total">   30.41   30.50</time>
   <energy>
    <i name="e_fr_energy">   -188.86819641 </i>
    <i name="e_wo_entrp">   -188.57798610 </i>
    <i name="e_0_energy">   -188.72309125 </i>
   </energy>
  </scstep>
  <scstep>
   <time name="dav">   32.25   32.33</time>
   <time name="total">   32.87   32.96</time>
   <energy>
    <i name="e_fr_energy">   -188.78273773 </i>
    <i name="e_wo_entrp">   -188.49514069 </i>
    <i name="e_0_energy">   -188.63893921 </i>
   </energy>
  </scstep>
  <scstep>
   <time name="dav">   30.12   30.20</time>
   <time name="total">   30.75   30.83</time>
   <energy>
    <i name="e_fr_energy">   -188.70001042 </i>
    <i name="e_wo_entrp">   -188.41491849 </i>
    <i name="e_0_energy">   -188.55746446 </i>
   </energy>
  </scstep>
  <scstep>
   <time name="dav">   30.04   30.11</time>
   <time name="total">   30.67   30.75</time>
   <energy>
    <i name="e_fr_energy">   -188.68308777 </i>
    <i name="e_wo_entrp">   -188.39940799 </i>
    <i name="e_0_energy">   -188.54124788 </i>
   </energy>
  </scstep>
  <scstep>
   <time name="dav">   29.98   30.05</time>
   <time name="total">   30.60   30.68</time>
   <energy>
    <i name="e_fr_energy">   -188.68022626 </i>
    <i name="e_wo_entrp">   -188.39652094 </i>
    <i name="e_0_energy">   -188.53837360 </i>
   </energy>
  </scstep>
  <scstep>
   <time name="dav">   30.38   30.46</time>
   <time name="total">   31.01   31.09</time>
   <energy>
    <i name="e_fr_energy">   -188.67598190 </i>
    <i name="e_wo_entrp">   -188.39236742 </i>
    <i name="e_0_energy">   -188.53417466 </i>
   </energy>
  </scstep>
  <scstep>
   <time name="dav">   33.36   33.44</time>
   <time name="total">   33.98   34.07</time>
   <energy>
    <i name="e_fr_energy">   -188.67535231 </i>
    <i name="e_wo_entrp">   -188.39237771 </i>
    <i name="e_0_energy">   -188.53386501 </i>
   </energy>
  </scstep>
  <scstep>
   <time name="dav">   31.22   31.30</time>
   <time name="total">   31.85   31.93</time>
   <energy>
    <i name="e_fr_energy">   -188.67519030 </i>
    <i name="e_wo_entrp">   -188.39259469 </i>
    <i name="e_0_energy">   -188.53389249 </i>
   </energy>
  </scstep>
  <scstep>
   <time name="dav">   21.95   22.00</time>
   <time name="total">   21.99   22.05</time>
   <energy>
    <i name="alphaZ">     78.91935214 </i>
    <i name="ewald">  39378.96605053 </i>
    <i name="hartreedc"> -45347.21040459 </i>
    <i name="XCdc">   -237.97582657 </i>
    <i name="pawpsdc">   3950.41319346 </i>
    <i name="pawaedc">  -3364.92499070 </i>
    <i name="eentropy">     -0.28278808 </i>
    <i name="bandstr">  -1408.02233363 </i>
    <i name="atom">   6761.44252427 </i>
    <i name="e_fr_energy">   -188.67522316 </i>
    <i name="e_wo_entrp">   -188.39243508 </i>
    <i name="e_0_energy">   -188.53382912 </i>
   </energy>
  </scstep>
  <structure>
   <crystal>
    <varray name="basis" >
     <v>       8.85633032       5.10831180       0.00000000 </v>
     <v>      -8.85347670       5.10340340       0.00000000 </v>
     <v>       0.00000000       0.00000000      30.00000000 </v>
    </varray>
    <i name="volume">   2712.71237194 </i>
    <varray name="rec_basis" >
     <v>       0.05643875       0.09791097       0.00000000 </v>
     <v>      -0.05649303       0.09794253       0.00000000 </v>
     <v>       0.00000000       0.00000000       0.03333333 </v>
    </varray>
   </crystal>
   <varray name="positions" >
    <v>       0.33340409      -0.00151789      -0.00013023 </v>
    <v>       0.33403038       0.66783317      -0.00002188 </v>
    <v>       0.99925526       0.33383978       0.00010298 </v>
    <v>       0.66649771      -0.00161918       0.00004074 </v>
    <v>      -0.00100682       0.66659495      -0.00008017 </v>
    <v>       0.66797815       0.66807850       0.00004222 </v>
    <v>      -0.00297402      -0.00293218       0.00020682 </v>
    <v>       0.33454427       0.33505316       0.00004542 </v>
    <v>       0.66820644       0.33454808      -0.00017639 </v>
    <v>       0.10910368       0.22416415       0.95207935 </v>
    <v>       0.22405635       0.10905445       0.04792979 </v>
    <v>       0.11314498       0.55329514       0.95308986 </v>
    <v>       0.22028198       0.44595060       0.04698493 </v>
    <v>       0.11526373       0.89151338       0.95192033 </v>
    <v>       0.22654105       0.77964286       0.04688946 </v>
    <v>       0.44256139       0.21830974       0.95187012 </v>
    <v>       0.55144363       0.10973448       0.04798273 </v>
    <v>       0.44151240       0.55689724       0.95200153 </v>
    <v>       0.55499854       0.44368632       0.04924939 </v>
    <v>       0.43984592       0.88685700       0.95307255 </v>
    <v>       0.55101004       0.77549401       0.04805409 </v>
    <v>       0.78159917       0.22478178       0.95194487 </v>
    <v>       0.89161837       0.11517573       0.04810089 </v>
    <v>       0.77706548       0.55437170       0.95074371 </v>
    <v>       0.89038391       0.44142271       0.04805459 </v>
    <v>       0.77853132       0.88921119       0.95068001 </v>
    <v>       0.88931707       0.77877359       0.04932220 </v>
   </varray>
  </structure>
  <varray name="forces" >
   <v>       0.18616452      -0.07190862       0.05158456 </v>
   <v>      -0.02707442       0.16106057      -0.00134465 </v>
   <v>      -0.19353694      -0.05809870      -0.07264795 </v>
   <v>       0.39116912      -0.07041048       0.08483700 </v>
   <v>      -0.41353158      -0.24405228      -0.08128964 </v>
   <v>       0.11018247       0.39972381       0.00969830 </v>
   <v>      -0.02222545      -0.72902443       0.03358242 </v>
   <v>       0.07108485       0.34914735      -0.01198676 </v>
   <v>      -0.10948867       0.26315096      -0.04021032 </v>
   <v>       0.09936231       0.00322250       0.27114595 </v>
   <v>      -0.09473392      -0.00178166      -0.23121270 </v>
   <v>       0.03146545       0.00829682       0.16163212 </v>
   <v>       0.09461400       0.00748079      -0.12623894 </v>
   <v>      -0.11744300       0.05874117       0.03345423 </v>
   <v>       0.01637073       0.02757456      -0.08823460 </v>
   <v>      -0.04490991       0.06277648       0.10640419 </v>
   <v>      -0.07905233       0.05532017      -0.16571545 </v>
   <v>       0.01849292      -0.10258188       0.01359372 </v>
   <v>       0.06996674      -0.08390547       0.00061801 </v>
   <v>       0.00583358      -0.05591793      -0.03175123 </v>
   <v>      -0.04043146      -0.07883487       0.07285058 </v>
   <v>      -0.10244718       0.05107528       0.05489830 </v>
   <v>       0.11868054       0.05748394       0.00448662 </v>
   <v>       0.04077673      -0.12059782      -0.17573820 </v>
   <v>      -0.00885688      -0.09755958       0.07553352 </v>
   <v>       0.06291328       0.10328958      -0.22650670 </v>
   <v>      -0.06334550       0.10632970       0.27855763 </v>
  </varray>
  <varray name="stress" >
   <v>     -19.90476744      -0.01817767       0.01131894 </v>
   <v>      -0.01817784     -19.50034670      -0.02034033 </v>
   <v>       0.01131894      -0.02034022      -1.74822124 </v>
  </varray>
  <energy>
   <i name="e_fr_energy">   -188.67522316 </i>
   <i name="e_wo_entrp">   -188.53382912 </i>
   <i name="e_0_energy">     -0.28278808 </i>
  </energy>
  <time name="totalsc">  437.85  439.00</time>
 </calculation>
 <calculation>
  <scstep>
   <time name="dav">   24.77   24.83</time>
   <time name="total">   25.39   25.45</time>
   <energy>
    <i name="alphaZ">     82.33972642 </i>
    <i name="ewald">  41300.33752105 </i>
    <i name="hartreedc"> -47299.12999556 </i>
    <i name="XCdc">   -233.85602731 </i>
    <i name="pawpsdc">   3949.96326170 </i>
    <i name="pawaedc">  -3364.47057821 </i>
    <i name="eentropy">     -0.23718414 </i>
    <i name="bandstr">  -1386.98383524 </i>
    <i name="atom">   6761.44252427 </i>
    <i name="e_fr_energy">   -190.59458701 </i>
    <i name="e_wo_entrp">   -190.35740287 </i>
    <i name="e_0_energy">   -190.47599494 </i>
   </energy>
  </scstep>
  <scstep>
   <time name="dav">   29.14   29.21</time>
   <time name="total">   29.74   29.82</time>
   <energy>
    <i name="e_fr_energy">   -190.55951932 </i>
    <i name="e_wo_entrp">   -190.31603675 </i>
    <i name="e_0_energy">   -190.43777804 </i>
   </energy>
  </scstep>
  <scstep>
   <time name="dav">   31.61   31.69</time>
   <time name="total">   32.22   32.31</time>
   <energy>
    <i name="e_fr_energy">   -190.07911658 </i>
    <i name="e_wo_entrp">   -189.82833220 </i>
    <i name="e_0_energy">   -189.95372439 </i>
   </energy>
  </scstep>
  <scstep>
   <time name="dav">   32.47   32.54</time>
   <time name="total">   33.08   33.17</time>
   <energy>
    <i name="e_fr_energy">   -189.87514408 </i>
    <i name="e_wo_entrp">   -189.63591775 </i>
    <i name="e_0_energy">   -189.75553092 </i>
   </energy>
  </scstep>
  <scstep>
   <time name="dav">   31.44   31.52</time>
   <time name="total">   32.05   32.14</time>
   <energy>
    <i name="e_fr_energy">   -189.91457958 </i>
    <i name="e_wo_entrp">   -189.66793847 </i>
    <i name="e_0_energy">   -189.79125903 </i>
   </energy>
  </scstep>
  <scstep>
   <time name="dav">   31.51   31.58</time>
   <time name="total">   32.12   32.20</time>
   <energy>
    <i name="e_fr_energy">   -189.77095687 </i>
    <i name="e_wo_entrp">   -189.53075097 </i>
    <i name="e_0_energy">   -189.65085392 </i>
   </energy>
  </scstep>
  <scstep>
   <time name="dav">   31.52   31.60</time>
   <time name="total">   32.13   32.21</time>
   <energy>
    <i name="e_fr_energy">   -189.76441990 </i>
    <i name="e_wo_entrp">   -189.52412874 </i>
    <i name="e_0_energy">   -189.64427432 </i>
   </energy>
  </scstep>
  <scstep>
   <time name="dav">   30.48   30.55</time>
   <time name="total">   31.09   31.17</time>
   <energy>
    <i name="e_fr_energy">   -189.76511264 </i>
    <i name="e_wo_entrp">   -189.52486711 </i>
    <i name="e_0_energy">   -189.64498987 </i>
   </energy>
  </scstep>
  <scstep>
   <time name="dav">   27.28   27.34</time>
   <time name="total">   27.89   27.97</time>
   <energy>
    <i name="e_fr_energy">   -189.76448815 </i>
    <i name="e_wo_entrp">   -189.52425835 </i>
    <i name="e_0_energy">   -189.64437325 </i>
   </energy>
  </scstep>
  <scstep>
   <time name="dav">   26.55   26.62</time>
   <time name="total">   27.16   27.24</time>
   <energy>
    <i name="e_fr_energy">   -189.76463923 </i>
    <i name="e_wo_entrp">   -189.52427652 </i>
    <i name="e_0_energy">   -189.64445787 </i>
   </energy>
  </scstep>
  <scstep>
   <time name="dav">   24.11   24.17</time>
   <time name="total">   24.72   24.79</time>
   <energy>
    <i name="e_fr_energy">   -189.76445645 </i>
    <i name="e_wo_entrp">   -189.52412178 </i>
    <i name="e_0_energy">   -189.64428912 </i>
   </energy>
  </scstep>
  <scstep>
   <time name="dav">   21.20   21.25</time>
   <time name="total">   21.24   21.30</time>
   <energy>
    <i name="alphaZ">     82.33972642 </i>
    <i name="ewald">  41300.33752105 </i>
    <i name="hartreedc"> -47272.60525775 </i>
    <i name="XCdc">   -235.24663271 </i>
    <i name="pawpsdc">   4038.77007564 </i>
    <i name="pawaedc">  -3454.47616361 </i>
    <i name="eentropy">     -0.24031708 </i>
    <i name="bandstr">  -1410.08595285 </i>
    <i name="atom">   6761.44252427 </i>
    <i name="e_fr_energy">   -189.76447663 </i>
    <i name="e_wo_entrp">   -189.52415954 </i>
    <i name="e_0_energy">   -189.64431809 </i>
   </energy>
  </scstep>
  <structure>
   <crystal>
    <varray name="basis" >
     <v>       8.66842772       5.00201646       0.00000000 </v>
     <v>      -8.66583237       4.99755299       0.00000000 </v>
     <v>       0.00000000       0.00000000      30.00000000 </v>
    </varray>
    <i name="volume">   2600.02689153 </i>
    <varray name="rec_basis" >
     <v>       0.05766348       0.09998934       0.00000000 </v>
     <v>      -0.05771498       0.10001929       0.00000000 </v>
     <v>       0.00000000       0.00000000       0.03333333 </v>
    </varray>
   </crystal>
   <varray name="positions" >
    <v>       0.33346297      -0.00181621      -0.00010102 </v>
    <v>       0.33427233       0.66812715      -0.00002264 </v>
    <v>       0.99897305       0.33392886       0.00006184 </v>
    <v>       0.66675566      -0.00211176       0.00008878 </v>
    <v>      -0.00180928       0.66658575      -0.00012620 </v>
    <v>       0.66874869       0.66863787       0.00004771 </v>
    <v>      -0.00420799      -0.00412390       0.00022584 </v>
    <v>       0.33519319       0.33556589       0.00003863 </v>
    <v>       0.66853918       0.33509102      -0.00019916 </v>
    <v>       0.10920431       0.22407414       0.95223290 </v>
    <v>       0.22396255       0.10914240       0.04779885 </v>
    <v>       0.11318895       0.55327874       0.95318139 </v>
    <v>       0.22038514       0.44587224       0.04691344 </v>
    <v>       0.11524883       0.89172383       0.95193927 </v>
    <v>       0.22660262       0.77967303       0.04683950 </v>
    <v>       0.44262276       0.21845730       0.95193037 </v>
    <v>       0.55145985       0.10990240       0.04788889 </v>
    <v>       0.44135950       0.55670881       0.95200922 </v>
    <v>       0.55492606       0.44347955       0.04924974 </v>
    <v>       0.43975850       0.88675836       0.95305457 </v>
    <v>       0.55084014       0.77540163       0.04809534 </v>
    <v>       0.78158590       0.22496509       0.95197595 </v>
    <v>       0.89182778       0.11515747       0.04810343 </v>
    <v>       0.77690398       0.55413190       0.95064419 </v>
    <v>       0.89021314       0.44126888       0.04809737 </v>
    <v>       0.77876345       0.88932268       0.95055174 </v>
    <v>       0.88943320       0.77901131       0.04947995 </v>
   </varray>
  </structure>
  <varray name="forces" >
   <v>       0.13986516      -0.03378609       0.07282646 </v>
   <v>       0.00351911       0.15188939       0.00199639 </v>
   <v>      -0.19664444      -0.08720079      -0.08632305 </v>
   <v>       0.42271258      -0.03166228       0.07705191 </v>
   <v>      -0.48765246      -0.29210653      -0.06280385 </v>
   <v>       0.16454188       0.43086575       0.00305592 </v>
   <v>      -0.02256899      -0.74799866      -0.00218810 </v>
   <v>       0.12934776       0.34869588      -0.02073070 </v>
   <v>      -0.16481858       0.25350701      -0.00585494 </v>
   <v>      -0.02516168      -0.01235175      -0.19771659 </v>
   <v>       0.03845542      -0.01348096       0.24574448 </v>
   <v>       0.09588069       0.01547151      -0.27517373 </v>
   <v>      -0.07389930       0.01223239       0.33863152 </v>
   <v>      -0.01275616       0.11836245      -0.46259051 </v>
   <v>       0.04584826       0.06915769       0.34700448 </v>
   <v>       0.04149475      -0.06021984      -0.40910799 </v>
   <v>      -0.07256938      -0.05788642       0.30602041 </v>
   <v>      -0.09674575      -0.00796569      -0.48906280 </v>
   <v>       0.03933430      -0.00067082       0.56290661 </v>
   <v>      -0.02092389      -0.11066494      -0.48939496 </v>
   <v>      -0.06912921      -0.15212962       0.56874476 </v>
   <v>       0.02205988       0.09807552      -0.43717340 </v>
   <v>       0.00390784       0.12438306       0.51424434 </v>
   <v>      -0.00947547      -0.05033934      -0.74893210 </v>
   <v>       0.09367026      -0.01990277       0.57944298 </v>
   <v>       0.02219575       0.03080626      -0.80183609 </v>
   <v>      -0.01048834       0.02491960       0.87121853 </v>
  </varray>
  <varray name="stress" >
   <v>     -10.14569870      -0.02142120      -0.01399268 </v>
   <v>      -0.02142121      -9.85379204      -0.03880162 </v>
   <v>      -0.01399272      -0.03880176       6.48737090 </v>
  </varray>
  <energy>
   <i name="e_fr_energy">   -189.76447663 </i>
   <i name="e_wo_entrp">   -189.64431809 </i>
   <i name="e_0_energy">     -0.24031708 </i>
  </energy>
  <time name="totalsc">  392.50  393.54</time>
 </calculation>
 <calculation>
  <scstep>
   <time name="dav">   22.72   22.77</time>
   <time name="total">   23.32   23.38</time>
   <energy>
    <i name="alphaZ">     85.81940989 </i>
    <i name="ewald">  42832.49620619 </i>
    <i name="hartreedc"> -48849.23699483 </i>
    <i name="XCdc">   -232.95852895 </i>
    <i name="pawpsdc">   4038.81524093 </i>
    <i name="pawaedc">  -3454.51888757 </i>
    <i name="eentropy">     -0.20362349 </i>
    <i name="bandstr">  -1372.98903975 </i>
    <i name="atom">   6761.44252427 </i>
    <i name="e_fr_energy">   -191.33369330 </i>
    <i name="e_wo_entrp">   -191.13006981 </i>
    <i name="e_0_energy">   -191.23188156 </i>
   </energy>
  </scstep>
  <scstep>
   <time name="dav">   33.50   33.58</time>
   <time name="total">   34.10   34.19</time>
   <energy>
    <i name="e_fr_energy">   -191.17977848 </i>
    <i name="e_wo_entrp">   -190.97034570 </i>
    <i name="e_0_energy">   -191.07506209 </i>
   </energy>
  </scstep>
  <scstep>
   <time name="dav">   31.43   31.51</time>
   <time name="total">   32.03   32.12</time>
   <energy>
    <i name="e_fr_energy">   -191.27849423 </i>
    <i name="e_wo_entrp">   -191.05737622 </i>
    <i name="e_0_energy">   -191.16793523 </i>
   </energy>
  </scstep>
  <scstep>
   <time name="dav">   32.98   33.06</time>
   <time name="total">   33.58   33.67</time>
   <energy>
    <i name="e_fr_energy">   -190.88042838 </i>
    <i name="e_wo_entrp">   -190.67318365 </i>
    <i name="e_0_energy">   -190.77680601 </i>
   </energy>
  </scstep>
  <scstep>
   <time name="dav">   31.44   31.51</time>
   <time name="total">   32.04   32.12</time>
   <energy>
    <i name="e_fr_energy">   -190.80531692 </i>
    <i name="e_wo_entrp">   -190.59491453 </i>
    <i name="e_0_energy">   -190.70011572 </i>
   </energy>
  </scstep>
  <scstep>
   <time name="dav">   32.06   32.13</time>
   <time name="total">   32.66   32.74</time>
   <energy>
    <i name="e_fr_energy">   -190.77228859 </i>
    <i name="e_wo_entrp">   -190.56159379 </i>
    <i name="e_0_energy">   -190.66694119 </i>
   </energy>
  </scstep>
  <scstep>
   <time name="dav">   30.51   30.58</time>
   <time name="total">   31.11   31.19</time>
   <energy>
    <i name="e_fr_energy">   -190.75294143 </i>
    <i name="e_wo_entrp">   -190.54304863 </i>
    <i name="e_0_energy">   -190.64799503 </i>
   </energy>
  </scstep>
  <scstep>
   <time name="dav">   29.06   29.13</time>
   <time name="total">   29.66   29.74</time>
   <energy>
    <i name="e_fr_energy">   -190.74981005 </i>
    <i name="e_wo_entrp">   -190.53986663 </i>
    <i name="e_0_energy">   -190.64483834 </i>
   </energy>
  </scstep>
  <scstep>
   <time name="dav">   28.89   28.95</time>
   <time name="total">   29.49   29.57</time>
   <energy>
    <i name="e_fr_energy">   -190.74958759 </i>
    <i name="e_wo_entrp">   -190.53966296 </i>
    <i name="e_0_energy">   -190.64462528 </i>
   </energy>
  </scstep>
  <scstep>
   <time name="dav">   29.40   29.47</time>
   <time name="total">   30.00   30.08</time>
   <energy>
    <i name="e_fr_energy">   -190.74966410 </i>
    <i name="e_wo_entrp">   -190.53949375 </i>
    <i name="e_0_energy">   -190.64457893 </i>
   </energy>
  </scstep>
  <scstep>
   <time name="dav">   26.76   26.83</time>
   <time name="total">   27.37   27.44</time>
   <energy>
    <i name="e_fr_energy">   -190.74943226 </i>
    <i name="e_wo_entrp">   -190.53952052 </i>
    <i name="e_0_energy">   -190.64447639 </i>
   </energy>
  </scstep>
  <scstep>
   <time name="dav">   21.29   21.34</time>
   <time name="total">   21.33   21.38</time>
   <energy>
    <i name="alphaZ">     85.81940989 </i>
    <i name="ewald">  42832.49620619 </i>
    <i name="hartreedc"> -48820.63045358 </i>
    <i name="XCdc">   -234.28803027 </i>
    <i name="pawpsdc">   4063.76404694 </i>
    <i name="pawaedc">  -3479.65214529 </i>
    <i name="eentropy">     -0.20993949 </i>
    <i name="bandstr">  -1399.49104520 </i>
    <i name="atom">   6761.44252427 </i>
    <i name="e_fr_energy">   -190.74942654 </i>
    <i name="e_wo_entrp">   -190.53948704 </i>
    <i name="e_0_energy">   -190.64445679 </i>
   </energy>
  </scstep>
  <structure>
   <crystal>
    <varray name="basis" >
     <v>       8.48672312       4.90100221       0.00000000 </v>
     <v>      -8.48500635       4.89805716       0.00000000 </v>
     <v>       0.00000000       0.00000000      30.00000000 </v>
    </varray>
    <i name="volume">   2494.60469624 </i>
    <varray name="rec_basis" >
     <v>       0.05890381       0.10204029       0.00000000 </v>
     <v>      -0.05893922       0.10206094       0.00000000 </v>
     <v>       0.00000000       0.00000000       0.03333333 </v>
    </varray>
   </crystal>
   <varray name="positions" >
    <v>       0.33378503      -0.00237163       0.00006772 </v>
    <v>       0.33525706       0.66899875      -0.00001567 </v>
    <v>       0.99763998       0.33402538      -0.00012841 </v>
    <v>       0.66822584      -0.00378658       0.00024163 </v>
    <v>      -0.00562536       0.66650574      -0.00024048 </v>
    <v>       0.67219613       0.67074091       0.00004840 </v>
    <v>      -0.00902023      -0.00877346       0.00019095 </v>
    <v>       0.33792595       0.33719715      -0.00001169 </v>
    <v>       0.66942755       0.33732984      -0.00018212 </v>
    <v>       0.10881834       0.22422802       0.95142578 </v>
    <v>       0.22417926       0.10869822       0.04871224 </v>
    <v>       0.11374251       0.55295433       0.95224118 </v>
    <v>       0.21996454       0.44647019       0.04800879 </v>
    <v>       0.11624287       0.89250928       0.95056093 </v>
    <v>       0.22734718       0.78000172       0.04792702 </v>
    <v>       0.44221311       0.21749917       0.95064619 </v>
    <v>       0.55056246       0.10951053       0.04892258 </v>
    <v>       0.44103055       0.55741032       0.95057049 </v>
    <v>       0.55522740       0.44358483       0.05089190 </v>
    <v>       0.43881516       0.88604291       0.95165335 </v>
    <v>       0.54941411       0.77455727       0.04969324 </v>
    <v>       0.78257568       0.22543767       0.95065359 </v>
    <v>       0.89262246       0.11625423       0.04960030 </v>
    <v>       0.77665755       0.55409840       0.94860779 </v>
    <v>       0.89076774       0.44085187       0.04972420 </v>
    <v>       0.77879724       0.88931319       0.94840405 </v>
    <v>       0.88942433       0.77892622       0.05178593 </v>
   </varray>
  </structure>
  <varray name="forces" >
   <v>       0.09510416       0.02795406       0.08146909 </v>
   <v>       0.02970469       0.11162287       0.00665928 </v>
   <v>      -0.22304460      -0.09806798      -0.08291013 </v>
   <v>       0.44400867      -0.02273221       0.04270966 </v>
   <v>      -0.50396824      -0.32283924      -0.00823693 </v>
   <v>       0.22161694       0.41333564      -0.00293548 </v>
   <v>      -0.02081380      -0.74443495      -0.03158138 </v>
   <v>       0.17364368       0.39725002      -0.03441321 </v>
   <v>      -0.23762553       0.25123782       0.03106178 </v>
   <v>       0.04964519      -0.04636814      -0.00008570 </v>
   <v>      -0.03417282      -0.05512914       0.07668678 </v>
   <v>      -0.05183996       0.02280967      -0.19186784 </v>
   <v>      -0.04228133       0.03164795       0.23154643 </v>
   <v>      -0.02190206      -0.01562392      -0.30460491 </v>
   <v>      -0.01262553      -0.05443453       0.22318645 </v>
   <v>       0.06860200      -0.00465096      -0.31303856 </v>
   <v>       0.03615165       0.02272996       0.14811079 </v>
   <v>      -0.02435536       0.08398873      -0.31953622 </v>
   <v>      -0.00579838       0.09497091       0.41291542 </v>
   <v>       0.04486356      -0.01419138      -0.36666812 </v>
   <v>       0.01609625      -0.04511376       0.40040456 </v>
   <v>       0.01133417      -0.00983927      -0.26016713 </v>
   <v>       0.03077915       0.02833618       0.38277194 </v>
   <v>      -0.04538314      -0.00717587      -0.59778009 </v>
   <v>      -0.00513749       0.02679837       0.39001350 </v>
   <v>       0.00548615      -0.04276046      -0.61767929 </v>
   <v>       0.00191199      -0.02932035       0.70396931 </v>
  </varray>
  <varray name="stress" >
   <v>      -5.79072599       0.07900257      -0.04021731 </v>
   <v>       0.07900264      -5.70909111       0.05343163 </v>
   <v>      -0.04021739       0.05343155       4.48886096 </v>
  </varray>
  <energy>
   <i name="e_fr_energy">   -190.74942654 </i>
   <i name="e_wo_entrp">   -190.64445679 </i>
   <i name="e_0_energy">     -0.20993949 </i>
  </energy>
  <time name="totalsc">  400.22  401.28</time>
 </calculation>
 <calculation>
  <scstep>
   <time name="dav">   22.71   22.77</time>
   <time name="total">   23.31   23.37</time>
   <energy>
    <i name="alphaZ">     90.18192905 </i>
    <i name="ewald">  44667.03705794 </i>
    <i name="hartreedc"> -50710.57609802 </i>
    <i name="XCdc">   -231.83422010 </i>
    <i name="pawpsdc">   4063.73554280 </i>
    <i name="pawaedc">  -3479.61828753 </i>
    <i name="eentropy">     -0.19659221 </i>
    <i name="bandstr">  -1352.29303892 </i>
    <i name="atom">   6761.44252427 </i>
    <i name="e_fr_energy">   -192.12118272 </i>
    <i name="e_wo_entrp">   -191.92459051 </i>
    <i name="e_0_energy">   -192.02288662 </i>
   </energy>
  </scstep>
  <scstep>
   <time name="dav">   29.30   29.37</time>
   <time name="total">   29.89   29.97</time>
   <energy>
    <i name="e_fr_energy">   -191.85347448 </i>
    <i name="e_wo_entrp">   -191.65010971 </i>
    <i name="e_0_energy">   -191.75179210 </i>
   </energy>
  </scstep>
  <scstep>
   <time name="dav">   30.76   30.84</time>
   <time name="total">   31.36   31.44</time>
   <energy>
    <i name="e_fr_energy">   -191.98177643 </i>
    <i name="e_wo_entrp">   -191.77777607 </i>
    <i name="e_0_energy">   -191.87977625 </i>
   </energy>
  </scstep>
  <scstep>
   <time name="dav">   29.74   29.81</time>
   <time name="total">   30.33   30.41</time>
   <energy>
    <i name="e_fr_energy">   -191.74785027 </i>
    <i name="e_wo_entrp">   -191.54747204 </i>
    <i name="e_0_energy">   -191.64766115 </i>
   </energy>
  </scstep>
  <scstep>
   <time name="dav">   31.54   31.61</time>
   <time name="total">   32.14   32.22</time>
   <energy>
    <i name="e_fr_energy">   -191.57689814 </i>
    <i name="e_wo_entrp">   -191.37339586 </i>
    <i name="e_0_energy">   -191.47514700 </i>
   </energy>
  </scstep>
  <scstep>
   <time name="dav">   31.62   31.69</time>
   <time name="total">   32.21   32.30</time>
   <energy>
    <i name="e_fr_energy">   -191.43564654 </i>
    <i name="e_wo_entrp">   -191.22982811 </i>
    <i name="e_0_energy">   -191.33273732 </i>
   </energy>
  </scstep>
  <scstep>
   <time name="dav">   31.52   31.60</time>
   <time name="total">   32.13   32.21</time>
   <energy>
    <i name="e_fr_energy">   -191.42791805 </i>
    <i name="e_wo_entrp">   -191.22395338 </i>
    <i name="e_0_energy">   -191.32593571 </i>
   </energy>
  </scstep>
  <scstep>
   <time name="dav">   31.16   31.23</time>
   <time name="total">   31.75   31.84</time>
   <energy>
    <i name="e_fr_energy">   -191.42568163 </i>
    <i name="e_wo_entrp">   -191.22087746 </i>
    <i name="e_0_energy">   -191.32327954 </i>
   </energy>
  </scstep>
  <scstep>
   <time name="dav">   31.89   31.97</time>
   <time name="total">   32.49   32.58</time>
   <energy>
    <i name="e_fr_energy">   -191.41901001 </i>
    <i name="e_wo_entrp">   -191.21419922 </i>
    <i name="e_0_energy">   -191.31660461 </i>
   </energy>
  </scstep>
  <scstep>
   <time name="dav">   28.87   28.94</time>
   <time name="total">   29.46   29.54</time>
   <energy>
    <i name="e_fr_energy">   -191.41931713 </i>
    <i name="e_wo_entrp">   -191.21423785 </i>
    <i name="e_0_energy">   -191.31677749 </i>
   </energy>
  </scstep>
  <scstep>
   <time name="dav">   29.21   29.28</time>
   <time name="total">   29.81   29.89</time>
   <energy>
    <i name="e_fr_energy">   -191.41916745 </i>
    <i name="e_wo_entrp">   -191.21423266 </i>
    <i name="e_0_energy">   -191.31670006 </i>
   </energy>
  </scstep>
  <scstep>
   <time name="dav">   20.34   20.39</time>
   <time name="total">   20.38   20.43</time>
   <energy>
    <i name="alphaZ">     90.18192905 </i>
    <i name="ewald">  44667.03705794 </i>
    <i name="hartreedc"> -50676.60449500 </i>
    <i name="XCdc">   -233.36228348 </i>
    <i name="pawpsdc">   4085.79563580 </i>
    <i name="pawaedc">  -3501.77435610 </i>
    <i name="eentropy">     -0.20501407 </i>
    <i name="bandstr">  -1383.93014915 </i>
    <i name="atom">   6761.44252427 </i>
    <i name="e_fr_energy">   -191.41915073 </i>
    <i name="e_wo_entrp">   -191.21413666 </i>
    <i name="e_0_energy">   -191.31664370 </i>
   </energy>
  </scstep>
  <structure>
   <crystal>
    <varray name="basis" >
     <v>       8.27899816       4.78605435       0.00000000 </v>
     <v>      -8.27289513       4.77551058       0.00000000 </v>
     <v>       0.00000000       0.00000000      30.00000000 </v>
    </varray>
    <i name="volume">   2373.92906983 </i>
    <varray name="rec_basis" >
     <v>       0.06034945       0.10454687       0.00000000 </v>
     <v>      -0.06048270       0.10462400       0.00000000 </v>
     <v>       0.00000000       0.00000000       0.03333333 </v>
    </varray>
   </crystal>
   <varray name="positions" >
    <v>       0.33477839      -0.00266216       0.00041098 </v>
    <v>       0.33690916       0.67017701       0.00001185 </v>
    <v>       0.99480117       0.33431748      -0.00047645 </v>
    <v>       0.67123137      -0.00715925       0.00042376 </v>
    <v>      -0.01337864       0.66613427      -0.00028456 </v>
    <v>       0.67901613       0.67433901       0.00003328 </v>
    <v>      -0.01839778      -0.01785246       0.00004469 </v>
    <v>       0.34402385       0.34071755      -0.00015108 </v>
    <v>       0.67078573       0.34211220      -0.00004337 </v>
    <v>       0.10833188       0.22359586       0.95085700 </v>
    <v>       0.22358562       0.10800526       0.04958108 </v>
    <v>       0.11391339       0.55336232       0.95099569 </v>
    <v>       0.21972314       0.44745421       0.04945394 </v>
    <v>       0.11647494       0.89268539       0.94876455 </v>
    <v>       0.22701962       0.77964238       0.04931837 </v>
    <v>       0.44231249       0.21638640       0.94882996 </v>
    <v>       0.55054274       0.10916462       0.05006692 </v>
    <v>       0.44174997       0.55900103       0.94870148 </v>
    <v>       0.55642937       0.44488488       0.05318399 </v>
    <v>       0.43853150       0.88533743       0.94966469 </v>
    <v>       0.54845190       0.77362618       0.05187947 </v>
    <v>       0.78306973       0.22533386       0.94902926 </v>
    <v>       0.89332677       0.11695640       0.05170968 </v>
    <v>       0.77632878       0.55451370       0.94556246 </v>
    <v>       0.89147466       0.44109883       0.05188795 </v>
    <v>       0.77817066       0.88871229       0.94525905 </v>
    <v>       0.88900792       0.77832976       0.05528524 </v>
   </varray>
  </structure>
  <varray name="forces" >
   <v>       0.08629282       0.07568279       0.01619870 </v>
   <v>       0.03115703       0.06492067       0.02162555 </v>
   <v>      -0.29898429      -0.11098406      -0.01922138 </v>
   <v>       0.30199303      -0.07836035      -0.02465209 </v>
   <v>      -0.14166500      -0.20645155       0.05550343 </v>
   <v>       0.07590396      -0.06315802      -0.03362197 </v>
   <v>      -0.01074889      -0.28864350       0.04817603 </v>
   <v>       0.21822134       0.48988935      -0.05965169 </v>
   <v>      -0.31493429       0.21211551      -0.04781526 </v>
   <v>       0.18577272      -0.09282297       0.33787536 </v>
   <v>      -0.16548777      -0.11513378      -0.24433941 </v>
   <v>      -0.23433330       0.01428912       0.04484936 </v>
   <v>       0.04275443       0.02647566      -0.07183938 </v>
   <v>      -0.08355537      -0.15773624       0.02082054 </v>
   <v>      -0.07346435      -0.15968595      -0.07453081 </v>
   <v>       0.07636669       0.07942197      -0.06412395 </v>
   <v>       0.16273334       0.16071564      -0.11925293 </v>
   <v>       0.07085241       0.14792170      -0.05903843 </v>
   <v>      -0.02944045       0.17364218       0.22928029 </v>
   <v>       0.06804483       0.07188747      -0.02135311 </v>
   <v>       0.14525387       0.07947518       0.06614402 </v>
   <v>      -0.07009373      -0.12190708       0.06956365 </v>
   <v>       0.11574882      -0.05382159       0.05874961 </v>
   <v>      -0.07292186      -0.00415758      -0.24538068 </v>
   <v>      -0.10071394       0.02623931       0.11054706 </v>
   <v>       0.00688292      -0.12218112      -0.28746494 </v>
   <v>       0.00836503      -0.04763275       0.29295244 </v>
  </varray>
  <varray name="stress" >
   <v>       0.10551797       0.28360565       0.18465332 </v>
   <v>       0.28360549       0.27459984       0.29790219 </v>
   <v>       0.18465359       0.29790228      -0.57868503 </v>
  </varray>
  <energy>
   <i name="e_fr_energy">   -191.41915073 </i>
   <i name="e_wo_entrp">   -191.31664370 </i>
   <i name="e_0_energy">     -0.20501407 </i>
  </energy>
  <time name="totalsc">  398.89  399.94</time>
 </calculation>
 <calculation>
  <scstep>
   <time name="dav">   22.77   22.82</time>
   <time name="total">   23.37   23.43</time>
   <energy>
    <i name="alphaZ">     90.05233081 </i>
    <i name="ewald">  44593.67630012 </i>
    <i name="hartreedc"> -50602.42374635 </i>
    <i name="XCdc">   -233.51197812 </i>
    <i name="pawpsdc">   4085.72968401 </i>
    <i name="pawaedc">  -3501.70407612 </i>
    <i name="eentropy">     -0.20876915 </i>
    <i name="bandstr">  -1384.54036669 </i>
    <i name="atom">   6761.44252427 </i>
    <i name="e_fr_energy">   -191.48809722 </i>
    <i name="e_wo_entrp">   -191.27932807 </i>
    <i name="e_0_energy">   -191.38371265 </i>
   </energy>
  </scstep>
  <scstep>
   <time name="dav">   34.40   34.48</time>
   <time name="total">   34.99   35.08</time>
   <energy>
    <i name="e_fr_energy">   -191.55545888 </i>
    <i name="e_wo_entrp">   -191.34168740 </i>
    <i name="e_0_energy">   -191.44857314 </i>
   </energy>
  </scstep>
  <scstep>
   <time name="dav">   31.87   31.94</time>
   <time name="total">   32.46   32.55</time>
   <energy>
    <i name="e_fr_energy">   -191.50132852 </i>
    <i name="e_wo_entrp">   -191.29170721 </i>
    <i name="e_0_energy">   -191.39651787 </i>
   </energy>
  </scstep>
  <scstep>
   <time name="dav">   29.60   29.67</time>
   <time name="total">   30.19   30.27</time>
   <energy>
    <i name="e_fr_energy">   -191.50308938 </i>
    <i name="e_wo_entrp">   -191.29384145 </i>
    <i name="e_0_energy">   -191.39846541 </i>
   </energy>
  </scstep>
  <scstep>
   <time name="dav">   29.65   29.72</time>
   <time name="total">   30.25   30.33</time>
   <energy>
    <i name="e_fr_energy">   -191.49864545 </i>
    <i name="e_wo_entrp">   -191.28874029 </i>
    <i name="e_0_energy">   -191.39369287 </i>
   </energy>
  </scstep>
  <scstep>
   <time name="dav">   27.98   28.05</time>
   <time name="total">   28.57   28.65</time>
   <energy>
    <i name="e_fr_energy">   -191.49851910 </i>
    <i name="e_wo_entrp">   -191.28861892 </i>
    <i name="e_0_energy">   -191.39356901 </i>
   </energy>
  </scstep>
  <scstep>
   <time name="dav">   30.00   30.08</time>
   <time name="total">   30.60   30.68</time>
   <energy>
    <i name="e_fr_energy">   -191.49907823 </i>
    <i name="e_wo_entrp">   -191.28941579 </i>
    <i name="e_0_energy">   -191.39424701 </i>
   </energy>
  </scstep>
  <scstep>
   <time name="dav">   25.67   25.73</time>
   <time name="total">   26.26   26.34</time>
   <energy>
    <i name="e_fr_energy">   -191.49801651 </i>
    <i name="e_wo_entrp">   -191.28813482 </i>
    <i name="e_0_energy">   -191.39307567 </i>
   </energy>
  </scstep>
  <scstep>
   <time name="dav">   17.67   17.71</time>
   <time name="total">   17.71   17.76</time>
   <energy>
    <i name="alphaZ">     90.05233081 </i>
    <i name="ewald">  44593.67630012 </i>
    <i name="hartreedc"> -50604.41437574 </i>
    <i name="XCdc">   -233.44896127 </i>
    <i name="pawpsdc">   4082.97332240 </i>
    <i name="pawaedc">  -3498.90798620 </i>
    <i name="eentropy">     -0.20974639 </i>
    <i name="bandstr">  -1382.66143595 </i>
    <i name="atom">   6761.44252427 </i>
    <i name="e_fr_energy">   -191.49802794 </i>
    <i name="e_wo_entrp">   -191.28828155 </i>
    <i name="e_0_energy">   -191.39315475 </i>
   </energy>
  </scstep>
  <structure>
   <crystal>
    <varray name="basis" >
     <v>       8.28665087       4.79652247       0.00000000 </v>
     <v>      -8.27361623       4.77397495       0.00000000 </v>
     <v>       0.00000000       0.00000000      30.00000000 </v>
    </varray>
    <i name="volume">   2377.34549467 </i>
    <varray name="rec_basis" >
     <v>       0.06024335       0.10440573       0.00000000 </v>
     <v>      -0.06052788       0.10457021       0.00000000 </v>
     <v>       0.00000000       0.00000000       0.03333333 </v>
    </varray>
   </crystal>
   <varray name="positions" >
    <v>       0.33537918      -0.00253123       0.00043074 </v>
    <v>       0.33728940       0.67038870       0.00004526 </v>
    <v>       0.99345414       0.33461774      -0.00050087 </v>
    <v>       0.67165363      -0.00834950       0.00038217 </v>
    <v>      -0.01466910       0.66552786      -0.00019685 </v>
    <v>       0.67881148       0.67375514      -0.00001909 </v>
    <v>      -0.01969643      -0.01909592       0.00012264 </v>
    <v>       0.34695172       0.34245068      -0.00024225 </v>
    <v>       0.67091359       0.34397351      -0.00012058 </v>
    <v>       0.10841320       0.22261890       0.95140100 </v>
    <v>       0.22255711       0.10792329       0.04917885 </v>
    <v>       0.11331388       0.55409433       0.95109064 </v>
    <v>       0.21998165       0.44744417       0.04931316 </v>
    <v>       0.11545373       0.89214259       0.94883163 </v>
    <v>       0.22602786       0.77906972       0.04917443 </v>
    <v>       0.44292087       0.21658336       0.94876422 </v>
    <v>       0.55179940       0.10950147       0.04985630 </v>
    <v>       0.44266727       0.55949742       0.94864481 </v>
    <v>       0.55717877       0.44580028       0.05350000 </v>
    <v>       0.43908639       0.88551080       0.94966818 </v>
    <v>       0.54927464       0.77362159       0.05194232 </v>
    <v>       0.78225895       0.22493453       0.94917000 </v>
    <v>       0.89337798       0.11634593       0.05176224 </v>
    <v>       0.77610600       0.55469194       0.94523328 </v>
    <v>       0.89130247       0.44151123       0.05202047 </v>
    <v>       0.77760159       0.88810221       0.94486577 </v>
    <v>       0.88880506       0.77808371       0.05568143 </v>
   </varray>
  </structure>
  <varray name="forces" >
   <v>       0.09262642       0.04354364       0.04507927 </v>
   <v>       0.01616405       0.07274333       0.04697951 </v>
   <v>      -0.36088351      -0.11430264      -0.03135647 </v>
   <v>       0.38155780      -0.09252021      -0.00887032 </v>
   <v>      -0.13732702      -0.22667612       0.02538491 </v>
   <v>       0.07405263      -0.03991805       0.00036052 </v>
   <v>      -0.03649099      -0.42515951      -0.01389758 </v>
   <v>       0.25142728       0.55039915      -0.03493668 </v>
   <v>      -0.35712349       0.24783553      -0.01216503 </v>
   <v>       0.13482787      -0.01106415       0.36878677 </v>
   <v>      -0.11668215      -0.04737406      -0.24946718 </v>
   <v>      -0.14082798       0.00741906       0.06620389 </v>
   <v>       0.04993963       0.01333897      -0.12012037 </v>
   <v>      -0.04431121      -0.09517088       0.05205873 </v>
   <v>      -0.04711899      -0.09877859      -0.09338493 </v>
   <v>       0.05728120       0.06595864      -0.06887300 </v>
   <v>       0.11059235       0.12810691      -0.16638451 </v>
   <v>       0.02150729       0.09037811      -0.10935687 </v>
   <v>      -0.00250742       0.10945306       0.23515215 </v>
   <v>       0.04341585       0.03976019      -0.01413074 </v>
   <v>       0.08958540       0.03736837       0.05281279 </v>
   <v>      -0.06420664      -0.09312293       0.08174204 </v>
   <v>       0.05601044      -0.03432446       0.03300309 </v>
   <v>      -0.04173090       0.01086330      -0.20960341 </v>
   <v>      -0.06287912      -0.01524140       0.11820249 </v>
   <v>       0.03751829      -0.06581850      -0.17899284 </v>
   <v>      -0.00441708      -0.05769675       0.18577378 </v>
  </varray>
  <varray name="stress" >
   <v>      -0.07689476       0.03544914       0.08330032 </v>
   <v>       0.03544922      -0.17236293       0.08527919 </v>
   <v>       0.08330023       0.08527929      -1.18848989 </v>
  </varray>
  <energy>
   <i name="e_fr_energy">   -191.49802794 </i>
   <i name="e_wo_entrp">   -191.39315475 </i>
   <i name="e_0_energy">     -0.20974639 </i>
  </energy>
  <time name="totalsc">  298.24  299.03</time>
 </calculation>
 <calculation>
  <scstep>
   <time name="dav">   22.73   22.79</time>
   <time name="total">   23.33   23.39</time>
   <energy>
    <i name="alphaZ">     90.09501746 </i>
    <i name="ewald">  44613.76104887 </i>
    <i name="hartreedc"> -50624.92027066 </i>
    <i name="XCdc">   -233.41884707 </i>
    <i name="pawpsdc">   4082.80102016 </i>
    <i name="pawaedc">  -3498.73391296 </i>
    <i name="eentropy">     -0.21079054 </i>
    <i name="bandstr">  -1382.36071564 </i>
    <i name="atom">   6761.44252427 </i>
    <i name="e_fr_energy">   -191.54492611 </i>
    <i name="e_wo_entrp">   -191.33413557 </i>
    <i name="e_0_energy">   -191.43953084 </i>
   </energy>
  </scstep>
  <scstep>
   <time name="dav">   34.58   34.66</time>
   <time name="total">   35.17   35.26</time>
   <energy>
    <i name="e_fr_energy">   -191.56158452 </i>
    <i name="e_wo_entrp">   -191.34741859 </i>
    <i name="e_0_energy">   -191.45450155 </i>
   </energy>
  </scstep>
  <scstep>
   <time name="dav">   31.60   31.68</time>
   <time name="total">   32.20   32.28</time>
   <energy>
    <i name="e_fr_energy">   -191.54816950 </i>
    <i name="e_wo_entrp">   -191.33701450 </i>
    <i name="e_0_energy">   -191.44259200 </i>
   </energy>
  </scstep>
  <scstep>
   <time name="dav">   29.04   29.11</time>
   <time name="total">   29.64   29.72</time>
   <energy>
    <i name="e_fr_energy">   -191.54869347 </i>
    <i name="e_wo_entrp">   -191.33769734 </i>
    <i name="e_0_energy">   -191.44319540 </i>
   </energy>
  </scstep>
  <scstep>
   <time name="dav">   28.94   29.01</time>
   <time name="total">   29.53   29.61</time>
   <energy>
    <i name="e_fr_energy">   -191.54712865 </i>
    <i name="e_wo_entrp">   -191.33560438 </i>
    <i name="e_0_energy">   -191.44136652 </i>
   </energy>
  </scstep>
  <scstep>
   <time name="dav">   26.98   27.04</time>
   <time name="total">   27.02   27.09</time>
   <energy>
    <i name="alphaZ">     90.09501746 </i>
    <i name="ewald">  44613.76104887 </i>
    <i name="hartreedc"> -50624.92312103 </i>
    <i name="XCdc">   -233.42310885 </i>
    <i name="pawpsdc">   4083.82331081 </i>
    <i name="pawaedc">  -3499.76868295 </i>
    <i name="eentropy">     -0.21150803 </i>
    <i name="bandstr">  -1382.34255218 </i>
    <i name="atom">   6761.44252427 </i>
    <i name="e_fr_energy">   -191.54707162 </i>
    <i name="e_wo_entrp">   -191.33556359 </i>
[...]
      <set comment="kpoint 31">
       <r>  -17.5170    1.0000 </r>
       <r>  -17.2169    1.0000 </r>
       <r>  -16.8995    1.0000 </r>
       <r>  -16.4880    1.0000 </r>
       <r>  -16.4575    1.0000 </r>
       <r>  -16.3731    1.0000 </r>
       <r>  -16.2776    1.0000 </r>
       <r>  -16.1561    1.0000 </r>
       <r>  -16.0498    1.0000 </r>
       <r>  -16.0328    1.0000 </r>
       <r>  -15.9680    1.0000 </r>
       <r>  -15.8497    1.0000 </r>
       <r>  -15.8019    1.0000 </r>
       <r>  -15.6874    1.0000 </r>
       <r>  -15.6233    1.0000 </r>
       <r>  -15.5774    1.0000 </r>
       <r>  -15.5153    1.0000 </r>
       <r>  -15.4432    1.0000 </r>
       <r>   -9.7319    1.0000 </r>
       <r>   -9.4411    1.0000 </r>
       <r>   -9.2759    1.0000 </r>
       <r>   -8.8881    1.0000 </r>
       <r>   -8.8222    1.0000 </r>
       <r>   -8.7166    1.0000 </r>
       <r>   -8.5852    1.0000 </r>
       <r>   -8.4879    1.0000 </r>
       <r>   -8.3969    1.0000 </r>
       <r>   -8.3231    1.0000 </r>
       <r>   -8.2504    1.0000 </r>
       <r>   -8.1769    1.0000 </r>
       <r>   -8.1445    1.0000 </r>
       <r>   -8.0887    1.0000 </r>
       <r>   -7.9804    1.0000 </r>
       <r>   -7.8471    1.0000 </r>
       <r>   -7.8121    1.0000 </r>
       <r>   -7.5518    1.0000 </r>
       <r>   -7.5019    1.0000 </r>
       <r>   -7.4095    1.0000 </r>
       <r>   -7.3136    1.0000 </r>
       <r>   -7.2528    1.0000 </r>
       <r>   -7.0742    1.0000 </r>
       <r>   -7.0350    1.0000 </r>
       <r>   -6.9872    1.0000 </r>
       <r>   -6.9000    1.0000 </r>
       <r>   -6.8488    1.0000 </r>
       <r>   -6.7382    1.0000 </r>
       <r>   -6.7011    1.0000 </r>
       <r>   -6.6569    1.0000 </r>
       <r>   -6.6234    1.0000 </r>
       <r>   -6.5195    1.0000 </r>
       <r>   -6.4379    1.0000 </r>
       <r>   -6.3477    1.0000 </r>
       <r>   -6.1927    1.0000 </r>
       <r>   -6.1628    1.0000 </r>
       <r>   -6.1114    1.0000 </r>
       <r>   -6.0444    1.0000 </r>
       <r>   -5.9501    1.0000 </r>
       <r>   -5.8887    1.0000 </r>
       <r>   -5.8446    1.0000 </r>
       <r>   -5.7860    1.0000 </r>
       <r>   -5.7170    1.0000 </r>
       <r>   -5.6508    1.0000 </r>
       <r>   -5.6024    1.0000 </r>
       <r>   -5.5439    1.0000 </r>
       <r>   -5.2966    1.0000 </r>
       <r>   -5.1514    1.0000 </r>
       <r>   -5.0181    1.0000 </r>
       <r>   -4.9758    1.0000 </r>
       <r>   -4.8404    1.0000 </r>
       <r>   -4.7418    1.0000 </r>
       <r>   -4.5623    1.0000 </r>
       <r>   -4.4534    1.0000 </r>
       <r>   -4.3339    1.0000 </r>
       <r>   -4.0912    1.0000 </r>
       <r>   -3.7899    1.0000 </r>
       <r>   -3.6689    0.9999 </r>
       <r>   -3.6115    0.9997 </r>
       <r>   -3.5083    0.9968 </r>
       <r>   -3.3899    0.9704 </r>
       <r>   -3.0505    0.3039 </r>
       <r>   -2.9916    0.1763 </r>
       <r>   -2.7822    0.0080 </r>
       <r>   -2.6535    0.0004 </r>
       <r>   -2.5371    0.0000 </r>
       <r>   -2.4458    0.0000 </r>
       <r>   -2.4006    0.0000 </r>
       <r>   -2.3590    0.0000 </r>
       <r>   -2.3012    0.0000 </r>
       <r>   -2.2092    0.0000 </r>
       <r>   -2.0171    0.0000 </r>
       <r>   -1.9116    0.0000 </r>
       <r>   -1.7794    0.0000 </r>
       <r>   -1.6563    0.0000 </r>
       <r>   -1.4159    0.0000 </r>
       <r>   -1.2495    0.0000 </r>
       <r>   -1.1245    0.0000 </r>
       <r>   -1.0052    0.0000 </r>
       <r>   -0.9299    0.0000 </r>
       <r>   -0.8605    0.0000 </r>
       <r>   -0.7692    0.0000 </r>
       <r>   -0.7035    0.0000 </r>
       <r>   -0.6465    0.0000 </r>
       <r>   -0.5591    0.0000 </r>
       <r>   -0.5179    0.0000 </r>
       <r>   -0.4318    0.0000 </r>
       <r>   -0.3857    0.0000 </r>
       <r>   -0.2528    0.0000 </r>
       <r>   -0.1323    0.0000 </r>
       <r>    0.0237    0.0000 </r>
       <r>    0.2857    0.0000 </r>
       <r>    0.4898    0.0000 </r>
       <r>    0.6930    0.0000 </r>
       <r>    0.8566    0.0000 </r>
       <r>    1.1672    0.0000 </r>
       <r>    1.2288    0.0000 </r>
       <r>    1.2783    0.0000 </r>
       <r>    1.3829    0.0000 </r>
       <r>    2.1490    0.0000 </r>
       <r>    2.2955    0.0000 </r>
       <r>    2.4092    0.0000 </r>
      </set>
      <set comment="kpoint 32">
       <r>  -17.5256    1.0000 </r>
       <r>  -17.1046    1.0000 </r>
       <r>  -17.0634    1.0000 </r>
       <r>  -16.4921    1.0000 </r>
       <r>  -16.3749    1.0000 </r>
       <r>  -16.3379    1.0000 </r>
       <r>  -16.2247    1.0000 </r>
       <r>  -16.1790    1.0000 </r>
       <r>  -16.1056    1.0000 </r>
       <r>  -16.0137    1.0000 </r>
       <r>  -15.9791    1.0000 </r>
       <r>  -15.8931    1.0000 </r>
       <r>  -15.8162    1.0000 </r>
       <r>  -15.7101    1.0000 </r>
       <r>  -15.6305    1.0000 </r>
       <r>  -15.5441    1.0000 </r>
       <r>  -15.5249    1.0000 </r>
       <r>  -15.4149    1.0000 </r>
       <r>   -9.6212    1.0000 </r>
       <r>   -9.5898    1.0000 </r>
       <r>   -9.3595    1.0000 </r>
       <r>   -8.8861    1.0000 </r>
       <r>   -8.7322    1.0000 </r>
       <r>   -8.5862    1.0000 </r>
       <r>   -8.5033    1.0000 </r>
       <r>   -8.4093    1.0000 </r>
       <r>   -8.3771    1.0000 </r>
       <r>   -8.3276    1.0000 </r>
       <r>   -8.3089    1.0000 </r>
       <r>   -8.2355    1.0000 </r>
       <r>   -8.1548    1.0000 </r>
       <r>   -8.1332    1.0000 </r>
       <r>   -8.0933    1.0000 </r>
       <r>   -7.9479    1.0000 </r>
       <r>   -7.8237    1.0000 </r>
       <r>   -7.4677    1.0000 </r>
       <r>   -7.4459    1.0000 </r>
       <r>   -7.3679    1.0000 </r>
       <r>   -7.2867    1.0000 </r>
       <r>   -7.2548    1.0000 </r>
       <r>   -7.1446    1.0000 </r>
       <r>   -7.1017    1.0000 </r>
       <r>   -6.9839    1.0000 </r>
       <r>   -6.9209    1.0000 </r>
       <r>   -6.8679    1.0000 </r>
       <r>   -6.7373    1.0000 </r>
       <r>   -6.6997    1.0000 </r>
       <r>   -6.6378    1.0000 </r>
       <r>   -6.5754    1.0000 </r>
       <r>   -6.5300    1.0000 </r>
       <r>   -6.4707    1.0000 </r>
       <r>   -6.3535    1.0000 </r>
       <r>   -6.2453    1.0000 </r>
       <r>   -6.1765    1.0000 </r>
       <r>   -6.0874    1.0000 </r>
       <r>   -6.0491    1.0000 </r>
       <r>   -5.9726    1.0000 </r>
       <r>   -5.8771    1.0000 </r>
       <r>   -5.8239    1.0000 </r>
       <r>   -5.7376    1.0000 </r>
       <r>   -5.6649    1.0000 </r>
       <r>   -5.5319    1.0000 </r>
       <r>   -5.4662    1.0000 </r>
       <r>   -5.3922    1.0000 </r>
       <r>   -5.3771    1.0000 </r>
       <r>   -5.2579    1.0000 </r>
       <r>   -5.1490    1.0000 </r>
       <r>   -5.0325    1.0000 </r>
       <r>   -4.9841    1.0000 </r>
       <r>   -4.7037    1.0000 </r>
       <r>   -4.6018    1.0000 </r>
       <r>   -4.4584    1.0000 </r>
       <r>   -4.2357    1.0000 </r>
       <r>   -4.0892    1.0000 </r>
       <r>   -3.7630    1.0000 </r>
       <r>   -3.6583    0.9999 </r>
       <r>   -3.5904    0.9995 </r>
       <r>   -3.5673    0.9992 </r>
       <r>   -3.3283    0.9266 </r>
       <r>   -3.0459    0.2926 </r>
       <r>   -2.9560    0.1187 </r>
       <r>   -2.7591    0.0050 </r>
       <r>   -2.6447    0.0004 </r>
       <r>   -2.5871    0.0001 </r>
       <r>   -2.4744    0.0000 </r>
       <r>   -2.4232    0.0000 </r>
       <r>   -2.3679    0.0000 </r>
       <r>   -2.3050    0.0000 </r>
       <r>   -2.2176    0.0000 </r>
       <r>   -2.0531    0.0000 </r>
       <r>   -1.9026    0.0000 </r>
       <r>   -1.7926    0.0000 </r>
       <r>   -1.5808    0.0000 </r>
       <r>   -1.4241    0.0000 </r>
       <r>   -1.2678    0.0000 </r>
       <r>   -1.1493    0.0000 </r>
       <r>   -0.9887    0.0000 </r>
       <r>   -0.9255    0.0000 </r>
       <r>   -0.8668    0.0000 </r>
       <r>   -0.7997    0.0000 </r>
       <r>   -0.7228    0.0000 </r>
       <r>   -0.6771    0.0000 </r>
       <r>   -0.5718    0.0000 </r>
       <r>   -0.5052    0.0000 </r>
       <r>   -0.3489    0.0000 </r>
       <r>   -0.3306    0.0000 </r>
       <r>   -0.1810    0.0000 </r>
       <r>   -0.1619    0.0000 </r>
       <r>   -0.1128    0.0000 </r>
       <r>    0.3337    0.0000 </r>
       <r>    0.4282    0.0000 </r>
       <r>    0.6888    0.0000 </r>
       <r>    0.8608    0.0000 </r>
       <r>    1.1298    0.0000 </r>
       <r>    1.1867    0.0000 </r>
       <r>    1.3220    0.0000 </r>
       <r>    1.4316    0.0000 </r>
       <r>    2.1170    0.0000 </r>
       <r>    2.2652    0.0000 </r>
       <r>    2.5862    0.0000 </r>
      </set>
      <set comment="kpoint 33">
       <r>  -17.5071    1.0000 </r>
       <r>  -17.2367    1.0000 </r>
       <r>  -16.8956    1.0000 </r>
       <r>  -16.5005    1.0000 </r>
       <r>  -16.4637    1.0000 </r>
       <r>  -16.3625    1.0000 </r>
       <r>  -16.2519    1.0000 </r>
       <r>  -16.1343    1.0000 </r>
       <r>  -16.0678    1.0000 </r>
       <r>  -16.0133    1.0000 </r>
       <r>  -15.9500    1.0000 </r>
       <r>  -15.8718    1.0000 </r>
       <r>  -15.8280    1.0000 </r>
       <r>  -15.7221    1.0000 </r>
       <r>  -15.6170    1.0000 </r>
       <r>  -15.5819    1.0000 </r>
       <r>  -15.5038    1.0000 </r>
       <r>  -15.4270    1.0000 </r>
       <r>   -9.7282    1.0000 </r>
       <r>   -9.4148    1.0000 </r>
       <r>   -9.3049    1.0000 </r>
       <r>   -8.9230    1.0000 </r>
       <r>   -8.8270    1.0000 </r>
       <r>   -8.7581    1.0000 </r>
       <r>   -8.5202    1.0000 </r>
       <r>   -8.4663    1.0000 </r>
       <r>   -8.3703    1.0000 </r>
       <r>   -8.2927    1.0000 </r>
       <r>   -8.2511    1.0000 </r>
       <r>   -8.2050    1.0000 </r>
       <r>   -8.1336    1.0000 </r>
       <r>   -8.0826    1.0000 </r>
       <r>   -7.9993    1.0000 </r>
       <r>   -7.8992    1.0000 </r>
       <r>   -7.7818    1.0000 </r>
       <r>   -7.5847    1.0000 </r>
       <r>   -7.5115    1.0000 </r>
       <r>   -7.3950    1.0000 </r>
       <r>   -7.3226    1.0000 </r>
       <r>   -7.1976    1.0000 </r>
       <r>   -7.0937    1.0000 </r>
       <r>   -7.0359    1.0000 </r>
       <r>   -6.9809    1.0000 </r>
       <r>   -6.9013    1.0000 </r>
       <r>   -6.7949    1.0000 </r>
       <r>   -6.7776    1.0000 </r>
       <r>   -6.7153    1.0000 </r>
       <r>   -6.6687    1.0000 </r>
       <r>   -6.6287    1.0000 </r>
       <r>   -6.4965    1.0000 </r>
       <r>   -6.4401    1.0000 </r>
       <r>   -6.3407    1.0000 </r>
       <r>   -6.2361    1.0000 </r>
       <r>   -6.1451    1.0000 </r>
       <r>   -6.1004    1.0000 </r>
       <r>   -6.0073    1.0000 </r>
       <r>   -5.9739    1.0000 </r>
       <r>   -5.8882    1.0000 </r>
       <r>   -5.8617    1.0000 </r>
       <r>   -5.8123    1.0000 </r>
       <r>   -5.7006    1.0000 </r>
       <r>   -5.6655    1.0000 </r>
       <r>   -5.6142    1.0000 </r>
       <r>   -5.5635    1.0000 </r>
       <r>   -5.2751    1.0000 </r>
       <r>   -5.1207    1.0000 </r>
       <r>   -5.0515    1.0000 </r>
       <r>   -4.9374    1.0000 </r>
       <r>   -4.8595    1.0000 </r>
       <r>   -4.7568    1.0000 </r>
       <r>   -4.5442    1.0000 </r>
       <r>   -4.4542    1.0000 </r>
       <r>   -4.3456    1.0000 </r>
       <r>   -4.0604    1.0000 </r>
       <r>   -3.7708    1.0000 </r>
       <r>   -3.6579    0.9999 </r>
       <r>   -3.5876    0.9995 </r>
       <r>   -3.4919    0.9954 </r>
       <r>   -3.3648    0.9563 </r>
       <r>   -3.0815    0.3844 </r>
       <r>   -2.9874    0.1688 </r>
       <r>   -2.7439    0.0037 </r>
       <r>   -2.6507    0.0004 </r>
       <r>   -2.5898    0.0001 </r>
       <r>   -2.4648    0.0000 </r>
       <r>   -2.4198    0.0000 </r>
       <r>   -2.3771    0.0000 </r>
       <r>   -2.2932    0.0000 </r>
       <r>   -2.2218    0.0000 </r>
       <r>   -2.0964    0.0000 </r>
       <r>   -1.8672    0.0000 </r>
       <r>   -1.7941    0.0000 </r>
       <r>   -1.5441    0.0000 </r>
       <r>   -1.4202    0.0000 </r>
       <r>   -1.2642    0.0000 </r>
       <r>   -1.1773    0.0000 </r>
       <r>   -0.9956    0.0000 </r>
       <r>   -0.9555    0.0000 </r>
       <r>   -0.8649    0.0000 </r>
       <r>   -0.7799    0.0000 </r>
       <r>   -0.7135    0.0000 </r>
       <r>   -0.6751    0.0000 </r>
       <r>   -0.6258    0.0000 </r>
       <r>   -0.5079    0.0000 </r>
       <r>   -0.3765    0.0000 </r>
       <r>   -0.3119    0.0000 </r>
       <r>   -0.2534    0.0000 </r>
       <r>   -0.1795    0.0000 </r>
       <r>   -0.0739    0.0000 </r>
       <r>    0.2905    0.0000 </r>
       <r>    0.5216    0.0000 </r>
       <r>    0.6309    0.0000 </r>
       <r>    0.9078    0.0000 </r>
       <r>    1.0760    0.0000 </r>
       <r>    1.1745    0.0000 </r>
       <r>    1.3837    0.0000 </r>
       <r>    1.5271    0.0000 </r>
       <r>    2.1493    0.0000 </r>
       <r>    2.2971    0.0000 </r>
       <r>    2.4099    0.0000 </r>
      </set>
      <set comment="kpoint 34">
       <r>  -17.4855    1.0000 </r>
       <r>  -17.3016    1.0000 </r>
       <r>  -16.7241    1.0000 </r>
       <r>  -16.6416    1.0000 </r>
       <r>  -16.4913    1.0000 </r>
       <r>  -16.3764    1.0000 </r>
       <r>  -16.2324    1.0000 </r>
       <r>  -16.1485    1.0000 </r>
       <r>  -16.0663    1.0000 </r>
       <r>  -15.9973    1.0000 </r>
       <r>  -15.9066    1.0000 </r>
       <r>  -15.8829    1.0000 </r>
       <r>  -15.7866    1.0000 </r>
       <r>  -15.7299    1.0000 </r>
       <r>  -15.6334    1.0000 </r>
       <r>  -15.5836    1.0000 </r>
       <r>  -15.5067    1.0000 </r>
       <r>  -15.4408    1.0000 </r>
       <r>   -9.7706    1.0000 </r>
       <r>   -9.2767    1.0000 </r>
       <r>   -9.1722    1.0000 </r>
       <r>   -9.0653    1.0000 </r>
       <r>   -8.9601    1.0000 </r>
       <r>   -8.8215    1.0000 </r>
       <r>   -8.5476    1.0000 </r>
       <r>   -8.4802    1.0000 </r>
       <r>   -8.3679    1.0000 </r>
       <r>   -8.2960    1.0000 </r>
       <r>   -8.2530    1.0000 </r>
       <r>   -8.1731    1.0000 </r>
       <r>   -8.1244    1.0000 </r>
       <r>   -8.0221    1.0000 </r>
       <r>   -7.9358    1.0000 </r>
       <r>   -7.8242    1.0000 </r>
       <r>   -7.7607    1.0000 </r>
       <r>   -7.5764    1.0000 </r>
       <r>   -7.5335    1.0000 </r>
       <r>   -7.5131    1.0000 </r>
       <r>   -7.3059    1.0000 </r>
       <r>   -7.2324    1.0000 </r>
       <r>   -7.1076    1.0000 </r>
       <r>   -6.9844    1.0000 </r>
       <r>   -6.9473    1.0000 </r>
       <r>   -6.8789    1.0000 </r>
       <r>   -6.8085    1.0000 </r>
       <r>   -6.7588    1.0000 </r>
       <r>   -6.7008    1.0000 </r>
       <r>   -6.6672    1.0000 </r>
       <r>   -6.5482    1.0000 </r>
       <r>   -6.5213    1.0000 </r>
       <r>   -6.4409    1.0000 </r>
       <r>   -6.3086    1.0000 </r>
       <r>   -6.2258    1.0000 </r>
       <r>   -6.1691    1.0000 </r>
       <r>   -6.1222    1.0000 </r>
       <r>   -6.1145    1.0000 </r>
       <r>   -5.9676    1.0000 </r>
       <r>   -5.9079    1.0000 </r>
       <r>   -5.8591    1.0000 </r>
       <r>   -5.8329    1.0000 </r>
       <r>   -5.7288    1.0000 </r>
       <r>   -5.6816    1.0000 </r>
       <r>   -5.6480    1.0000 </r>
       <r>   -5.6220    1.0000 </r>
       <r>   -5.4079    1.0000 </r>
       <r>   -5.0241    1.0000 </r>
       <r>   -4.9578    1.0000 </r>
       <r>   -4.8669    1.0000 </r>
       <r>   -4.7338    1.0000 </r>
       <r>   -4.6632    1.0000 </r>
       <r>   -4.6258    1.0000 </r>
       <r>   -4.5011    1.0000 </r>
       <r>   -4.3747    1.0000 </r>
       <r>   -4.0640    1.0000 </r>
       <r>   -3.8005    1.0000 </r>
       <r>   -3.6332    0.9998 </r>
       <r>   -3.5587    0.9990 </r>
       <r>   -3.4944    0.9957 </r>
       <r>   -3.3691    0.9590 </r>
       <r>   -3.1320    0.5252 </r>
       <r>   -3.0114    0.2149 </r>
       <r>   -2.7580    0.0049 </r>
       <r>   -2.6505    0.0004 </r>
       <r>   -2.5256    0.0000 </r>
       <r>   -2.4989    0.0000 </r>
       <r>   -2.4066    0.0000 </r>
       <r>   -2.3643    0.0000 </r>
       <r>   -2.2924    0.0000 </r>
       <r>   -2.2331    0.0000 </r>
       <r>   -2.1087    0.0000 </r>
       <r>   -1.8454    0.0000 </r>
       <r>   -1.7927    0.0000 </r>
       <r>   -1.5424    0.0000 </r>
       <r>   -1.4129    0.0000 </r>
       <r>   -1.2559    0.0000 </r>
       <r>   -1.1901    0.0000 </r>
       <r>   -0.9989    0.0000 </r>
       <r>   -0.9782    0.0000 </r>
       <r>   -0.8707    0.0000 </r>
       <r>   -0.7703    0.0000 </r>
       <r>   -0.6891    0.0000 </r>
       <r>   -0.6666    0.0000 </r>
       <r>   -0.6070    0.0000 </r>
       <r>   -0.5091    0.0000 </r>
       <r>   -0.4662    0.0000 </r>
       <r>   -0.3617    0.0000 </r>
       <r>   -0.3160    0.0000 </r>
       <r>   -0.0977    0.0000 </r>
       <r>   -0.0598    0.0000 </r>
       <r>    0.3020    0.0000 </r>
       <r>    0.4990    0.0000 </r>
       <r>    0.6489    0.0000 </r>
       <r>    0.9189    0.0000 </r>
       <r>    1.0753    0.0000 </r>
       <r>    1.1766    0.0000 </r>
       <r>    1.4055    0.0000 </r>
       <r>    1.5795    0.0000 </r>
       <r>    2.2366    0.0000 </r>
       <r>    2.2583    0.0000 </r>
       <r>    2.3759    0.0000 </r>
      </set>
     </set>
    </set>
   </array>
  </eigenvalues>
  <separator name="orbital magnetization" >
   <v name="MAGDIPOLOUT">      0.00000000      0.00000000      0.00000000</v>
  </separator>
 </calculation>
 <structure name="finalpos" >
  <crystal>
   <varray name="basis" >
    <v>       8.31693154       4.81764749       0.00000000 </v>
    <v>      -8.31058689       4.80664235       0.00000000 </v>
    <v>       0.00000000       0.00000000      30.00000000 </v>
   </varray>
   <i name="volume">   2400.41980244 </i>
   <varray name="rec_basis" >
    <v>       0.06007252       0.10386417       0.00000000 </v>
    <v>      -0.06021006       0.10394346       0.00000000 </v>
    <v>       0.00000000       0.00000000       0.03333333 </v>
   </varray>
  </crystal>
  <varray name="positions" >
   <v>       0.34897055       0.00735288       0.00049178 </v>
   <v>       0.32582256       0.66637823       0.00073369 </v>
   <v>       0.99787771       0.33290003      -0.00006368 </v>
   <v>       0.66552469       0.01261738       0.00020890 </v>
   <v>      -0.01306540       0.67866114      -0.00064955 </v>
   <v>       0.69501604       0.68170647      -0.00009582 </v>
   <v>      -0.01682861      -0.02479282      -0.00043081 </v>
   <v>       0.33660924       0.33077231      -0.00006863 </v>
   <v>       0.66018522       0.31839902       0.00016465 </v>
   <v>       0.10744814       0.21952774       0.95072198 </v>
   <v>       0.22223688       0.10554048       0.04986437 </v>
   <v>       0.11113749       0.55562571       0.95146428 </v>
   <v>       0.21910056       0.44442878       0.04935665 </v>
   <v>       0.11778261       0.89383792       0.94804276 </v>
   <v>       0.22502019       0.77957740       0.04923064 </v>
   <v>       0.44144163       0.21314810       0.94764961 </v>
   <v>       0.54865944       0.10793084       0.05419910 </v>
   <v>       0.44756280       0.55980342       0.95201665 </v>
   <v>       0.55813959       0.44589623       0.05094842 </v>
   <v>       0.43797969       0.88615039       0.94985348 </v>
   <v>       0.55178012       0.77522957       0.04895533 </v>
   <v>       0.78438252       0.22741192       0.94723156 </v>
   <v>       0.89292622       0.11556932       0.05032437 </v>
   <v>       0.77484288       0.55102497       0.94664040 </v>
   <v>       0.89099323       0.44241995       0.04953030 </v>
   <v>       0.77569474       0.89110993       0.94632404 </v>
   <v>       0.89097374       0.77998715       0.05735542 </v>
  </varray>
 </structure>
</modeling>
