unknown system                          
           1
     8.856330    5.108312    0.000000
    -8.853477    5.103403    0.000000
     0.000000    0.000000   30.000000
   V    Mo   W    S 
   3   3   3  18
Direct configuration=     1
   0.33333334  0.00000000  0.00000000
   0.33333334  0.66666669  0.00000000
   1.00000000  0.33333334  0.00000000
   0.66666669  0.00000000  0.00000000
   0.00000000  0.66666669  0.00000000
   0.66666669  0.66666669  0.00000000
   0.00000000  0.00000000  0.00000000
   0.33333334  0.33333334  0.00000000
   0.66666669  0.33333334  0.00000000
   0.11068511  0.22244981  0.95539999
   0.22244981  0.11068511  0.04460000
   0.11068511  0.55578315  0.95539999
   0.22244981  0.44401845  0.04460000
   0.11068511  0.88911647  0.95539999
   0.22244981  0.77735180  0.04460000
   0.44401845  0.22244981  0.95539999
   0.55578315  0.11068511  0.04460000
   0.44401845  0.55578315  0.95539999
   0.55578315  0.44401845  0.04460000
   0.44401845  0.88911647  0.95539999
   0.55578315  0.77735180  0.04460000
   0.77735180  0.22244981  0.95539999
   0.88911647  0.11068511  0.04460000
   0.77735180  0.55578315  0.95539999
   0.88911647  0.44401845  0.04460000
   0.77735180  0.88911647  0.95539999
   0.88911647  0.77735180  0.04460000
unknown system                          
           1
     8.668428    5.002016    0.000000
    -8.665832    4.997553    0.000000
     0.000000    0.000000   30.000000
   V    Mo   W    S 
   3   3   3  18
Direct configuration=     2
   0.33340409 -0.00151789 -0.00013023
   0.33403038  0.66783317 -0.00002188
   0.99925526  0.33383978  0.00010298
   0.66649771 -0.00161918  0.00004074
  -0.00100682  0.66659495 -0.00008017
   0.66797815  0.66807850  0.00004222
  -0.00297402 -0.00293218  0.00020682
   0.33454427  0.33505316  0.00004542
   0.66820644  0.33454808 -0.00017639
   0.10910368  0.22416415  0.95207935
   0.22405635  0.10905445  0.04792979
   0.11314498  0.55329514  0.95308986
   0.22028198  0.44595060  0.04698493
   0.11526373  0.89151338  0.95192033
   0.22654105  0.77964286  0.04688946
   0.44256139  0.21830974  0.95187012
   0.55144363  0.10973448  0.04798273
   0.44151240  0.55689724  0.95200153
   0.55499854  0.44368632  0.04924939
   0.43984592  0.88685700  0.95307255
   0.55101004  0.77549401  0.04805409
   0.78159917  0.22478178  0.95194487
   0.89161837  0.11517573  0.04810089
   0.77706548  0.55437170  0.95074371
   0.89038391  0.44142271  0.04805459
   0.77853132  0.88921119  0.95068001
   0.88931707  0.77877359  0.04932220
unknown system                          
           1
     8.486723    4.901002    0.000000
    -8.485006    4.898057    0.000000
     0.000000    0.000000   30.000000
   V    Mo   W    S 
   3   3   3  18
Direct configuration=     3
   0.33346297 -0.00181621 -0.00010102
   0.33427233  0.66812715 -0.00002264
   0.99897305  0.33392886  0.00006184
   0.66675566 -0.00211176  0.00008878
  -0.00180928  0.66658575 -0.00012620
   0.66874869  0.66863787  0.00004771
  -0.00420799 -0.00412390  0.00022584
   0.33519319  0.33556589  0.00003863
   0.66853918  0.33509102 -0.00019916
   0.10920431  0.22407414  0.95223290
   0.22396255  0.10914240  0.04779885
   0.11318895  0.55327874  0.95318139
   0.22038514  0.44587224  0.04691344
   0.11524883  0.89172383  0.95193927
   0.22660262  0.77967303  0.04683950
   0.44262276  0.21845730  0.95193037
   0.55145985  0.10990240  0.04788889
   0.44135950  0.55670881  0.95200922
   0.55492606  0.44347955  0.04924974
   0.43975850  0.88675836  0.95305457
   0.55084014  0.77540163  0.04809534
   0.78158590  0.22496509  0.95197595
   0.89182778  0.11515747  0.04810343
   0.77690398  0.55413190  0.95064419
   0.89021314  0.44126888  0.04809737
   0.77876345  0.88932268  0.95055174
   0.88943320  0.77901131  0.04947995
unknown system                          
           1
     8.278998    4.786054    0.000000
    -8.272895    4.775511    0.000000
     0.000000    0.000000   30.000000
   V    Mo   W    S 
   3   3   3  18
Direct configuration=     4
   0.33378503 -0.00237163  0.00006772
   0.33525706  0.66899875 -0.00001567
   0.99763998  0.33402538 -0.00012841
   0.66822584 -0.00378658  0.00024163
  -0.00562536  0.66650574 -0.00024048
   0.67219613  0.67074091  0.00004840
  -0.00902023 -0.00877346  0.00019095
   0.33792595  0.33719715 -0.00001169
   0.66942755  0.33732984 -0.00018212
   0.10881834  0.22422802  0.95142578
   0.22417926  0.10869822  0.04871224
   0.11374251  0.55295433  0.95224118
   0.21996454  0.44647019  0.04800879
   0.11624287  0.89250928  0.95056093
   0.22734718  0.78000172  0.04792702
   0.44221311  0.21749917  0.95064619
   0.55056246  0.10951053  0.04892258
   0.44103055  0.55741032  0.95057049
   0.55522740  0.44358483  0.05089190
   0.43881516  0.88604291  0.95165335
   0.54941411  0.77455727  0.04969324
   0.78257568  0.22543767  0.95065359
   0.89262246  0.11625423  0.04960030
   0.77665755  0.55409840  0.94860779
   0.89076774  0.44085187  0.04972420
   0.77879724  0.88931319  0.94840405
   0.88942433  0.77892622  0.05178593
unknown system                          
           1
     8.286651    4.796522    0.000000
    -8.273616    4.773975    0.000000
     0.000000    0.000000   30.000000
   V    Mo   W    S 
   3   3   3  18
Direct configuration=     5
   0.33477839 -0.00266216  0.00041098
   0.33690916  0.67017701  0.00001185
   0.99480117  0.33431748 -0.00047645
   0.67123137 -0.00715925  0.00042376
  -0.01337864  0.66613427 -0.00028456
   0.67901613  0.67433901  0.00003328
  -0.01839778 -0.01785246  0.00004469
   0.34402385  0.34071755 -0.00015108
   0.67078573  0.34211220 -0.00004337
   0.10833188  0.22359586  0.95085700
   0.22358562  0.10800526  0.04958108
   0.11391339  0.55336232  0.95099569
   0.21972314  0.44745421  0.04945394
   0.11647494  0.89268539  0.94876455
   0.22701962  0.77964238  0.04931837
   0.44231249  0.21638640  0.94882996
   0.55054274  0.10916462  0.05006692
   0.44174997  0.55900103  0.94870148
   0.55642937  0.44488488  0.05318399
   0.43853150  0.88533743  0.94966469
   0.54845190  0.77362618  0.05187947
   0.78306973  0.22533386  0.94902926
   0.89332677  0.11695640  0.05170968
   0.77632878  0.55451370  0.94556246
   0.89147466  0.44109883  0.05188795
   0.77817066  0.88871229  0.94525905
   0.88900792  0.77832976  0.05528524
unknown system                          
           1
     8.285524    4.795548    0.000000
    -8.271932    4.772040    0.000000
     0.000000    0.000000   30.000000
   V    Mo   W    S 
   3   3   3  18
Direct configuration=     6
   0.33537918 -0.00253123  0.00043074
   0.33728940  0.67038870  0.00004526
   0.99345414  0.33461774 -0.00050087
   0.67165363 -0.00834950  0.00038217
  -0.01466910  0.66552786 -0.00019685
   0.67881148  0.67375514 -0.00001909
  -0.01969643 -0.01909592  0.00012264
   0.34695172  0.34245068 -0.00024225
   0.67091359  0.34397351 -0.00012058
   0.10841320  0.22261890  0.95140100
   0.22255711  0.10792329  0.04917885
   0.11331388  0.55409433  0.95109064
   0.21998165  0.44744417  0.04931316
   0.11545373  0.89214259  0.94883163
   0.22602786  0.77906972  0.04917443
   0.44292087  0.21658336  0.94876422
   0.55179940  0.10950147  0.04985630
   0.44266727  0.55949742  0.94864481
   0.55717877  0.44580028  0.05350000
   0.43908639  0.88551080  0.94966818
   0.54927464  0.77362159  0.05194232
   0.78225895  0.22493453  0.94917000
   0.89337798  0.11634593  0.05176224
   0.77610600  0.55469194  0.94523328
   0.89130247  0.44151123  0.05202047
   0.77760159  0.88810221  0.94486577
   0.88880506  0.77808371  0.05568143
unknown system                          
           1
     8.282091    4.792767    0.000000
    -8.269885    4.771656    0.000000
     0.000000    0.000000   30.000000
   V    Mo   W    S 
   3   3   3  18
Direct configuration=     7
   0.33565598 -0.00255935  0.00047220
   0.33752635  0.67057092  0.00008715
   0.99253972  0.33488313 -0.00053025
   0.67202287 -0.00924074  0.00037482
  -0.01555794  0.66511393 -0.00017401
   0.67884662  0.67353668 -0.00001920
  -0.02098023 -0.02026305  0.00011023
   0.34892317  0.34359986 -0.00027436
   0.67103567  0.34526699 -0.00013125
   0.10859579  0.22236317  0.95172688
   0.22223080  0.10797506  0.04896068
   0.11310668  0.55434709  0.95114334
   0.22009826  0.44740583  0.04921341
   0.11511488  0.89194732  0.94886907
   0.22567201  0.77886655  0.04909803
   0.44319876  0.21666950  0.94869378
   0.55233795  0.10967911  0.04971402
   0.44296086  0.55972467  0.94853835
   0.55748825  0.44611987  0.05372136
   0.43926734  0.88554905  0.94964602
   0.54952152  0.77357679  0.05200013
   0.78189640  0.22477640  0.94923489
   0.89337609  0.11616109  0.05180212
   0.77606672  0.55479253  0.94503125
   0.89116268  0.44157346  0.05213654
   0.77747235  0.88785261  0.94468990
   0.88863490  0.77792598  0.05586481
unknown system                          
           1
     8.278351    4.788542    0.000000
    -8.268479    4.771473    0.000000
     0.000000    0.000000   30.000000
   V    Mo   W    S 
   3   3   3  18
Direct configuration=     8
   0.33547030 -0.00246811  0.00043284
   0.33730999  0.67037784  0.00006072
   0.99335947  0.33461818 -0.00050280
   0.67180060 -0.00847182  0.00037240
  -0.01503347  0.66547580 -0.00019174
   0.67904991  0.67377631 -0.00000847
  -0.02011090 -0.01948917  0.00009800
   0.34730068  0.34267160 -0.00022523
   0.67096520  0.34426216 -0.00011764
   0.10839990  0.22248455  0.95143687
   0.22242981  0.10789194  0.04915518
   0.11323142  0.55419010  0.95109309
   0.21999764  0.44746512  0.04931510
   0.11532312  0.89206719  0.94882565
   0.22588629  0.77899293  0.04916481
   0.44298604  0.21657125  0.94873336
   0.55190359  0.10952911  0.04985996
   0.44282463  0.55958552  0.94862177
   0.55723639  0.44590532  0.05352423
   0.43915367  0.88553604  0.94964549
   0.54937444  0.77360741  0.05195623
   0.78223609  0.22492621  0.94916428
   0.89338674  0.11630744  0.05179669
   0.77609338  0.55472019  0.94517311
   0.89128021  0.44155019  0.05203881
   0.77761020  0.88807803  0.94482646
   0.88874913  0.77805315  0.05575073
unknown system                          
           1
     8.269263    4.785824    0.000000
    -8.256988    4.764591    0.000000
     0.000000    0.000000   30.000000
   V    Mo   W    S 
   3   3   3  18
Direct configuration=     9
   0.33546163 -0.00151504  0.00029728
   0.33634289  0.66919644 -0.00002310
   0.99618460  0.33358898 -0.00042481
   0.67157202 -0.00587657  0.00035345
  -0.01469126  0.66632986 -0.00019115
   0.68023477  0.67410856  0.00000506
  -0.01798601 -0.01764544  0.00008817
   0.34264828  0.34025437 -0.00009237
   0.67078506  0.34169873 -0.00010427
   0.10770895  0.22233415  0.95057557
   0.22255806  0.10753845  0.04973328
   0.11331441  0.55403903  0.95096438
   0.21966678  0.44774258  0.04972585
   0.11550572  0.89213849  0.94860117
   0.22604249  0.77910069  0.04932812
   0.44248931  0.21623268  0.94876338
   0.55092139  0.10928629  0.05039188
   0.44307014  0.55945748  0.94887302
   0.55679662  0.44576126  0.05303177
   0.43895358  0.88556372  0.94956313
   0.54933827  0.77357147  0.05183840
   0.78339174  0.22560816  0.94891656
   0.89360747  0.11677205  0.05192145
   0.77593138  0.55450440  0.94537329
   0.89162983  0.44156246  0.05177847
   0.77780183  0.88843974  0.94502857
   0.88893452  0.77842146  0.05568334
unknown system                          
           1
     8.279971    4.792642    0.000000
    -8.266266    4.768935    0.000000
     0.000000    0.000000   30.000000
   V    Mo   W    S 
   3   3   3  18
Direct configuration=    10
   0.33668268 -0.00092001  0.00036656
   0.33635624  0.66919153  0.00001277
   0.99650462  0.33302734 -0.00045339
   0.67181389 -0.00577515  0.00035492
  -0.01582020  0.66658445 -0.00015400
   0.68126336  0.67449249 -0.00002351
  -0.01899780 -0.01845070  0.00007878
   0.34257020  0.34035696 -0.00010983
   0.67061204  0.34191161 -0.00008964
   0.10785488  0.22182879  0.95067165
   0.22214833  0.10751226  0.04955657
   0.11290202  0.55447348  0.95110523
   0.21984686  0.44777802  0.04977252
   0.11484409  0.89172503  0.94868698
   0.22551603  0.77887511  0.04909588
   0.44264451  0.21638035  0.94873597
   0.55134033  0.10936172  0.05033056
   0.44357439  0.55959134  0.94890261
   0.55696961  0.44602669  0.05307004
   0.43920439  0.88571067  0.94963398
   0.54984383  0.77372733  0.05170323
   0.78335491  0.22561021  0.94895537
   0.89357622  0.11650052  0.05198284
   0.77572463  0.55434999  0.94512301
   0.89151770  0.44169179  0.05175874
   0.77753554  0.88822862  0.94497126
   0.88883117  0.77842402  0.05596080
unknown system                          
           1
     8.284463    4.796186    0.000000
    -8.269168    4.769729    0.000000
     0.000000    0.000000   30.000000
   V    Mo   W    S 
   3   3   3  18
Direct configuration=    11
   0.33707403 -0.00110325  0.00041188
   0.33676475  0.66961876  0.00004613
   0.99512870  0.33346299 -0.00048629
   0.67207224 -0.00706822  0.00034419
  -0.01657809  0.66595517 -0.00014801
   0.68082980  0.67407961 -0.00003632
  -0.02035816 -0.01961824  0.00011316
   0.34525094  0.34186795 -0.00016553
   0.67069996  0.34352257 -0.00011896
   0.10816275  0.22172305  0.95110545
   0.22193151  0.10763859  0.04924803
   0.11276774  0.55463927  0.95118620
   0.21998956  0.44766711  0.04960068
   0.11466056  0.89163940  0.94877690
   0.22527098  0.77873653  0.04901687
   0.44293136  0.21649191  0.94866649
   0.55196761  0.10956532  0.05012304
   0.44364329  0.55978640  0.94874601
   0.55728274  0.44626777  0.05337614
   0.43933845  0.88572678  0.94961982
   0.54996480  0.77366153  0.05180435
   0.78281644  0.22532874  0.94906339
   0.89352626  0.11630160  0.05199214
   0.77573156  0.55446375  0.94494187
   0.89134722  0.44168921  0.05191182
   0.77733371  0.88793648  0.94475191
   0.88866375  0.77823369  0.05610856
unknown system                          
           1
     8.271608    4.786053    0.000000
    -8.260892    4.767519    0.000000
     0.000000    0.000000   30.000000
   V    Mo   W    S 
   3   3   3  18
Direct configuration=    12
   0.33804919 -0.00084041  0.00044505
   0.33697636  0.66981558  0.00007499
   0.99440065  0.33349746 -0.00051526
   0.67233963 -0.00788426  0.00032717
  -0.01769121  0.66548361 -0.00012807
   0.68090137  0.67378565 -0.00005769
  -0.02170015 -0.02065776  0.00014689
   0.34716002  0.34308018 -0.00019661
   0.67063865  0.34473265 -0.00014958
   0.10838596  0.22143820  0.95141322
   0.22164181  0.10769390  0.04896807
   0.11255041  0.55488019  0.95131021
   0.22013749  0.44762820  0.04950634
   0.11433024  0.89147282  0.94889190
   0.22492332  0.77857169  0.04887889
   0.44315007  0.21659368  0.94860429
   0.55253258  0.10977137  0.05000463
   0.44384424  0.55997160  0.94865206
   0.55753008  0.44651405  0.05358893
   0.43948204  0.88577936  0.94961140
   0.55019469  0.77362158  0.05182911
   0.78250724  0.22519857  0.94915904
   0.89349737  0.11611553  0.05203394
   0.77563723  0.55446580  0.94474659
   0.89119324  0.44170343  0.05198510
   0.77710412  0.88765719  0.94457416
   0.88849782  0.77812454  0.05629513
unknown system                          
           1
     8.272050    4.786210    0.000000
    -8.262175    4.769129    0.000000
     0.000000    0.000000   30.000000
   V    Mo   W    S 
   3   3   3  18
Direct configuration=    13
   0.33495338 -0.00176738  0.00035948
   0.33668887  0.66960974 -0.00002421
   0.99644295  0.33343976 -0.00041690
   0.67162417 -0.00574402  0.00034551
  -0.01488241  0.66708890 -0.00022050
   0.68112208  0.67477008 -0.00000276
  -0.01824752 -0.01836957  0.00006834
   0.34208825  0.33967833 -0.00008313
   0.67081746  0.34161825 -0.00007878
   0.10769138  0.22200516  0.95050398
   0.22232941  0.10745504  0.04979236
   0.11310163  0.55442938  0.95094814
   0.21976870  0.44779179  0.04980455
   0.11516041  0.89184800  0.94848644
   0.22578160  0.77895742  0.04928175
   0.44259750  0.21618825  0.94877722
   0.55092503  0.10909435  0.05030803
   0.44348119  0.55956900  0.94893653
   0.55684410  0.44589077  0.05297874
   0.43914920  0.88570663  0.94967542
   0.54966649  0.77375796  0.05177287
   0.78330700  0.22547972  0.94882900
   0.89361491  0.11652544  0.05194926
   0.77591186  0.55446241  0.94527284
   0.89164027  0.44178137  0.05183451
   0.77768286  0.88847738  0.94500793
   0.88895368  0.77847028  0.05589330
unknown system                          
           1
     8.268314    4.784705    0.000000
    -8.256471    4.764221    0.000000
     0.000000    0.000000   30.000000
   V    Mo   W    S 
   3   3   3  18
Direct configuration=    14
   0.33297751 -0.00240894  0.00038047
   0.33672362  0.66954388 -0.00007324
   0.99719637  0.33333599 -0.00041272
   0.67176438 -0.00462776  0.00037787
  -0.01395513  0.66813297 -0.00019993
   0.68170890  0.67554894  0.00001057
  -0.01669622 -0.01767099  0.00003763
   0.33953249  0.33792189 -0.00009216
   0.67132889  0.34049435 -0.00001680
   0.10739273  0.22198240  0.95020458
   0.22231023  0.10725924  0.05015490
   0.11315380  0.55447759  0.95088746
   0.21967937  0.44786844  0.04991565
   0.11521352  0.89183794  0.94816459
   0.22581733  0.77890673  0.04943358
   0.44240642  0.21591467  0.94885672
   0.55037567  0.10880158  0.05034669
   0.44362090  0.55943565  0.94912071
   0.55666693  0.44582487  0.05273536
   0.43912779  0.88581987  0.94970845
   0.54971524  0.77388721  0.05175713
   0.78368781  0.22563148  0.94869561
   0.89372556  0.11654713  0.05189522
   0.77593779  0.55444454  0.94535787
   0.89187659  0.44198446  0.05173924
   0.77782028  0.88876326  0.94507488
   0.88910570  0.77855707  0.05593959
unknown system                          
           1
     8.273759    4.788242    0.000000
    -8.261276    4.766651    0.000000
     0.000000    0.000000   30.000000
   V    Mo   W    S 
   3   3   3  18
Direct configuration=    15
   0.33301989 -0.00257079  0.00041457
   0.33719671  0.66984551 -0.00006104
   0.99630760  0.33339874 -0.00044246
   0.67224291 -0.00543494  0.00035078
  -0.01524302  0.66804810 -0.00019362
   0.68222235  0.67567717 -0.00000026
  -0.01774980 -0.01899322  0.00006225
   0.34090585  0.33864965 -0.00013768
   0.67178838  0.34194293 -0.00003393
   0.10762125  0.22161050  0.95055411
   0.22188302  0.10726056  0.04989784
   0.11290265  0.55489537  0.95111849
   0.21987718  0.44777657  0.04975542
   0.11469084  0.89154196  0.94820905
   0.22530783  0.77862117  0.04926934
   0.44263865  0.21594926  0.94890311
   0.55092887  0.10902506  0.05011152
   0.44393851  0.55957263  0.94912915
   0.55687422  0.44605075  0.05281347
   0.43930462  0.88597164  0.94978452
   0.55010119  0.77393017  0.05173648
   0.78340236  0.22554141  0.94879872
   0.89380035  0.11630825  0.05189209
   0.77583417  0.55445442  0.94519969
   0.89181478  0.44211591  0.05177662
   0.77767149  0.88854682  0.94492667
   0.88893161  0.77847887  0.05616499
unknown system                          
           1
     8.282451    4.793916    0.000000
    -8.268204    4.769273    0.000000
     0.000000    0.000000   30.000000
   V    Mo   W    S 
   3   3   3  18
Direct configuration=    16
   0.33366587 -0.00238565  0.00043074
   0.33723727  0.66988006 -0.00003609
   0.99583146  0.33344971 -0.00046019
   0.67235749 -0.00593151  0.00035039
  -0.01568650  0.66761651 -0.00017121
   0.68196670  0.67535218 -0.00000992
  -0.01846747 -0.01937331  0.00007402
   0.34213107  0.33946988 -0.00015930
   0.67169010  0.34258376 -0.00005126
   0.10774518  0.22154998  0.95073526
   0.22180631  0.10732683  0.04973852
   0.11282628  0.55492580  0.95116229
   0.21992737  0.44774472  0.04969956
   0.11459671  0.89150774  0.94829669
   0.22519830  0.77857639  0.04920550
   0.44275590  0.21604457  0.94885007
   0.55123757  0.10916295  0.05005963
   0.44395520  0.55966185  0.94903769
   0.55701392  0.44615737  0.05297010
   0.43935134  0.88595608  0.94975329
   0.55014825  0.77387707  0.05176873
   0.78322796  0.22547188  0.94885945
   0.89377072  0.11626069  0.05191435
   0.77579023  0.55447856  0.94508987
   0.89172113  0.44207261  0.05183153
   0.77758053  0.88838145  0.94483871
   0.88883557  0.77839624  0.05622150
unknown system                          
           1
     8.280685    4.792305    0.000000
    -8.267771    4.769970    0.000000
     0.000000    0.000000   30.000000
   V    Mo   W    S 
   3   3   3  18
Direct configuration=    17
   0.33422778 -0.00239863  0.00048848
   0.33765911  0.67014755  0.00000925
   0.99453066  0.33361461 -0.00050592
   0.67287511 -0.00721476  0.00034121
  -0.01688546  0.66697519 -0.00012281
   0.68167400  0.67486120 -0.00002690
  -0.02010139 -0.02069430  0.00009377
   0.34495681  0.34121495 -0.00022445
   0.67182537  0.34444192 -0.00008670
   0.10800046  0.22124853  0.95120757
   0.22148230  0.10742569  0.04939050
   0.11261107  0.55519616  0.95134235
   0.22010438  0.44767480  0.04952467
   0.11419515  0.89129950  0.94840923
   0.22478995  0.77833661  0.04904052
   0.44309011  0.21618506  0.94878977
   0.55197717  0.10948048  0.04981552
   0.44412643  0.55989233  0.94888190
   0.55734037  0.44642879  0.05328084
   0.43951775  0.88600877  0.94974727
   0.55040277  0.77381499  0.05182920
   0.78279849  0.22530069  0.94899826
   0.89378417  0.11606815  0.05194065
   0.77567733  0.55456390  0.94482112
   0.89156432  0.44209425  0.05196440
   0.77741404  0.88803098  0.94462069
   0.88857617  0.77821705  0.05642953
unknown system                          
           1
     8.266940    4.783289    0.000000
    -8.255865    4.764133    0.000000
     0.000000    0.000000   30.000000
   V    Mo   W    S 
   3   3   3  18
Direct configuration=    18
   0.33395880 -0.00228439  0.00044276
   0.33734948  0.66991453 -0.00002152
   0.99557443  0.33341960 -0.00047120
   0.67254630 -0.00621031  0.00034331
  -0.01616147  0.66751445 -0.00014650
   0.68209503  0.67532884 -0.00001457
  -0.01897339 -0.01980337  0.00007643
   0.34271937  0.33985136 -0.00017258
   0.67174141  0.34306934 -0.00005942
   0.10776106  0.22137928  0.95083894
   0.22165487  0.10729611  0.04965859
   0.11272468  0.55505775  0.95122668
   0.21996646  0.44774539  0.04967110
   0.11443193  0.89141683  0.94830769
   0.22501829  0.77847130  0.04915065
   0.44284681  0.21604117  0.94881668
   0.55145432  0.10924245  0.05001926
   0.44407953  0.55976047  0.94900142
   0.55709617  0.44626568  0.05304968
   0.43940566  0.88599559  0.94973670
   0.55026452  0.77385626  0.05178644
   0.78315498  0.22543943  0.94887874
   0.89378583  0.11619804  0.05194234
   0.77571677  0.55448084  0.94496940
   0.89171758  0.44211440  0.05187551
   0.77752803  0.88829766  0.94475268
   0.88875702  0.77835575  0.05634069
unknown system                          
           1
     8.283847    4.795282    0.000000
    -8.269261    4.770052    0.000000
     0.000000    0.000000   30.000000
   V    Mo   W    S 
   3   3   3  18
Direct configuration=    19
   0.33420663 -0.00163385  0.00035318
   0.33680283  0.66935704 -0.00008852
   0.99783404  0.33291311 -0.00040443
   0.67202645 -0.00445225  0.00033434
  -0.01582724  0.66842932 -0.00018138
   0.68351170  0.67626857 -0.00000979
  -0.01742565 -0.01867314  0.00006957
   0.33847155  0.33738861 -0.00007662
   0.67163487  0.34092685 -0.00001934
   0.10729196  0.22134757  0.95023672
   0.22182210  0.10699539  0.05003274
   0.11280233  0.55499094  0.95118570
   0.21974995  0.44786942  0.04989151
   0.11459054  0.89150098  0.94820046
   0.22524644  0.77863336  0.04920380
   0.44247932  0.21579787  0.94893932
   0.55069066  0.10899042  0.05034607
   0.44424069  0.55956229  0.94934566
   0.55670409  0.44607832  0.05249875
   0.43923384  0.88602212  0.94976597
   0.55023668  0.77389168  0.05160735
   0.78389086  0.22585609  0.94874253
   0.89383397  0.11637906  0.05191819
   0.77557794  0.55424960  0.94524439
   0.89192408  0.44216304  0.05162116
   0.77768776  0.88868071  0.94500116
   0.88897608  0.77868135  0.05624142
unknown system                          
           1
     8.284919    4.796391    0.000000
    -8.269793    4.770224    0.000000
     0.000000    0.000000   30.000000
   V    Mo   W    S 
   3   3   3  18
Direct configuration=    20
   0.33486138 -0.00191757  0.00046371
   0.33751110  0.66997841 -0.00001466
   0.99555849  0.33325792 -0.00048066
   0.67262400 -0.00654496  0.00033278
  -0.01714438  0.66733465 -0.00012007
   0.68254118  0.67537280 -0.00003672
  -0.01966960 -0.02036500  0.00010246
   0.34302735  0.34011491 -0.00019284
   0.67181576  0.34368544 -0.00007255
   0.10778692  0.22108645  0.95096252
   0.22147787  0.10724853  0.04950487
   0.11255053  0.55528894  0.95139104
   0.22003038  0.44772236  0.04963361
   0.11413421  0.89126694  0.94838884
   0.22475510  0.77834837  0.04899853
   0.44295076  0.21608183  0.94882376
   0.55178674  0.10942694  0.04995385
   0.44430779  0.55984510  0.94903175
   0.55719701  0.44642528  0.05305697
   0.43947986  0.88605517  0.94974547
   0.55049250  0.77381892  0.05174656
   0.78312237  0.22549090  0.94894941
   0.89380508  0.11611147  0.05195714
   0.77551358  0.55442616  0.94485090
   0.89166207  0.44215140  0.05186147
   0.77740698  0.88814103  0.94466571
   0.88862941  0.77836205  0.05649602
unknown system                          
           1
     8.283849    4.796025    0.000000
    -8.267629    4.767968    0.000000
     0.000000    0.000000   30.000000
   V    Mo   W    S 
   3   3   3  18
Direct configuration=    21
   0.33537657 -0.00173188  0.00047242
   0.33760625  0.67004235 -0.00000726
   0.99552424  0.33315458 -0.00048796
   0.67264425 -0.00671936  0.00032423
  -0.01758776  0.66720912 -0.00010795
   0.68272015  0.67539287 -0.00004493
  -0.02002840 -0.02058730  0.00011297
   0.34321174  0.34027370 -0.00019799
   0.67183805  0.34397322 -0.00008413
   0.10778823  0.22095661  0.95101272
   0.22140421  0.10722227  0.04943149
   0.11247352  0.55538501  0.95146396
   0.22006156  0.44771572  0.04961908
   0.11400303  0.89120365  0.94844254
   0.22463091  0.77828953  0.04893121
   0.44299474  0.21611122  0.94881695
   0.55195348  0.10950831  0.04993565
   0.44437763  0.55987495  0.94903008
   0.55721976  0.44647927  0.05307129
   0.43952340  0.88607772  0.94973717
   0.55057981  0.77380253  0.05173766
   0.78310362  0.22549273  0.94898531
   0.89379182  0.11606594  0.05196602
   0.77543508  0.55440554  0.94479176
   0.89163532  0.44216691  0.05185956
   0.77735587  0.88808588  0.94462905
   0.88857736  0.77836336  0.05655899
unknown system                          
           1
     8.280905    4.794202    0.000000
    -8.265035    4.766751    0.000000
     0.000000    0.000000   30.000000
   V    Mo   W    S 
   3   3   3  18
Direct configuration=    22
   0.33579498 -0.00183546  0.00052043
   0.33797803  0.67034061  0.00003449
   0.99419292  0.33338065 -0.00053243
   0.67305256 -0.00797536  0.00031683
  -0.01845184  0.66646522 -0.00008381
   0.68212155  0.67474995 -0.00005522
  -0.02146937 -0.02164417  0.00013248
   0.34611530  0.34204832 -0.00025281
   0.67189324  0.34567643 -0.00012588
   0.10808086  0.22082996  0.95146963
   0.22121651  0.10738940  0.04909049
   0.11234877  0.55551222  0.95159635
   0.22023001  0.44762712  0.04943004
   0.11374257  0.89108128  0.94859845
   0.22437016  0.77814245  0.04880492
   0.44329510  0.21630376  0.94878337
   0.55260239  0.10980649  0.04969263
   0.44436933  0.56001364  0.94886532
   0.55749330  0.44664178  0.05336146
   0.43966822  0.88608909  0.94974032
   0.55072248  0.77375444  0.05180156
   0.78264635  0.22529798  0.94914635
   0.89375677  0.11590429  0.05195678
   0.77542418  0.55452718  0.94463244
   0.89142279  0.44211963  0.05196468
   0.77723770  0.88777708  0.94449002
   0.88835961  0.77819045  0.05662100
unknown system                          
           1
     8.271807    4.788244    0.000000
    -8.259088    4.766242    0.000000
     0.000000    0.000000   30.000000
   V    Mo   W    S 
   3   3   3  18
Direct configuration=    23
   0.33604809 -0.00149256  0.00048705
   0.33777131  0.67018809  0.00001234
   0.99503278  0.33307786 -0.00050855
   0.67289420 -0.00723120  0.00031063
  -0.01838212  0.66684036 -0.00009538
   0.68279662  0.67519004 -0.00005264
  -0.02093106 -0.02123849  0.00012788
   0.34440508  0.34098560 -0.00021360
   0.67186051  0.34484436 -0.00011220
   0.10787767  0.22078546  0.95122388
   0.22128425  0.10725397  0.04923063
   0.11231549  0.55548946  0.95158508
   0.22013913  0.44765080  0.04953050
   0.11378513  0.89110212  0.94857350
   0.22441349  0.77821560  0.04882054
   0.44314130  0.21619989  0.94882545
   0.55231512  0.10969118  0.04982200
   0.44444044  0.55990986  0.94898310
   0.55730874  0.44655563  0.05314977
   0.43963139  0.88614527  0.94974156
   0.55075407  0.77380023  0.05174569
   0.78293357  0.22543480  0.94909275
   0.89375087  0.11595651  0.05195193
   0.77537229  0.55443485  0.94472259
   0.89151354  0.44215617  0.05186580
   0.77729507  0.88794981  0.94458104
   0.88844748  0.77831881  0.05659857
unknown system                          
           1
     8.276433    4.792701    0.000000
    -8.260668    4.765428    0.000000
     0.000000    0.000000   30.000000
   V    Mo   W    S 
   3   3   3  18
Direct configuration=    24
   0.33825141  0.00119384  0.00023157
   0.33624647  0.66892969 -0.00014289
   1.00164537  0.33083260 -0.00032376
   0.67143132 -0.00198281  0.00026333
  -0.01757538  0.66940483 -0.00013854
   0.68695961  0.67790631 -0.00004565
  -0.01676780 -0.01765633  0.00009006
   0.33211287  0.33366865  0.00007329
   0.67113473  0.33854299 -0.00000779
   0.10636133  0.22040358  0.94932174
   0.22174160  0.10622780  0.05034665
   0.11227278  0.55537974  0.95146426
   0.21947110  0.44797625  0.05030618
   0.11414816  0.89129047  0.94830770
   0.22483999  0.77870044  0.04895666
   0.44202593  0.21538614  0.94898445
   0.55028036  0.10892796  0.05091038
   0.44492979  0.55926803  0.94983202
   0.55602818  0.44602400  0.05172300
   0.43929478  0.88642055  0.94968435