   27   27  100    1
  0.9710400E+02  0.1002848E-08  0.1002848E-08  0.3000000E-08  0.5000000E-15
  1.000000000000000E-004
  CAR 
 unknown system                          
    159     34    120
 
  0.0000000E+00  0.0000000E+00  0.0000000E+00  0.1562500E-01
    1      -17.808010   1.000000
    2      -16.732273   1.000000
    3      -16.584780   1.000000
    4      -16.555949   1.000000
    5      -16.481894   1.000000
    6      -16.418191   1.000000
    7      -16.401578   1.000000
    8      -16.383735   1.000000
    9      -16.206171   1.000000
   10      -16.106835   1.000000
   11      -16.047096   1.000000
   12      -16.007409   1.000000
   13      -15.839799   1.000000
   14      -15.830416   1.000000
   15      -15.552693   1.000000
   16      -15.502064   1.000000
   17      -15.500141   1.000000
   18      -15.258350   1.000000
   19       -9.147575   1.000000
   20       -8.869712   1.000000
   21       -8.849458   1.000000
   22       -8.797048   1.000000
   23       -8.731684   1.000000
   24       -8.709544   1.000000
   25       -8.636244   1.000000
   26       -8.616791   1.000000
   27       -8.542049   1.000000
   28       -8.482763   1.000000
   29       -8.446273   1.000000
   30       -8.334695   1.000000
   31       -8.251439   1.000000
   32       -8.242284   1.000000
   33       -8.193015   1.000000
   34       -8.129443   1.000000
   35       -7.980592   1.000000
   36       -7.833566   1.000000
   37       -7.754924   1.000000
   38       -7.555199   1.000000
   39       -7.471034   1.000000
   40       -7.413436   1.000000
   41       -7.277114   1.000000
   42       -7.275213   1.000000
   43       -7.155333   1.000000
   44       -6.961659   1.000000
   45       -6.865445   1.000000
   46       -6.850314   1.000000
   47       -6.769793   1.000000
   48       -6.741863   1.000000
   49       -6.571376   1.000000
   50       -6.567149   1.000000
   51       -6.511995   1.000000
   52       -6.416118   1.000000
   53       -6.244562   1.000000
   54       -6.131467   1.000000
   55       -6.115925   1.000000
   56       -6.000340   1.000000
   57       -5.899204   1.000000
   58       -5.833128   1.000000
   59       -5.812325   1.000000
   60       -5.574324   1.000000
   61       -5.544526   1.000000
   62       -5.393083   1.000000
   63       -5.316137   1.000000
   64       -5.212880   1.000000
   65       -5.068577   1.000000
   66       -4.977050   1.000000
   67       -4.927397   1.000000
   68       -4.769602   1.000000
   69       -4.704767   1.000000
   70       -4.641058   1.000000
   71       -4.594544   1.000000
   72       -4.531999   1.000000
   73       -4.481614   1.000000
   74       -4.327611   1.000000
   75       -4.087608   1.000000
   76       -4.078718   1.000000
   77       -3.679680   0.986987
   78       -3.531647   0.880813
   79       -3.491380   0.814427
   80       -3.457894   0.744585
   81       -3.226357   0.163626
   82       -2.796790   0.000029
   83       -2.741558   0.000005
   84       -2.623690   0.000000
   85       -2.421997   0.000000
   86       -2.320746   0.000000
   87       -2.225310   0.000000
   88       -2.151572   0.000000
   89       -1.985043   0.000000
   90       -1.944768   0.000000
   91       -1.540222   0.000000
   92       -1.485927   0.000000
   93       -1.420386   0.000000
   94       -1.254058   0.000000
   95       -1.218974   0.000000
   96       -1.152476   0.000000
   97       -1.121188   0.000000
   98       -1.107212   0.000000
   99       -0.844269   0.000000
  100       -0.688713   0.000000
  101       -0.649581   0.000000
  102       -0.616504   0.000000
  103       -0.449150   0.000000
  104       -0.420361   0.000000
  105       -0.366640   0.000000
  106       -0.059190   0.000000
  107       -0.019761   0.000000
  108        0.132633   0.000000
  109        0.149261   0.000000
  110        0.252509   0.000000
  111        0.333403   0.000000
  112        0.409679   0.000000
  113        0.538483   0.000000
  114        0.984520   0.000000
  115        1.038667   0.000000
  116        1.108839   0.000000
  117        1.467701   0.000000
  118        1.652860   0.000000
  119        1.838214   0.000000
  120        2.164095   0.000000
 
  0.1250000E+00  0.2775558E-16  0.0000000E+00  0.3125000E-01
    1      -17.781963   1.000000
    2      -16.773902   1.000000
    3      -16.685070   1.000000
    4      -16.594367   1.000000
    5      -16.499870   1.000000
    6      -16.417176   1.000000
    7      -16.375249   1.000000
    8      -16.312095   1.000000
    9      -16.204841   1.000000
   10      -16.082143   1.000000
   11      -16.005565   1.000000
   12      -15.964975   1.000000
   13      -15.856042   1.000000
   14      -15.802531   1.000000
   15      -15.583433   1.000000
   16      -15.503967   1.000000
   17      -15.490124   1.000000
   18      -15.271721   1.000000
   19       -9.121198   1.000000
   20       -9.089810   1.000000
   21       -8.926780   1.000000
   22       -8.887772   1.000000
   23       -8.829329   1.000000
   24       -8.769310   1.000000
   25       -8.684941   1.000000
   26       -8.611331   1.000000
   27       -8.533223   1.000000
   28       -8.410249   1.000000
   29       -8.340853   1.000000
   30       -8.295589   1.000000
   31       -8.244044   1.000000
   32       -8.142343   1.000000
   33       -8.058396   1.000000
   34       -7.954062   1.000000
   35       -7.929441   1.000000
   36       -7.786860   1.000000
   37       -7.776211   1.000000
   38       -7.532195   1.000000
   39       -7.439707   1.000000
   40       -7.402122   1.000000
   41       -7.301476   1.000000
   42       -7.248643   1.000000
   43       -7.178152   1.000000
   44       -7.002762   1.000000
   45       -6.954283   1.000000
   46       -6.852440   1.000000
   47       -6.776492   1.000000
   48       -6.721860   1.000000
   49       -6.621885   1.000000
   50       -6.590116   1.000000
   51       -6.514135   1.000000
   52       -6.338692   1.000000
   53       -6.253522   1.000000
   54       -6.152313   1.000000
   55       -6.049570   1.000000
   56       -6.018648   1.000000
   57       -5.913509   1.000000
   58       -5.845784   1.000000
   59       -5.761026   1.000000
   60       -5.555003   1.000000
   61       -5.492123   1.000000
   62       -5.421251   1.000000
   63       -5.307964   1.000000
   64       -5.275315   1.000000
   65       -5.180292   1.000000
   66       -4.998776   1.000000
   67       -4.969420   1.000000
   68       -4.935038   1.000000
   69       -4.779873   1.000000
   70       -4.596893   1.000000
   71       -4.537250   1.000000
   72       -4.444567   1.000000
   73       -4.359268   1.000000
   74       -4.280108   1.000000
   75       -4.106804   1.000000
   76       -3.991202   0.999995
   77       -3.741684   0.996142
   78       -3.668689   0.984147
   79       -3.608861   0.957740
   80       -3.335297   0.417089
   81       -3.170146   0.084235
   82       -2.824769   0.000067
   83       -2.729418   0.000004
   84       -2.588752   0.000000
   85       -2.467054   0.000000
   86       -2.282287   0.000000
   87       -2.189283   0.000000
   88       -2.125398   0.000000
   89       -2.015934   0.000000
   90       -1.883835   0.000000
   91       -1.576059   0.000000
   92       -1.481879   0.000000
   93       -1.405861   0.000000
   94       -1.260976   0.000000
   95       -1.229799   0.000000
   96       -1.162178   0.000000
   97       -1.107685   0.000000
   98       -1.087631   0.000000
   99       -0.834214   0.000000
  100       -0.746761   0.000000
  101       -0.684679   0.000000
  102       -0.651717   0.000000
  103       -0.520741   0.000000
  104       -0.509962   0.000000
  105       -0.417645   0.000000
  106       -0.124289   0.000000
  107       -0.086401   0.000000
  108        0.100440   0.000000
  109        0.186794   0.000000
  110        0.222346   0.000000
  111        0.411601   0.000000
  112        0.516503   0.000000
  113        0.619813   0.000000
  114        0.973067   0.000000
  115        1.057430   0.000000
  116        1.119177   0.000000
  117        1.408800   0.000000
  118        1.698538   0.000000
  119        1.875583   0.000000
  120        2.199463   0.000000
 
  0.2500000E+00  0.5551115E-16  0.0000000E+00  0.3125000E-01
    1      -17.704764   1.000000
    2      -16.974001   1.000000
    3      -16.717338   1.000000
    4      -16.654286   1.000000
    5      -16.562944   1.000000
    6      -16.411442   1.000000
    7      -16.313167   1.000000
    8      -16.266246   1.000000
    9      -16.139842   1.000000
   10      -16.049544   1.000000
   11      -15.953616   1.000000
   12      -15.903796   1.000000
   13      -15.857482   1.000000
   14      -15.724471   1.000000
   15      -15.638764   1.000000
   16      -15.514126   1.000000
   17      -15.485032   1.000000
   18      -15.303977   1.000000
   19       -9.433614   1.000000
   20       -9.100842   1.000000
   21       -9.038465   1.000000
   22       -9.001260   1.000000
   23       -8.957632   1.000000
   24       -8.865222   1.000000
   25       -8.678004   1.000000
   26       -8.634010   1.000000
   27       -8.463335   1.000000
   28       -8.329351   1.000000
   29       -8.250158   1.000000
   30       -8.228477   1.000000
   31       -8.142962   1.000000
   32       -8.040271   1.000000
   33       -7.982563   1.000000
   34       -7.895102   1.000000
   35       -7.844920   1.000000
   36       -7.726823   1.000000
   37       -7.562318   1.000000
   38       -7.498852   1.000000
   39       -7.399458   1.000000
   40       -7.356090   1.000000
   41       -7.275219   1.000000
   42       -7.267689   1.000000
   43       -7.106064   1.000000
   44       -7.023481   1.000000
   45       -6.964126   1.000000
   46       -6.892274   1.000000
   47       -6.843551   1.000000
   48       -6.782521   1.000000
   49       -6.647707   1.000000
   50       -6.507758   1.000000
   51       -6.462930   1.000000
   52       -6.328959   1.000000
   53       -6.182945   1.000000
   54       -6.157451   1.000000
   55       -6.114789   1.000000
   56       -6.004309   1.000000
   57       -5.913970   1.000000
   58       -5.814619   1.000000
   59       -5.748342   1.000000
   60       -5.570855   1.000000
   61       -5.545856   1.000000
   62       -5.465815   1.000000
   63       -5.424007   1.000000
   64       -5.408150   1.000000
   65       -5.303028   1.000000
   66       -5.133094   1.000000
   67       -4.979153   1.000000
   68       -4.932769   1.000000
   69       -4.788111   1.000000
   70       -4.619851   1.000000
   71       -4.449075   1.000000
   72       -4.357615   1.000000
   73       -4.245414   1.000000
   74       -4.170237   1.000000
   75       -4.157998   1.000000
   76       -4.037437   0.999999
   77       -3.873264   0.999838
   78       -3.676530   0.986221
   79       -3.598870   0.950977
   80       -3.305172   0.336381
   81       -3.117332   0.040008
   82       -2.855291   0.000157
   83       -2.718802   0.000002
   84       -2.540611   0.000000
   85       -2.491570   0.000000
   86       -2.305415   0.000000
   87       -2.126321   0.000000
   88       -2.011703   0.000000
   89       -1.982417   0.000000
   90       -1.813603   0.000000
   91       -1.621947   0.000000
   92       -1.512327   0.000000
   93       -1.382758   0.000000
   94       -1.280803   0.000000
   95       -1.234577   0.000000
   96       -1.192186   0.000000
   97       -1.084075   0.000000
   98       -1.061759   0.000000
   99       -0.894233   0.000000
  100       -0.815950   0.000000
  101       -0.766913   0.000000
  102       -0.758886   0.000000
  103       -0.663708   0.000000
  104       -0.597320   0.000000
  105       -0.504786   0.000000
  106       -0.307192   0.000000
  107       -0.194645   0.000000
  108        0.054224   0.000000
  109        0.169677   0.000000
  110        0.232162   0.000000
  111        0.490193   0.000000
  112        0.691885   0.000000
  113        0.795926   0.000000
  114        0.945832   0.000000
  115        1.113358   0.000000
  116        1.169544   0.000000
  117        1.293741   0.000000
  118        1.823850   0.000000
  119        1.983792   0.000000
  120        2.304369   0.000000
 
  0.3750000E+00  0.0000000E+00  0.0000000E+00  0.3125000E-01
    1      -17.579735   1.000000
    2      -17.198970   1.000000
    3      -16.743492   1.000000
    4      -16.683147   1.000000
    5      -16.582587   1.000000
    6      -16.455647   1.000000
    7      -16.277569   1.000000
    8      -16.195631   1.000000
    9      -16.092596   1.000000
   10      -16.000888   1.000000
   11      -15.949669   1.000000
   12      -15.881508   1.000000
   13      -15.799912   1.000000
   14      -15.708950   1.000000
   15      -15.656747   1.000000
   16      -15.514012   1.000000
   17      -15.487722   1.000000
   18      -15.334988   1.000000
   19       -9.672035   1.000000
   20       -9.187619   1.000000
   21       -9.119771   1.000000
   22       -9.084654   1.000000
   23       -9.008021   1.000000
   24       -8.857807   1.000000
   25       -8.615302   1.000000
   26       -8.562415   1.000000
   27       -8.435358   1.000000
   28       -8.297170   1.000000
   29       -8.279476   1.000000
   30       -8.189839   1.000000
   31       -8.063831   1.000000
   32       -8.014608   1.000000
   33       -7.980588   1.000000
   34       -7.880990   1.000000
   35       -7.772345   1.000000
   36       -7.714970   1.000000
   37       -7.571665   1.000000
   38       -7.433607   1.000000
   39       -7.367048   1.000000
   40       -7.346936   1.000000
   41       -7.276767   1.000000
   42       -7.164336   1.000000
   43       -7.098065   1.000000
   44       -7.021305   1.000000
   45       -6.885419   1.000000
   46       -6.837612   1.000000
   47       -6.681747   1.000000
   48       -6.651108   1.000000
   49       -6.561519   1.000000
   50       -6.486466   1.000000
   51       -6.391476   1.000000
   52       -6.320814   1.000000
   53       -6.236307   1.000000
   54       -6.131632   1.000000
   55       -6.094189   1.000000
   56       -6.040961   1.000000
   57       -5.977505   1.000000
   58       -5.945979   1.000000
   59       -5.844021   1.000000
   60       -5.701137   1.000000
   61       -5.649460   1.000000
   62       -5.566720   1.000000
   63       -5.525115   1.000000
   64       -5.411354   1.000000
   65       -5.341774   1.000000
   66       -5.156904   1.000000
   67       -5.003048   1.000000
   68       -4.842934   1.000000
   69       -4.766216   1.000000
   70       -4.685732   1.000000
   71       -4.606583   1.000000
   72       -4.308602   1.000000
   73       -4.211640   1.000000
   74       -4.163051   1.000000
   75       -4.115969   1.000000
   76       -4.031698   0.999999
   77       -3.849675   0.999696
   78       -3.627190   0.968177
   79       -3.496059   0.823144
   80       -3.355367   0.473121
   81       -3.090759   0.026282
   82       -2.858624   0.000172
   83       -2.747066   0.000006
   84       -2.519844   0.000000
   85       -2.458358   0.000000
   86       -2.358370   0.000000
   87       -2.049676   0.000000
   88       -1.927607   0.000000
   89       -1.901504   0.000000
   90       -1.775816   0.000000
   91       -1.634248   0.000000
   92       -1.527005   0.000000
   93       -1.408046   0.000000
   94       -1.303120   0.000000
   95       -1.237113   0.000000
   96       -1.210101   0.000000
   97       -1.089526   0.000000
   98       -1.073444   0.000000
   99       -1.004113   0.000000
  100       -0.898368   0.000000
  101       -0.851248   0.000000
  102       -0.788597   0.000000
  103       -0.753018   0.000000
  104       -0.623793   0.000000
  105       -0.565445   0.000000
  106       -0.448215   0.000000
  107       -0.314150   0.000000
  108       -0.000870   0.000000
  109        0.147759   0.000000
  110        0.212747   0.000000
  111        0.498191   0.000000
  112        0.836330   0.000000
  113        0.925574   0.000000
  114        0.963731   0.000000
  115        1.167062   0.000000
  116        1.195078   0.000000
  117        1.245145   0.000000
  118        2.010176   0.000000
  119        2.156340   0.000000
  120        2.476320   0.000000
 
  0.5000000E+00  0.1110223E-15  0.0000000E+00  0.1562500E-01
    1      -17.438318   1.000000
    2      -17.375938   1.000000
    3      -16.755178   1.000000
    4      -16.694202   1.000000
    5      -16.578928   1.000000
    6      -16.477086   1.000000
    7      -16.282398   1.000000
    8      -16.103884   1.000000
    9      -16.083870   1.000000
   10      -16.067469   1.000000
   11      -15.911103   1.000000
   12      -15.833903   1.000000
   13      -15.783717   1.000000
   14      -15.737753   1.000000
   15      -15.673243   1.000000
   16      -15.496109   1.000000
   17      -15.490584   1.000000
   18      -15.346982   1.000000
   19       -9.756583   1.000000
   20       -9.220747   1.000000
   21       -9.153373   1.000000
   22       -9.117967   1.000000
   23       -9.058202   1.000000
   24       -8.710012   1.000000
   25       -8.653354   1.000000
   26       -8.578189   1.000000
   27       -8.413092   1.000000
   28       -8.351839   1.000000
   29       -8.184167   1.000000
   30       -8.173605   1.000000
   31       -8.074233   1.000000
   32       -8.037012   1.000000
   33       -7.941123   1.000000
   34       -7.879245   1.000000
   35       -7.826779   1.000000
   36       -7.658223   1.000000
   37       -7.589713   1.000000
   38       -7.497322   1.000000
   39       -7.405728   1.000000
   40       -7.345097   1.000000
   41       -7.262058   1.000000
   42       -7.086799   1.000000
   43       -7.044192   1.000000
   44       -6.990013   1.000000
   45       -6.840774   1.000000
   46       -6.658021   1.000000
   47       -6.636931   1.000000
   48       -6.570720   1.000000
   49       -6.501600   1.000000
   50       -6.479170   1.000000
   51       -6.365774   1.000000
   52       -6.346672   1.000000
   53       -6.336568   1.000000
   54       -6.271127   1.000000
   55       -6.124617   1.000000
   56       -6.002786   1.000000
   57       -5.955320   1.000000
   58       -5.909198   1.000000
   59       -5.803475   1.000000
   60       -5.722405   1.000000
   61       -5.690675   1.000000
   62       -5.602030   1.000000
   63       -5.561018   1.000000
   64       -5.547877   1.000000
   65       -5.416733   1.000000
   66       -5.126481   1.000000
   67       -5.120019   1.000000
   68       -4.788598   1.000000
   69       -4.772194   1.000000
   70       -4.722160   1.000000
   71       -4.509223   1.000000
   72       -4.443239   1.000000
   73       -4.171804   1.000000
   74       -4.151447   1.000000
   75       -4.115215   1.000000
   76       -3.959521   0.999987
   77       -3.853194   0.999723
   78       -3.559844   0.915967
   79       -3.462194   0.754260
   80       -3.408941   0.622250
   81       -3.074239   0.019925
   82       -2.853458   0.000149
   83       -2.776306   0.000016
   84       -2.504993   0.000000
   85       -2.448062   0.000000
   86       -2.372755   0.000000
   87       -2.018579   0.000000
   88       -1.895508   0.000000
   89       -1.866688   0.000000
   90       -1.776145   0.000000
   91       -1.632692   0.000000
   92       -1.491346   0.000000
   93       -1.447018   0.000000
   94       -1.318265   0.000000
   95       -1.238810   0.000000
   96       -1.216964   0.000000
   97       -1.130016   0.000000
   98       -1.103637   0.000000
   99       -0.997104   0.000000
  100       -0.954157   0.000000
  101       -0.843124   0.000000
  102       -0.818877   0.000000
  103       -0.785401   0.000000
  104       -0.614117   0.000000
  105       -0.588203   0.000000
  106       -0.509585   0.000000
  107       -0.364931   0.000000
  108       -0.024753   0.000000
  109        0.142601   0.000000
  110        0.198118   0.000000
  111        0.487918   0.000000
  112        0.883066   0.000000
  113        0.925728   0.000000
  114        1.081379   0.000000
  115        1.100935   0.000000
  116        1.203166   0.000000
  117        1.271419   0.000000
  118        2.243081   0.000000
  119        2.251407   0.000000
  120        2.374664   0.000000
 
  0.0000000E+00  0.1250000E+00  0.0000000E+00  0.3125000E-01
    1      -17.782229   1.000000
    2      -16.782451   1.000000
    3      -16.659257   1.000000
    4      -16.605146   1.000000
    5      -16.538989   1.000000
    6      -16.416953   1.000000
    7      -16.343991   1.000000
    8      -16.291895   1.000000
    9      -16.181989   1.000000
   10      -16.100230   1.000000
   11      -16.029831   1.000000
   12      -15.968713   1.000000
   13      -15.837220   1.000000
   14      -15.821359   1.000000
   15      -15.576690   1.000000
   16      -15.507297   1.000000
   17      -15.495974   1.000000
   18      -15.265299   1.000000
   19       -9.129055   1.000000
   20       -9.090391   1.000000
   21       -8.964713   1.000000
   22       -8.894856   1.000000
   23       -8.837472   1.000000
   24       -8.686359   1.000000
   25       -8.649667   1.000000
   26       -8.612063   1.000000
   27       -8.522097   1.000000
   28       -8.442378   1.000000
   29       -8.364864   1.000000
   30       -8.271909   1.000000
   31       -8.235416   1.000000
   32       -8.133735   1.000000
   33       -8.093746   1.000000
   34       -7.988479   1.000000
   35       -7.914846   1.000000
   36       -7.801344   1.000000
   37       -7.687188   1.000000
   38       -7.622485   1.000000
   39       -7.523889   1.000000
   40       -7.349349   1.000000
   41       -7.306753   1.000000
   42       -7.246056   1.000000
   43       -7.140595   1.000000
   44       -7.019153   1.000000
   45       -6.955796   1.000000
   46       -6.838055   1.000000
   47       -6.793020   1.000000
   48       -6.666267   1.000000
   49       -6.599846   1.000000
   50       -6.555113   1.000000
   51       -6.489284   1.000000
   52       -6.375506   1.000000
   53       -6.247045   1.000000
   54       -6.176345   1.000000
   55       -6.115627   1.000000
   56       -5.997318   1.000000
   57       -5.933966   1.000000
   58       -5.840371   1.000000
   59       -5.768077   1.000000
   60       -5.567047   1.000000
   61       -5.524358   1.000000
   62       -5.417963   1.000000
   63       -5.367988   1.000000
   64       -5.232190   1.000000
   65       -5.098932   1.000000
   66       -5.043204   1.000000
   67       -4.954052   1.000000
   68       -4.866871   1.000000
   69       -4.732414   1.000000
   70       -4.645735   1.000000
   71       -4.546647   1.000000
   72       -4.491032   1.000000
   73       -4.429693   1.000000
   74       -4.184236   1.000000
   75       -4.110063   1.000000
   76       -4.004249   0.999997
   77       -3.748610   0.996668
   78       -3.660106   0.981574
   79       -3.601158   0.952598
   80       -3.406368   0.615316
   81       -3.113032   0.037457
   82       -2.790799   0.000025
   83       -2.714270   0.000002
   84       -2.623032   0.000000
   85       -2.415369   0.000000
   86       -2.306652   0.000000
   87       -2.194623   0.000000
   88       -2.131569   0.000000
   89       -1.996862   0.000000
   90       -1.908715   0.000000
   91       -1.562548   0.000000
   92       -1.502510   0.000000
   93       -1.401822   0.000000
   94       -1.253640   0.000000
   95       -1.221088   0.000000
   96       -1.167278   0.000000
   97       -1.106846   0.000000
   98       -1.089456   0.000000
   99       -0.844011   0.000000
  100       -0.757455   0.000000
  101       -0.727401   0.000000
  102       -0.689315   0.000000
  103       -0.550826   0.000000
  104       -0.461211   0.000000
  105       -0.398284   0.000000
  106       -0.065433   0.000000
  107       -0.038567   0.000000
  108        0.086735   0.000000
  109        0.162555   0.000000
  110        0.286204   0.000000
  111        0.381321   0.000000
  112        0.474861   0.000000
  113        0.569669   0.000000
  114        0.970095   0.000000
  115        1.057837   0.000000
  116        1.131142   0.000000
  117        1.437034   0.000000
  118        1.696712   0.000000
  119        1.876388   0.000000
  120        2.199276   0.000000
 
  0.1250000E+00  0.1250000E+00  0.0000000E+00  0.3125000E-01
    1      -17.730598   1.000000
    2      -16.886817   1.000000
    3      -16.779558   1.000000
    4      -16.655076   1.000000
    5      -16.453916   1.000000
    6      -16.406426   1.000000
    7      -16.367407   1.000000
    8      -16.259060   1.000000
    9      -16.160252   1.000000
   10      -16.070109   1.000000
   11      -15.988289   1.000000
   12      -15.912478   1.000000
   13      -15.836698   1.000000
   14      -15.769938   1.000000
   15      -15.619634   1.000000
   16      -15.512924   1.000000
   17      -15.485112   1.000000
   18      -15.289990   1.000000
   19       -9.281165   1.000000
   20       -9.239174   1.000000
   21       -9.068114   1.000000
   22       -8.981026   1.000000
   23       -8.801992   1.000000
   24       -8.753887   1.000000
   25       -8.665963   1.000000
   26       -8.613751   1.000000
   27       -8.529244   1.000000
   28       -8.347247   1.000000
   29       -8.328319   1.000000
   30       -8.245950   1.000000
   31       -8.214342   1.000000
   32       -8.088772   1.000000
   33       -7.953849   1.000000
   34       -7.902164   1.000000
   35       -7.820007   1.000000
   36       -7.774544   1.000000
   37       -7.591436   1.000000
   38       -7.533381   1.000000
   39       -7.380258   1.000000
   40       -7.343712   1.000000
   41       -7.307352   1.000000
   42       -7.252513   1.000000
   43       -7.162075   1.000000
   44       -7.044686   1.000000
   45       -6.995892   1.000000
   46       -6.902310   1.000000
   47       -6.791708   1.000000
   48       -6.741350   1.000000
   49       -6.636113   1.000000
   50       -6.537110   1.000000
   51       -6.468474   1.000000
   52       -6.317863   1.000000
   53       -6.248983   1.000000
   54       -6.133099   1.000000
   55       -6.089379   1.000000
   56       -6.043223   1.000000
   57       -5.895000   1.000000
   58       -5.852542   1.000000
   59       -5.709208   1.000000
   60       -5.610021   1.000000
   61       -5.521251   1.000000
   62       -5.458735   1.000000
   63       -5.403161   1.000000
   64       -5.325118   1.000000
   65       -5.190031   1.000000
   66       -5.159719   1.000000
   67       -5.007705   1.000000
   68       -4.926959   1.000000
   69       -4.753852   1.000000
   70       -4.619261   1.000000
   71       -4.493542   1.000000
   72       -4.392276   1.000000
   73       -4.274413   1.000000
   74       -4.145578   1.000000
   75       -4.123806   1.000000
   76       -4.060543   1.000000
   77       -3.821452   0.999377
   78       -3.713138   0.993099
   79       -3.637888   0.973215
   80       -3.323972   0.386128
   81       -3.085435   0.024070
   82       -2.831498   0.000081
   83       -2.700324   0.000001
   84       -2.578921   0.000000
   85       -2.452892   0.000000
   86       -2.281660   0.000000
   87       -2.169637   0.000000
   88       -2.052307   0.000000
   89       -1.995129   0.000000
   90       -1.835503   0.000000
   91       -1.606692   0.000000
   92       -1.509079   0.000000
   93       -1.390321   0.000000
   94       -1.266942   0.000000
   95       -1.235483   0.000000
   96       -1.180976   0.000000
   97       -1.092120   0.000000
   98       -1.072683   0.000000
   99       -0.854260   0.000000
  100       -0.840864   0.000000
  101       -0.785979   0.000000
  102       -0.721745   0.000000
  103       -0.637996   0.000000
  104       -0.593495   0.000000
  105       -0.446245   0.000000
  106       -0.222427   0.000000
  107       -0.131404   0.000000
  108        0.064731   0.000000
  109        0.183807   0.000000
  110        0.258657   0.000000
  111        0.461388   0.000000
  112        0.592025   0.000000
  113        0.725253   0.000000
  114        0.942484   0.000000
  115        1.065979   0.000000
  116        1.182156   0.000000
  117        1.368183   0.000000
  118        1.782445   0.000000
  119        1.948982   0.000000
  120        2.269406   0.000000
 
  0.2500000E+00  0.1250000E+00  0.0000000E+00  0.3125000E-01
    1      -17.629344   1.000000
    2      -17.077270   1.000000
    3      -16.892381   1.000000
    4      -16.629292   1.000000
    5      -16.475704   1.000000
    6      -16.417271   1.000000
    7      -16.290139   1.000000
    8      -16.258318   1.000000
    9      -16.103916   1.000000
   10      -16.013797   1.000000
   11      -15.960424   1.000000
   12      -15.919886   1.000000
   13      -15.809927   1.000000
   14      -15.692434   1.000000
   15      -15.664093   1.000000
   16      -15.515555   1.000000
   17      -15.482285   1.000000
   18      -15.321282   1.000000
   19       -9.558161   1.000000
   20       -9.354805   1.000000
   21       -9.181221   1.000000
   22       -8.950815   1.000000
   23       -8.854720   1.000000
   24       -8.782515   1.000000
   25       -8.626926   1.000000
   26       -8.576827   1.000000
   27       -8.448024   1.000000
   28       -8.333526   1.000000
   29       -8.254668   1.000000
   30       -8.204717   1.000000
   31       -8.152522   1.000000
   32       -8.043718   1.000000
   33       -8.033840   1.000000
   34       -7.921819   1.000000
   35       -7.864829   1.000000
   36       -7.612301   1.000000
   37       -7.504840   1.000000
   38       -7.434212   1.000000
   39       -7.346076   1.000000
   40       -7.316208   1.000000
   41       -7.270972   1.000000
   42       -7.202389   1.000000
   43       -7.098677   1.000000
   44       -7.063086   1.000000
   45       -6.951566   1.000000
   46       -6.809686   1.000000
   47       -6.754272   1.000000