       N       E                     dE             d eps       ncg     rms          rms(c)
DAV:   1     0.112459034905E+04    0.11246E+04   -0.35853E+04  8160   0.577E+02
DAV:   2    -0.237555105364E+01   -0.11270E+04   -0.10847E+04 11520   0.173E+02
DAV:   3    -0.199940557270E+03   -0.19757E+03   -0.18951E+03 10880   0.819E+01
DAV:   4    -0.209042287978E+03   -0.91017E+01   -0.88705E+01 12240   0.263E+01
DAV:   5    -0.209350275199E+03   -0.30799E+00   -0.30724E+00 11400   0.347E+00    0.275E+01
DAV:   6    -0.236557989329E+03   -0.27208E+02   -0.10015E+02 12720   0.596E+01    0.595E+01
DAV:   7    -0.196086844549E+03    0.40471E+02   -0.16766E+02 12640   0.146E+02    0.198E+01
DAV:   8    -0.189219421521E+03    0.68674E+01   -0.16372E+01 12120   0.123E+01    0.118E+01
DAV:   9    -0.188013924279E+03    0.12055E+01   -0.29930E+00 13400   0.661E+00    0.824E+00
DAV:  10    -0.187021793481E+03    0.99213E+00   -0.14400E+00 13040   0.677E+00    0.201E+00
DAV:  11    -0.187218761558E+03   -0.19697E+00   -0.80607E-01 13120   0.455E+00    0.478E+00
DAV:  12    -0.187059804927E+03    0.15896E+00   -0.38890E-01 12120   0.411E+00    0.344E+00
DAV:  13    -0.186940809006E+03    0.11900E+00   -0.20851E-01 12360   0.289E+00    0.119E+00
DAV:  14    -0.186934449190E+03    0.63598E-02   -0.45333E-02 12640   0.113E+00    0.102E+00
DAV:  15    -0.186928145321E+03    0.63039E-02   -0.14953E-02 13200   0.627E-01    0.593E-01
DAV:  16    -0.186923918123E+03    0.42272E-02   -0.88548E-03 13160   0.403E-01    0.168E-01
DAV:  17    -0.186923675698E+03    0.24242E-03   -0.34153E-03 12000   0.165E-01    0.204E-01
DAV:  18    -0.186923142446E+03    0.53325E-03   -0.15768E-03 12360   0.175E-01    0.860E-02
DAV:  19    -0.186923541235E+03   -0.39879E-03   -0.73727E-04 11040   0.788E-02    0.938E-02
DAV:  20    -0.186924094453E+03   -0.55322E-03   -0.64251E-04  9640   0.845E-02    0.792E-02
DAV:  21    -0.186925245251E+03   -0.11508E-02   -0.35837E-04  9160   0.753E-02    0.241E-02
DAV:  22    -0.186926153448E+03   -0.90820E-03   -0.93526E-05  7200   0.266E-02    0.274E-02
DAV:  23    -0.186926847843E+03   -0.69439E-03   -0.58267E-05  7520   0.226E-02    0.145E-02
DAV:  24    -0.186927523123E+03   -0.67528E-03   -0.44771E-05  7120   0.199E-02    0.101E-02
DAV:  25    -0.186927890229E+03   -0.36711E-03   -0.10586E-05  6320   0.137E-02    0.521E-03
DAV:  26    -0.186928112140E+03   -0.22191E-03   -0.77441E-06  6800   0.808E-03    0.302E-03
DAV:  27    -0.186928195672E+03   -0.83532E-04   -0.30308E-06  7240   0.560E-03
   1 F= -.18692820E+03 E0= -.18675597E+03  d E =-.186928E+03
       N       E                     dE             d eps       ncg     rms          rms(c)
DAV:   1    -0.187487586301E+03   -0.55947E+00   -0.26699E+02  8160   0.346E+01    0.463E+00
DAV:   2    -0.189404035850E+03   -0.19164E+01   -0.20559E+01 12920   0.154E+01    0.883E+00
DAV:   3    -0.189395255510E+03    0.87803E-02   -0.40610E+00 12320   0.117E+01    0.701E+00
DAV:   4    -0.188763634251E+03    0.63162E+00   -0.60199E-01 12120   0.457E+00    0.173E+00
DAV:   5    -0.188773067984E+03   -0.94337E-02   -0.31805E-01 10120   0.155E+00    0.235E+00
DAV:   6    -0.188715877782E+03    0.57190E-01   -0.29892E-01 12120   0.217E+00    0.199E+00
DAV:   7    -0.188722119719E+03   -0.62419E-02   -0.17571E-01 12240   0.260E+00    0.236E+00
DAV:   8    -0.188677792605E+03    0.44327E-01   -0.82681E-02 12800   0.155E+00    0.379E-01
DAV:   9    -0.188675775837E+03    0.20168E-02   -0.68218E-03 10520   0.291E-01    0.211E-01
DAV:  10    -0.188677149881E+03   -0.13740E-02   -0.46522E-03 13520   0.403E-01    0.483E-01
DAV:  11    -0.188675318174E+03    0.18317E-02   -0.36925E-03 12640   0.352E-01    0.105E-01
DAV:  12    -0.188675437932E+03   -0.11976E-03   -0.67270E-04 11520   0.976E-02    0.792E-02
DAV:  13    -0.188675370255E+03    0.67677E-04   -0.19370E-04  7960   0.467E-02
   2 F= -.18867537E+03 E0= -.18853341E+03  d E =-.174717E+01
       N       E                     dE             d eps       ncg     rms          rms(c)
DAV:   1    -0.190573829197E+03   -0.18984E+01   -0.30372E+01  8880   0.141E+01    0.447E+00
DAV:   2    -0.190675171428E+03   -0.10134E+00   -0.29224E+00 11360   0.101E+01    0.807E+00
DAV:   3    -0.190029072558E+03    0.64610E+00   -0.13790E+00 12320   0.857E+00    0.392E+00
DAV:   4    -0.189846504616E+03    0.18257E+00   -0.66527E-01 12280   0.364E+00    0.250E+00
DAV:   5    -0.189767706982E+03    0.78798E-01   -0.28862E-01 12000   0.195E+00    0.119E+00
DAV:   6    -0.189749471175E+03    0.18236E-01   -0.59830E-02 11880   0.135E+00    0.850E-01
DAV:   7    -0.189743939894E+03    0.55313E-02   -0.14441E-02 11440   0.709E-01    0.203E-01
DAV:   8    -0.189743967011E+03   -0.27116E-04   -0.20797E-03 12360   0.165E-01    0.147E-01
DAV:   9    -0.189744112039E+03   -0.14503E-03   -0.10809E-03 10640   0.146E-01    0.154E-01
DAV:  10    -0.189744605149E+03   -0.49311E-03   -0.14598E-03 10480   0.266E-01    0.260E-01
DAV:  11    -0.189743969324E+03    0.63582E-03   -0.85410E-04  9120   0.194E-01    0.218E-02
DAV:  12    -0.189743993143E+03   -0.23818E-04   -0.66835E-05  5720   0.279E-02
   3 F= -.18974399E+03 E0= -.18962431E+03  d E =-.106862E+01
       N       E                     dE             d eps       ncg     rms          rms(c)
DAV:   1    -0.191236477049E+03   -0.14925E+01   -0.63111E+01  8160   0.182E+01    0.464E+00
DAV:   2    -0.191351143190E+03   -0.11467E+00   -0.55892E+00 13560   0.100E+01    0.683E+00
DAV:   3    -0.191001246610E+03    0.34990E+00   -0.16824E+00 12040   0.922E+00    0.493E+00
DAV:   4    -0.190759394678E+03    0.24185E+00   -0.86782E-01 12280   0.506E+00    0.256E+00
DAV:   5    -0.190666711979E+03    0.92683E-01   -0.27696E-01 12160   0.209E+00    0.122E+00
DAV:   6    -0.190656999409E+03    0.97126E-02   -0.10561E-01 11720   0.197E+00    0.142E+00
DAV:   7    -0.190643673379E+03    0.13326E-01   -0.52035E-02 11400   0.159E+00    0.605E-01
DAV:   8    -0.190638768368E+03    0.49050E-02   -0.68126E-03 12200   0.476E-01    0.118E-01
DAV:   9    -0.190639328506E+03   -0.56014E-03   -0.19626E-03 10840   0.153E-01    0.153E-01
DAV:  10    -0.190639159582E+03    0.16892E-03   -0.90099E-04 10680   0.191E-01    0.116E-01
DAV:  11    -0.190639080734E+03    0.78848E-04   -0.31763E-04  7960   0.123E-01
   4 F= -.19063908E+03 E0= -.19053887E+03  d E =-.895088E+00
       N       E                     dE             d eps       ncg     rms          rms(c)
DAV:   1    -0.191939164383E+03   -0.13000E+01   -0.11427E+02  8160   0.242E+01    0.569E+00
DAV:   2    -0.192054128588E+03   -0.11496E+00   -0.93576E+00 13560   0.118E+01    0.707E+00
DAV:   3    -0.191732806833E+03    0.32132E+00   -0.23313E+00 11760   0.113E+01    0.628E+00
DAV:   4    -0.191363052440E+03    0.36975E+00   -0.13653E+00 12240   0.751E+00    0.316E+00
DAV:   5    -0.191205437770E+03    0.15761E+00   -0.42938E-01 12600   0.312E+00    0.159E+00
DAV:   6    -0.191202714103E+03    0.27237E-02   -0.18727E-01 12560   0.303E+00    0.196E+00
DAV:   7    -0.191169485915E+03    0.33228E-01   -0.88344E-02 12400   0.214E+00    0.550E-01
DAV:   8    -0.191164247443E+03    0.52385E-02   -0.90695E-03 11160   0.467E-01    0.148E-01
DAV:   9    -0.191165005305E+03   -0.75786E-03   -0.33094E-03 11360   0.236E-01    0.200E-01
DAV:  10    -0.191164741720E+03    0.26358E-03   -0.12507E-03 10440   0.260E-01    0.108E-01
DAV:  11    -0.191164656960E+03    0.84760E-04   -0.27396E-04  7520   0.107E-01
   5 F= -.19116466E+03 E0= -.19107378E+03  d E =-.525576E+00
       N       E                     dE             d eps       ncg     rms          rms(c)
DAV:   1    -0.191204872670E+03   -0.40131E-01   -0.36021E+00  8160   0.406E+00    0.521E-01
DAV:   2    -0.191216921107E+03   -0.12048E-01   -0.14432E-01 13200   0.127E+00    0.727E-01
DAV:   3    -0.191213449870E+03    0.34712E-02   -0.30744E-02 12440   0.122E+00    0.688E-01
DAV:   4    -0.191209447645E+03    0.40022E-02   -0.12063E-02 11280   0.806E-01    0.310E-01
DAV:   5    -0.191208021452E+03    0.14262E-02   -0.37669E-03 10120   0.380E-01    0.201E-01
DAV:   6    -0.191208257974E+03   -0.23652E-03   -0.25112E-03 12120   0.379E-01    0.233E-01
DAV:   7    -0.191207629499E+03    0.62847E-03   -0.94849E-04 10360   0.221E-01    0.345E-02
DAV:   8    -0.191207664329E+03   -0.34830E-04   -0.10898E-04  6000   0.662E-02
   6 F= -.19120766E+03 E0= -.19111417E+03  d E =-.430074E-01
       N       E                     dE             d eps       ncg     rms          rms(c)
DAV:   1    -0.191219918705E+03   -0.12289E-01   -0.32671E-01  8160   0.123E+00    0.174E-01
DAV:   2    -0.191220720468E+03   -0.80176E-03   -0.12519E-02 11680   0.367E-01    0.223E-01
DAV:   3    -0.191220665614E+03    0.54854E-04   -0.31118E-03 12480   0.411E-01    0.246E-01
DAV:   4    -0.191220088478E+03    0.57714E-03   -0.13760E-03  9720   0.275E-01    0.993E-02
DAV:   5    -0.191220014135E+03    0.74343E-04   -0.48819E-04  8880   0.139E-01
   7 F= -.19122001E+03 E0= -.19112544E+03  d E =-.123498E-01
       N       E                     dE             d eps       ncg     rms          rms(c)
DAV:   1    -0.191218717351E+03    0.13711E-02   -0.98785E-01  8160   0.237E+00    0.579E-01
DAV:   2    -0.191216370481E+03    0.23469E-02   -0.70951E-02 12480   0.101E+00    0.712E-01
DAV:   3    -0.191216783010E+03   -0.41253E-03   -0.30713E-02 11720   0.134E+00    0.798E-01
DAV:   4    -0.191210153941E+03    0.66291E-02   -0.15491E-02 11480   0.906E-01    0.341E-01
DAV:   5    -0.191210336888E+03   -0.18295E-03   -0.73687E-03 10360   0.618E-01    0.406E-01
DAV:   6    -0.191208318301E+03    0.20186E-02   -0.32932E-03 11880   0.408E-01    0.672E-02
DAV:   7    -0.191208382871E+03   -0.64569E-04   -0.42191E-04  9560   0.101E-01
   8 F= -.19120838E+03 E0= -.19111545E+03  d E =0.116313E-01
       N       E                     dE             d eps       ncg     rms          rms(c)
DAV:   1    -0.191288659679E+03   -0.80341E-01   -0.65809E+00  8160   0.566E+00    0.948E-01
DAV:   2    -0.191297720182E+03   -0.90605E-02   -0.25614E-01 12920   0.197E+00    0.135E+00
DAV:   3    -0.191289473585E+03    0.82466E-02   -0.87976E-02 12200   0.225E+00    0.113E+00
DAV:   4    -0.191276141831E+03    0.13332E-01   -0.36396E-02 12360   0.134E+00    0.601E-01
DAV:   5    -0.191275883420E+03    0.25841E-03   -0.21666E-02 10720   0.103E+00    0.727E-01
DAV:   6    -0.191270519140E+03    0.53643E-02   -0.12783E-02 11840   0.792E-01    0.211E-01
DAV:   7    -0.191269957243E+03    0.56190E-03   -0.21340E-03 10760   0.232E-01    0.808E-02
DAV:   8    -0.191270008965E+03   -0.51722E-04   -0.64117E-04 11160   0.169E-01
   9 F= -.19127001E+03 E0= -.19117268E+03  d E =-.616261E-01
       N       E                     dE             d eps       ncg     rms          rms(c)
DAV:   1    -0.191291239950E+03   -0.21283E-01   -0.71074E-01  8160   0.183E+00    0.280E-01
DAV:   2    -0.191293068694E+03   -0.18287E-02   -0.30818E-02 12720   0.644E-01    0.409E-01
DAV:   3    -0.191291994615E+03    0.10741E-02   -0.78008E-03 11800   0.637E-01    0.320E-01
DAV:   4    -0.191291183896E+03    0.81072E-03   -0.33730E-03 10760   0.393E-01    0.195E-01
DAV:   5    -0.191290918196E+03    0.26570E-03   -0.17800E-03  9760   0.303E-01    0.182E-01
DAV:   6    -0.191290613310E+03    0.30489E-03   -0.91442E-04  9760   0.222E-01    0.718E-02
DAV:   7    -0.191290555376E+03    0.57935E-04   -0.13802E-04  6080   0.742E-02
  10 F= -.19129056E+03 E0= -.19119287E+03  d E =-.205464E-01
       N       E                     dE             d eps       ncg     rms          rms(c)
DAV:   1    -0.191340454084E+03   -0.49841E-01   -0.30560E+00  8160   0.371E+00    0.389E-01
DAV:   2    -0.191349514227E+03   -0.90601E-02   -0.81813E-02 13560   0.105E+00    0.688E-01
DAV:   3    -0.191345873178E+03    0.36410E-02   -0.19995E-02 12120   0.103E+00    0.482E-01
DAV:   4    -0.191343707441E+03    0.21657E-02   -0.56662E-03 11440   0.515E-01    0.198E-01
DAV:   5    -0.191343305506E+03    0.40194E-03   -0.19614E-03 11720   0.289E-01    0.183E-01
DAV:   6    -0.191343236185E+03    0.69320E-04   -0.13699E-03 11240   0.285E-01    0.144E-01
DAV:   7    -0.191342985726E+03    0.25046E-03   -0.42199E-04  8360   0.139E-01    0.282E-02
DAV:   8    -0.191342987029E+03   -0.13031E-05   -0.67600E-05  6240   0.430E-02
  11 F= -.19134299E+03 E0= -.19124549E+03  d E =-.524317E-01
       N       E                     dE             d eps       ncg     rms          rms(c)
DAV:   1    -0.191293270922E+03    0.49715E-01   -0.27063E+00  8160   0.353E+00    0.440E-01
DAV:   2    -0.191299252521E+03   -0.59816E-02   -0.80071E-02 13320   0.102E+00    0.648E-01
DAV:   3    -0.191297377619E+03    0.18749E-02   -0.21133E-02 11840   0.109E+00    0.592E-01
DAV:   4    -0.191293845455E+03    0.35322E-02   -0.84806E-03 11480   0.640E-01    0.215E-01
DAV:   5    -0.191293394786E+03    0.45067E-03   -0.27934E-03 11280   0.310E-01    0.204E-01
DAV:   6    -0.191293213884E+03    0.18090E-03   -0.18544E-03 11760   0.319E-01    0.161E-01
DAV:   7    -0.191292920257E+03    0.29363E-03   -0.62414E-04  9720   0.168E-01    0.368E-02
DAV:   8    -0.191292905595E+03    0.14662E-04   -0.75601E-05  6400   0.379E-02
  12 F= -.19129291E+03 E0= -.19119537E+03  d E =0.500814E-01
       N       E                     dE             d eps       ncg     rms          rms(c)
DAV:   1    -0.191375614592E+03   -0.82694E-01   -0.65916E+00  8160   0.557E+00    0.729E-01
DAV:   2    -0.191388600721E+03   -0.12986E-01   -0.21142E-01 13560   0.164E+00    0.991E-01
DAV:   3    -0.191385759423E+03    0.28413E-02   -0.55005E-02 11360   0.175E+00    0.934E-01
DAV:   4    -0.191376112670E+03    0.96468E-02   -0.21169E-02 11880   0.105E+00    0.396E-01
DAV:   5    -0.191375785698E+03    0.32697E-03   -0.10343E-02 11280   0.689E-01    0.484E-01
DAV:   6    -0.191373698949E+03    0.20867E-02   -0.68245E-03 11480   0.598E-01    0.204E-01
DAV:   7    -0.191373131484E+03    0.56747E-03   -0.15121E-03 10880   0.213E-01    0.533E-02
DAV:   8    -0.191373070367E+03    0.61117E-04   -0.21965E-04  8600   0.566E-02
  13 F= -.19137307E+03 E0= -.19127593E+03  d E =-.801648E-01
       N       E                     dE             d eps       ncg     rms          rms(c)
DAV:   1    -0.191398718039E+03   -0.25587E-01   -0.58308E-01  8160   0.163E+00    0.193E-01
DAV:   2    -0.191401191498E+03   -0.24735E-02   -0.19114E-02 12760   0.623E-01    0.416E-01
DAV:   3    -0.191399413302E+03    0.17782E-02   -0.42615E-03 11760   0.499E-01    0.159E-01
DAV:   4    -0.191399265006E+03    0.14830E-03   -0.10619E-03  9560   0.214E-01    0.128E-01
DAV:   5    -0.191399212532E+03    0.52474E-04   -0.80792E-04 10000   0.215E-01
  14 F= -.19139921E+03 E0= -.19130339E+03  d E =-.261422E-01
       N       E                     dE             d eps       ncg     rms          rms(c)
DAV:   1    -0.191466375059E+03   -0.67110E-01   -0.41514E+00  8160   0.434E+00    0.451E-01
DAV:   2    -0.191478705529E+03   -0.12330E-01   -0.11159E-01 13520   0.136E+00    0.843E-01
DAV:   3    -0.191472023105E+03    0.66824E-02   -0.21007E-02 12160   0.112E+00    0.409E-01
DAV:   4    -0.191470648741E+03    0.13744E-02   -0.55228E-03 11160   0.514E-01    0.283E-01
DAV:   5    -0.191470440925E+03    0.20782E-03   -0.41090E-03 10120   0.491E-01    0.286E-01
DAV:   6    -0.191469767612E+03    0.67331E-03   -0.21455E-03 12640   0.324E-01    0.107E-01
DAV:   7    -0.191469537188E+03    0.23042E-03   -0.49184E-04  9480   0.101E-01    0.238E-02
DAV:   8    -0.191469540696E+03   -0.35075E-05   -0.68654E-05  6880   0.277E-02
  15 F= -.19146954E+03 E0= -.19137778E+03  d E =-.703282E-01
       N       E                     dE             d eps       ncg     rms          rms(c)
DAV:   1    -0.191494152820E+03   -0.24616E-01   -0.45431E-01  8160   0.144E+00    0.155E-01
DAV:   2    -0.191495332378E+03   -0.11796E-02   -0.13400E-02 13480   0.401E-01    0.240E-01
DAV:   3    -0.191495054010E+03    0.27837E-03   -0.27556E-03 11280   0.401E-01    0.196E-01
DAV:   4    -0.191494622978E+03    0.43103E-03   -0.76517E-04  9000   0.201E-01    0.604E-02
DAV:   5    -0.191494590815E+03    0.32163E-04   -0.20850E-04  5680   0.798E-02
  16 F= -.19149459E+03 E0= -.19140436E+03  d E =-.250501E-01
       N       E                     dE             d eps       ncg     rms          rms(c)
DAV:   1    -0.191506243116E+03   -0.11620E-01   -0.27345E-01  8160   0.124E+00    0.375E-01
DAV:   2    -0.191511336590E+03   -0.50935E-02   -0.28936E-02 11320   0.114E+00    0.889E-01
DAV:   3    -0.191502828695E+03    0.85079E-02   -0.14384E-02 11320   0.993E-01    0.221E-01
DAV:   4    -0.191502322396E+03    0.50630E-03   -0.28240E-03 11360   0.318E-01    0.226E-01
DAV:   5    -0.191502533393E+03   -0.21100E-03   -0.33441E-03 11480   0.451E-01    0.297E-01
DAV:   6    -0.191501481273E+03    0.10521E-02   -0.17530E-03 11240   0.295E-01    0.344E-02
DAV:   7    -0.191501479508E+03    0.17647E-05   -0.11559E-04  5680   0.422E-02
  17 F= -.19150148E+03 E0= -.19141140E+03  d E =-.688869E-02
       N       E                     dE             d eps       ncg     rms          rms(c)
DAV:   1    -0.191591640235E+03   -0.90159E-01   -0.69256E+00  8160   0.560E+00    0.574E-01
DAV:   2    -0.191615060538E+03   -0.23420E-01   -0.20489E-01 12680   0.181E+00    0.110E+00
DAV:   3    -0.191603606724E+03    0.11454E-01   -0.36378E-02 12200   0.150E+00    0.531E-01
DAV:   4    -0.191600958047E+03    0.26487E-02   -0.82469E-03 11120   0.663E-01    0.331E-01
DAV:   5    -0.191600599871E+03    0.35818E-03   -0.51621E-03 10280   0.580E-01    0.330E-01
DAV:   6    -0.191599716965E+03    0.88291E-03   -0.29116E-03 12720   0.388E-01    0.135E-01
DAV:   7    -0.191599343117E+03    0.37385E-03   -0.81887E-04  9560   0.128E-01    0.345E-02
DAV:   8    -0.191599353322E+03   -0.10205E-04   -0.12463E-04  6560   0.645E-02
  18 F= -.19159935E+03 E0= -.19151574E+03  d E =-.978738E-01
       N       E                     dE             d eps       ncg     rms          rms(c)
DAV:   1    -0.191656030548E+03   -0.56687E-01   -0.27070E+00  8160   0.353E+00    0.364E-01
DAV:   2    -0.191662800096E+03   -0.67695E-02   -0.81406E-02 12240   0.906E-01    0.506E-01
DAV:   3    -0.191662151277E+03    0.64882E-03   -0.14061E-02 12360   0.925E-01    0.474E-01
DAV:   4    -0.191659531911E+03    0.26194E-02   -0.39655E-03 11200   0.493E-01    0.134E-01
DAV:   5    -0.191659558874E+03   -0.26963E-04   -0.14140E-03 11920   0.246E-01    0.169E-01
DAV:   6    -0.191659469422E+03    0.89451E-04   -0.11504E-03 10160   0.281E-01    0.137E-01
DAV:   7    -0.191659204496E+03    0.26493E-03   -0.39117E-04  8280   0.149E-01    0.277E-02
DAV:   8    -0.191659212670E+03   -0.81740E-05   -0.72278E-05  5840   0.514E-02
  19 F= -.19165921E+03 E0= -.19157860E+03  d E =-.598593E-01
       N       E                     dE             d eps       ncg     rms          rms(c)
DAV:   1    -0.191783287543E+03   -0.12408E+00   -0.63293E+01  8160   0.171E+01    0.166E+00
DAV:   2    -0.191965483230E+03   -0.18220E+00   -0.20354E+00 11920   0.436E+00    0.230E+00
DAV:   3    -0.191941120996E+03    0.24362E-01   -0.28173E-01 12400   0.417E+00    0.195E+00
DAV:   4    -0.191893975848E+03    0.47145E-01   -0.73017E-02 12240   0.222E+00    0.655E-01
DAV:   5    -0.191896110889E+03   -0.21350E-02   -0.29900E-02 12440   0.142E+00    0.882E-01
DAV:   6    -0.191889498950E+03    0.66119E-02   -0.22071E-02 12720   0.126E+00    0.457E-01
DAV:   7    -0.191885619895E+03    0.38791E-02   -0.69693E-03 11680   0.487E-01    0.962E-02
DAV:   8    -0.191885709287E+03   -0.89392E-04   -0.12853E-03 11840   0.175E-01    0.117E-01
DAV:   9    -0.191885608288E+03    0.10100E-03   -0.70847E-04 10520   0.209E-01    0.984E-02
DAV:  10    -0.191885473307E+03    0.13498E-03   -0.26406E-04  7440   0.116E-01    0.216E-02
DAV:  11    -0.191885493273E+03   -0.19966E-04   -0.80622E-05  6520   0.326E-02
  20 F= -.19188549E+03 E0= -.19180772E+03  d E =-.226281E+00
       N       E                     dE             d eps       ncg     rms          rms(c)
DAV:   1    -0.191913537673E+03   -0.28064E-01   -0.17047E+00  8160   0.290E+00    0.535E-01
DAV:   2    -0.191919738758E+03   -0.62011E-02   -0.11001E-01 12360   0.139E+00    0.776E-01
DAV:   3    -0.191915344049E+03    0.43947E-02   -0.21954E-02 11720   0.129E+00    0.494E-01
DAV:   4    -0.191911917025E+03    0.34270E-02   -0.68764E-03 12360   0.654E-01    0.265E-01
DAV:   5    -0.191912429454E+03   -0.51243E-03   -0.52431E-03 11520   0.582E-01    0.377E-01
DAV:   6    -0.191910706366E+03    0.17231E-02   -0.31383E-03 11680   0.445E-01    0.756E-02
DAV:   7    -0.191910718420E+03   -0.12053E-04   -0.42181E-04  9040   0.131E-01
  21 F= -.19191072E+03 E0= -.19183118E+03  d E =-.252251E-01
       N       E                     dE             d eps       ncg     rms          rms(c)
DAV:   1    -0.191928282444E+03   -0.17576E-01   -0.10026E+00  8160   0.214E+00    0.299E-01
DAV:   2    -0.191934666052E+03   -0.63836E-02   -0.49487E-02 10720   0.114E+00    0.644E-01
DAV:   3    -0.191929870057E+03    0.47960E-02   -0.10099E-02 12240   0.821E-01    0.188E-01
DAV:   4    -0.191929495603E+03    0.37445E-03   -0.15023E-03 11120   0.282E-01    0.166E-01
DAV:   5    -0.191929549667E+03   -0.54064E-04   -0.13248E-03 10240   0.321E-01    0.188E-01
DAV:   6    -0.191929129124E+03    0.42054E-03   -0.81550E-04 11360   0.209E-01    0.393E-02
DAV:   7    -0.191929119970E+03    0.91547E-05   -0.11826E-04  5960   0.533E-02
  22 F= -.19192912E+03 E0= -.19184960E+03  d E =-.184016E-01
       N       E                     dE             d eps       ncg     rms          rms(c)
DAV:   1    -0.191944999613E+03   -0.15870E-01   -0.10525E+00  8160   0.219E+00    0.245E-01
DAV:   2    -0.191948197090E+03   -0.31975E-02   -0.41375E-02 12040   0.642E-01    0.300E-01
DAV:   3    -0.191948277773E+03   -0.80683E-04   -0.57155E-03 12360   0.618E-01    0.316E-01
DAV:   4    -0.191946951156E+03    0.13266E-02   -0.17120E-03 11000   0.349E-01    0.724E-02
DAV:   5    -0.191947034952E+03   -0.83796E-04   -0.71775E-04  9840   0.155E-01
  23 F= -.19194703E+03 E0= -.19186663E+03  d E =-.179150E-01
       N       E                     dE             d eps       ncg     rms          rms(c)
DAV:   1    -0.191966341257E+03   -0.19390E-01   -0.13886E+01  8160   0.790E+00    0.809E-01
DAV:   2    -0.192012334247E+03   -0.45993E-01   -0.50749E-01 11880   0.232E+00    0.115E+00
DAV:   3    -0.192007065249E+03    0.52690E-02   -0.70405E-02 12280   0.211E+00    0.933E-01
DAV:   4    -0.191995023455E+03    0.12042E-01   -0.14954E-02 12240   0.998E-01    0.253E-01
DAV:   5    -0.191997760765E+03   -0.27373E-02   -0.82424E-03 12560   0.733E-01    0.529E-01
DAV:   6    -0.191994147236E+03    0.36135E-02   -0.53236E-03 11440   0.630E-01    0.102E-01
DAV:   7    -0.191994035808E+03    0.11143E-03   -0.74136E-04 10040   0.126E-01    0.552E-02
DAV:   8    -0.191994022115E+03    0.13693E-04   -0.20471E-04  8000   0.103E-01
  24 F= -.19199402E+03 E0= -.19191095E+03  d E =-.469872E-01
       N       E                     dE             d eps       ncg     rms          rms(c)
DAV:   1    -0.191998737088E+03   -0.47013E-02   -0.55386E+00  8160   0.500E+00    0.537E-01
DAV:   2    -0.192017304945E+03   -0.18568E-01   -0.23361E-01 11880   0.149E+00    0.584E-01
DAV:   3    -0.192019027347E+03   -0.17224E-02   -0.27863E-02 12160   0.132E+00    0.709E-01
DAV:   4    -0.192012459921E+03    0.65674E-02   -0.88215E-03 11640   0.819E-01    0.182E-01
DAV:   5    -0.192012927770E+03   -0.46785E-03   -0.41163E-03 10960   0.402E-01    0.275E-01
DAV:   6    -0.192012331383E+03    0.59639E-03   -0.35207E-03 11880   0.465E-01    0.179E-01
DAV:   7    -0.192011881851E+03    0.44953E-03   -0.85710E-04  9920   0.202E-01    0.455E-02
DAV:   8    -0.192011867404E+03    0.14446E-04   -0.11085E-04  6200   0.711E-02
  25 F= -.19201187E+03 E0= -.19192737E+03  d E =-.178453E-01
       N       E                     dE             d eps       ncg     rms          rms(c)
DAV:   1    -0.192014023038E+03   -0.21412E-02   -0.12161E+00  8160   0.231E+00    0.226E-01
DAV:   2    -0.192017850729E+03   -0.38277E-02   -0.45000E-02 11720   0.659E-01    0.253E-01
DAV:   3    -0.192018158559E+03   -0.30783E-03   -0.51726E-03 12520   0.564E-01    0.302E-01
DAV:   4    -0.192017012731E+03    0.11458E-02   -0.14789E-03 10240   0.336E-01    0.768E-02
DAV:   5    -0.192017217205E+03   -0.20447E-03   -0.55563E-04 10880   0.200E-01    0.143E-01
DAV:   6    -0.192016984934E+03    0.23227E-03   -0.41771E-04  8880   0.176E-01    0.333E-02
DAV:   7    -0.192016971330E+03    0.13604E-04   -0.69738E-05  6040   0.416E-02
  26 F= -.19201697E+03 E0= -.19193210E+03  d E =-.510393E-02
       N       E                     dE             d eps       ncg     rms          rms(c)
DAV:   1    -0.192017995319E+03   -0.10104E-02   -0.70549E-02  8160   0.566E-01    0.693E-02
DAV:   2    -0.192018375830E+03   -0.38051E-03   -0.31892E-03 12600   0.269E-01    0.139E-01
DAV:   3    -0.192018139382E+03    0.23645E-03   -0.50680E-04  9320   0.190E-01    0.441E-02
DAV:   4    -0.192018123497E+03    0.15885E-04   -0.79056E-05  5920   0.616E-02
  27 F= -.19201812E+03 E0= -.19193314E+03  d E =-.115217E-02
       N       E                     dE             d eps       ncg     rms          rms(c)
DAV:   1    -0.192019639423E+03   -0.15000E-02   -0.16121E-01  8160   0.847E-01    0.920E-02
DAV:   2    -0.192020111312E+03   -0.47189E-03   -0.56911E-03 11800   0.235E-01    0.115E-01
DAV:   3    -0.192020065370E+03    0.45942E-04   -0.81238E-04 11280   0.229E-01
  28 F= -.19202007E+03 E0= -.19193484E+03  d E =-.194187E-02
       N       E                     dE             d eps       ncg     rms          rms(c)
DAV:   1    -0.192021088436E+03   -0.97712E-03   -0.10392E-01  8160   0.687E-01    0.888E-02
DAV:   2    -0.192021357204E+03   -0.26877E-03   -0.34237E-03 13200   0.233E-01    0.120E-01
DAV:   3    -0.192021229770E+03    0.12743E-03   -0.79215E-04 10920   0.212E-01    0.863E-02
DAV:   4    -0.192021172092E+03    0.57678E-04   -0.24636E-04  7240   0.118E-01
  29 F= -.19202117E+03 E0= -.19193593E+03  d E =-.110672E-02
       N       E                     dE             d eps       ncg     rms          rms(c)
DAV:   1    -0.192022632972E+03   -0.14032E-02   -0.25586E-01  8160   0.106E+00    0.109E-01
DAV:   2    -0.192023272627E+03   -0.63966E-03   -0.82187E-03 11960   0.289E-01    0.119E-01
DAV:   3    -0.192023327027E+03   -0.54400E-04   -0.86661E-04 11080   0.254E-01
  30 F= -.19202333E+03 E0= -.19193798E+03  d E =-.215494E-02
       N       E                     dE             d eps       ncg     rms          rms(c)
DAV:   1    -0.192024672095E+03   -0.13995E-02   -0.58911E-01  8160   0.162E+00    0.169E-01
DAV:   2    -0.192025897501E+03   -0.12254E-02   -0.17269E-02 12120   0.425E-01    0.160E-01
DAV:   3    -0.192026138492E+03   -0.24099E-03   -0.16756E-03 11760   0.352E-01    0.221E-01
DAV:   4    -0.192025565995E+03    0.57250E-03   -0.88597E-04  9760   0.263E-01    0.740E-02
DAV:   5    -0.192025688351E+03   -0.12236E-03   -0.54280E-04  8600   0.166E-01    0.109E-01
DAV:   6    -0.192025573948E+03    0.11440E-03   -0.31870E-04  8400   0.151E-01    0.424E-02
DAV:   7    -0.192025543309E+03    0.30639E-04   -0.58316E-05  5840   0.523E-02
  31 F= -.19202554E+03 E0= -.19194033E+03  d E =-.221628E-02
       N       E                     dE             d eps       ncg     rms          rms(c)
DAV:   1    -0.192026591886E+03   -0.10179E-02   -0.57082E-01  8160   0.158E+00    0.149E-01
DAV:   2    -0.192027902592E+03   -0.13107E-02   -0.18333E-02 12080   0.392E-01    0.912E-02
DAV:   3    -0.192027998738E+03   -0.96146E-04   -0.99875E-04 11920   0.209E-01
  32 F= -.19202800E+03 E0= -.19194297E+03  d E =-.245543E-02
       N       E                     dE             d eps       ncg     rms          rms(c)
DAV:   1    -0.192025023372E+03    0.28792E-02   -0.42180E-01  8160   0.138E+00    0.120E-01
DAV:   2    -0.192026537032E+03   -0.15137E-02   -0.14398E-02 11280   0.370E-01    0.194E-01
DAV:   3    -0.192026228326E+03    0.30871E-03   -0.19956E-03 12160   0.350E-01    0.121E-01
DAV:   4    -0.192026044452E+03    0.18387E-03   -0.28036E-04  7920   0.137E-01    0.348E-02
DAV:   5    -0.192026083628E+03   -0.39177E-04   -0.12120E-04  6840   0.970E-02
  33 F= -.19202608E+03 E0= -.19194089E+03  d E =0.191511E-02
       N       E                     dE             d eps       ncg     rms          rms(c)
DAV:   1    -0.192026323624E+03   -0.27917E-03   -0.16650E-02  8160   0.283E-01    0.354E-02
DAV:   2    -0.192026392738E+03   -0.69114E-04   -0.62537E-04 11480   0.110E-01
  34 F= -.19202639E+03 E0= -.19194148E+03  d E =-.309110E-03
