<?xml version="1.0" encoding="ISO-8859-1"?>
<modeling>
 <generator>
  <i name="program" type="string">vasp </i>
  <i name="version" type="string">5.4.1  </i>
  <i name="subversion" type="string">05Feb16 (build Jul 05 2020 17:13:04) complex                          parallel </i>
  <i name="platform" type="string">IFC91_ompi </i>
  <i name="date" type="string">2024 04 25 </i>
  <i name="time" type="string">08:07:42 </i>
 </generator>
 <incar>
  <i type="int" name="ISTART">     0</i>
  <i type="string" name="PREC">normal</i>
  <i type="string" name="ALGO"> Normal</i>
  <i type="int" name="ISPIN">     1</i>
  <i type="int" name="ICHARG">     2</i>
  <i type="int" name="IBRION">     1</i>
  <i type="int" name="NSW">   100</i>
  <i type="int" name="ISIF">     3</i>
  <i type="int" name="ISYM">     0</i>
  <i name="SYMPREC">      0.00000001</i>
  <i name="POTIM">      0.50000000</i>
  <i type="logical" name="LREAL"> F  </i>
  <i type="logical" name="LPLANE"> F  </i>
  <i type="int" name="ISMEAR">     0</i>
  <i type="logical" name="LWAVE"> F  </i>
  <i type="logical" name="LCHARG"> F  </i>
  <v type="int" name="KPOINT_BSE">    -1     0     0     0</v>
 </incar>
 <kpoints>
  <generation param="Gamma">
   <v type="int" name="divisions">       8        8        1 </v>
   <v name="usershift">      0.00000000       0.00000000       0.00000000 </v>
   <v name="genvec1">      0.12500000       0.00000000       0.00000000 </v>
   <v name="genvec2">     -0.00000000       0.12500000       0.00000000 </v>
   <v name="genvec3">      0.00000000       0.00000000       1.00000000 </v>
   <v name="shift">      0.00000000       0.00000000       0.00000000 </v>
  </generation>
  <varray name="kpointlist" >
   <v>       0.00000000       0.00000000       0.00000000 </v>
   <v>       0.12500000       0.00000000       0.00000000 </v>
   <v>       0.25000000       0.00000000       0.00000000 </v>
   <v>       0.37500000       0.00000000       0.00000000 </v>
   <v>       0.50000000       0.00000000       0.00000000 </v>
   <v>       0.00000000       0.12500000       0.00000000 </v>
   <v>       0.12500000       0.12500000       0.00000000 </v>
   <v>       0.25000000       0.12500000       0.00000000 </v>
   <v>       0.37500000       0.12500000       0.00000000 </v>
   <v>       0.50000000       0.12500000       0.00000000 </v>
   <v>      -0.37500000       0.12500000       0.00000000 </v>
   <v>      -0.25000000       0.12500000       0.00000000 </v>
   <v>      -0.12500000       0.12500000       0.00000000 </v>
   <v>       0.00000000       0.25000000       0.00000000 </v>
   <v>       0.12500000       0.25000000       0.00000000 </v>
   <v>       0.25000000       0.25000000       0.00000000 </v>
   <v>       0.37500000       0.25000000       0.00000000 </v>
   <v>       0.50000000       0.25000000       0.00000000 </v>
   <v>      -0.37500000       0.25000000       0.00000000 </v>
   <v>      -0.25000000       0.25000000       0.00000000 </v>
   <v>      -0.12500000       0.25000000       0.00000000 </v>
   <v>      -0.00000000       0.37500000       0.00000000 </v>
   <v>       0.12500000       0.37500000       0.00000000 </v>
   <v>       0.25000000       0.37500000       0.00000000 </v>
   <v>       0.37500000       0.37500000       0.00000000 </v>
   <v>       0.50000000       0.37500000       0.00000000 </v>
   <v>      -0.37500000       0.37500000       0.00000000 </v>
   <v>      -0.25000000       0.37500000       0.00000000 </v>
   <v>      -0.12500000       0.37500000       0.00000000 </v>
   <v>       0.00000000       0.50000000       0.00000000 </v>
   <v>       0.12500000       0.50000000       0.00000000 </v>
   <v>       0.25000000       0.50000000       0.00000000 </v>
   <v>       0.37500000       0.50000000       0.00000000 </v>
   <v>       0.50000000       0.50000000       0.00000000 </v>
  </varray>
  <varray name="weights" >
   <v>       0.01562500 </v>
   <v>       0.03125000 </v>
   <v>       0.03125000 </v>
   <v>       0.03125000 </v>
   <v>       0.01562500 </v>
   <v>       0.03125000 </v>
   <v>       0.03125000 </v>
   <v>       0.03125000 </v>
   <v>       0.03125000 </v>
   <v>       0.03125000 </v>
   <v>       0.03125000 </v>
   <v>       0.03125000 </v>
   <v>       0.03125000 </v>
   <v>       0.03125000 </v>
   <v>       0.03125000 </v>
   <v>       0.03125000 </v>
   <v>       0.03125000 </v>
   <v>       0.03125000 </v>
   <v>       0.03125000 </v>
   <v>       0.03125000 </v>
   <v>       0.03125000 </v>
   <v>       0.03125000 </v>
   <v>       0.03125000 </v>
   <v>       0.03125000 </v>
   <v>       0.03125000 </v>
   <v>       0.03125000 </v>
   <v>       0.03125000 </v>
   <v>       0.03125000 </v>
   <v>       0.03125000 </v>
   <v>       0.01562500 </v>
   <v>       0.03125000 </v>
   <v>       0.03125000 </v>
   <v>       0.03125000 </v>
   <v>       0.01562500 </v>
  </varray>
 </kpoints>
 <parameters>
  <separator name="general" >
   <i type="string" name="SYSTEM">unknown system</i>
   <i type="logical" name="LCOMPAT"> F  </i>
  </separator>
  <separator name="electronic" >
   <i type="string" name="PREC">normal</i>
   <i name="ENMAX">    280.00000000</i>
   <i name="ENAUG">    373.43800000</i>
   <i name="EDIFF">      0.00010000</i>
   <i type="int" name="IALGO">    38</i>
   <i type="int" name="IWAVPR">    11</i>
   <i type="int" name="NBANDS">   120</i>
   <i name="NELECT">    159.00000000</i>
   <i type="int" name="TURBO">     0</i>
   <i type="int" name="IRESTART">     0</i>
   <i type="int" name="NREBOOT">     0</i>
   <i type="int" name="NMIN">     0</i>
   <i name="EREF">      0.00000000</i>
   <separator name="electronic smearing" >
    <i type="int" name="ISMEAR">     0</i>
    <i name="SIGMA">      0.20000000</i>
    <i name="KSPACING">      0.50000000</i>
    <i type="logical" name="KGAMMA"> T  </i>
   </separator>
   <separator name="electronic projectors" >
    <i type="logical" name="LREAL"> F  </i>
    <v name="ROPT">      0.00000000      0.00000000      0.00000000      0.00000000</v>
    <i type="int" name="LMAXPAW">  -100</i>
    <i type="int" name="LMAXMIX">     2</i>
    <i type="logical" name="NLSPLINE"> F  </i>
   </separator>
   <separator name="electronic startup" >
    <i type="int" name="ISTART">     0</i>
    <i type="int" name="ICHARG">     2</i>
    <i type="int" name="INIWAV">     1</i>
   </separator>
   <separator name="electronic spin" >
    <i type="int" name="ISPIN">     1</i>
    <i type="logical" name="LNONCOLLINEAR"> F  </i>
    <v name="MAGMOM">      1.00000000      1.00000000      1.00000000      1.00000000      1.00000000      1.00000000      1.00000000      1.00000000      1.00000000      1.00000000      1.00000000      1.00000000      1.00000000      1.00000000      1.00000000      1.00000000      1.00000000      1.00000000      1.00000000      1.00000000
      1.00000000      1.00000000      1.00000000      1.00000000      1.00000000      1.00000000      1.00000000</v>
    <i name="NUPDOWN">     -1.00000000</i>
    <i type="logical" name="LSORBIT"> F  </i>
    <v name="SAXIS">      0.00000000      0.00000000      1.00000000</v>
    <i type="logical" name="LSPIRAL"> F  </i>
    <v name="QSPIRAL">      0.00000000      0.00000000      0.00000000</v>
    <i type="logical" name="LZEROZ"> F  </i>
   </separator>
   <separator name="electronic exchange-correlation" >
    <i type="logical" name="LASPH"> F  </i>
    <i type="logical" name="LMETAGGA"> F  </i>
   </separator>
   <separator name="electronic convergence" >
    <i type="int" name="NELM">    60</i>
    <i type="int" name="NELMDL">    -5</i>
    <i type="int" name="NELMIN">     2</i>
    <i name="ENINI">    280.00000000</i>
    <separator name="electronic convergence detail" >
     <i type="logical" name="LDIAG"> T  </i>
     <i type="logical" name="LSUBROT"> F  </i>
     <i name="WEIMIN">      0.00100000</i>
     <i name="EBREAK">      0.00000021</i>
     <i name="DEPER">      0.30000000</i>
     <i type="int" name="NRMM">     4</i>
     <i name="TIME">      0.40000000</i>
    </separator>
   </separator>
   <separator name="electronic mixer" >
    <i name="AMIX">      0.40000000</i>
    <i name="BMIX">      1.00000000</i>
    <i name="AMIN">      0.10000000</i>
    <i name="AMIX_MAG">      1.60000000</i>
    <i name="BMIX_MAG">      1.00000000</i>
    <separator name="electronic mixer details" >
     <i type="int" name="IMIX">     4</i>
     <i type="logical" name="MIXFIRST"> F  </i>
     <i type="int" name="MAXMIX">   -45</i>
     <i name="WC">    100.00000000</i>
     <i type="int" name="INIMIX">     1</i>
     <i type="int" name="MIXPRE">     1</i>
     <i type="int" name="MREMOVE">     5</i>
    </separator>
   </separator>
   <separator name="electronic dipolcorrection" >
    <i type="logical" name="LDIPOL"> F  </i>
    <i type="logical" name="LMONO"> F  </i>
    <i type="int" name="IDIPOL">     0</i>
    <i name="EPSILON">      1.00000000</i>
    <v name="DIPOL">   -100.00000000   -100.00000000   -100.00000000</v>
    <i name="EFIELD">      0.00000000</i>
   </separator>
  </separator>
  <separator name="grids" >
   <i type="int" name="NGX">    42</i>
   <i type="int" name="NGY">    42</i>
   <i type="int" name="NGZ">   126</i>
   <i type="int" name="NGXF">    84</i>
   <i type="int" name="NGYF">    84</i>
   <i type="int" name="NGZF">   252</i>
   <i type="logical" name="ADDGRID"> F  </i>
  </separator>
  <separator name="ionic" >
   <i type="int" name="NSW">   100</i>
   <i type="int" name="IBRION">     1</i>
   <i type="int" name="ISIF">     3</i>
   <i name="PSTRESS">      0.00000000</i>
   <i name="EDIFFG">      0.00100000</i>
   <i type="int" name="NFREE">     0</i>
   <i name="POTIM">      0.50000000</i>
   <i name="SMASS">     -3.00000000</i>
   <i name="SCALEE">      1.00000000</i>
  </separator>
  <separator name="ionic md" >
   <i name="TEBEG">      0.00010000</i>
   <i name="TEEND">      0.00010000</i>
   <i type="int" name="NBLOCK">     1</i>
   <i type="int" name="KBLOCK">   100</i>
   <i type="int" name="NPACO">   256</i>
   <i name="APACO">     16.00000000</i>
  </separator>
  <separator name="symmetry" >
   <i type="int" name="ISYM">     0</i>
   <i name="SYMPREC">      0.00000001</i>
  </separator>
  <separator name="dos" >
   <i type="logical" name="LORBIT"> F  </i>
   <v name="RWIGS">     -1.00000000     -1.00000000     -1.00000000     -1.00000000</v>
   <i type="int" name="NEDOS">   301</i>
   <i name="EMIN">     10.00000000</i>
   <i name="EMAX">    -10.00000000</i>
   <i name="EFERMI">      0.00000000</i>
  </separator>
  <separator name="writing" >
   <i type="int" name="NWRITE">     2</i>
   <i type="logical" name="LWAVE"> F  </i>
   <i type="logical" name="LCHARG"> F  </i>
   <i type="logical" name="LPARD"> F  </i>
   <i type="logical" name="LVTOT"> F  </i>
   <i type="logical" name="LVHAR"> F  </i>
   <i type="logical" name="LELF"> F  </i>
   <i type="logical" name="LOPTICS"> F  </i>
   <v name="STM">      0.00000000      0.00000000      0.00000000      0.00000000      0.00000000      0.00000000      0.00000000</v>
  </separator>
  <separator name="performance" >
   <i type="int" name="NPAR">    40</i>
   <i type="int" name="NSIM">     4</i>
   <i type="int" name="NBLK">    -1</i>
   <i type="logical" name="LPLANE"> F  </i>
   <i type="logical" name="LSCALAPACK"> T  </i>
   <i type="logical" name="LSCAAWARE"> F  </i>
   <i type="logical" name="LSCALU"> F  </i>
   <i type="logical" name="LASYNC"> F  </i>
   <i type="logical" name="LORBITALREAL"> F  </i>
  </separator>
  <separator name="miscellaneous" >
   <i type="int" name="IDIOT">     3</i>
   <i type="logical" name="LMUSIC"> F  </i>
   <v name="POMASS">     50.94100000     95.94000000    183.85000000     32.06600000</v>
   <v name="DARWINR">      0.00000000      0.00000000      0.00000000      0.00000000</v>
   <v name="DARWINV">      1.00000000      1.00000000      1.00000000      1.00000000</v>
   <i type="logical" name="LCORR"> T  </i>
  </separator>
  <i type="logical" name="GGA_COMPAT"> T  </i>
  <i type="logical" name="LBERRY"> F  </i>
  <i type="int" name="ICORELEVEL">     0</i>
  <i type="logical" name="LDAU"> F  </i>
  <i type="int" name="I_CONSTRAINED_M">     0</i>
  <separator name="electronic exchange-correlation" >
   <i type="string" name="GGA">--</i>
   <i type="int" name="VOSKOWN">     0</i>
   <i type="logical" name="LHFCALC"> F  </i>
   <i type="string" name="PRECFOCK"></i>
   <i type="logical" name="LSYMGRAD"> F  </i>
   <i type="logical" name="LHFONE"> F  </i>
   <i type="logical" name="LRHFCALC"> F  </i>
   <i type="logical" name="LTHOMAS"> F  </i>
   <i type="logical" name="LMODELHF"> F  </i>
   <i name="ENCUT4O">     -1.00000000</i>
   <i type="int" name="EXXOEP">     0</i>
   <i type="int" name="FOURORBIT">     0</i>
   <i name="AEXX">      0.00000000</i>
   <i name="HFALPHA">      0.00000000</i>
   <i name="MCALPHA">      0.00000000</i>
   <i name="ALDAX">      1.00000000</i>
   <i name="AGGAX">      1.00000000</i>
   <i name="ALDAC">      1.00000000</i>
   <i name="AGGAC">      1.00000000</i>
   <i type="int" name="NKREDX">     1</i>
   <i type="int" name="NKREDY">     1</i>
   <i type="int" name="NKREDZ">     1</i>
   <i type="logical" name="SHIFTRED"> F  </i>
   <i type="logical" name="ODDONLY"> F  </i>
   <i type="logical" name="EVENONLY"> F  </i>
   <i type="int" name="LMAXFOCK">     0</i>
   <i type="int" name="NMAXFOCKAE">     0</i>
   <i type="logical" name="LFOCKAEDFT"> F  </i>
   <i name="HFSCREEN">      0.00000000</i>
   <i name="HFSCREENC">      0.00000000</i>
   <i type="int" name="NBANDSGWLOW">     0</i>
  </separator>
  <separator name="vdW DFT" >
   <i type="logical" name="LUSE_VDW"> F  </i>
   <i name="Zab_VDW">     -0.84910000</i>
   <i name="PARAM1">      0.12340000</i>
   <i name="PARAM2">      1.00000000</i>
   <i name="PARAM3">      0.00000000</i>
  </separator>
  <separator name="model GW" >
   <i type="int" name="MODEL_GW">     0</i>
   <i name="MODEL_EPS0">     58.26239943</i>
   <i name="MODEL_ALPHA">      1.00000000</i>
  </separator>
  <separator name="linear response parameters" >
   <i type="logical" name="LEPSILON"> F  </i>
   <i type="logical" name="LRPA"> F  </i>
   <i type="logical" name="LNABLA"> F  </i>
   <i type="logical" name="LVEL"> F  </i>
   <i type="int" name="KINTER">     0</i>
   <i name="CSHIFT">      0.10000000</i>
   <i name="OMEGAMAX">     -1.00000000</i>
   <i name="DEG_THRESHOLD">      0.00200000</i>
  </separator>
  <separator name="orbital magnetization" >
   <i type="logical" name="NUCIND"> F  </i>
   <v name="MAGPOS">      0.00000000      0.00000000      0.00000000</v>
   <i type="logical" name="LNICSALL"> T  </i>
   <i type="logical" name="ORBITALMAG"> F  </i>
   <i type="logical" name="LMAGBLOCH"> F  </i>
   <i type="logical" name="LCHIMAG"> F  </i>
   <i type="logical" name="LGAUGE"> T  </i>
   <i type="int" name="MAGATOM">     0</i>
   <v name="MAGDIPOL">      0.00000000      0.00000000      0.00000000</v>
   <v name="AVECCONST">      0.00000000      0.00000000      0.00000000</v>
  </separator>
  <separator name="response functions" >
   <i type="logical" name="LADDER"> F  </i>
   <i type="logical" name="LFXC"> F  </i>
   <i type="logical" name="LHARTREE"> T  </i>
   <i type="int" name="IBSE">     0</i>
   <v type="int" name="KPOINT">    -1     0     0     0</v>
   <i type="logical" name="LTCTE"> F  </i>
   <i type="logical" name="LTETE"> F  </i>
   <i type="logical" name="LTRIPLET"> F  </i>
   <i type="logical" name="LFXCEPS"> F  </i>
   <i type="logical" name="LFXHEG"> F  </i>
   <i type="int" name="NATURALO">     0</i>
   <i type="logical" name="L2ORDER"> F  </i>
   <i type="logical" name="LUSEW"> F  </i>
   <i name="ENCUTGW">     -2.00000000</i>
   <i name="ENCUTGWSOFT">     -2.00000000</i>
   <i name="ENCUTLF">     -1.00000000</i>
   <i type="int" name="LMAXMP2">    -1</i>
   <i name="SCISSOR">      0.00000000</i>
   <i type="int" name="NOMEGA">     0</i>
   <i type="int" name="NOMEGAR">     0</i>
   <i type="int" name="NBANDSGW">    -1</i>
   <i type="int" name="NBANDSO">    -1</i>
   <i type="int" name="NBANDSV">    -1</i>
   <i type="int" name="NELM">     1</i>
   <i type="int" name="NELMHF">     1</i>
   <i type="int" name="DIM">     3</i>
   <i type="int" name="ANTIRES">     0</i>
   <i name="OMEGAMAX">    -30.00000000</i>
   <i name="OMEGAMIN">    -30.00000000</i>
   <i name="OMEGATL">   -200.00000000</i>
   <i type="int" name="OMEGAGRID">     0</i>
   <i name="CSHIFT">     -0.10000000</i>
   <i type="logical" name="SELFENERGY"> F  </i>
   <i type="logical" name="LSPECTRAL"> F  </i>
   <i type="logical" name="LSPECTRALGW"> F  </i>
   <i type="logical" name="LSINGLES"> F  </i>
   <i type="logical" name="LFERMIGW"> F  </i>
   <i type="logical" name="ODDONLYGW"> F  </i>
   <i type="logical" name="EVENONLYGW"> F  </i>
   <i type="int" name="NKREDLFX">     1</i>
   <i type="int" name="NKREDLFY">     1</i>
   <i type="int" name="NKREDLFZ">     1</i>
   <i type="int" name="MAXMEM">  1800</i>
   <i type="int" name="TELESCOPE">     0</i>
   <i type="int" name="TAUPAR">     1</i>
   <i type="int" name="OMEGAPAR">    -1</i>
   <i name="LAMBDA">      1.00000000</i>
  </separator>
  <separator name="External order field" >
   <i name="OFIELD_KAPPA">      0.00000000</i>
   <v name="OFIELD_K">      0.00000000      0.00000000      0.00000000</v>
   <i name="OFIELD_Q6_NEAR">      0.00000000</i>
   <i name="OFIELD_Q6_FAR">      0.00000000</i>
   <i name="OFIELD_A">      0.00000000</i>
  </separator>
 </parameters>
 <atominfo>
  <atoms>      27 </atoms>
  <types>       4 </types>
  <array name="atoms" >
   <dimension dim="1">ion</dimension>
   <field type="string">element</field>
   <field type="int">atomtype</field>
   <set>
    <rc><c>V </c><c>   1</c></rc>
    <rc><c>V </c><c>   1</c></rc>
    <rc><c>V </c><c>   1</c></rc>
    <rc><c>Mo</c><c>   2</c></rc>
    <rc><c>Mo</c><c>   2</c></rc>
    <rc><c>Mo</c><c>   2</c></rc>
    <rc><c>W </c><c>   3</c></rc>
    <rc><c>W </c><c>   3</c></rc>
    <rc><c>W </c><c>   3</c></rc>
    <rc><c>S </c><c>   4</c></rc>
    <rc><c>S </c><c>   4</c></rc>
    <rc><c>S </c><c>   4</c></rc>
    <rc><c>S </c><c>   4</c></rc>
    <rc><c>S </c><c>   4</c></rc>
    <rc><c>S </c><c>   4</c></rc>
    <rc><c>S </c><c>   4</c></rc>
    <rc><c>S </c><c>   4</c></rc>
    <rc><c>S </c><c>   4</c></rc>
    <rc><c>S </c><c>   4</c></rc>
    <rc><c>S </c><c>   4</c></rc>
    <rc><c>S </c><c>   4</c></rc>
    <rc><c>S </c><c>   4</c></rc>
    <rc><c>S </c><c>   4</c></rc>
    <rc><c>S </c><c>   4</c></rc>
    <rc><c>S </c><c>   4</c></rc>
    <rc><c>S </c><c>   4</c></rc>
    <rc><c>S </c><c>   4</c></rc>
   </set>
  </array>
  <array name="atomtypes" >
   <dimension dim="1">type</dimension>
   <field type="int">atomspertype</field>
   <field type="string">element</field>
   <field>mass</field>
   <field>valence</field>
   <field type="string">pseudopotential</field>
   <set>
    <rc><c>   3</c><c>V </c><c>     50.94100000</c><c>      5.00000000</c><c> PAW_PBE V 08Apr2002                    </c></rc>
    <rc><c>   3</c><c>Mo</c><c>     95.94000000</c><c>      6.00000000</c><c> PAW_PBE Mo 08Apr2002                   </c></rc>
    <rc><c>   3</c><c>W </c><c>    183.85000000</c><c>      6.00000000</c><c> PAW_PBE W 08Apr2002                    </c></rc>
    <rc><c>  18</c><c>S </c><c>     32.06600000</c><c>      6.00000000</c><c>  PAW_PBE S 17Jan2003                   </c></rc>
   </set>
  </array>
 </atominfo>
 <structure name="initialpos" >
  <crystal>
   <varray name="basis" >
    <v>       8.66999996       5.03999989       0.00000000 </v>
    <v>      -8.66999982       5.04000013       0.00000000 </v>
    <v>       0.00000000       0.00000000      30.00000000 </v>
   </varray>
   <i name="volume">   2621.80797419 </i>
   <varray name="rec_basis" >
    <v>       0.05767013       0.09920635       0.00000000 </v>
    <v>      -0.05767013       0.09920635       0.00000000 </v>
    <v>       0.00000000       0.00000000       0.03333333 </v>
   </varray>
  </crystal>
  <varray name="positions" >
   <v>       1.00000000       0.33333334       0.00000000 </v>
   <v>       0.66666669       0.66666669       0.00000000 </v>
   <v>       0.33333334       0.00000000       0.00000000 </v>
   <v>       0.66666669       0.00000000       0.00000000 </v>
   <v>       0.33333334       0.33333334       0.00000000 </v>
   <v>       0.00000000       0.00000000       0.00000000 </v>
   <v>       0.00000000       0.66666669       0.00000000 </v>
   <v>       0.33333334       0.66666669       0.00000000 </v>
   <v>       0.66666669       0.33333334       0.00000000 </v>
   <v>       0.11068511       0.22244981       0.95539999 </v>
   <v>       0.22244981       0.11068511       0.04460000 </v>
   <v>       0.11068511       0.55578315       0.95539999 </v>
   <v>       0.22244981       0.44401845       0.04460000 </v>
   <v>       0.11068511       0.88911647       0.95539999 </v>
   <v>       0.22244981       0.77735180       0.04460000 </v>
   <v>       0.44401845       0.22244981       0.95539999 </v>
   <v>       0.55578315       0.11068511       0.04460000 </v>
   <v>       0.44401845       0.55578315       0.95539999 </v>
   <v>       0.55578315       0.44401845       0.04460000 </v>
   <v>       0.44401845       0.88911647       0.95539999 </v>
   <v>       0.55578315       0.77735180       0.04460000 </v>
   <v>       0.77735180       0.22244981       0.95539999 </v>
   <v>       0.88911647       0.11068511       0.04460000 </v>
   <v>       0.77735180       0.55578315       0.95539999 </v>
   <v>       0.88911647       0.44401845       0.04460000 </v>
   <v>       0.77735180       0.88911647       0.95539999 </v>
   <v>       0.88911647       0.77735180       0.04460000 </v>
  </varray>
 </structure>
 <calculation>
  <scstep>
   <time name="dav">   22.87   22.93</time>
   <time name="total">   22.92   22.99</time>
   <energy>
    <i name="alphaZ">     81.65567618 </i>
    <i name="ewald">  41888.36874791 </i>
    <i name="hartreedc"> -47720.98535204 </i>
    <i name="XCdc">   -242.93567426 </i>
    <i name="pawpsdc">   3467.42045192 </i>
    <i name="pawaedc">  -2871.19716117 </i>
    <i name="eentropy">     -0.53305787 </i>
    <i name="bandstr">   -238.64580588 </i>
    <i name="atom">   6761.44252427 </i>
    <i name="e_fr_energy">   1124.59034905 </i>
    <i name="e_wo_entrp">   1125.12340693 </i>
    <i name="e_0_energy">   1124.85687799 </i>
   </energy>
  </scstep>
  <scstep>
   <time name="dav">   30.21   30.28</time>
   <time name="total">   30.21   30.29</time>
   <energy>
    <i name="e_fr_energy">     -2.37555105 </i>
    <i name="e_wo_entrp">     -2.16066371 </i>
    <i name="e_0_energy">     -2.26810738 </i>
   </energy>
  </scstep>
  <scstep>
   <time name="dav">   28.87   28.93</time>
   <time name="total">   28.87   28.94</time>
   <energy>
    <i name="e_fr_energy">   -199.94055727 </i>
    <i name="e_wo_entrp">   -199.69502170 </i>
    <i name="e_0_energy">   -199.81778949 </i>
   </energy>
  </scstep>
  <scstep>
   <time name="dav">   31.78   31.86</time>
   <time name="total">   31.78   31.86</time>
   <energy>
    <i name="e_fr_energy">   -209.04228798 </i>
    <i name="e_wo_entrp">   -208.77967182 </i>
    <i name="e_0_energy">   -208.91097990 </i>
   </energy>
  </scstep>
  <scstep>
   <time name="dav">   29.89   29.97</time>
   <time name="total">   30.40   30.48</time>
   <energy>
    <i name="e_fr_energy">   -209.35027520 </i>
    <i name="e_wo_entrp">   -209.09048789 </i>
    <i name="e_0_energy">   -209.22038155 </i>
   </energy>
  </scstep>
  <scstep>
   <time name="dav">   32.71   32.79</time>
   <time name="total">   33.22   33.31</time>
   <energy>
    <i name="e_fr_energy">   -236.55798933 </i>
    <i name="e_wo_entrp">   -236.28705490 </i>
    <i name="e_0_energy">   -236.42252211 </i>
   </energy>
  </scstep>
  <scstep>
   <time name="dav">   32.53   32.61</time>
   <time name="total">   33.12   33.21</time>
   <energy>
    <i name="e_fr_energy">   -196.08684455 </i>
    <i name="e_wo_entrp">   -195.83049627 </i>
    <i name="e_0_energy">   -195.95867041 </i>
   </energy>
  </scstep>
  <scstep>
   <time name="dav">   31.49   31.56</time>
   <time name="total">   32.08   32.16</time>
   <energy>
    <i name="e_fr_energy">   -189.21942152 </i>
    <i name="e_wo_entrp">   -188.93324833 </i>
    <i name="e_0_energy">   -189.07633493 </i>
   </energy>
  </scstep>
  <scstep>
   <time name="dav">   34.26   34.34</time>
   <time name="total">   34.86   34.95</time>
   <energy>
    <i name="e_fr_energy">   -188.01392428 </i>
    <i name="e_wo_entrp">   -187.70392912 </i>
    <i name="e_0_energy">   -187.85892670 </i>
   </energy>
  </scstep>
  <scstep>
   <time name="dav">   33.44   33.52</time>
   <time name="total">   34.05   34.14</time>
   <energy>
    <i name="e_fr_energy">   -187.02179348 </i>
    <i name="e_wo_entrp">   -186.67003238 </i>
    <i name="e_0_energy">   -186.84591293 </i>
   </energy>
  </scstep>
  <scstep>
   <time name="dav">   33.64   33.73</time>
   <time name="total">   34.25   34.35</time>
   <energy>
    <i name="e_fr_energy">   -187.21876156 </i>
    <i name="e_wo_entrp">   -186.88977168 </i>
    <i name="e_0_energy">   -187.05426662 </i>
   </energy>
  </scstep>
  <scstep>
   <time name="dav">   31.48   31.56</time>
   <time name="total">   32.09   32.18</time>
   <energy>
    <i name="e_fr_energy">   -187.05980493 </i>
    <i name="e_wo_entrp">   -186.72890442 </i>
    <i name="e_0_energy">   -186.89435467 </i>
   </energy>
  </scstep>
  <scstep>
   <time name="dav">   31.95   32.03</time>
   <time name="total">   32.56   32.65</time>
   <energy>
    <i name="e_fr_energy">   -186.94080901 </i>
    <i name="e_wo_entrp">   -186.59558525 </i>
    <i name="e_0_energy">   -186.76819713 </i>
   </energy>
  </scstep>
  <scstep>
   <time name="dav">   32.60   32.68</time>
   <time name="total">   33.21   33.29</time>
   <energy>
    <i name="e_fr_energy">   -186.93444919 </i>
    <i name="e_wo_entrp">   -186.58804205 </i>
    <i name="e_0_energy">   -186.76124562 </i>
   </energy>
  </scstep>
  <scstep>
   <time name="dav">   33.78   33.86</time>
   <time name="total">   34.39   34.48</time>
   <energy>
    <i name="e_fr_energy">   -186.92814532 </i>
    <i name="e_wo_entrp">   -186.58212404 </i>
    <i name="e_0_energy">   -186.75513468 </i>
   </energy>
  </scstep>
  <scstep>
   <time name="dav">   33.68   33.76</time>
   <time name="total">   34.30   34.39</time>
   <energy>
    <i name="e_fr_energy">   -186.92391812 </i>
    <i name="e_wo_entrp">   -186.57928959 </i>
    <i name="e_0_energy">   -186.75160386 </i>
   </energy>
  </scstep>
  <scstep>
   <time name="dav">   31.15   31.23</time>
   <time name="total">   31.77   31.86</time>
   <energy>
    <i name="e_fr_energy">   -186.92367570 </i>
    <i name="e_wo_entrp">   -186.57943602 </i>
    <i name="e_0_energy">   -186.75155586 </i>
   </energy>
  </scstep>
  <scstep>
   <time name="dav">   31.95   32.02</time>
   <time name="total">   32.56   32.64</time>
   <energy>
    <i name="e_fr_energy">   -186.92314245 </i>
    <i name="e_wo_entrp">   -186.57824594 </i>
    <i name="e_0_energy">   -186.75069419 </i>
   </energy>
  </scstep>
  <scstep>
   <time name="dav">   29.08   29.15</time>
   <time name="total">   29.70   29.78</time>
   <energy>
    <i name="e_fr_energy">   -186.92354124 </i>
    <i name="e_wo_entrp">   -186.57890987 </i>
    <i name="e_0_energy">   -186.75122555 </i>
   </energy>
  </scstep>
  <scstep>
   <time name="dav">   26.02   26.08</time>
   <time name="total">   26.62   26.70</time>
   <energy>
    <i name="e_fr_energy">   -186.92409445 </i>
    <i name="e_wo_entrp">   -186.57980063 </i>
    <i name="e_0_energy">   -186.75194754 </i>
   </energy>
  </scstep>
  <scstep>
   <time name="dav">   24.96   25.02</time>
   <time name="total">   25.58   25.64</time>
   <energy>
    <i name="e_fr_energy">   -186.92524525 </i>
    <i name="e_wo_entrp">   -186.58078654 </i>
    <i name="e_0_energy">   -186.75301589 </i>
   </energy>
  </scstep>
  <scstep>
   <time name="dav">   20.84   20.89</time>
   <time name="total">   21.45   21.51</time>
   <energy>
    <i name="e_fr_energy">   -186.92615345 </i>
    <i name="e_wo_entrp">   -186.58166703 </i>
    <i name="e_0_energy">   -186.75391024 </i>
   </energy>
  </scstep>
  <scstep>
   <time name="dav">   21.54   21.59</time>
   <time name="total">   22.15   22.21</time>
   <energy>
    <i name="e_fr_energy">   -186.92684784 </i>
    <i name="e_wo_entrp">   -186.58238214 </i>
    <i name="e_0_energy">   -186.75461499 </i>
   </energy>
  </scstep>
  <scstep>
   <time name="dav">   20.66   20.71</time>
   <time name="total">   21.28   21.34</time>
   <energy>
    <i name="e_fr_energy">   -186.92752312 </i>
    <i name="e_wo_entrp">   -186.58309752 </i>
    <i name="e_0_energy">   -186.75531032 </i>
   </energy>
  </scstep>
  <scstep>
   <time name="dav">   18.99   19.04</time>
   <time name="total">   19.61   19.66</time>
   <energy>
    <i name="e_fr_energy">   -186.92789023 </i>
    <i name="e_wo_entrp">   -186.58343801 </i>
    <i name="e_0_energy">   -186.75566412 </i>
   </energy>
  </scstep>
  <scstep>
   <time name="dav">   20.02   20.07</time>
   <time name="total">   20.64   20.69</time>
   <energy>
    <i name="e_fr_energy">   -186.92811214 </i>
    <i name="e_wo_entrp">   -186.58366035 </i>
    <i name="e_0_energy">   -186.75588624 </i>
   </energy>
  </scstep>
  <scstep>
   <time name="dav">   21.02   21.07</time>
   <time name="total">   21.06   21.12</time>
   <energy>
    <i name="alphaZ">     81.65567618 </i>
    <i name="ewald">  41888.36874791 </i>
    <i name="hartreedc"> -47831.62920059 </i>
    <i name="XCdc">   -231.60173834 </i>
    <i name="pawpsdc">   4192.25151401 </i>
    <i name="pawaedc">  -3610.29033449 </i>
    <i name="eentropy">     -0.34444928 </i>
    <i name="bandstr">  -1436.78093534 </i>
    <i name="atom">   6761.44252427 </i>
    <i name="e_fr_energy">   -186.92819567 </i>
    <i name="e_wo_entrp">   -186.58374639 </i>
    <i name="e_0_energy">   -186.75597103 </i>
   </energy>
  </scstep>
  <structure>
   <crystal>
    <varray name="basis" >
     <v>       8.66999996       5.03999989       0.00000000 </v>
     <v>      -8.66999982       5.04000013       0.00000000 </v>
     <v>       0.00000000       0.00000000      30.00000000 </v>
    </varray>
    <i name="volume">   2621.80797419 </i>
    <varray name="rec_basis" >
     <v>       0.05767013       0.09920635       0.00000000 </v>
     <v>      -0.05767013       0.09920635       0.00000000 </v>
     <v>       0.00000000       0.00000000       0.03333333 </v>
    </varray>
   </crystal>
   <varray name="positions" >
    <v>       1.00000000       0.33333334       0.00000000 </v>
    <v>       0.66666669       0.66666669       0.00000000 </v>
    <v>       0.33333334       0.00000000       0.00000000 </v>
    <v>       0.66666669       0.00000000       0.00000000 </v>
    <v>       0.33333334       0.33333334       0.00000000 </v>
    <v>       0.00000000       0.00000000       0.00000000 </v>
    <v>       0.00000000       0.66666669       0.00000000 </v>
    <v>       0.33333334       0.66666669       0.00000000 </v>
    <v>       0.66666669       0.33333334       0.00000000 </v>
    <v>       0.11068511       0.22244981       0.95539999 </v>
    <v>       0.22244981       0.11068511       0.04460000 </v>
    <v>       0.11068511       0.55578315       0.95539999 </v>
    <v>       0.22244981       0.44401845       0.04460000 </v>
    <v>       0.11068511       0.88911647       0.95539999 </v>
    <v>       0.22244981       0.77735180       0.04460000 </v>
    <v>       0.44401845       0.22244981       0.95539999 </v>
    <v>       0.55578315       0.11068511       0.04460000 </v>
    <v>       0.44401845       0.55578315       0.95539999 </v>
    <v>       0.55578315       0.44401845       0.04460000 </v>
    <v>       0.44401845       0.88911647       0.95539999 </v>
    <v>       0.55578315       0.77735180       0.04460000 </v>
    <v>       0.77735180       0.22244981       0.95539999 </v>
    <v>       0.88911647       0.11068511       0.04460000 </v>
    <v>       0.77735180       0.55578315       0.95539999 </v>
    <v>       0.88911647       0.44401845       0.04460000 </v>
    <v>       0.77735180       0.88911647       0.95539999 </v>
    <v>       0.88911647       0.77735180       0.04460000 </v>
   </varray>
  </structure>
  <varray name="forces" >
   <v>       0.44005352      -0.23724004      -0.00196882 </v>
   <v>      -0.21576429       0.12838175       0.00389146 </v>
   <v>      -0.22283118       0.11821663      -0.00203002 </v>
   <v>       0.26609743       0.13750002      -0.04060276 </v>
   <v>      -0.00117453      -0.28979771       0.03932845 </v>
   <v>      -0.26349576       0.13820713       0.00198495 </v>
   <v>      -0.28825922       0.15227040       0.00136700 </v>
   <v>       0.29323628       0.15653709      -0.03092165 </v>
   <v>      -0.00329328      -0.32326831       0.02883637 </v>
   <v>      -0.76688886       0.00396207      -2.15494493 </v>
   <v>       0.76546348       0.00439829       2.12239748 </v>
   <v>       0.47530239      -0.60119791      -2.14406024 </v>
   <v>      -0.63316560      -0.57468550       2.15762799 </v>
   <v>       0.63623710       0.57066317      -2.16170110 </v>
   <v>      -0.48366585       0.59762410       2.17513417 </v>
   <v>       0.62733772      -0.57310782      -2.18507889 </v>
   <v>      -0.62589297      -0.56792638       2.16144251 </v>
   <v>       0.37247812       0.72051078      -2.17522847 </v>
   <v>      -0.37204096       0.72630089       2.13795045 </v>
   <v>      -0.68794581      -0.15331650      -2.08803687 </v>
   <v>       0.68671619      -0.14811664       2.14900758 </v>
   <v>       0.37512691       0.72949551      -2.16401084 </v>
   <v>      -0.53623653       0.71476536       2.19731748 </v>
   <v>      -0.62818714       0.00568218      -2.12878789 </v>
   <v>       0.62924342       0.00683358       2.10002577 </v>
   <v>       0.53026281      -0.71451275      -2.16245219 </v>
   <v>      -0.36871341      -0.72817939       2.16351300 </v>
  </varray>
  <varray name="stress" >
   <v>       7.32396872       0.00823794      -1.52767510 </v>
   <v>       0.00823804       4.43886328       0.03502013 </v>
   <v>      -1.52767512       0.03502012      30.25511397 </v>
  </varray>
  <energy>
   <i name="e_fr_energy">   -186.92819567 </i>
   <i name="e_wo_entrp">   -186.75597103 </i>
   <i name="e_0_energy">     -0.34444928 </i>
  </energy>
  <time name="totalsc">  828.25  830.48</time>
 </calculation>
 <calculation>
  <scstep>
   <time name="dav">   22.82   22.87</time>
   <time name="total">   23.43   23.49</time>
   <energy>
    <i name="alphaZ">     78.91946773 </i>
    <i name="ewald">  39381.16915896 </i>
    <i name="hartreedc"> -45339.01783366 </i>
    <i name="XCdc">   -239.04114750 </i>
    <i name="pawpsdc">   4192.23482573 </i>
    <i name="pawaedc">  -3610.27401222 </i>
    <i name="eentropy">     -0.28539936 </i>
    <i name="bandstr">  -1412.63517025 </i>
    <i name="atom">   6761.44252427 </i>
    <i name="e_fr_energy">   -187.48758630 </i>
    <i name="e_wo_entrp">   -187.20218694 </i>
    <i name="e_0_energy">   -187.34488662 </i>
   </energy>
  </scstep>
  <scstep>
   <time name="dav">   33.21   33.29</time>
   <time name="total">   33.83   33.91</time>
   <energy>
    <i name="e_fr_energy">   -189.40403585 </i>
    <i name="e_wo_entrp">   -189.08152115 </i>
    <i name="e_0_energy">   -189.24277850 </i>
   </energy>
  </scstep>
  <scstep>
   <time name="dav">   31.76   31.84</time>
   <time name="total">   32.38   32.47</time>
   <energy>
    <i name="e_fr_energy">   -189.39525551 </i>
    <i name="e_wo_entrp">   -189.10549302 </i>
    <i name="e_0_energy">   -189.25037426 </i>
   </energy>
  </scstep>
  <scstep>
   <time name="dav">   31.35   31.42</time>
   <time name="total">   31.97   32.05</time>
   <energy>
    <i name="e_fr_energy">   -188.76363425 </i>
    <i name="e_wo_entrp">   -188.48068414 </i>
    <i name="e_0_energy">   -188.62215920 </i>
   </energy>
  </scstep>
  <scstep>
   <time name="dav">   27.03   27.10</time>
   <time name="total">   27.65   27.73</time>
   <energy>
    <i name="e_fr_energy">   -188.77306798 </i>
    <i name="e_wo_entrp">   -188.48376449 </i>
    <i name="e_0_energy">   -188.62841624 </i>
   </energy>
  </scstep>
  <scstep>
   <time name="dav">   31.39   31.47</time>
   <time name="total">   32.01   32.10</time>
   <energy>
    <i name="e_fr_energy">   -188.71587778 </i>
    <i name="e_wo_entrp">   -188.43004173 </i>
    <i name="e_0_energy">   -188.57295976 </i>
   </energy>
  </scstep>
  <scstep>
   <time name="dav">   31.58   31.66</time>
   <time name="total">   32.21   32.29</time>
   <energy>
    <i name="e_fr_energy">   -188.72211972 </i>
    <i name="e_wo_entrp">   -188.43673645 </i>
    <i name="e_0_energy">   -188.57942808 </i>
   </energy>
  </scstep>
  <scstep>
   <time name="dav">   32.86   32.94</time>
   <time name="total">   33.48   33.57</time>
   <energy>
    <i name="e_fr_energy">   -188.67779261 </i>
    <i name="e_wo_entrp">   -188.39343418 </i>
    <i name="e_0_energy">   -188.53561339 </i>
   </energy>
  </scstep>
  <scstep>
   <time name="dav">   27.92   27.98</time>
   <time name="total">   28.53   28.61</time>
   <energy>
    <i name="e_fr_energy">   -188.67577584 </i>
    <i name="e_wo_entrp">   -188.39136504 </i>
    <i name="e_0_energy">   -188.53357044 </i>
   </energy>
  </scstep>
  <scstep>
   <time name="dav">   34.50   34.58</time>
   <time name="total">   35.12   35.21</time>
   <energy>
    <i name="e_fr_energy">   -188.67714988 </i>
    <i name="e_wo_entrp">   -188.39293085 </i>
    <i name="e_0_energy">   -188.53504036 </i>
   </energy>
  </scstep>
  <scstep>
   <time name="dav">   32.49   32.57</time>
   <time name="total">   33.11   33.20</time>
   <energy>
    <i name="e_fr_energy">   -188.67531817 </i>
    <i name="e_wo_entrp">   -188.39135692 </i>
    <i name="e_0_energy">   -188.53333755 </i>
   </energy>
  </scstep>
  <scstep>
   <time name="dav">   30.08   30.15</time>
   <time name="total">   30.70   30.78</time>
   <energy>
    <i name="e_fr_energy">   -188.67543793 </i>
    <i name="e_wo_entrp">   -188.39175624 </i>
    <i name="e_0_energy">   -188.53359709 </i>
   </energy>
  </scstep>
  <scstep>
   <time name="dav">   22.65   22.70</time>
   <time name="total">   22.68   22.75</time>
   <energy>
    <i name="alphaZ">     78.91946773 </i>
    <i name="ewald">  39381.16915896 </i>
    <i name="hartreedc"> -45349.62436706 </i>
    <i name="XCdc">   -237.96475494 </i>
    <i name="pawpsdc">   3950.55819957 </i>
    <i name="pawaedc">  -3365.08451100 </i>
    <i name="eentropy">     -0.28391157 </i>
    <i name="bandstr">  -1407.80717622 </i>
    <i name="atom">   6761.44252427 </i>
    <i name="e_fr_energy">   -188.67537025 </i>
    <i name="e_wo_entrp">   -188.39145869 </i>
    <i name="e_0_energy">   -188.53341447 </i>
   </energy>
  </scstep>
  <structure>
   <crystal>
    <varray name="basis" >
     <v>       8.85578347       5.10562112       0.00000000 </v>
     <v>      -8.85554053       5.10520370       0.00000000 </v>
     <v>       0.00000000       0.00000000      30.00000000 </v>
    </varray>
    <i name="volume">   2712.70839883 </i>
    <varray name="rec_basis" >
     <v>       0.05645874       0.09793394       0.00000000 </v>
     <v>      -0.05646336       0.09793662       0.00000000 </v>
     <v>       0.00000000       0.00000000       0.03333333 </v>
    </varray>
   </crystal>
   <varray name="positions" >
    <v>       1.00008887       0.33097362      -0.00000317 </v>
    <v>       0.66668083       0.66788141       0.00000626 </v>
    <v>       0.33327917       0.00118573      -0.00000326 </v>
    <v>       0.66806508      -0.00008225      -0.00006529 </v>
    <v>       0.33194311       0.33194965       0.00006324 </v>
    <v>      -0.00007163       0.00139454       0.00000319 </v>
    <v>      -0.00007322       0.66819743       0.00000220 </v>
    <v>       0.33489836       0.66660004      -0.00004972 </v>
    <v>       0.66511037       0.33179535       0.00004637 </v>
    <v>       0.10857046       0.22460238       0.95193465 </v>
    <v>       0.22460050       0.10857652       0.04801300 </v>
    <v>       0.10913016       0.55158347       0.95195215 </v>
    <v>       0.21793781       0.44302959       0.04806966 </v>
    <v>       0.11518640       0.89007753       0.95192378 </v>
    <v>       0.22396439       0.78155765       0.04809781 </v>
    <v>       0.44302093       0.21796157       0.95188619 </v>
    <v>       0.55132374       0.10970836       0.04807579 </v>
    <v>       0.44850310       0.55819521       0.95190203 </v>
    <v>       0.55822413       0.44852959       0.04803801 </v>
    <v>       0.44137071       0.89029667       0.95204224 </v>
    <v>       0.55698482       0.77473236       0.04805579 </v>
    <v>       0.78188681       0.22489750       0.95192007 </v>
    <v>       0.89104542       0.11559786       0.04813348 </v>
    <v>       0.77563127       0.55755806       0.95197671 </v>
    <v>       0.89089983       0.44230050       0.04797703 </v>
    <v>       0.77540743       0.88422155       0.95192258 </v>
    <v>       0.88460560       0.77489257       0.04807912 </v>
   </varray>
  </structure>
  <varray name="forces" >
   <v>       0.39024080      -0.22567052      -0.00127117 </v>
   <v>      -0.19435773       0.11405959      -0.00769526 </v>
   <v>      -0.19876205       0.11264434       0.00901028 </v>
   <v>       0.21655554       0.12363278      -0.08213191 </v>
   <v>       0.00511337      -0.23735570       0.08025652 </v>
   <v>      -0.21554141       0.11761346       0.00202066 </v>
   <v>      -0.21464463       0.12988197       0.00243550 </v>
   <v>       0.22157290       0.12470061      -0.10181706 </v>
   <v>      -0.00682697      -0.26241777       0.09907507 </v>
   <v>      -0.05721030      -0.00293546      -0.18610074 </v>
   <v>       0.04459967      -0.00936757       0.10701094 </v>
   <v>      -0.05239844       0.05491644       0.22485360 </v>
   <v>      -0.09249897       0.05078426      -0.01481989 </v>
   <v>       0.07568210      -0.04877321       0.00838275 </v>
   <v>       0.04735443      -0.04362934      -0.13429208 </v>
   <v>       0.08433748       0.03688431      -0.07026969 </v>
   <v>      -0.07615212       0.04909748      -0.02144184 </v>
   <v>      -0.10151221       0.05320212       0.02334663 </v>
   <v>       0.11790983       0.05124503      -0.10681537 </v>
   <v>       0.03073084      -0.11448718       0.09086585 </v>
   <v>      -0.00395641      -0.10191348       0.08726479 </v>
   <v>      -0.11169065       0.06599582       0.02597160 </v>
   <v>      -0.02651072       0.07160864       0.16917880 </v>
   <v>       0.07106780      -0.00515102       0.11001240 </v>
   <v>      -0.08562633       0.00314377      -0.20696125 </v>
   <v>       0.03225824      -0.05494172      -0.09508185 </v>
   <v>       0.10026595      -0.05276766      -0.01098728 </v>
  </varray>
  <varray name="stress" >
   <v>     -19.82631709      -0.00201845       0.04354240 </v>
   <v>      -0.00201855     -19.42408431       0.02816679 </v>
   <v>       0.04354238       0.02816675      -1.69115513 </v>
  </varray>
  <energy>
   <i name="e_fr_energy">   -188.67537025 </i>
   <i name="e_wo_entrp">   -188.53341447 </i>
   <i name="e_0_energy">     -0.28391157 </i>
  </energy>
  <time name="totalsc">  440.89  442.05</time>
 </calculation>
 <calculation>
  <scstep>
   <time name="dav">   24.36   24.42</time>
   <time name="total">   24.97   25.03</time>
   <energy>
    <i name="alphaZ">     82.33271917 </i>
    <i name="ewald">  41297.71675605 </i>
    <i name="hartreedc"> -47296.54581333 </i>
    <i name="XCdc">   -233.85703795 </i>
    <i name="pawpsdc">   3949.76963855 </i>
    <i name="pawaedc">  -3364.28938303 </i>
    <i name="eentropy">     -0.23495000 </i>
    <i name="bandstr">  -1386.90828294 </i>
    <i name="atom">   6761.44252427 </i>
    <i name="e_fr_energy">   -190.57382920 </i>
    <i name="e_wo_entrp">   -190.33887920 </i>
    <i name="e_0_energy">   -190.45635420 </i>
   </energy>
  </scstep>
  <scstep>
   <time name="dav">   29.70   29.77</time>
   <time name="total">   30.30   30.38</time>
   <energy>
    <i name="e_fr_energy">   -190.67517143 </i>
    <i name="e_wo_entrp">   -190.42858520 </i>
    <i name="e_0_energy">   -190.55187832 </i>
   </energy>
  </scstep>
  <scstep>
   <time name="dav">   31.77   31.85</time>
   <time name="total">   32.38   32.46</time>
   <energy>
    <i name="e_fr_energy">   -190.02907256 </i>
    <i name="e_wo_entrp">   -189.78453055 </i>
    <i name="e_0_energy">   -189.90680156 </i>
   </energy>
  </scstep>
  <scstep>
   <time name="dav">   31.66   31.74</time>
   <time name="total">   32.27   32.36</time>
   <energy>
    <i name="e_fr_energy">   -189.84650462 </i>
    <i name="e_wo_entrp">   -189.60437023 </i>
    <i name="e_0_energy">   -189.72543742 </i>
   </energy>
  </scstep>
  <scstep>
   <time name="dav">   31.05   31.12</time>
   <time name="total">   31.66   31.74</time>
   <energy>
    <i name="e_fr_energy">   -189.76770698 </i>
    <i name="e_wo_entrp">   -189.52642375 </i>
    <i name="e_0_energy">   -189.64706536 </i>
   </energy>
  </scstep>
  <scstep>
   <time name="dav">   30.88   30.95</time>
   <time name="total">   31.48   31.57</time>
   <energy>
    <i name="e_fr_energy">   -189.74947118 </i>
    <i name="e_wo_entrp">   -189.50969178 </i>
    <i name="e_0_energy">   -189.62958148 </i>
   </energy>
  </scstep>
  <scstep>
   <time name="dav">   29.88   29.95</time>
   <time name="total">   30.49   30.57</time>
   <energy>
    <i name="e_fr_energy">   -189.74393989 </i>
    <i name="e_wo_entrp">   -189.50460216 </i>
    <i name="e_0_energy">   -189.62427103 </i>
   </energy>
  </scstep>
  <scstep>
   <time name="dav">   31.84   31.92</time>
   <time name="total">   32.45   32.53</time>
   <energy>
    <i name="e_fr_energy">   -189.74396701 </i>
    <i name="e_wo_entrp">   -189.50467415 </i>
    <i name="e_0_energy">   -189.62432058 </i>
   </energy>
  </scstep>
  <scstep>
   <time name="dav">   28.18   28.25</time>
   <time name="total">   28.79   28.87</time>
   <energy>
    <i name="e_fr_energy">   -189.74411204 </i>
    <i name="e_wo_entrp">   -189.50463867 </i>
    <i name="e_0_energy">   -189.62437535 </i>
   </energy>
  </scstep>
  <scstep>
   <time name="dav">   27.81   27.87</time>
   <time name="total">   28.42   28.49</time>
   <energy>
    <i name="e_fr_energy">   -189.74460515 </i>
    <i name="e_wo_entrp">   -189.50515300 </i>
    <i name="e_0_energy">   -189.62487907 </i>
   </energy>
  </scstep>
  <scstep>
   <time name="dav">   25.00   25.06</time>
   <time name="total">   25.61   25.68</time>
   <energy>
    <i name="e_fr_energy">   -189.74396932 </i>
    <i name="e_wo_entrp">   -189.50463825 </i>
    <i name="e_0_energy">   -189.62430379 </i>
   </energy>
  </scstep>
  <scstep>
   <time name="dav">   17.71   17.75</time>
   <time name="total">   17.75   17.80</time>
   <energy>
    <i name="alphaZ">     82.33271917 </i>
    <i name="ewald">  41297.71675605 </i>
    <i name="hartreedc"> -47270.28885859 </i>
    <i name="XCdc">   -235.24313360 </i>
    <i name="pawpsdc">   4038.74214026 </i>
    <i name="pawaedc">  -3454.45692810 </i>
    <i name="eentropy">     -0.23936661 </i>
    <i name="bandstr">  -1409.74984600 </i>
    <i name="atom">   6761.44252427 </i>
    <i name="e_fr_energy">   -189.74399314 </i>
    <i name="e_wo_entrp">   -189.50462653 </i>
    <i name="e_0_energy">   -189.62430984 </i>
   </energy>
  </scstep>
  <structure>
   <crystal>
    <varray name="basis" >
     <v>       8.66836237       4.99974661       0.00000000 </v>
     <v>      -8.66814657       4.99937600       0.00000000 </v>
     <v>       0.00000000       0.00000000      30.00000000 </v>
    </varray>
    <i name="volume">   2600.24817710 </i>
    <varray name="rec_basis" >
     <v>       0.05767960       0.10000753       0.00000000 </v>
     <v>      -0.05768388       0.10001002       0.00000000 </v>
     <v>       0.00000000       0.00000000       0.03333333 </v>
    </varray>
   </crystal>
   <varray name="positions" >
    <v>       1.00008771       0.33022237      -0.00000389 </v>
    <v>       0.66668418       0.66825834       0.00000189 </v>
    <v>       0.33327594       0.00156454       0.00000185 </v>
    <v>       0.66847929      -0.00008428      -0.00011189 </v>
    <v>       0.33155236       0.33154905       0.00010878 </v>
    <v>      -0.00008271       0.00179776       0.00000434 </v>
    <v>      -0.00006299       0.66862024       0.00000358 </v>
    <v>       0.33531916       0.66659497      -0.00010749 </v>
    <v>       0.66466637       0.33136446       0.00010258 </v>
    <v>       0.10851059       0.22465247       0.95182906 </v>
    <v>       0.22462775       0.10851804       0.04807372 </v>
    <v>       0.10917135       0.55172537       0.95207973 </v>
    <v>       0.21793357       0.44320315       0.04806125 </v>
    <v>       0.11517783       0.88992349       0.95192854 </v>
    <v>       0.22393717       0.78143941       0.04802161 </v>
    <v>       0.44316346       0.21794201       0.95184632 </v>
    <v>       0.55133240       0.10986340       0.04806362 </v>
    <v>       0.44849423       0.55838146       0.95191528 </v>
    <v>       0.55842287       0.44850170       0.04797741 </v>
    <v>       0.44120939       0.89007628       0.95209380 </v>
    <v>       0.55681113       0.77456627       0.04810531 </v>
    <v>       0.78188949       0.22511486       0.95193480 </v>
    <v>       0.89113931       0.11574271       0.04822947 </v>
    <v>       0.77569098       0.55748118       0.95203913 </v>
    <v>       0.89082278       0.44238804       0.04785960 </v>
    <v>       0.77534684       0.88409896       0.95186863 </v>
    <v>       0.88461399       0.77470824       0.04807289 </v>
   </varray>
  </structure>
  <varray name="forces" >
   <v>       0.37979318      -0.22204338       0.00048427 </v>
   <v>      -0.19159441       0.11203860      -0.00682426 </v>
   <v>      -0.19555399       0.10952937       0.00629513 </v>
   <v>       0.20363021       0.10851841      -0.06475221 </v>
   <v>       0.01075413      -0.22357631       0.06408192 </v>
   <v>      -0.19629005       0.10663632       0.00056619 </v>
   <v>      -0.19491252       0.11832443       0.00125480 </v>
   <v>       0.19633702       0.11633642      -0.08677334 </v>
   <v>      -0.01140941      -0.23943615       0.08554893 </v>
   <v>      -0.12312703      -0.00158337      -0.68697490 </v>
   <v>       0.11459806      -0.02184296       0.60165942 </v>
   <v>       0.01977885      -0.07185608      -0.26161035 </v>
   <v>      -0.09402861      -0.07318735       0.48054611 </v>
   <v>       0.05388653       0.09179436      -0.49328081 </v>
   <v>      -0.01352410       0.08649636       0.36394873 </v>
   <v>       0.07114796      -0.09415521      -0.57632970 </v>
   <v>      -0.05107014      -0.09355241       0.47653663 </v>
   <v>       0.03768924       0.10123892      -0.47652200 </v>
   <v>      -0.00762742       0.10976407       0.38230097 </v>
   <v>      -0.08388286      -0.03588563      -0.39609746 </v>
   <v>       0.10192113      -0.02237211       0.59293242 </v>
   <v>      -0.00099900       0.12842112      -0.47078695 </v>
   <v>      -0.06241986       0.12909140       0.67091355 </v>
   <v>      -0.07035687      -0.01798066      -0.38705830 </v>
   <v>       0.06143132       0.00669335       0.27823113 </v>
   <v>       0.07995261      -0.10670489      -0.59143124 </v>
   <v>      -0.03412396      -0.10070661       0.49314133 </v>
  </varray>
  <varray name="stress" >
   <v>     -10.11874379      -0.00538646       0.02599186 </v>
   <v>      -0.00538643      -9.81050236       0.02295888 </v>
   <v>       0.02599196       0.02295905       6.48263974 </v>
  </varray>
  <energy>
   <i name="e_fr_energy">   -189.74399314 </i>
   <i name="e_wo_entrp">   -189.62430984 </i>
   <i name="e_0_energy">     -0.23936661 </i>
  </energy>
  <time name="totalsc">  390.08  391.12</time>
 </calculation>
 <calculation>
  <scstep>
   <time name="dav">   22.81   22.87</time>
   <time name="total">   23.42   23.48</time>
   <energy>
    <i name="alphaZ">     85.80113564 </i>
    <i name="ewald">  42823.87431718 </i>
    <i name="hartreedc"> -48840.86792861 </i>
    <i name="XCdc">   -232.95965594 </i>
    <i name="pawpsdc">   4038.71473203 </i>
    <i name="pawaedc">  -3454.42661894 </i>
    <i name="eentropy">     -0.19349502 </i>
    <i name="bandstr">  -1372.62148766 </i>
    <i name="atom">   6761.44252427 </i>
    <i name="e_fr_energy">   -191.23647705 </i>
    <i name="e_wo_entrp">   -191.04298203 </i>
    <i name="e_0_energy">   -191.13972954 </i>
   </energy>
  </scstep>
  <scstep>
   <time name="dav">   34.60   34.68</time>
   <time name="total">   35.19   35.29</time>
   <energy>
    <i name="e_fr_energy">   -191.35114319 </i>
    <i name="e_wo_entrp">   -191.13867449 </i>
    <i name="e_0_energy">   -191.24490884 </i>
   </energy>
  </scstep>
  <scstep>
   <time name="dav">   31.20   31.27</time>
   <time name="total">   31.80   31.88</time>
   <energy>
    <i name="e_fr_energy">   -191.00124661 </i>
    <i name="e_wo_entrp">   -190.79398235 </i>
    <i name="e_0_energy">   -190.89761448 </i>
   </energy>
  </scstep>
  <scstep>
   <time name="dav">   31.65   31.73</time>
   <time name="total">   32.26   32.34</time>
   <energy>
    <i name="e_fr_energy">   -190.75939468 </i>
    <i name="e_wo_entrp">   -190.55775086 </i>
    <i name="e_0_energy">   -190.65857277 </i>
   </energy>
  </scstep>
  <scstep>
   <time name="dav">   31.50   31.58</time>
   <time name="total">   32.10   32.19</time>
   <energy>
    <i name="e_fr_energy">   -190.66671198 </i>
    <i name="e_wo_entrp">   -190.46474767 </i>
    <i name="e_0_energy">   -190.56572982 </i>
   </energy>
  </scstep>
  <scstep>
   <time name="dav">   30.50   30.57</time>
   <time name="total">   31.10   31.18</time>
   <energy>
    <i name="e_fr_energy">   -190.65699941 </i>
    <i name="e_wo_entrp">   -190.45557651 </i>
    <i name="e_0_energy">   -190.55628796 </i>
   </energy>
  </scstep>
  <scstep>
   <time name="dav">   29.80   29.88</time>
   <time name="total">   30.41   30.49</time>
   <energy>
    <i name="e_fr_energy">   -190.64367338 </i>
    <i name="e_wo_entrp">   -190.44342908 </i>
    <i name="e_0_energy">   -190.54355123 </i>
   </energy>
  </scstep>
  <scstep>
   <time name="dav">   31.48   31.56</time>
   <time name="total">   32.08   32.17</time>
   <energy>
    <i name="e_fr_energy">   -190.63876837 </i>
    <i name="e_wo_entrp">   -190.43812074 </i>
    <i name="e_0_energy">   -190.53844455 </i>
   </energy>
  </scstep>
  <scstep>
   <time name="dav">   28.60   28.66</time>
   <time name="total">   29.20   29.27</time>
   <energy>
    <i name="e_fr_energy">   -190.63932851 </i>
    <i name="e_wo_entrp">   -190.43884875 </i>
    <i name="e_0_energy">   -190.53908863 </i>
   </energy>
  </scstep>
  <scstep>
   <time name="dav">   28.25   28.32</time>
   <time name="total">   28.85   28.92</time>
   <energy>
    <i name="e_fr_energy">   -190.63915958 </i>
    <i name="e_wo_entrp">   -190.43873078 </i>
    <i name="e_0_energy">   -190.53894518 </i>
   </energy>
  </scstep>
  <scstep>
   <time name="dav">   22.47   22.52</time>
   <time name="total">   22.51   22.57</time>
   <energy>
    <i name="alphaZ">     85.80113564 </i>
    <i name="ewald">  42823.87431718 </i>
    <i name="hartreedc"> -48812.46923077 </i>
    <i name="XCdc">   -234.28595016 </i>
    <i name="pawpsdc">   4062.44946412 </i>
    <i name="pawaedc">  -3478.32640203 </i>
    <i name="eentropy">     -0.20042730 </i>
    <i name="bandstr">  -1398.92451167 </i>
    <i name="atom">   6761.44252427 </i>
    <i name="e_fr_energy">   -190.63908073 </i>
    <i name="e_wo_entrp">   -190.43865343 </i>
    <i name="e_0_energy">   -190.53886708 </i>
   </energy>
  </scstep>
  <structure>
   <crystal>
    <varray name="basis" >
     <v>       8.48709575       4.89981559       0.00000000 </v>
     <v>      -8.48713478       4.89988638       0.00000000 </v>
     <v>       0.00000000       0.00000000      30.00000000 </v>
    </varray>
    <i name="volume">   2495.13600650 </i>
    <varray name="rec_basis" >
     <v>       0.05891326       0.10204415       0.00000000 </v>
     <v>      -0.05891241       0.10204368       0.00000000 </v>
     <v>       0.00000000       0.00000000       0.03333333 </v>
    </varray>
   </crystal>
   <varray name="positions" >
    <v>       1.00006316       0.32747981      -0.00000139 </v>
    <v>       0.66669262       0.66964518      -0.00001151 </v>
    <v>       0.33325222       0.00294658       0.00001258 </v>
    <v>       0.66984007      -0.00015962      -0.00023129 </v>
    <v>       0.33023172       0.33013429       0.00022782 </v>
    <v>      -0.00012376       0.00312147       0.00000427 </v>
    <v>      -0.00002651       0.67001013       0.00000517 </v>
    <v>       0.33670172       0.66662973      -0.00027453 </v>
    <v>       0.66317436       0.32996821       0.00026838 </v>
    <v>       0.10796345       0.22518656       0.94997830 </v>
    <v>       0.22497515       0.10783413       0.04974234 </v>
    <v>       0.10857901       0.55078152       0.95112291 </v>
    <v>       0.21682178       0.44277613       0.04947945 </v>
    <v>       0.11626898       0.89068768       0.95047858 </v>
    <v>       0.22466865       0.78244453       0.04920059 </v>
    <v>       0.44248321       0.21678499       0.95022047 </v>
    <v>       0.55023994       0.10906804       0.04947574 </v>
    <v>       0.44958672       0.55879937       0.95050158 </v>
    <v>       0.55904899       0.44954546       0.04918665 </v>
    <v>       0.44071223       0.89051698       0.95085780 </v>
    <v>       0.55739155       0.77410352       0.04976523 </v>
    <v>       0.78300737       0.22592041       0.95053565 </v>
    <v>       0.89181520       0.11697395       0.05004767 </v>
    <v>       0.77508741       0.55779500       0.95081325 </v>
    <v>       0.89130817       0.44200435       0.04884979 </v>
    <v>       0.77490612       0.88294199       0.95021976 </v>
    <v>       0.88354492       0.77427406       0.04952466 </v>
   </varray>
  </structure>
  <varray name="forces" >
   <v>       0.35986176      -0.20907843       0.00210110 </v>
   <v>      -0.18307822       0.12562715      -0.00359106 </v>
   <v>      -0.20471973       0.09548905       0.00141209 </v>
   <v>       0.20223052       0.08913978      -0.01156945 </v>
   <v>       0.02891431      -0.22227735       0.01326280 </v>
   <v>      -0.16018129       0.09051676      -0.00243091 </v>
   <v>      -0.22362031       0.13412825      -0.00160811 </v>
   <v>       0.19229240       0.12801583      -0.03322419 </v>
   <v>      -0.02132128      -0.24465688       0.03555662 </v>
   <v>      -0.01466744      -0.01037821      -0.50735822 </v>
   <v>       0.00207363      -0.03187105       0.45299040 </v>
   <v>       0.02796209      -0.04155985      -0.12928489 </v>
   <v>      -0.01718972      -0.03095884       0.32103303 </v>
   <v>      -0.04029881       0.06317981      -0.34775832 </v>
   <v>      -0.00129541       0.06511529       0.21760497 </v>
   <v>      -0.00080124      -0.05331907      -0.39862639 </v>
   <v>       0.03060304      -0.06364804       0.32135443 </v>
   <v>       0.07151562       0.00625843      -0.32206285 </v>
   <v>      -0.04040800       0.00786426       0.25153151 </v>
   <v>      -0.01344583       0.03185594      -0.25411696 </v>
   <v>       0.03346936       0.02805639       0.40132220 </v>
   <v>       0.02047209       0.03323943      -0.31950757 </v>
   <v>      -0.00559920       0.03074621       0.50179929 </v>
   <v>      -0.04338822      -0.02910977      -0.22199584 </v>
   <v>       0.03854217      -0.00278016       0.13143907 </v>
   <v>       0.03697483       0.00525906      -0.44906662 </v>
   <v>      -0.07489712       0.00514601       0.35079386 </v>
  </varray>
  <varray name="stress" >
   <v>      -5.74223528      -0.00696324      -0.07565170 </v>
   <v>      -0.00696311      -5.77450210      -0.00062269 </v>
   <v>      -0.07565174      -0.00062279       4.40812017 </v>
  </varray>
  <energy>
   <i name="e_fr_energy">   -190.63908073 </i>
   <i name="e_wo_entrp">   -190.53886708 </i>
   <i name="e_0_energy">     -0.20042730 </i>
  </energy>
  <time name="totalsc">  372.52  373.50</time>
 </calculation>
 <calculation>
  <scstep>
   <time name="dav">   22.83   22.89</time>
   <time name="total">   23.43   23.48</time>
   <energy>
    <i name="alphaZ">     90.20422450 </i>
    <i name="ewald">  44678.97080839 </i>
    <i name="hartreedc"> -50723.74181763 </i>
    <i name="XCdc">   -231.77992037 </i>
    <i name="pawpsdc">   4062.64844701 </i>
    <i name="pawaedc">  -3478.52208078 </i>
    <i name="eentropy">     -0.17395937 </i>
    <i name="bandstr">  -1350.98739040 </i>
    <i name="atom">   6761.44252427 </i>
    <i name="e_fr_energy">   -191.93916438 </i>
    <i name="e_wo_entrp">   -191.76520502 </i>
    <i name="e_0_energy">   -191.85218470 </i>
   </energy>
  </scstep>
  <scstep>
   <time name="dav">   34.59   34.67</time>
   <time name="total">   35.18   35.27</time>
   <energy>
    <i name="e_fr_energy">   -192.05412859 </i>
    <i name="e_wo_entrp">   -191.86347752 </i>
    <i name="e_0_energy">   -191.95880305 </i>
   </energy>
  </scstep>
  <scstep>
   <time name="dav">   30.56   30.63</time>
   <time name="total">   31.15   31.23</time>
   <energy>
    <i name="e_fr_energy">   -191.73280683 </i>
    <i name="e_wo_entrp">   -191.54119885 </i>
    <i name="e_0_energy">   -191.63700284 </i>
   </energy>
  </scstep>
  <scstep>
   <time name="dav">   31.61   31.69</time>
   <time name="total">   32.20   32.29</time>
   <energy>
    <i name="e_fr_energy">   -191.36305244 </i>
    <i name="e_wo_entrp">   -191.17994581 </i>
    <i name="e_0_energy">   -191.27149912 </i>
   </energy>
  </scstep>
  <scstep>
   <time name="dav">   32.43   32.51</time>
   <time name="total">   33.02   33.11</time>
   <energy>
    <i name="e_fr_energy">   -191.20543777 </i>
    <i name="e_wo_entrp">   -191.02528566 </i>
    <i name="e_0_energy">   -191.11536172 </i>
   </energy>
  </scstep>
  <scstep>
   <time name="dav">   32.34   32.42</time>
   <time name="total">   32.93   33.02</time>
   <energy>
    <i name="e_fr_energy">   -191.20271410 </i>
    <i name="e_wo_entrp">   -191.01846428 </i>
    <i name="e_0_energy">   -191.11058919 </i>
   </energy>
  </scstep>
  <scstep>
   <time name="dav">   31.95   32.02</time>
   <time name="total">   32.53   32.62</time>
   <energy>
    <i name="e_fr_energy">   -191.16948591 </i>
    <i name="e_wo_entrp">   -190.98725149 </i>
    <i name="e_0_energy">   -191.07836870 </i>
   </energy>
  </scstep>
  <scstep>
   <time name="dav">   29.26   29.33</time>
   <time name="total">   29.85   29.93</time>
   <energy>
    <i name="e_fr_energy">   -191.16424744 </i>
    <i name="e_wo_entrp">   -190.98227715 </i>
    <i name="e_0_energy">   -191.07326230 </i>
   </energy>
  </scstep>
  <scstep>
   <time name="dav">   29.68   29.75</time>
   <time name="total">   30.27   30.35</time>
   <energy>
    <i name="e_fr_energy">   -191.16500531 </i>
    <i name="e_wo_entrp">   -190.98323726 </i>
    <i name="e_0_energy">   -191.07412128 </i>
   </energy>
  </scstep>
  <scstep>
   <time name="dav">   27.74   27.80</time>
   <time name="total">   28.33   28.40</time>
   <energy>
    <i name="e_fr_energy">   -191.16474172 </i>
    <i name="e_wo_entrp">   -190.98299122 </i>
    <i name="e_0_energy">   -191.07386647 </i>
   </energy>
  </scstep>
  <scstep>
   <time name="dav">   21.91   21.97</time>
   <time name="total">   21.95   22.01</time>
   <energy>
    <i name="alphaZ">     90.20422450 </i>
    <i name="ewald">  44678.97080839 </i>
    <i name="hartreedc"> -50689.21114987 </i>
    <i name="XCdc">   -233.35865623 </i>
    <i name="pawpsdc">   4080.73252660 </i>
    <i name="pawaedc">  -3496.63349281 </i>
    <i name="eentropy">     -0.18176047 </i>
    <i name="bandstr">  -1383.12968134 </i>
    <i name="atom">   6761.44252427 </i>
    <i name="e_fr_energy">   -191.16465696 </i>
    <i name="e_wo_entrp">   -190.98289649 </i>
    <i name="e_0_energy">   -191.07377672 </i>
   </energy>
  </scstep>
  <structure>
   <crystal>
    <varray name="basis" >
     <v>       8.27767540       4.77795224       0.00000000 </v>
     <v>      -8.27823556       4.77892578       0.00000000 </v>
     <v>       0.00000000       0.00000000      30.00000000 </v>
    </varray>
    <i name="volume">   2373.34231427 </i>
    <varray name="rec_basis" >
     <v>       0.06040754       0.10464022       0.00000000 </v>
     <v>      -0.06039524       0.10463314       0.00000000 </v>
     <v>       0.00000000       0.00000000       0.03333333 </v>
    </varray>
   </crystal>
   <varray name="positions" >
    <v>       1.00003712       0.32228499       0.00000800 </v>
    <v>       0.66690760       0.67249523      -0.00002695 </v>
    <v>       0.33299929       0.00560303       0.00001825 </v>
    <v>       0.67236729      -0.00049377      -0.00028983 </v>
    <v>       0.32770630       0.32721042       0.00029313 </v>
    <v>      -0.00015580       0.00539410      -0.00000540 </v>
    <v>       0.00003678       0.67315936      -0.00000096 </v>
    <v>       0.33958950       0.66683545      -0.00042334 </v>
    <v>       0.66005874       0.32715469       0.00042621 </v>
    <v>       0.10752925       0.22540074       0.94732142 </v>
    <v>       0.22480400       0.10717347       0.05215576 </v>
    <v>       0.10795200       0.54952365       0.95003804 </v>
    <v>       0.21579743       0.44215499       0.05136495 </v>
    <v>       0.11728445       0.89217028       0.94848615 </v>
    <v>       0.22577368       0.78379940       0.05066276 </v>
    <v>       0.44140667       0.21562316       0.94799993 </v>
    <v>       0.54915864       0.10762293       0.05136279 </v>
    <v>       0.45068505       0.55846416       0.94861015 </v>
    <v>       0.55902194       0.45046104       0.05076857 </v>
    <v>       0.44086383       0.89139027       0.94926142 </v>
    <v>       0.55837677       0.77411330       0.05200392 </v>
    <v>       0.78408124       0.22636606       0.94865944 </v>
    <v>       0.89237756       0.11785076       0.05267714 </v>
    <v>       0.77412813       0.55799282       0.94932421 </v>
    <v>       0.89184957       0.44144707       0.04995003 </v>
    <v>       0.77501658       0.88227482       0.94782398 </v>
    <v>       0.88256087       0.77474203       0.05153013 </v>
   </varray>
  </structure>
  <varray name="forces" >
   <v>       0.28156486      -0.16201372      -0.00473288 </v>
   <v>      -0.13381954       0.17807046      -0.02481284 </v>
   <v>      -0.22086987       0.02442175       0.02972904 </v>
   <v>       0.15781085       0.04956926       0.00360174 </v>
   <v>       0.03423305      -0.15276843      -0.00742038 </v>
   <v>      -0.00460084      -0.00541161       0.00275365 </v>
   <v>      -0.28381856       0.16080653       0.00376254 </v>
   <v>       0.16807257       0.10560455      -0.02849020 </v>
   <v>      -0.01668323      -0.19751109       0.02604340 </v>
   <v>       0.06351192      -0.02652568      -0.15656432 </v>
   <v>      -0.09178200      -0.03699992       0.12753477 </v>
   <v>       0.01246196       0.00412268       0.17422284 </v>
   <v>       0.05114972       0.01224634       0.02084039 </v>
   <v>      -0.11186137       0.03129221      -0.09953713 </v>
   <v>       0.01953663       0.03752625      -0.05078261 </v>
   <v>      -0.04978744      -0.01249738      -0.12275038 </v>
   <v>       0.08434520      -0.03308551       0.02015172 </v>
   <v>       0.07399300      -0.05719852      -0.01328987 </v>
   <v>      -0.04142817      -0.09248293      -0.05073178 </v>
   <v>       0.06203731       0.08112933       0.05270204 </v>
   <v>      -0.00914818       0.05172833       0.10864593 </v>
   <v>       0.01724803      -0.04987947      -0.01603259 </v>
   <v>       0.05720759      -0.04384577       0.16298920 </v>
   <v>      -0.02157380      -0.03761926       0.05987775 </v>
   <v>       0.00060629      -0.01002107      -0.18006718 </v>
   <v>      -0.01373249       0.09820660      -0.12650224 </v>
   <v>      -0.08467348       0.08313608       0.08885944 </v>
  </varray>
  <varray name="stress" >
   <v>      -0.35822633       0.00675059      -0.04913196 </v>
   <v>       0.00675089      -0.28878827      -0.06818285 </v>
   <v>      -0.04913201      -0.06818273      -0.66579566 </v>
  </varray>
  <energy>
   <i name="e_fr_energy">   -191.16465696 </i>
   <i name="e_wo_entrp">   -191.07377672 </i>
   <i name="e_0_energy">     -0.18176047 </i>
  </energy>
  <time name="totalsc">  374.24  375.22</time>
 </calculation>
 <calculation>
  <scstep>
   <time name="dav">   22.79   22.84</time>
   <time name="total">   23.31   23.36</time>
   <energy>
    <i name="alphaZ">     90.46074522 </i>
    <i name="ewald">  44780.36906269 </i>
    <i name="hartreedc"> -50794.05148537 </i>
    <i name="XCdc">   -233.24372907 </i>
    <i name="pawpsdc">   4080.80232108 </i>
    <i name="pawaedc">  -3496.69953234 </i>
    <i name="eentropy">     -0.18674835 </i>
    <i name="bandstr">  -1380.09803080 </i>
    <i name="atom">   6761.44252427 </i>
    <i name="e_fr_energy">   -191.20487267 </i>
    <i name="e_wo_entrp">   -191.01812432 </i>
    <i name="e_0_energy">   -191.11149849 </i>
   </energy>
  </scstep>
  <scstep>
   <time name="dav">   33.72   33.80</time>
   <time name="total">   34.22   34.31</time>
   <energy>
    <i name="e_fr_energy">   -191.21692111 </i>
    <i name="e_wo_entrp">   -191.02955365 </i>
    <i name="e_0_energy">   -191.12323738 </i>
   </energy>
  </scstep>
  <scstep>
   <time name="dav">   31.98   32.06</time>
   <time name="total">   32.50   32.58</time>
   <energy>
    <i name="e_fr_energy">   -191.21344987 </i>
    <i name="e_wo_entrp">   -191.02713858 </i>
    <i name="e_0_energy">   -191.12029422 </i>
   </energy>
  </scstep>
  <scstep>
   <time name="dav">   29.45   29.52</time>
   <time name="total">   29.96   30.04</time>
   <energy>
    <i name="e_fr_energy">   -191.20944765 </i>
    <i name="e_wo_entrp">   -191.02234205 </i>
    <i name="e_0_energy">   -191.11589485 </i>
   </energy>
  </scstep>
  <scstep>
   <time name="dav">   27.00   27.06</time>
   <time name="total">   27.51   27.58</time>
   <energy>
    <i name="e_fr_energy">   -191.20802145 </i>
    <i name="e_wo_entrp">   -191.02119934 </i>
    <i name="e_0_energy">   -191.11461039 </i>
   </energy>
  </scstep>
  <scstep>
   <time name="dav">   31.33   31.41</time>
   <time name="total">   31.84   31.93</time>
   <energy>
    <i name="e_fr_energy">   -191.20825797 </i>
    <i name="e_wo_entrp">   -191.02115684 </i>
    <i name="e_0_energy">   -191.11470741 </i>
   </energy>
  </scstep>
  <scstep>
   <time name="dav">   27.52   27.58</time>
   <time name="total">   28.03   28.11</time>
   <energy>
    <i name="e_fr_energy">   -191.20762950 </i>
    <i name="e_wo_entrp">   -191.02062902 </i>
    <i name="e_0_energy">   -191.11412926 </i>
   </energy>
  </scstep>
  <scstep>
   <time name="dav">   18.32   18.37</time>
   <time name="total">   18.36   18.41</time>
   <energy>
    <i name="alphaZ">     90.46074522 </i>
    <i name="ewald">  44780.36906269 </i>
    <i name="hartreedc"> -50792.91433641 </i>
    <i name="XCdc">   -233.31557532 </i>
    <i name="pawpsdc">   4080.33779738 </i>
    <i name="pawaedc">  -3496.21935848 </i>
    <i name="eentropy">     -0.18698883 </i>
    <i name="bandstr">  -1381.18153483 </i>
    <i name="atom">   6761.44252427 </i>
    <i name="e_fr_energy">   -191.20766433 </i>
    <i name="e_wo_entrp">   -191.02067550 </i>
    <i name="e_0_energy">   -191.11416991 </i>
   </energy>
  </scstep>
  <structure>
   <crystal>
    <varray name="basis" >
     <v>       8.26521783       4.77177052       0.00000000 </v>
     <v>      -8.26561594       4.77246354       0.00000000 </v>
     <v>       0.00000000       0.00000000      30.00000000 </v>
    </varray>
    <i name="volume">   2366.61219652 </i>
    <varray name="rec_basis" >
     <v>       0.06049741       0.10477782       0.00000000 </v>
     <v>      -0.06048862       0.10477278       0.00000000 </v>
     <v>       0.00000000       0.00000000       0.03333333 </v>
    </varray>
   </crystal>
   <varray name="positions" >
    <v>       1.00003882       0.32037135       0.00000030 </v>
    <v>       0.66745259       0.67395684      -0.00006971 </v>
    <v>       0.33244080       0.00650646       0.00006901 </v>
    <v>       0.67320554      -0.00072686      -0.00028601 </v>
    <v>       0.32690898       0.32618867       0.00028305 </v>
    <v>      -0.00020016       0.00545842      -0.00000104 </v>
    <v>       0.00002278       0.67499921       0.00000524 </v>
    <v>       0.34076992       0.66688835      -0.00047729 </v>
    <v>       0.65884619       0.32605546       0.00047630 </v>
    <v>       0.10756371       0.22507630       0.94694908 </v>
    <v>       0.22432241       0.10723008       0.05246974 </v>
    <v>       0.10798350       0.54945115       0.95028382 </v>
    <v>       0.21597304       0.44203293       0.05147928 </v>
    <v>       0.11715393       0.89274295       0.94823428 </v>
    <v>       0.22607966       0.78399892       0.05064048 </v>
    <v>       0.44113972       0.21565792       0.94770016 </v>
    <v>       0.54919270       0.10712620       0.05147602 </v>
    <v>       0.45065752       0.55792141       0.94850841 </v>
    <v>       0.55840332       0.45013888       0.05075013 </v>
    <v>       0.44149008       0.89167130       0.94928262 </v>
    <v>       0.55866808       0.77441573       0.05228050 </v>
    <v>       0.78391719       0.22606622       0.94855367 </v>
    <v>       0.89234439       0.11748128       0.05305935 </v>
    <v>       0.77382088       0.55787101       0.94936082 </v>
    <v>       0.89182361       0.44136670       0.04969500 </v>
    <v>       0.77549739       0.88280755       0.94751240 </v>
    <v>       0.88269786       0.77546002       0.05176430 </v>
   </varray>
  </structure>
  <varray name="forces" >
   <v>       0.30279526      -0.17272252       0.00132535 </v>
   <v>      -0.14094534       0.20475480      -0.02170847 </v>
   <v>      -0.25492889       0.02155182       0.01949828 </v>
   <v>       0.15206910       0.05626148       0.01414821 </v>
   <v>       0.03891451      -0.16355200      -0.01222773 </v>
   <v>       0.02521148      -0.00970663      -0.00123921 </v>
   <v>      -0.33577209       0.20564101      -0.00099822 </v>
   <v>       0.20489018       0.11806996      -0.03846538 </v>
   <v>      -0.00752255      -0.25546076       0.03889734 </v>
   <v>       0.04184763      -0.02641969      -0.11381928 </v>
   <v>      -0.05449490      -0.02775481       0.09872826 </v>
   <v>      -0.00358233      -0.00346782       0.21744677 </v>
   <v>       0.02548516       0.00073123      -0.00905849 </v>
   <v>      -0.06714399       0.03915697      -0.10112190 </v>
   <v>       0.00552590       0.03160568      -0.07614435 </v>
   <v>      -0.02366087      -0.02550988      -0.08430610 </v>
   <v>       0.05557735      -0.05009372      -0.01380260 </v>
   <v>       0.07362687      -0.02574071       0.01199946 </v>
   <v>      -0.03754452      -0.05569983      -0.09003100 </v>
   <v>       0.02879806       0.05810024       0.09751520 </v>
   <v>       0.00780361       0.03537911       0.08165260 </v>
   <v>       0.01440710      -0.02290974       0.00953966 </v>
   <v>       0.04225537      -0.02334172       0.11564473 </v>
   <v>      -0.02051421      -0.02116261       0.07931121 </v>
   <v>      -0.00041425       0.00651142      -0.22379285 </v>
   <v>      -0.00277539       0.06350077      -0.10324199 </v>
   <v>      -0.06990826       0.04227796       0.10425050 </v>
  </varray>
  <varray name="stress" >
   <v>       0.19055511      -0.00305636      -0.06949448 </v>
   <v>      -0.00305614       0.16925110      -0.08243632 </v>
   <v>      -0.06949432      -0.08243615      -1.18262932 </v>
  </varray>
  <energy>
   <i name="e_fr_energy">   -191.20766433 </i>
   <i name="e_wo_entrp">   -191.11416991 </i>
   <i name="e_0_energy">     -0.18698883 </i>
  </energy>
  <time name="totalsc">  269.58  270.29</time>
 </calculation>
 <calculation>
  <scstep>
   <time name="dav">   22.80   22.85</time>
   <time name="total">   23.31   23.37</time>
   <energy>
    <i name="alphaZ">     90.36488258 </i>
    <i name="ewald">  44744.05770907 </i>
    <i name="hartreedc"> -50755.32466296 </i>
    <i name="XCdc">   -233.35420424 </i>
    <i name="pawpsdc">   4080.42118869 </i>
    <i name="pawaedc">  -3496.30323685 </i>
    <i name="eentropy">     -0.18921178 </i>
    <i name="bandstr">  -1382.33490748 </i>
    <i name="atom">   6761.44252427 </i>
    <i name="e_fr_energy">   -191.21991870 </i>
    <i name="e_wo_entrp">   -191.03070693 </i>
    <i name="e_0_energy">   -191.12531282 </i>
   </energy>
  </scstep>
  <scstep>
   <time name="dav">   30.39   30.46</time>
   <time name="total">   30.90   30.98</time>
   <energy>
    <i name="e_fr_energy">   -191.22072047 </i>
    <i name="e_wo_entrp">   -191.03146445 </i>
    <i name="e_0_energy">   -191.12609246 </i>
   </energy>
  </scstep>
  <scstep>
   <time name="dav">   32.09   32.17</time>
   <time name="total">   32.60   32.69</time>
   <energy>
    <i name="e_fr_energy">   -191.22066561 </i>
    <i name="e_wo_entrp">   -191.03180656 </i>
    <i name="e_0_energy">   -191.12623609 </i>
   </energy>
  </scstep>
  <scstep>
   <time name="dav">   26.14   26.21</time>
   <time name="total">   26.65   26.73</time>
   <energy>
    <i name="e_fr_energy">   -191.22008848 </i>
    <i name="e_wo_entrp">   -191.03090032 </i>
    <i name="e_0_energy">   -191.12549440 </i>
   </energy>
  </scstep>
  <scstep>
   <time name="dav">   24.37   24.44</time>
   <time name="total">   24.41   24.48</time>
   <energy>
    <i name="alphaZ">     90.36488258 </i>
    <i name="ewald">  44744.05770907 </i>
    <i name="hartreedc"> -50756.54319935 </i>
    <i name="XCdc">   -233.31829703 </i>
    <i name="pawpsdc">   4081.69901106 </i>
    <i name="pawaedc">  -3497.59430760 </i>
    <i name="eentropy">     -0.18914258 </i>
    <i name="bandstr">  -1381.13919456 </i>
    <i name="atom">   6761.44252427 </i>
    <i name="e_fr_energy">   -191.22001414 </i>
    <i name="e_wo_entrp">   -191.03087156 </i>
    <i name="e_0_energy">   -191.12544285 </i>
   </energy>
  </scstep>
  <structure>
   <crystal>
    <varray name="basis" >
     <v>       8.26969688       4.77421898       0.00000000 </v>
     <v>      -8.27011806       4.77495194       0.00000000 </v>
     <v>       0.00000000       0.00000000      30.00000000 </v>
    </varray>
    <i name="volume">   2369.12279234 </i>
    <varray name="rec_basis" >
     <v>       0.06046481       0.10472380       0.00000000 </v>
     <v>      -0.06045553       0.10471847       0.00000000 </v>
     <v>       0.00000000       0.00000000       0.03333333 </v>
    </varray>
   </crystal>
   <varray name="positions" >
    <v>       1.00004341       0.31988696       0.00000115 </v>
    <v>       0.66766321       0.67438940      -0.00008098 </v>
    <v>       0.33222719       0.00673983       0.00007888 </v>
    <v>       0.67339762      -0.00077174      -0.00027627 </v>
    <v>       0.32672113       0.32593155       0.00027454 </v>
    <v>      -0.00018872       0.00536358      -0.00000174 </v>
    <v>       0.00004419       0.67562829       0.00000455 </v>
[...]
      <set comment="kpoint 31">
       <r>  -17.4892    1.0000 </r>
       <r>  -17.2876    1.0000 </r>
       <r>  -16.9353    1.0000 </r>
       <r>  -16.6201    1.0000 </r>
       <r>  -16.4997    1.0000 </r>
       <r>  -16.4328    1.0000 </r>
       <r>  -16.2668    1.0000 </r>
       <r>  -16.1004    1.0000 </r>
       <r>  -16.0838    1.0000 </r>
       <r>  -16.0103    1.0000 </r>
       <r>  -15.9363    1.0000 </r>
       <r>  -15.9068    1.0000 </r>
       <r>  -15.8175    1.0000 </r>
       <r>  -15.7860    1.0000 </r>
       <r>  -15.6849    1.0000 </r>
       <r>  -15.4982    1.0000 </r>
       <r>  -15.4683    1.0000 </r>
       <r>  -15.3100    1.0000 </r>
       <r>   -9.7145    1.0000 </r>
       <r>   -9.4471    1.0000 </r>
       <r>   -9.2517    1.0000 </r>
       <r>   -8.9654    1.0000 </r>
       <r>   -8.7655    1.0000 </r>
       <r>   -8.7456    1.0000 </r>
       <r>   -8.5388    1.0000 </r>
       <r>   -8.4706    1.0000 </r>
       <r>   -8.4354    1.0000 </r>
       <r>   -8.3605    1.0000 </r>
       <r>   -8.3093    1.0000 </r>
       <r>   -8.2652    1.0000 </r>
       <r>   -8.1878    1.0000 </r>
       <r>   -8.1292    1.0000 </r>
       <r>   -7.9673    1.0000 </r>
       <r>   -7.8699    1.0000 </r>
       <r>   -7.8201    1.0000 </r>
       <r>   -7.6800    1.0000 </r>
       <r>   -7.5744    1.0000 </r>
       <r>   -7.4129    1.0000 </r>
       <r>   -7.3356    1.0000 </r>
       <r>   -7.3003    1.0000 </r>
       <r>   -7.1607    1.0000 </r>
       <r>   -7.1014    1.0000 </r>
       <r>   -7.0096    1.0000 </r>
       <r>   -6.9664    1.0000 </r>
       <r>   -6.8899    1.0000 </r>
       <r>   -6.8226    1.0000 </r>
       <r>   -6.7262    1.0000 </r>
       <r>   -6.6227    1.0000 </r>
       <r>   -6.5055    1.0000 </r>
       <r>   -6.4409    1.0000 </r>
       <r>   -6.3906    1.0000 </r>
       <r>   -6.3277    1.0000 </r>
       <r>   -6.2710    1.0000 </r>
       <r>   -6.2185    1.0000 </r>
       <r>   -6.1580    1.0000 </r>
       <r>   -6.0366    1.0000 </r>
       <r>   -5.9946    1.0000 </r>
       <r>   -5.9289    1.0000 </r>
       <r>   -5.8478    1.0000 </r>
       <r>   -5.7545    1.0000 </r>
       <r>   -5.6774    1.0000 </r>
       <r>   -5.6178    1.0000 </r>
       <r>   -5.5815    1.0000 </r>
       <r>   -5.3819    1.0000 </r>
       <r>   -5.2794    1.0000 </r>
       <r>   -5.1665    1.0000 </r>
       <r>   -5.0294    1.0000 </r>
       <r>   -4.9192    1.0000 </r>
       <r>   -4.8391    1.0000 </r>
       <r>   -4.6661    1.0000 </r>
       <r>   -4.4950    1.0000 </r>
       <r>   -4.4141    1.0000 </r>
       <r>   -4.2961    1.0000 </r>
       <r>   -4.2082    1.0000 </r>
       <r>   -4.1067    1.0000 </r>
       <r>   -3.8704    0.9998 </r>
       <r>   -3.7852    0.9985 </r>
       <r>   -3.6856    0.9883 </r>
       <r>   -3.5614    0.9177 </r>
       <r>   -3.4682    0.7674 </r>
       <r>   -2.9210    0.0008 </r>
       <r>   -2.7501    0.0000 </r>
       <r>   -2.6390    0.0000 </r>
       <r>   -2.5212    0.0000 </r>
       <r>   -2.3626    0.0000 </r>
       <r>   -2.2634    0.0000 </r>
       <r>   -2.0738    0.0000 </r>
       <r>   -1.9401    0.0000 </r>
       <r>   -1.8637    0.0000 </r>
       <r>   -1.7757    0.0000 </r>
       <r>   -1.6113    0.0000 </r>
       <r>   -1.5567    0.0000 </r>
       <r>   -1.4932    0.0000 </r>
       <r>   -1.4093    0.0000 </r>
       <r>   -1.3199    0.0000 </r>
       <r>   -1.2164    0.0000 </r>
       <r>   -1.1221    0.0000 </r>
       <r>   -1.0515    0.0000 </r>
       <r>   -1.0372    0.0000 </r>
       <r>   -0.9805    0.0000 </r>
       <r>   -0.9492    0.0000 </r>
       <r>   -0.8539    0.0000 </r>
       <r>   -0.8210    0.0000 </r>
       <r>   -0.6846    0.0000 </r>
       <r>   -0.4864    0.0000 </r>
       <r>   -0.3381    0.0000 </r>
       <r>   -0.1820    0.0000 </r>
       <r>   -0.0357    0.0000 </r>
       <r>    0.0788    0.0000 </r>
       <r>    0.2717    0.0000 </r>
       <r>    0.5097    0.0000 </r>
       <r>    0.6646    0.0000 </r>
       <r>    0.7968    0.0000 </r>
       <r>    0.9904    0.0000 </r>
       <r>    1.1431    0.0000 </r>
       <r>    1.2617    0.0000 </r>
       <r>    1.4137    0.0000 </r>
       <r>    2.1392    0.0000 </r>
       <r>    2.2974    0.0000 </r>
       <r>    2.4023    0.0000 </r>
      </set>
      <set comment="kpoint 32">
       <r>  -17.5113    1.0000 </r>
       <r>  -17.1671    1.0000 </r>
       <r>  -17.0901    1.0000 </r>
       <r>  -16.6170    1.0000 </r>
       <r>  -16.4485    1.0000 </r>
       <r>  -16.3467    1.0000 </r>
       <r>  -16.2756    1.0000 </r>
       <r>  -16.1697    1.0000 </r>
       <r>  -16.0641    1.0000 </r>
       <r>  -16.0354    1.0000 </r>
       <r>  -15.9392    1.0000 </r>
       <r>  -15.9106    1.0000 </r>
       <r>  -15.8294    1.0000 </r>
       <r>  -15.7720    1.0000 </r>
       <r>  -15.6997    1.0000 </r>
       <r>  -15.4840    1.0000 </r>
       <r>  -15.4776    1.0000 </r>
       <r>  -15.2955    1.0000 </r>
       <r>   -9.6280    1.0000 </r>
       <r>   -9.5764    1.0000 </r>
       <r>   -9.3405    1.0000 </r>
       <r>   -8.8674    1.0000 </r>
       <r>   -8.7314    1.0000 </r>
       <r>   -8.5777    1.0000 </r>
       <r>   -8.5105    1.0000 </r>
       <r>   -8.5002    1.0000 </r>
       <r>   -8.3932    1.0000 </r>
       <r>   -8.3815    1.0000 </r>
       <r>   -8.3210    1.0000 </r>
       <r>   -8.2554    1.0000 </r>
       <r>   -8.2504    1.0000 </r>
       <r>   -8.1711    1.0000 </r>
       <r>   -8.1128    1.0000 </r>
       <r>   -7.8695    1.0000 </r>
       <r>   -7.8300    1.0000 </r>
       <r>   -7.6340    1.0000 </r>
       <r>   -7.4984    1.0000 </r>
       <r>   -7.4101    1.0000 </r>
       <r>   -7.3973    1.0000 </r>
       <r>   -7.2904    1.0000 </r>
       <r>   -7.2026    1.0000 </r>
       <r>   -7.1337    1.0000 </r>
       <r>   -7.0299    1.0000 </r>
       <r>   -6.9567    1.0000 </r>
       <r>   -6.8653    1.0000 </r>
       <r>   -6.8407    1.0000 </r>
       <r>   -6.7453    1.0000 </r>
       <r>   -6.6172    1.0000 </r>
       <r>   -6.4785    1.0000 </r>
       <r>   -6.4581    1.0000 </r>
       <r>   -6.3524    1.0000 </r>
       <r>   -6.3494    1.0000 </r>
       <r>   -6.2511    1.0000 </r>
       <r>   -6.2173    1.0000 </r>
       <r>   -6.1586    1.0000 </r>
       <r>   -6.0489    1.0000 </r>
       <r>   -5.9328    1.0000 </r>
       <r>   -5.8422    1.0000 </r>
       <r>   -5.8347    1.0000 </r>
       <r>   -5.7488    1.0000 </r>
       <r>   -5.6149    1.0000 </r>
       <r>   -5.5903    1.0000 </r>
       <r>   -5.5760    1.0000 </r>
       <r>   -5.4310    1.0000 </r>
       <r>   -5.3910    1.0000 </r>
       <r>   -5.1263    1.0000 </r>
       <r>   -5.1164    1.0000 </r>
       <r>   -4.9542    1.0000 </r>
       <r>   -4.9073    1.0000 </r>
       <r>   -4.5396    1.0000 </r>
       <r>   -4.4634    1.0000 </r>
       <r>   -4.4309    1.0000 </r>
       <r>   -4.3111    1.0000 </r>
       <r>   -4.2929    1.0000 </r>
       <r>   -4.0898    1.0000 </r>
       <r>   -3.8636    0.9998 </r>
       <r>   -3.7846    0.9985 </r>
       <r>   -3.6394    0.9739 </r>
       <r>   -3.5474    0.9016 </r>
       <r>   -3.4934    0.8182 </r>
       <r>   -2.9304    0.0011 </r>
       <r>   -2.7170    0.0000 </r>
       <r>   -2.6718    0.0000 </r>
       <r>   -2.4784    0.0000 </r>
       <r>   -2.3837    0.0000 </r>
       <r>   -2.2643    0.0000 </r>
       <r>   -2.0321    0.0000 </r>
       <r>   -1.9739    0.0000 </r>
       <r>   -1.8783    0.0000 </r>
       <r>   -1.8094    0.0000 </r>
       <r>   -1.5862    0.0000 </r>
       <r>   -1.5695    0.0000 </r>
       <r>   -1.4586    0.0000 </r>
       <r>   -1.4486    0.0000 </r>
       <r>   -1.3126    0.0000 </r>
       <r>   -1.2189    0.0000 </r>
       <r>   -1.0944    0.0000 </r>
       <r>   -1.0540    0.0000 </r>
       <r>   -1.0281    0.0000 </r>
       <r>   -0.9709    0.0000 </r>
       <r>   -0.9424    0.0000 </r>
       <r>   -0.8921    0.0000 </r>
       <r>   -0.8312    0.0000 </r>
       <r>   -0.6624    0.0000 </r>
       <r>   -0.5331    0.0000 </r>
       <r>   -0.2863    0.0000 </r>
       <r>   -0.1878    0.0000 </r>
       <r>    0.0343    0.0000 </r>
       <r>    0.0697    0.0000 </r>
       <r>    0.2415    0.0000 </r>
       <r>    0.4869    0.0000 </r>
       <r>    0.6942    0.0000 </r>
       <r>    0.7457    0.0000 </r>
       <r>    1.0291    0.0000 </r>
       <r>    1.2100    0.0000 </r>
       <r>    1.2593    0.0000 </r>
       <r>    1.2804    0.0000 </r>
       <r>    2.1082    0.0000 </r>
       <r>    2.2651    0.0000 </r>
       <r>    2.5766    0.0000 </r>
      </set>
      <set comment="kpoint 33">
       <r>  -17.4893    1.0000 </r>
       <r>  -17.2878    1.0000 </r>
       <r>  -16.9347    1.0000 </r>
       <r>  -16.6206    1.0000 </r>
       <r>  -16.5017    1.0000 </r>
       <r>  -16.4291    1.0000 </r>
       <r>  -16.2678    1.0000 </r>
       <r>  -16.1020    1.0000 </r>
       <r>  -16.0828    1.0000 </r>
       <r>  -16.0107    1.0000 </r>
       <r>  -15.9313    1.0000 </r>
       <r>  -15.9077    1.0000 </r>
       <r>  -15.8213    1.0000 </r>
       <r>  -15.7872    1.0000 </r>
       <r>  -15.6829    1.0000 </r>
       <r>  -15.4992    1.0000 </r>
       <r>  -15.4708    1.0000 </r>
       <r>  -15.3068    1.0000 </r>
       <r>   -9.7159    1.0000 </r>
       <r>   -9.4475    1.0000 </r>
       <r>   -9.2495    1.0000 </r>
       <r>   -8.9688    1.0000 </r>
       <r>   -8.7704    1.0000 </r>
       <r>   -8.7419    1.0000 </r>
       <r>   -8.5367    1.0000 </r>
       <r>   -8.4641    1.0000 </r>
       <r>   -8.4328    1.0000 </r>
       <r>   -8.3616    1.0000 </r>
       <r>   -8.3106    1.0000 </r>
       <r>   -8.2690    1.0000 </r>
       <r>   -8.1915    1.0000 </r>
       <r>   -8.1340    1.0000 </r>
       <r>   -7.9607    1.0000 </r>
       <r>   -7.8722    1.0000 </r>
       <r>   -7.8169    1.0000 </r>
       <r>   -7.6841    1.0000 </r>
       <r>   -7.5690    1.0000 </r>
       <r>   -7.4057    1.0000 </r>
       <r>   -7.3397    1.0000 </r>
       <r>   -7.2954    1.0000 </r>
       <r>   -7.1636    1.0000 </r>
       <r>   -7.0989    1.0000 </r>
       <r>   -7.0065    1.0000 </r>
       <r>   -6.9687    1.0000 </r>
       <r>   -6.8889    1.0000 </r>
       <r>   -6.8258    1.0000 </r>
       <r>   -6.7296    1.0000 </r>
       <r>   -6.6243    1.0000 </r>
       <r>   -6.5042    1.0000 </r>
       <r>   -6.4386    1.0000 </r>
       <r>   -6.3911    1.0000 </r>
       <r>   -6.3245    1.0000 </r>
       <r>   -6.2715    1.0000 </r>
       <r>   -6.2215    1.0000 </r>
       <r>   -6.1628    1.0000 </r>
       <r>   -6.0367    1.0000 </r>
       <r>   -5.9951    1.0000 </r>
       <r>   -5.9306    1.0000 </r>
       <r>   -5.8495    1.0000 </r>
       <r>   -5.7562    1.0000 </r>
       <r>   -5.6803    1.0000 </r>
       <r>   -5.6155    1.0000 </r>
       <r>   -5.5827    1.0000 </r>
       <r>   -5.3902    1.0000 </r>
       <r>   -5.2736    1.0000 </r>
       <r>   -5.1652    1.0000 </r>
       <r>   -5.0207    1.0000 </r>
       <r>   -4.9255    1.0000 </r>
       <r>   -4.8385    1.0000 </r>
       <r>   -4.6653    1.0000 </r>
       <r>   -4.4902    1.0000 </r>
       <r>   -4.4117    1.0000 </r>
       <r>   -4.2891    1.0000 </r>
       <r>   -4.2179    1.0000 </r>
       <r>   -4.1055    1.0000 </r>
       <r>   -3.8764    0.9999 </r>
       <r>   -3.7816    0.9984 </r>
       <r>   -3.6875    0.9887 </r>
       <r>   -3.5708    0.9273 </r>
       <r>   -3.4614    0.7526 </r>
       <r>   -2.9361    0.0012 </r>
       <r>   -2.7398    0.0000 </r>
       <r>   -2.6316    0.0000 </r>
       <r>   -2.5090    0.0000 </r>
       <r>   -2.3711    0.0000 </r>
       <r>   -2.2575    0.0000 </r>
       <r>   -2.0662    0.0000 </r>
       <r>   -1.9515    0.0000 </r>
       <r>   -1.8599    0.0000 </r>
       <r>   -1.7666    0.0000 </r>
       <r>   -1.6164    0.0000 </r>
       <r>   -1.5582    0.0000 </r>
       <r>   -1.4847    0.0000 </r>
       <r>   -1.4173    0.0000 </r>
       <r>   -1.3261    0.0000 </r>
       <r>   -1.2235    0.0000 </r>
       <r>   -1.1255    0.0000 </r>
       <r>   -1.0530    0.0000 </r>
       <r>   -1.0262    0.0000 </r>
       <r>   -0.9834    0.0000 </r>
       <r>   -0.9544    0.0000 </r>
       <r>   -0.8586    0.0000 </r>
       <r>   -0.8168    0.0000 </r>
       <r>   -0.6857    0.0000 </r>
       <r>   -0.4859    0.0000 </r>
       <r>   -0.3339    0.0000 </r>
       <r>   -0.1826    0.0000 </r>
       <r>   -0.0275    0.0000 </r>
       <r>    0.0783    0.0000 </r>
       <r>    0.2780    0.0000 </r>
       <r>    0.5102    0.0000 </r>
       <r>    0.6667    0.0000 </r>
       <r>    0.7935    0.0000 </r>
       <r>    0.9913    0.0000 </r>
       <r>    1.1385    0.0000 </r>
       <r>    1.2544    0.0000 </r>
       <r>    1.4112    0.0000 </r>
       <r>    2.1388    0.0000 </r>
       <r>    2.2977    0.0000 </r>
       <r>    2.4022    0.0000 </r>
      </set>
      <set comment="kpoint 34">
       <r>  -17.4469    1.0000 </r>
       <r>  -17.3737    1.0000 </r>
       <r>  -16.7486    1.0000 </r>
       <r>  -16.7072    1.0000 </r>
       <r>  -16.5961    1.0000 </r>
       <r>  -16.4417    1.0000 </r>
       <r>  -16.2530    1.0000 </r>
       <r>  -16.1263    1.0000 </r>
       <r>  -16.0367    1.0000 </r>
       <r>  -15.9990    1.0000 </r>
       <r>  -15.9344    1.0000 </r>
       <r>  -15.8939    1.0000 </r>
       <r>  -15.8182    1.0000 </r>
       <r>  -15.7901    1.0000 </r>
       <r>  -15.6705    1.0000 </r>
       <r>  -15.5064    1.0000 </r>
       <r>  -15.4722    1.0000 </r>
       <r>  -15.3192    1.0000 </r>
       <r>   -9.7556    1.0000 </r>
       <r>   -9.2981    1.0000 </r>
       <r>   -9.1771    1.0000 </r>
       <r>   -9.0584    1.0000 </r>
       <r>   -8.9450    1.0000 </r>
       <r>   -8.7629    1.0000 </r>
       <r>   -8.5551    1.0000 </r>
       <r>   -8.4796    1.0000 </r>
       <r>   -8.4465    1.0000 </r>
       <r>   -8.3618    1.0000 </r>
       <r>   -8.2828    1.0000 </r>
       <r>   -8.2568    1.0000 </r>
       <r>   -8.2163    1.0000 </r>
       <r>   -8.0250    1.0000 </r>
       <r>   -7.9250    1.0000 </r>
       <r>   -7.8825    1.0000 </r>
       <r>   -7.7368    1.0000 </r>
       <r>   -7.6406    1.0000 </r>
       <r>   -7.5971    1.0000 </r>
       <r>   -7.5463    1.0000 </r>
       <r>   -7.3609    1.0000 </r>
       <r>   -7.2260    1.0000 </r>
       <r>   -7.1261    1.0000 </r>
       <r>   -7.0660    1.0000 </r>
       <r>   -7.0341    1.0000 </r>
       <r>   -6.9211    1.0000 </r>
       <r>   -6.9145    1.0000 </r>
       <r>   -6.7800    1.0000 </r>
       <r>   -6.6779    1.0000 </r>
       <r>   -6.6233    1.0000 </r>
       <r>   -6.5479    1.0000 </r>
       <r>   -6.4663    1.0000 </r>
       <r>   -6.4270    1.0000 </r>
       <r>   -6.3139    1.0000 </r>
       <r>   -6.2899    1.0000 </r>
       <r>   -6.2438    1.0000 </r>
       <r>   -6.1694    1.0000 </r>
       <r>   -6.0834    1.0000 </r>
       <r>   -6.0479    1.0000 </r>
       <r>   -5.9258    1.0000 </r>
       <r>   -5.8763    1.0000 </r>
       <r>   -5.7840    1.0000 </r>
       <r>   -5.6843    1.0000 </r>
       <r>   -5.5892    1.0000 </r>
       <r>   -5.5645    1.0000 </r>
       <r>   -5.4172    1.0000 </r>
       <r>   -5.2706    1.0000 </r>
       <r>   -5.1430    1.0000 </r>
       <r>   -4.8942    1.0000 </r>
       <r>   -4.8691    1.0000 </r>
       <r>   -4.8234    1.0000 </r>
       <r>   -4.7048    1.0000 </r>
       <r>   -4.5760    1.0000 </r>
       <r>   -4.4432    1.0000 </r>
       <r>   -4.2112    1.0000 </r>
       <r>   -4.1789    1.0000 </r>
       <r>   -4.1116    1.0000 </r>
       <r>   -3.8987    0.9999 </r>
       <r>   -3.8098    0.9992 </r>
       <r>   -3.6846    0.9881 </r>
       <r>   -3.6047    0.9550 </r>
       <r>   -3.4432    0.7101 </r>
       <r>   -2.9373    0.0012 </r>
       <r>   -2.7515    0.0000 </r>
       <r>   -2.5977    0.0000 </r>
       <r>   -2.5466    0.0000 </r>
       <r>   -2.3654    0.0000 </r>
       <r>   -2.2479    0.0000 </r>
       <r>   -2.0904    0.0000 </r>
       <r>   -1.9345    0.0000 </r>
       <r>   -1.8405    0.0000 </r>
       <r>   -1.7313    0.0000 </r>
       <r>   -1.6299    0.0000 </r>
       <r>   -1.5638    0.0000 </r>
       <r>   -1.4731    0.0000 </r>
       <r>   -1.4504    0.0000 </r>
       <r>   -1.2964    0.0000 </r>
       <r>   -1.2333    0.0000 </r>
       <r>   -1.1605    0.0000 </r>
       <r>   -1.0493    0.0000 </r>
       <r>   -1.0300    0.0000 </r>
       <r>   -0.9957    0.0000 </r>
       <r>   -0.9483    0.0000 </r>
       <r>   -0.8533    0.0000 </r>
       <r>   -0.7784    0.0000 </r>
       <r>   -0.7160    0.0000 </r>
       <r>   -0.4389    0.0000 </r>
       <r>   -0.3761    0.0000 </r>
       <r>   -0.1944    0.0000 </r>
       <r>   -0.0639    0.0000 </r>
       <r>    0.0750    0.0000 </r>
       <r>    0.3018    0.0000 </r>
       <r>    0.5292    0.0000 </r>
       <r>    0.6564    0.0000 </r>
       <r>    0.8450    0.0000 </r>
       <r>    0.9342    0.0000 </r>
       <r>    1.1013    0.0000 </r>
       <r>    1.2892    0.0000 </r>
       <r>    1.4753    0.0000 </r>
       <r>    2.2096    0.0000 </r>
       <r>    2.2676    0.0000 </r>
       <r>    2.3832    0.0000 </r>
      </set>
     </set>
    </set>
   </array>
  </eigenvalues>
  <separator name="orbital magnetization" >
   <v name="MAGDIPOLOUT">      0.00000000      0.00000000      0.00000000</v>
  </separator>
 </calculation>
 <structure name="finalpos" >
  <crystal>
   <varray name="basis" >
    <v>       8.33590180       4.81120890       0.00000000 </v>
    <v>      -8.33776091       4.81443014       0.00000000 </v>
    <v>       0.00000000       0.00000000      30.00000000 </v>
   </varray>
   <i name="volume">   2407.41978996 </i>
   <varray name="rec_basis" >
    <v>       0.05999490       0.10390079       0.00000000 </v>
    <v>      -0.05995476       0.10387763       0.00000000 </v>
    <v>       0.00000000       0.00000000       0.03333333 </v>
   </varray>
  </crystal>
  <varray name="positions" >
   <v>       1.00122805       0.30304451       0.00007783 </v>
   <v>       0.68384593       0.70195701       0.00012616 </v>
   <v>       0.31577944       0.01798586      -0.00026591 </v>
   <v>       0.68190274      -0.00627658       0.00052804 </v>
   <v>       0.31846557       0.31234586      -0.00056969 </v>
   <v>      -0.00016529       0.00616302      -0.00003274 </v>
   <v>      -0.00034450       0.70323305      -0.00002474 </v>
   <v>       0.36340216       0.66017368       0.00026773 </v>
   <v>       0.63530631       0.29776124      -0.00008358 </v>
   <v>       0.10934897       0.22495576       0.94473776 </v>
   <v>       0.21814188       0.10857895       0.05484599 </v>
   <v>       0.11101932       0.55380717       0.95786835 </v>
   <v>       0.21706081       0.43954652       0.05101376 </v>
   <v>       0.11724115       0.90092622       0.94497585 </v>
   <v>       0.22604073       0.78284063       0.04688007 </v>
   <v>       0.43650657       0.21220363       0.94440459 </v>
   <v>       0.53792988       0.09407706       0.05117946 </v>
   <v>       0.46185985       0.55586842       0.94866287 </v>
   <v>       0.56092472       0.45107404       0.04523286 </v>
   <v>       0.43870540       0.88958009       0.95508135 </v>
   <v>       0.56328016       0.77582477       0.05550294 </v>
   <v>       0.78305516       0.22298526       0.94943354 </v>
   <v>       0.89068221       0.11583443       0.05519780 </v>
   <v>       0.77396241       0.55705642       0.95292075 </v>
   <v>       0.88883302       0.44253751       0.04202088 </v>
   <v>       0.78177214       0.89037277       0.94506425 </v>
   <v>       0.88242963       0.78375714       0.05495373 </v>
  </varray>
 </structure>
</modeling>
