unknown system                          
           1
     8.855783    5.105621    0.000000
    -8.855541    5.105204    0.000000
     0.000000    0.000000   30.000000
   V    Mo   W    S 
   3   3   3  18
Direct configuration=     1
   1.00000000  0.33333334  0.00000000
   0.66666669  0.66666669  0.00000000
   0.33333334  0.00000000  0.00000000
   0.66666669  0.00000000  0.00000000
   0.33333334  0.33333334  0.00000000
   0.00000000  0.00000000  0.00000000
   0.00000000  0.66666669  0.00000000
   0.33333334  0.66666669  0.00000000
   0.66666669  0.33333334  0.00000000
   0.11068511  0.22244981  0.95539999
   0.22244981  0.11068511  0.04460000
   0.11068511  0.55578315  0.95539999
   0.22244981  0.44401845  0.04460000
   0.11068511  0.88911647  0.95539999
   0.22244981  0.77735180  0.04460000
   0.44401845  0.22244981  0.95539999
   0.55578315  0.11068511  0.04460000
   0.44401845  0.55578315  0.95539999
   0.55578315  0.44401845  0.04460000
   0.44401845  0.88911647  0.95539999
   0.55578315  0.77735180  0.04460000
   0.77735180  0.22244981  0.95539999
   0.88911647  0.11068511  0.04460000
   0.77735180  0.55578315  0.95539999
   0.88911647  0.44401845  0.04460000
   0.77735180  0.88911647  0.95539999
   0.88911647  0.77735180  0.04460000
unknown system                          
           1
     8.668362    4.999747    0.000000
    -8.668147    4.999376    0.000000
     0.000000    0.000000   30.000000
   V    Mo   W    S 
   3   3   3  18
Direct configuration=     2
   1.00008887  0.33097362 -0.00000317
   0.66668083  0.66788141  0.00000626
   0.33327917  0.00118573 -0.00000326
   0.66806508 -0.00008225 -0.00006529
   0.33194311  0.33194965  0.00006324
  -0.00007163  0.00139454  0.00000319
  -0.00007322  0.66819743  0.00000220
   0.33489836  0.66660004 -0.00004972
   0.66511037  0.33179535  0.00004637
   0.10857046  0.22460238  0.95193465
   0.22460050  0.10857652  0.04801300
   0.10913016  0.55158347  0.95195215
   0.21793781  0.44302959  0.04806966
   0.11518640  0.89007753  0.95192378
   0.22396439  0.78155765  0.04809781
   0.44302093  0.21796157  0.95188619
   0.55132374  0.10970836  0.04807579
   0.44850310  0.55819521  0.95190203
   0.55822413  0.44852959  0.04803801
   0.44137071  0.89029667  0.95204224
   0.55698482  0.77473236  0.04805579
   0.78188681  0.22489750  0.95192007
   0.89104542  0.11559786  0.04813348
   0.77563127  0.55755806  0.95197671
   0.89089983  0.44230050  0.04797703
   0.77540743  0.88422155  0.95192258
   0.88460560  0.77489257  0.04807912
unknown system                          
           1
     8.487096    4.899816    0.000000
    -8.487135    4.899886    0.000000
     0.000000    0.000000   30.000000
   V    Mo   W    S 
   3   3   3  18
Direct configuration=     3
   1.00008771  0.33022237 -0.00000389
   0.66668418  0.66825834  0.00000189
   0.33327594  0.00156454  0.00000185
   0.66847929 -0.00008428 -0.00011189
   0.33155236  0.33154905  0.00010878
  -0.00008271  0.00179776  0.00000434
  -0.00006299  0.66862024  0.00000358
   0.33531916  0.66659497 -0.00010749
   0.66466637  0.33136446  0.00010258
   0.10851059  0.22465247  0.95182906
   0.22462775  0.10851804  0.04807372
   0.10917135  0.55172537  0.95207973
   0.21793357  0.44320315  0.04806125
   0.11517783  0.88992349  0.95192854
   0.22393717  0.78143941  0.04802161
   0.44316346  0.21794201  0.95184632
   0.55133240  0.10986340  0.04806362
   0.44849423  0.55838146  0.95191528
   0.55842287  0.44850170  0.04797741
   0.44120939  0.89007628  0.95209380
   0.55681113  0.77456627  0.04810531
   0.78188949  0.22511486  0.95193480
   0.89113931  0.11574271  0.04822947
   0.77569098  0.55748118  0.95203913
   0.89082278  0.44238804  0.04785960
   0.77534684  0.88409896  0.95186863
   0.88461399  0.77470824  0.04807289
unknown system                          
           1
     8.277675    4.777952    0.000000
    -8.278236    4.778926    0.000000
     0.000000    0.000000   30.000000
   V    Mo   W    S 
   3   3   3  18
Direct configuration=     4
   1.00006316  0.32747981 -0.00000139
   0.66669262  0.66964518 -0.00001151
   0.33325222  0.00294658  0.00001258
   0.66984007 -0.00015962 -0.00023129
   0.33023172  0.33013429  0.00022782
  -0.00012376  0.00312147  0.00000427
  -0.00002651  0.67001013  0.00000517
   0.33670172  0.66662973 -0.00027453
   0.66317436  0.32996821  0.00026838
   0.10796345  0.22518656  0.94997830
   0.22497515  0.10783413  0.04974234
   0.10857901  0.55078152  0.95112291
   0.21682178  0.44277613  0.04947945
   0.11626898  0.89068768  0.95047858
   0.22466865  0.78244453  0.04920059
   0.44248321  0.21678499  0.95022047
   0.55023994  0.10906804  0.04947574
   0.44958672  0.55879937  0.95050158
   0.55904899  0.44954546  0.04918665
   0.44071223  0.89051698  0.95085780
   0.55739155  0.77410352  0.04976523
   0.78300737  0.22592041  0.95053565
   0.89181520  0.11697395  0.05004767
   0.77508741  0.55779500  0.95081325
   0.89130817  0.44200435  0.04884979
   0.77490612  0.88294199  0.95021976
   0.88354492  0.77427406  0.04952466
unknown system                          
           1
     8.265218    4.771771    0.000000
    -8.265616    4.772464    0.000000
     0.000000    0.000000   30.000000
   V    Mo   W    S 
   3   3   3  18
Direct configuration=     5
   1.00003712  0.32228499  0.00000800
   0.66690760  0.67249523 -0.00002695
   0.33299929  0.00560303  0.00001825
   0.67236729 -0.00049377 -0.00028983
   0.32770630  0.32721042  0.00029313
  -0.00015580  0.00539410 -0.00000540
   0.00003678  0.67315936 -0.00000096
   0.33958950  0.66683545 -0.00042334
   0.66005874  0.32715469  0.00042621
   0.10752925  0.22540074  0.94732142
   0.22480400  0.10717347  0.05215576
   0.10795200  0.54952365  0.95003804
   0.21579743  0.44215499  0.05136495
   0.11728445  0.89217028  0.94848615
   0.22577368  0.78379940  0.05066276
   0.44140667  0.21562316  0.94799993
   0.54915864  0.10762293  0.05136279
   0.45068505  0.55846416  0.94861015
   0.55902194  0.45046104  0.05076857
   0.44086383  0.89139027  0.94926142
   0.55837677  0.77411330  0.05200392
   0.78408124  0.22636606  0.94865944
   0.89237756  0.11785076  0.05267714
   0.77412813  0.55799282  0.94932421
   0.89184957  0.44144707  0.04995003
   0.77501658  0.88227482  0.94782398
   0.88256087  0.77474203  0.05153013
unknown system                          
           1
     8.269697    4.774219    0.000000
    -8.270118    4.774952    0.000000
     0.000000    0.000000   30.000000
   V    Mo   W    S 
   3   3   3  18
Direct configuration=     6
   1.00003882  0.32037135  0.00000030
   0.66745259  0.67395684 -0.00006971
   0.33244080  0.00650646  0.00006901
   0.67320554 -0.00072686 -0.00028601
   0.32690898  0.32618867  0.00028305
  -0.00020016  0.00545842 -0.00000104
   0.00002278  0.67499921  0.00000524
   0.34076992  0.66688835 -0.00047729
   0.65884619  0.32605546  0.00047630
   0.10756371  0.22507630  0.94694908
   0.22432241  0.10723008  0.05246974
   0.10798350  0.54945115  0.95028382
   0.21597304  0.44203293  0.05147928
   0.11715393  0.89274295  0.94823428
   0.22607966  0.78399892  0.05064048
   0.44113972  0.21565792  0.94770016
   0.54919270  0.10712620  0.05147602
   0.45065752  0.55792141  0.94850841
   0.55840332  0.45013888  0.05075013
   0.44149008  0.89167130  0.94928262
   0.55866808  0.77441573  0.05228050
   0.78391719  0.22606622  0.94855367
   0.89234439  0.11748128  0.05305935
   0.77382088  0.55787101  0.94936082
   0.89182361  0.44136670  0.04969500
   0.77549739  0.88280755  0.94751240
   0.88269786  0.77546002  0.05176430
unknown system                          
           1
     8.248597    4.762033    0.000000
    -8.248366    4.761636    0.000000
     0.000000    0.000000   30.000000
   V    Mo   W    S 
   3   3   3  18
Direct configuration=     7
   1.00004341  0.31988696  0.00000115
   0.66766321  0.67438940 -0.00008098
   0.33222719  0.00673983  0.00007888
   0.67339762 -0.00077174 -0.00027627
   0.32672113  0.32593155  0.00027454
  -0.00018872  0.00536358 -0.00000174
   0.00004419  0.67562829  0.00000455
   0.34111807  0.66688196 -0.00049533
   0.65845961  0.32567529  0.00049455
   0.10756991  0.22498414  0.94695613
   0.22422760  0.10725214  0.05246093
   0.10798908  0.54948419  0.95043610
   0.21602432  0.44202832  0.05142324
   0.11713118  0.89283463  0.94823095
   0.22610811  0.78401067  0.05055752
   0.44110248  0.21566509  0.94771356
   0.54918667  0.10702345  0.05141712
   0.45066068  0.55781648  0.94856594
   0.55827649  0.45005957  0.05065646
   0.44160884  0.89171697  0.94938105
   0.55870788  0.77446490  0.05226582
   0.78386614  0.22600583  0.94860948
   0.89233296  0.11737946  0.05305369
   0.77379259  0.55785012  0.94944588
   0.89182115  0.44139700  0.04953881
   0.77559869  0.88293248  0.94751803
   0.88272397  0.77558388  0.05176984
unknown system                          
           1
     8.278574    4.779041    0.000000
    -8.279331    4.780355    0.000000
     0.000000    0.000000   30.000000
   V    Mo   W    S 
   3   3   3  18
Direct configuration=     8
   1.00001446  0.32003588  0.00000552
   0.66738847  0.67401428 -0.00007811
   0.33251491  0.00671378  0.00006903
   0.67328597 -0.00064661 -0.00026512
   0.32670937  0.32583236  0.00026970
  -0.00002657  0.00581139 -0.00000287
   0.00019395  0.67510293 -0.00000220
   0.34077479  0.66701898 -0.00047254
   0.65861759  0.32584995  0.00047389
   0.10758560  0.22502058  0.94680797
   0.22420686  0.10721611  0.05258347
   0.10802751  0.54938410  0.95021863
   0.21601772  0.44198876  0.05156486
   0.11711028  0.89287764  0.94818901
   0.22619972  0.78410727  0.05070971
   0.44106531  0.21564131  0.94760551
   0.54923958  0.10705385  0.05154920
   0.45053019  0.55775151  0.94841554
   0.55819215  0.44999022  0.05084898
   0.44165890  0.89175722  0.94920618
   0.55870697  0.77453802  0.05240589
   0.78388551  0.22595896  0.94845591
   0.89231114  0.11741192  0.05319674
   0.77374053  0.55781390  0.94927863
   0.89178592  0.44127410  0.04975311
   0.77566193  0.88299835  0.94736878
   0.88281568  0.77569769  0.05184447
unknown system                          
           1
     8.270288    4.774033    0.000000
    -8.271308    4.775804    0.000000
     0.000000    0.000000   30.000000
   V    Mo   W    S 
   3   3   3  18
Direct configuration=     9
   1.00006952  0.31801148 -0.00000058
   0.66839760  0.67601521 -0.00011438
   0.33147349  0.00762419  0.00011358
   0.67421896 -0.00099056 -0.00026236
   0.32597947  0.32502753  0.00026156
  -0.00025526  0.00508442 -0.00000335
   0.00001343  0.67787318  0.00000493
   0.34248863  0.66680103 -0.00057048
   0.65707610  0.32432715  0.00056961
   0.10753298  0.22473204  0.94677576
   0.22395141  0.10726961  0.05262423
   0.10792518  0.54948918  0.95083454
   0.21606452  0.44196197  0.05140396
   0.11716986  0.89322557  0.94803480
   0.22625931  0.78413572  0.05041439
   0.44090178  0.21558754  0.94757062
   0.54904486  0.10657767  0.05139074
   0.45084705  0.55751853  0.94859295
   0.55795853  0.44996817  0.05047924
   0.44193938  0.89191545  0.94956129
   0.55893272  0.77457637  0.05239319
   0.78382413  0.22589432  0.94863867
   0.89236901  0.11716785  0.05324031
   0.77362876  0.55783300  0.94959612
   0.89188852  0.44147268  0.04913645
   0.77586196  0.88318131  0.94735627
   0.88265257  0.77593384  0.05195785
unknown system                          
           1
     8.271138    4.773841    0.000000
    -8.272679    4.776513    0.000000
     0.000000    0.000000   30.000000
   V    Mo   W    S 
   3   3   3  18
Direct configuration=    10
   1.00005278  0.31724884  0.00000670
   0.66861767  0.67662772 -0.00013435
   0.33125470  0.00806575  0.00012613
   0.67446721 -0.00104063 -0.00026215
   0.32568008  0.32450573  0.00025854
  -0.00015396  0.00513264 -0.00000290
   0.00014625  0.67871930  0.00000930
   0.34298629  0.66687527 -0.00059329
   0.65640809  0.32367272  0.00059256
   0.10754457  0.22465170  0.94660039
   0.22384440  0.10723731  0.05276778
   0.10789780  0.54944723  0.95090827
   0.21607868  0.44192209  0.05146469
   0.11724050  0.89344835  0.94790402
   0.22637267  0.78425760  0.05042764
   0.44078015  0.21550569  0.94743394
   0.54893925  0.10634158  0.05146184
   0.45087336  0.55735503  0.94852881
   0.55778431  0.44989409  0.05049163
   0.44208052  0.89204158  0.94956184
   0.55901935  0.77465072  0.05253073
   0.78382096  0.22585029  0.94856828
   0.89236520  0.11708308  0.05340835
   0.77355932  0.55780634  0.94958830
   0.89190190  0.44146800  0.04904536
   0.77599830  0.88332897  0.94721518
   0.88265411  0.77611743  0.05209232
unknown system                          
           1
     8.260630    4.769149    0.000000
    -8.261150    4.770052    0.000000
     0.000000    0.000000   30.000000
   V    Mo   W    S 
   3   3   3  18
Direct configuration=    11
   1.00008025  0.31569811  0.00000365
   0.66935539  0.67809984 -0.00016011
   0.33049763  0.00881264  0.00015366
   0.67512039 -0.00118405 -0.00025861
   0.32509205  0.32380342  0.00025679
  -0.00019289  0.00472440 -0.00000417
   0.00014019  0.68080502  0.00000920
   0.34420287  0.66670518 -0.00066703
   0.65515690  0.32235455  0.00066550
   0.10750511  0.22446019  0.94653658
   0.22367639  0.10725157  0.05283096
   0.10782855  0.54953343  0.95132426
   0.21608791  0.44192897  0.05138803
   0.11731842  0.89368924  0.94776283
   0.22640864  0.78428180  0.05023511
   0.44066532  0.21543777  0.94738198
   0.54875269  0.10598170  0.05138326
   0.45109180  0.55718881  0.94859735
   0.55765413  0.44986732  0.05027004
   0.44221745  0.89212481  0.94979289
   0.55914651  0.77468959  0.05257855
   0.78380897  0.22584249  0.94865756
   0.89240200  0.11693278  0.05347726
   0.77351824  0.55780518  0.94977900
   0.89197319  0.44162479  0.04862801
   0.77615667  0.88347840  0.94714442
   0.88254970  0.77627650  0.05223297
unknown system                          
           1
     8.279526    4.778107    0.000000
    -8.281806    4.782060    0.000000
     0.000000    0.000000   30.000000
   V    Mo   W    S 
   3   3   3  18
Direct configuration=    12
   1.00005113  0.31695216  0.00000643
   0.66855756  0.67668603 -0.00014252
   0.33130683  0.00815968  0.00013448
   0.67463266 -0.00102353 -0.00025704
   0.32550107  0.32430914  0.00025583
  -0.00013988  0.00531591 -0.00000302
   0.00019821  0.67890427  0.00000712
   0.34305964  0.66697029 -0.00060861
   0.65628144  0.32360845  0.00060530
   0.10752387  0.22462639  0.94658528
   0.22380292  0.10724658  0.05278749
   0.10793429  0.54944177  0.95094013
   0.21612534  0.44189982  0.05144264
   0.11717110  0.89342748  0.94792406
   0.22640970  0.78428323  0.05042561
   0.44077954  0.21551311  0.94742089
   0.54901715  0.10639757  0.05144484
   0.45077788  0.55732374  0.94856499
   0.55767405  0.44979301  0.05047738
   0.44218639  0.89205683  0.94956680
   0.55902092  0.77466848  0.05252861
   0.78378027  0.22579476  0.94858095
   0.89238266  0.11707394  0.05342298
   0.77354162  0.55778654  0.94961130
   0.89185605  0.44143062  0.04900551
   0.77604620  0.88339322  0.94720971
   0.88273585  0.77617497  0.05206275
unknown system                          
           1
     8.275995    4.775703    0.000000
    -8.278642    4.780291    0.000000
     0.000000    0.000000   30.000000
   V    Mo   W    S 
   3   3   3  18
Direct configuration=    13
   1.00008088  0.31473152  0.00000590
   0.66966609  0.67886739 -0.00017859
   0.33018166  0.00923411  0.00017143
   0.67551686 -0.00123606 -0.00025004
   0.32470248  0.32329033  0.00024823
  -0.00018542  0.00471916 -0.00000302
   0.00023440  0.68188285  0.00001255
   0.34484479  0.66675796 -0.00069067
   0.65440495  0.32162913  0.00068515
   0.10747429  0.22437414  0.94637042
   0.22354309  0.10721546  0.05299169
   0.10774532  0.54945779  0.95147099
   0.21604672  0.44187129  0.05142368
   0.11741518  0.89393383  0.94759527
   0.22651941  0.78439127  0.05023840
   0.44054867  0.21535771  0.94722788
   0.54861858  0.10568865  0.05145748
   0.45119703  0.55701681  0.94854965
   0.55749182  0.44984790  0.05024307
   0.44237489  0.89227622  0.94981276
   0.55925378  0.77473525  0.05270903
   0.78385641  0.22584816  0.94861322
   0.89243964  0.11687842  0.05364032
   0.77343843  0.55778902  0.94980629
   0.89203474  0.44163737  0.04846262
   0.77629297  0.88359051  0.94700425
   0.88247679  0.77642825  0.05238193
unknown system                          
           1
     8.271648    4.772128    0.000000
    -8.275270    4.778406    0.000000
     0.000000    0.000000   30.000000
   V    Mo   W    S 
   3   3   3  18
Direct configuration=    14
   1.00009048  0.31405785  0.00000604
   0.66999538  0.67954295 -0.00019055
   0.32984845  0.00957241  0.00018302
   0.67577568 -0.00130751 -0.00025099
   0.32446317  0.32297111  0.00024956
  -0.00019612  0.00458208 -0.00000347
   0.00025991  0.68275005  0.00001380
   0.34540166  0.66670268 -0.00072272
   0.65380786  0.32099863  0.00071540
   0.10747054  0.22430508  0.94633141
   0.22346852  0.10721986  0.05302811
   0.10771233  0.54949024  0.95164569
   0.21603873  0.44187312  0.05139492
   0.11746329  0.89405038  0.94752686
   0.22652613  0.78440042  0.05016369
   0.44049724  0.21532585  0.94719147
   0.54852375  0.10552319  0.05144095
   0.45129272  0.55694566  0.94856951
   0.55744838  0.44982793  0.05015081
   0.44241973  0.89229813  0.94990622
   0.55930274  0.77475466  0.05273979
   0.78386387  0.22586142  0.94864362
   0.89244563  0.11681527  0.05367995
   0.77343905  0.55779025  0.94988825
   0.89206259  0.44170429  0.04828231
   0.77636447  0.88366405  0.94696936
   0.88242826  0.77649439  0.05244691
unknown system                          
           1
     8.273993    4.772999    0.000000
    -8.277988    4.779921    0.000000
     0.000000    0.000000   30.000000
   V    Mo   W    S 
   3   3   3  18
Direct configuration=    15
   1.00011528  0.31232262  0.00000673
   0.67092964  0.68137048 -0.00022075
   0.32890140  0.01048471  0.00021086
   0.67642093 -0.00148722 -0.00025297
   0.32387107  0.32217470  0.00025181
  -0.00020824  0.00411239 -0.00000527
   0.00030538  0.68509673  0.00001744
   0.34688278  0.66647689 -0.00080369
   0.65223473  0.31928262  0.00079398
   0.10746713  0.22411421  0.94623068
   0.22327515  0.10722836  0.05312674
   0.10761610  0.54959344  0.95211198
   0.21601510  0.44189371  0.05133035
   0.11761539  0.89437837  0.94732525
   0.22654274  0.78441845  0.04995662
   0.44035173  0.21523413  0.94709419
   0.54822370  0.10503134  0.05140135
   0.45159444  0.55675513  0.94860566
   0.55736712  0.44981022  0.04990694
   0.44249939  0.89235572  0.95016198
   0.55943895  0.77480681  0.05283061
   0.78388607  0.22590741  0.94871739
   0.89245367  0.11663467  0.05378233
   0.77343745  0.55779001  0.95010081
   0.89215045  0.44190622  0.04780542
   0.77655235  0.88385502  0.94686673
   0.88227456  0.77666731  0.05264671
unknown system                          
           1
     8.287734    4.780424    0.000000
    -8.292043    4.787890    0.000000
     0.000000    0.000000   30.000000
   V    Mo   W    S 
   3   3   3  18
Direct configuration=    16
   1.00011561  0.31179011  0.00000773
   0.67125553  0.68198764 -0.00023054
   0.32857154  0.01080355  0.00021828
   0.67657860 -0.00155757 -0.00024994
   0.32371094  0.32188059  0.00024956
  -0.00017380  0.00395602 -0.00000562
   0.00036280  0.68585997  0.00001890
   0.34736576  0.66642885 -0.00082115
   0.65167440  0.31867470  0.00081063
   0.10748070  0.22404212  0.94616703
   0.22319490  0.10721612  0.05318528
   0.10757690  0.54962244  0.95224952
   0.21600751  0.44190422  0.05133139
   0.11769457  0.89453497  0.94723237
   0.22656760  0.78444071  0.04990734
   0.44027960  0.21518540  0.94703301
   0.54808210  0.10480659  0.05141934
   0.45171803  0.55666616  0.94858708
   0.55733650  0.44981599  0.04984830
   0.44252129  0.89239788  0.95022689
   0.55949759  0.77483759  0.05289225
   0.78389640  0.22592533  0.94871656
   0.89244063  0.11655250  0.05384511
   0.77342881  0.55777762  0.95015459
   0.89218414  0.44197792  0.04766032
   0.77663694  0.88393596  0.94680432
   0.88220885  0.77675107  0.05274136
unknown system                          
           1
     8.283258    4.775839    0.000000
    -8.289654    4.786920    0.000000
     0.000000    0.000000   30.000000
   V    Mo   W    S 
   3   3   3  18
Direct configuration=    17
   1.00014486  0.31156439  0.00000353
   0.67140180  0.68210447 -0.00022722
   0.32842241  0.01078640  0.00021982
   0.67678608 -0.00146284 -0.00024511
   0.32354772  0.32190786  0.00024743
  -0.00022492  0.00384771 -0.00000609
   0.00026311  0.68614965  0.00001165
   0.34743885  0.66628199 -0.00081837
   0.65167268  0.31862980  0.00081235
   0.10743242  0.22408217  0.94612672
   0.22320920  0.10723384  0.05323392
   0.10749885  0.54952984  0.95226376
   0.21591552  0.44188413  0.05136478
   0.11772249  0.89451630  0.94717180
   0.22658108  0.78443254  0.04992158
   0.44031773  0.21522249  0.94700072
   0.54810096  0.10476096  0.05143971
   0.45176743  0.55661876  0.94854868
   0.55735083  0.44991608  0.04986240
   0.44252989  0.89244570  0.95021485
   0.55948716  0.77482004  0.05292911
   0.78398619  0.22598618  0.94869727
   0.89248232  0.11663421  0.05389209
   0.77337578  0.55779081  0.95012189
   0.89227811  0.44195764  0.04765971
   0.77660601  0.88388589  0.94674458
   0.88211991  0.77668744  0.05280836
unknown system                          
           1
     8.288203    4.777373    0.000000
    -8.295648    4.790270    0.000000
     0.000000    0.000000   30.000000
   V    Mo   W    S 
   3   3   3  18
Direct configuration=    18
   1.00017142  0.30953627  0.00001049
   0.67271184  0.68465181 -0.00026147
   0.32710870  0.01201633  0.00024718
   0.67748488 -0.00184941 -0.00025267
   0.32289333  0.32085451  0.00024863
  -0.00024557  0.00334990 -0.00000783
   0.00032787  0.68879574  0.00002922
   0.34945809  0.66600036 -0.00090806
   0.64956206  0.31631099  0.00089601
   0.10750355  0.22379519  0.94599363
   0.22287890  0.10723062  0.05337922
   0.10740576  0.54973050  0.95291834
   0.21588182  0.44190289  0.05126678
   0.11801508  0.89514648  0.94688319
   0.22659852  0.78446996  0.04961555
   0.44004881  0.21505687  0.94684029
   0.54751308  0.10393579  0.05142941
   0.45231688  0.55637656  0.94856864
   0.55733789  0.44989579  0.04950706
   0.44252538  0.89244983  0.95058645
   0.55972150  0.77491704  0.05306932
   0.78401428  0.22605530  0.94880408
   0.89243348  0.11629495  0.05401971
   0.77340387  0.55778825  0.95044506
   0.89234125  0.44225547  0.04697967
   0.77693296  0.88422331  0.94661178
   0.88186881  0.77702313  0.05308023
unknown system                          
           1
     8.296673    4.777508    0.000000
    -8.308851    4.798605    0.000000
     0.000000    0.000000   30.000000
   V    Mo   W    S 
   3   3   3  18
Direct configuration=    19
   1.00019866  0.30835556  0.00001073
   0.67363794  0.68625722 -0.00026895
   0.32617834  0.01274153  0.00025079
   0.67794020 -0.00209285 -0.00024131
   0.32245319  0.32015549  0.00023972
  -0.00022272  0.00309691 -0.00001009
   0.00035898  0.69039207  0.00002976
   0.35068059  0.66576892 -0.00093849
   0.64826957  0.31486912  0.00092666
   0.10756557  0.22363588  0.94588394
   0.22262980  0.10724038  0.05351001
   0.10734581  0.54983114  0.95332350
   0.21583742  0.44190522  0.05122495
   0.11821266  0.89557279  0.94668333
   0.22664140  0.78450576  0.04943057
   0.43987066  0.21496059  0.94670662
   0.54707694  0.10331371  0.05144954
   0.45275166  0.55618650  0.94853819
   0.55738869  0.44996045  0.04929419
   0.44246158  0.89245429  0.95081444
   0.55988330  0.77499519  0.05319986
   0.78405977  0.22609961  0.94885726
   0.89237249  0.11607665  0.05412999
   0.77338225  0.55777883  0.95062994
   0.89239358  0.44242075  0.04656651
   0.77718053  0.88447570  0.94647346
   0.88166561  0.77725704  0.05328478
unknown system                          
           1
     8.316578    4.788433    0.000000
    -8.327981    4.808179    0.000000
     0.000000    0.000000   30.000000
   V    Mo   W    S 
   3   3   3  18
Direct configuration=    20
   1.00036658  0.30318988  0.00002668
   0.67828519  0.69424952 -0.00027244
   0.32163449  0.01596166  0.00024039
   0.68007072 -0.00378954 -0.00016611
   0.32044030  0.31685498  0.00015385
  -0.00048262  0.00217795 -0.00001209
   0.00021899  0.69737048  0.00006264
   0.35682496  0.66457991 -0.00106135
   0.64219481  0.30803122  0.00104347
   0.10804236  0.22285548  0.94536793
   0.22108239  0.10738915  0.05420622
   0.10728234  0.55051778  0.95537247
   0.21574372  0.44182018  0.05096451
   0.11904938  0.89784130  0.94572900
   0.22685371  0.78465507  0.04845075
   0.43889584  0.21450663  0.94598621
   0.54464349  0.10003238  0.05151588
   0.45526195  0.55533895  0.94845916
   0.55787670  0.45037360  0.04811052
   0.44196159  0.89229210  0.95203863
   0.56082978  0.77540823  0.05385020
   0.78412018  0.22613643  0.94918376
   0.89196548  0.11485954  0.05463692
   0.77323254  0.55774881  0.95162802
   0.89240993  0.44317337  0.04447947
   0.77864919  0.88597581  0.94580987
   0.88076046  0.77866361  0.05419534
unknown system                          
           1
     8.308417    4.784982    0.000000
    -8.319237    4.803723    0.000000
     0.000000    0.000000   30.000000
   V    Mo   W    S 
   3   3   3  18
Direct configuration=    21
   1.00041228  0.30324677  0.00001430
   0.67883179  0.69476586 -0.00019641
   0.32103846  0.01613984  0.00015776
   0.68018012 -0.00418599 -0.00008749
   0.32020730  0.31605952  0.00010025
  -0.00025973  0.00268876 -0.00001913
   0.00033343  0.69780008  0.00001603
   0.35729793  0.66444854 -0.00094620
   0.64148814  0.30724171  0.00094885
   0.10819980  0.22276483  0.94524645
   0.22058708  0.10749036  0.05438357
   0.10754218  0.55074652  0.95564633
   0.21585636  0.44173312  0.05094128
   0.11907575  0.89830807  0.94562216
   0.22692118  0.78470399  0.04829777
   0.43865954  0.21437172  0.94582393
   0.54385023  0.09913156  0.05155275
   0.45612576  0.55519776  0.94836585
   0.55818603  0.45065830  0.04790166
   0.44163957  0.89222776  0.95226729
   0.56105722  0.77554563  0.05406830
   0.78403956  0.22588847  0.94922528
   0.89174166  0.11458456  0.05476984
   0.77317516  0.55775714  0.95176209
   0.89217917  0.44313928  0.04421981
   0.77919850  0.88660519  0.94554306
   0.88064999  0.77915509  0.05437450
unknown system                          
           1
     8.313385    4.788441    0.000000
    -8.323771    4.806429    0.000000
     0.000000    0.000000   30.000000
   V    Mo   W    S 
   3   3   3  18
Direct configuration=    22
   1.00044319  0.30297520  0.00002367
   0.67935847  0.69559956 -0.00019120
   0.32054740  0.01642104  0.00015006
   0.68037969 -0.00453255 -0.00007339
   0.32001534  0.31557985  0.00006606
  -0.00028809  0.00279792 -0.00001746
   0.00025706  0.69843060  0.00004147
   0.35804694  0.66423087 -0.00095178
   0.64080467  0.30640362  0.00095114
   0.10832181  0.22276818  0.94522544
   0.22031759  0.10755076  0.05442990
   0.10774458  0.55095554  0.95588280
   0.21595782  0.44166306  0.05087816
   0.11902609  0.89855736  0.94557916
   0.22689415  0.78468387  0.04814193
   0.43852592  0.21428029  0.94574715
   0.54342351  0.09875364  0.05148245
   0.45652006  0.55524288  0.94844528
   0.55834420  0.45070405  0.04768585
   0.44146278  0.89209944  0.95249096
   0.56116987  0.77556432  0.05413812
   0.78392690  0.22572717  0.94930267
   0.89163889  0.11448227  0.05478316
   0.77320696  0.55776499  0.95190761
   0.89197339  0.44313347  0.04397509
   0.77945544  0.88692867  0.94551491
   0.88073982  0.77944839  0.05439068
unknown system                          
           1
     8.324452    4.796133    0.000000
    -8.333677    4.812110    0.000000
     0.000000    0.000000   30.000000
   V    Mo   W    S 
   3   3   3  18
Direct configuration=    23
   1.00047687  0.30274409  0.00003015
   0.67992664  0.69642540 -0.00017365
   0.31998506  0.01667816  0.00012586
   0.68059069 -0.00488758 -0.00003622
   0.31978292  0.31501746  0.00002313
  -0.00027132  0.00305954 -0.00001957
   0.00022068  0.69903553  0.00004587
   0.35876903  0.66400375 -0.00089885
   0.64010329  0.30553917  0.00090455
   0.10845636  0.22282655  0.94516661
   0.21998955  0.10761782  0.05452360
   0.10798904  0.55117354  0.95611348
   0.21606889  0.44156041  0.05084059
   0.11897029  0.89886317  0.94549988
   0.22689771  0.78465396  0.04800439
   0.43836257  0.21414347  0.94561382
   0.54284055  0.09817594  0.05145328
   0.45708725  0.55524074  0.94846922
   0.55855475  0.45082885  0.04747017
   0.44122896  0.89199760  0.95271899
   0.56131725  0.77558787  0.05426827
   0.78381766  0.22551985  0.94935589
   0.89150008  0.11441075  0.05483274
   0.77322054  0.55774365  0.95203182
   0.89173128  0.44309264  0.04374115
   0.77978762  0.88733367  0.94542700
   0.88081025  0.77982848  0.05446774
unknown system                          
           1
     8.334692    4.803928    0.000000
    -8.342043    4.816659    0.000000
     0.000000    0.000000   30.000000
   V    Mo   W    S 
   3   3   3  18
Direct configuration=    24
   1.00060377  0.30208660  0.00004342
   0.68187367  0.69963163 -0.00006729
   0.31814417  0.01767882  0.00001376
   0.68111214 -0.00644074  0.00012239
   0.31923639  0.31332732 -0.00012976
  -0.00058827  0.00384120 -0.00002137
  -0.00009792  0.70106407  0.00002015
   0.36152970  0.66318466 -0.00068627
   0.63756217  0.30233957  0.00072219
   0.10897752  0.22321033  0.94499452
   0.21887936  0.10794993  0.05479255
   0.10906964  0.55210464  0.95696058
   0.21653665  0.44115571  0.05069160
   0.11860148  0.89980514  0.94527815
   0.22675419  0.78429898  0.04748549
   0.43782017  0.21364679  0.94518384
   0.54088920  0.09632487  0.05128936
   0.45919616  0.55529202  0.94860251
   0.55937922  0.45123833  0.04658656
   0.44044368  0.89144785  0.95360169