   27   27  100    1
  0.9710400E+02  0.1002848E-08  0.1002848E-08  0.3000000E-08  0.5000000E-15
  1.000000000000000E-004
  CAR 
 unknown system                          
    159     34    120
 
  0.0000000E+00  0.0000000E+00  0.0000000E+00  0.1562500E-01
    1      -17.825931   1.000000
    2      -16.765866   1.000000
    3      -16.638424   1.000000
    4      -16.619868   1.000000
    5      -16.581539   1.000000
    6      -16.488735   1.000000
    7      -16.420892   1.000000
    8      -16.239526   1.000000
    9      -16.133902   1.000000
   10      -16.118236   1.000000
   11      -16.099449   1.000000
   12      -15.954135   1.000000
   13      -15.880900   1.000000
   14      -15.763418   1.000000
   15      -15.607065   1.000000
   16      -15.400153   1.000000
   17      -15.388204   1.000000
   18      -15.180105   1.000000
   19       -9.351086   1.000000
   20       -9.026311   1.000000
   21       -8.974556   1.000000
   22       -8.918653   1.000000
   23       -8.746971   1.000000
   24       -8.667326   1.000000
   25       -8.601282   1.000000
   26       -8.586938   1.000000
   27       -8.532553   1.000000
   28       -8.503195   1.000000
   29       -8.466141   1.000000
   30       -8.443365   1.000000
   31       -8.341935   1.000000
   32       -8.123985   1.000000
   33       -8.075867   1.000000
   34       -7.993631   1.000000
   35       -7.808183   1.000000
   36       -7.761106   1.000000
   37       -7.691233   1.000000
   38       -7.591371   1.000000
   39       -7.486048   1.000000
   40       -7.409973   1.000000
   41       -7.352085   1.000000
   42       -7.219421   1.000000
   43       -7.084372   1.000000
   44       -6.882338   1.000000
   45       -6.812165   1.000000
   46       -6.791316   1.000000
   47       -6.776360   1.000000
   48       -6.648665   1.000000
   49       -6.538083   1.000000
   50       -6.497276   1.000000
   51       -6.412634   1.000000
   52       -6.352494   1.000000
   53       -6.306726   1.000000
   54       -6.251334   1.000000
   55       -6.218487   1.000000
   56       -6.159701   1.000000
   57       -6.049510   1.000000
   58       -5.973681   1.000000
   59       -5.837996   1.000000
   60       -5.541797   1.000000
   61       -5.404261   1.000000
   62       -5.323725   1.000000
   63       -5.262824   1.000000
   64       -5.214586   1.000000
   65       -5.096022   1.000000
   66       -4.997720   1.000000
   67       -4.964123   1.000000
   68       -4.836118   1.000000
   69       -4.816695   1.000000
   70       -4.694735   1.000000
   71       -4.667075   1.000000
   72       -4.625648   1.000000
   73       -4.547596   1.000000
   74       -4.371027   1.000000
   75       -4.074915   1.000000
   76       -3.983811   0.999997
   77       -3.845520   0.999792
   78       -3.578299   0.949522
   79       -3.506651   0.871521
   80       -3.452675   0.773958
   81       -3.209641   0.166881
   82       -2.950106   0.002541
   83       -2.837980   0.000162
   84       -2.706412   0.000003
   85       -2.562217   0.000000
   86       -2.403337   0.000000
   87       -2.380908   0.000000
   88       -2.300540   0.000000
   89       -2.227719   0.000000
   90       -2.171627   0.000000
   91       -1.709026   0.000000
   92       -1.532297   0.000000
   93       -1.453631   0.000000
   94       -1.268634   0.000000
   95       -1.134350   0.000000
   96       -1.050097   0.000000
   97       -0.957781   0.000000
   98       -0.896585   0.000000
   99       -0.716644   0.000000
  100       -0.670680   0.000000
  101       -0.587758   0.000000
  102       -0.522213   0.000000
  103       -0.503982   0.000000
  104       -0.350716   0.000000
  105       -0.228488   0.000000
  106       -0.173575   0.000000
  107       -0.110861   0.000000
  108       -0.026902   0.000000
  109        0.034652   0.000000
  110        0.208886   0.000000
  111        0.344775   0.000000
  112        0.642698   0.000000
  113        0.771007   0.000000
  114        0.863855   0.000000
  115        0.913395   0.000000
  116        0.957849   0.000000
  117        1.273071   0.000000
  118        1.645998   0.000000
  119        1.835082   0.000000
  120        2.153369   0.000000
 
  0.1250000E+00  0.2775558E-16  0.0000000E+00  0.3125000E-01
    1      -17.802235   1.000000
    2      -16.785159   1.000000
    3      -16.748042   1.000000
    4      -16.646171   1.000000
    5      -16.587476   1.000000
    6      -16.429663   1.000000
    7      -16.409713   1.000000
    8      -16.263292   1.000000
    9      -16.138138   1.000000
   10      -16.094999   1.000000
   11      -16.002913   1.000000
   12      -15.956928   1.000000
   13      -15.868257   1.000000
   14      -15.756166   1.000000
   15      -15.614238   1.000000
   16      -15.415746   1.000000
   17      -15.391076   1.000000
   18      -15.185400   1.000000
   19       -9.348762   1.000000
   20       -9.175472   1.000000
   21       -9.027759   1.000000
   22       -9.004517   1.000000
   23       -8.789401   1.000000
   24       -8.722511   1.000000
   25       -8.648425   1.000000
   26       -8.583011   1.000000
   27       -8.546122   1.000000
   28       -8.504596   1.000000
   29       -8.406448   1.000000
   30       -8.273730   1.000000
   31       -8.237564   1.000000
   32       -8.074894   1.000000
   33       -8.006536   1.000000
   34       -7.894643   1.000000
   35       -7.798087   1.000000
   36       -7.749625   1.000000
   37       -7.665298   1.000000
   38       -7.579797   1.000000
   39       -7.482469   1.000000
   40       -7.460365   1.000000
   41       -7.303896   1.000000
   42       -7.219861   1.000000
   43       -7.137968   1.000000
   44       -6.945322   1.000000
   45       -6.839199   1.000000
   46       -6.787893   1.000000
   47       -6.732743   1.000000
   48       -6.683045   1.000000
   49       -6.504398   1.000000
   50       -6.452578   1.000000
   51       -6.424232   1.000000
   52       -6.399079   1.000000
   53       -6.332268   1.000000
   54       -6.255627   1.000000
   55       -6.218243   1.000000
   56       -6.109420   1.000000
   57       -6.043339   1.000000
   58       -5.961590   1.000000
   59       -5.796818   1.000000
   60       -5.516105   1.000000
   61       -5.446828   1.000000
   62       -5.408409   1.000000
   63       -5.323502   1.000000
   64       -5.253957   1.000000
   65       -5.077393   1.000000
   66       -5.031154   1.000000
   67       -4.940806   1.000000
   68       -4.886444   1.000000
   69       -4.813113   1.000000
   70       -4.731090   1.000000
   71       -4.674476   1.000000
   72       -4.603942   1.000000
   73       -4.454850   1.000000
   74       -4.281361   1.000000
   75       -4.072462   1.000000
   76       -3.948095   0.999990
   77       -3.861431   0.999865
   78       -3.695877   0.993275
   79       -3.631998   0.978306
   80       -3.407939   0.668441
   81       -3.114784   0.050783
   82       -2.937189   0.001907
   83       -2.795890   0.000050
   84       -2.710008   0.000003
   85       -2.551495   0.000000
   86       -2.391936   0.000000
   87       -2.366719   0.000000
   88       -2.296240   0.000000
   89       -2.220612   0.000000
   90       -2.138667   0.000000
   91       -1.714030   0.000000
   92       -1.534015   0.000000
   93       -1.444686   0.000000
   94       -1.274169   0.000000
   95       -1.125566   0.000000
   96       -1.052932   0.000000
   97       -0.961649   0.000000
   98       -0.908295   0.000000
   99       -0.776695   0.000000
  100       -0.726080   0.000000
  101       -0.623744   0.000000
  102       -0.608462   0.000000
  103       -0.535810   0.000000
  104       -0.408205   0.000000
  105       -0.371148   0.000000
  106       -0.143023   0.000000
  107       -0.091541   0.000000
  108       -0.006395   0.000000
  109        0.096986   0.000000
  110        0.203530   0.000000
  111        0.407997   0.000000
  112        0.523111   0.000000
  113        0.746823   0.000000
  114        0.879699   0.000000
  115        0.938718   0.000000
  116        1.048227   0.000000
  117        1.282260   0.000000
  118        1.688872   0.000000
  119        1.875347   0.000000
  120        2.188384   0.000000
 
  0.2500000E+00  0.5551115E-16  0.0000000E+00  0.3125000E-01
    1      -17.733534   1.000000
    2      -16.977813   1.000000
    3      -16.750019   1.000000
    4      -16.701792   1.000000
    5      -16.622151   1.000000
    6      -16.426149   1.000000
    7      -16.367929   1.000000
    8      -16.223226   1.000000
    9      -16.127534   1.000000
   10      -16.030539   1.000000
   11      -15.977487   1.000000
   12      -15.903544   1.000000
   13      -15.806849   1.000000
   14      -15.744380   1.000000
   15      -15.627062   1.000000
   16      -15.444250   1.000000
   17      -15.405109   1.000000
   18      -15.200057   1.000000
   19       -9.516492   1.000000
   20       -9.244923   1.000000
   21       -9.169358   1.000000
   22       -9.104463   1.000000
   23       -8.896277   1.000000
   24       -8.810629   1.000000
   25       -8.604106   1.000000
   26       -8.567342   1.000000
   27       -8.510831   1.000000
   28       -8.410586   1.000000
   29       -8.321683   1.000000
   30       -8.201392   1.000000
   31       -8.137639   1.000000
   32       -8.064369   1.000000
   33       -7.887055   1.000000
   34       -7.860249   1.000000
   35       -7.739175   1.000000
   36       -7.646290   1.000000
   37       -7.605701   1.000000
   38       -7.524952   1.000000
   39       -7.451344   1.000000
   40       -7.391795   1.000000
   41       -7.309848   1.000000
   42       -7.217939   1.000000
   43       -7.123144   1.000000
   44       -7.011480   1.000000
   45       -6.872662   1.000000
   46       -6.782262   1.000000
   47       -6.727391   1.000000
   48       -6.691338   1.000000
   49       -6.554075   1.000000
   50       -6.455281   1.000000
   51       -6.420754   1.000000
   52       -6.374890   1.000000
   53       -6.323344   1.000000
   54       -6.228347   1.000000
   55       -6.169997   1.000000
   56       -6.101069   1.000000
   57       -5.983070   1.000000
   58       -5.932615   1.000000
   59       -5.751180   1.000000
   60       -5.680054   1.000000
   61       -5.609906   1.000000
   62       -5.472679   1.000000
   63       -5.425953   1.000000
   64       -5.321112   1.000000
   65       -5.187882   1.000000
   66       -5.007264   1.000000
   67       -4.920497   1.000000
   68       -4.891129   1.000000
   69       -4.785915   1.000000
   70       -4.724528   1.000000
   71       -4.633340   1.000000
   72       -4.528850   1.000000
   73       -4.322909   1.000000
   74       -4.274306   1.000000
   75       -4.123539   1.000000
   76       -3.961614   0.999993
   77       -3.910269   0.999967
   78       -3.823987   0.999634
   79       -3.632745   0.978578
   80       -3.388640   0.617587
   81       -3.033480   0.013476
   82       -2.883091   0.000527
   83       -2.750208   0.000012
   84       -2.670616   0.000001
   85       -2.532174   0.000000
   86       -2.389144   0.000000
   87       -2.346623   0.000000
   88       -2.253664   0.000000
   89       -2.192648   0.000000
   90       -2.044392   0.000000
   91       -1.719063   0.000000
   92       -1.533100   0.000000
   93       -1.435851   0.000000
   94       -1.295214   0.000000
   95       -1.123629   0.000000
   96       -1.095139   0.000000
   97       -0.992622   0.000000
   98       -0.949855   0.000000
   99       -0.915895   0.000000
  100       -0.821093   0.000000
  101       -0.753477   0.000000
  102       -0.674077   0.000000
  103       -0.641654   0.000000
  104       -0.522122   0.000000
  105       -0.434999   0.000000
  106       -0.179138   0.000000
  107       -0.126888   0.000000
  108       -0.074154   0.000000
  109        0.132706   0.000000
  110        0.267448   0.000000
  111        0.353003   0.000000
  112        0.531318   0.000000
  113        0.690222   0.000000
  114        0.902514   0.000000
  115        0.977490   0.000000
  116        1.222019   0.000000
  117        1.318227   0.000000
  118        1.809155   0.000000
  119        1.990671   0.000000
  120        2.292149   0.000000
 
  0.3750000E+00  0.0000000E+00  0.0000000E+00  0.3125000E-01
    1      -17.631572   1.000000
    2      -17.173516   1.000000
    3      -16.756626   1.000000
    4      -16.720238   1.000000
    5      -16.663239   1.000000
    6      -16.438546   1.000000
    7      -16.350023   1.000000
    8      -16.180089   1.000000
    9      -16.078677   1.000000
   10      -15.995296   1.000000
   11      -15.947821   1.000000
   12      -15.887517   1.000000
   13      -15.783554   1.000000
   14      -15.692232   1.000000
   15      -15.650443   1.000000
   16      -15.451697   1.000000
   17      -15.422644   1.000000
   18      -15.218849   1.000000
   19       -9.718444   1.000000
   20       -9.316312   1.000000
   21       -9.195366   1.000000
   22       -9.136061   1.000000
   23       -8.992419   1.000000
   24       -8.849833   1.000000
   25       -8.561082   1.000000
   26       -8.504355   1.000000
   27       -8.440059   1.000000
   28       -8.325023   1.000000
   29       -8.276400   1.000000
   30       -8.228296   1.000000
   31       -8.142766   1.000000
   32       -8.047624   1.000000
   33       -7.938616   1.000000
   34       -7.826207   1.000000
   35       -7.770866   1.000000
   36       -7.650073   1.000000
   37       -7.582292   1.000000
   38       -7.469480   1.000000
   39       -7.368808   1.000000
   40       -7.282219   1.000000
   41       -7.202884   1.000000
   42       -7.146753   1.000000
   43       -7.058109   1.000000
   44       -6.935690   1.000000
   45       -6.878406   1.000000
   46       -6.813488   1.000000
   47       -6.729293   1.000000
   48       -6.659789   1.000000
   49       -6.530848   1.000000
   50       -6.483763   1.000000
   51       -6.421186   1.000000
   52       -6.363835   1.000000
   53       -6.302289   1.000000
   54       -6.185338   1.000000
   55       -6.100696   1.000000
   56       -6.052514   1.000000
   57       -6.011491   1.000000
   58       -5.939748   1.000000
   59       -5.862367   1.000000
   60       -5.780969   1.000000
   61       -5.739504   1.000000
   62       -5.618366   1.000000
   63       -5.533940   1.000000
   64       -5.338668   1.000000
   65       -5.198149   1.000000
   66       -5.005991   1.000000
   67       -4.890958   1.000000
   68       -4.852035   1.000000
   69       -4.794827   1.000000
   70       -4.740087   1.000000
   71       -4.620047   1.000000
   72       -4.562611   1.000000
   73       -4.419411   1.000000
   74       -4.182918   1.000000
   75       -4.137230   1.000000
   76       -4.045393   1.000000
   77       -3.868732   0.999890
   78       -3.800675   0.999342
   79       -3.544243   0.919158
   80       -3.409005   0.671171
   81       -3.005004   0.007899
   82       -2.829508   0.000129
   83       -2.733572   0.000007
   84       -2.625447   0.000000
   85       -2.490610   0.000000
   86       -2.412420   0.000000
   87       -2.317887   0.000000
   88       -2.193809   0.000000
   89       -2.156188   0.000000
   90       -1.919909   0.000000
   91       -1.717810   0.000000
   92       -1.527116   0.000000
   93       -1.443832   0.000000
   94       -1.359384   0.000000
   95       -1.228115   0.000000
   96       -1.126847   0.000000
   97       -1.087038   0.000000
   98       -0.996791   0.000000
   99       -0.928456   0.000000
  100       -0.888584   0.000000
  101       -0.859560   0.000000
  102       -0.745518   0.000000
  103       -0.683857   0.000000
  104       -0.615848   0.000000
  105       -0.417653   0.000000
  106       -0.325426   0.000000
  107       -0.181844   0.000000
  108       -0.104650   0.000000
  109        0.092749   0.000000
  110        0.210517   0.000000
  111        0.370977   0.000000
  112        0.587311   0.000000
  113        0.657069   0.000000
  114        0.943157   0.000000
  115        1.020153   0.000000
  116        1.348984   0.000000
  117        1.372224   0.000000
  118        1.989954   0.000000
  119        2.169140   0.000000
  120        2.458449   0.000000
 
  0.5000000E+00  0.1110223E-15  0.0000000E+00  0.1562500E-01
    1      -17.559283   1.000000
    2      -17.279019   1.000000
    3      -16.767280   1.000000
    4      -16.711443   1.000000
    5      -16.684734   1.000000
    6      -16.445376   1.000000
    7      -16.343335   1.000000
    8      -16.175562   1.000000
    9      -16.019603   1.000000
   10      -16.000779   1.000000
   11      -15.948660   1.000000
   12      -15.876510   1.000000
   13      -15.749889   1.000000
   14      -15.728069   1.000000
   15      -15.637753   1.000000
   16      -15.454327   1.000000
   17      -15.420796   1.000000
   18      -15.228875   1.000000
   19       -9.793140   1.000000
   20       -9.355945   1.000000
   21       -9.217864   1.000000
   22       -9.116514   1.000000
   23       -9.018327   1.000000
   24       -8.856185   1.000000
   25       -8.533714   1.000000
   26       -8.501849   1.000000
   27       -8.411004   1.000000
   28       -8.325350   1.000000
   29       -8.261239   1.000000
   30       -8.159359   1.000000
   31       -8.144628   1.000000
   32       -8.040273   1.000000
   33       -7.979199   1.000000
   34       -7.886695   1.000000
   35       -7.800650   1.000000
   36       -7.704865   1.000000
   37       -7.547497   1.000000
   38       -7.436750   1.000000
   39       -7.341716   1.000000
   40       -7.275747   1.000000
   41       -7.136882   1.000000
   42       -7.064534   1.000000
   43       -7.004799   1.000000
   44       -6.929817   1.000000
   45       -6.860386   1.000000
   46       -6.744402   1.000000
   47       -6.648541   1.000000
   48       -6.644146   1.000000
   49       -6.571817   1.000000
   50       -6.498077   1.000000
   51       -6.417613   1.000000
   52       -6.386043   1.000000
   53       -6.337418   1.000000
   54       -6.221472   1.000000
   55       -6.170097   1.000000
   56       -6.045291   1.000000
   57       -5.982084   1.000000
   58       -5.912835   1.000000
   59       -5.857016   1.000000
   60       -5.834405   1.000000
   61       -5.739745   1.000000
   62       -5.594728   1.000000
   63       -5.548431   1.000000
   64       -5.347268   1.000000
   65       -5.296535   1.000000
   66       -5.097880   1.000000
   67       -4.891993   1.000000
   68       -4.866867   1.000000
   69       -4.826802   1.000000
   70       -4.714755   1.000000
   71       -4.606577   1.000000
   72       -4.553053   1.000000
   73       -4.400493   1.000000
   74       -4.229130   1.000000
   75       -4.135611   1.000000
   76       -4.025372   0.999999
   77       -3.833237   0.999712
   78       -3.779250   0.998898
   79       -3.506159   0.870790
   80       -3.426871   0.715486
   81       -2.996768   0.006722
   82       -2.813251   0.000082
   83       -2.726107   0.000006
   84       -2.614112   0.000000
   85       -2.470613   0.000000
   86       -2.413955   0.000000
   87       -2.307783   0.000000
   88       -2.164702   0.000000
   89       -2.138896   0.000000
   90       -1.852166   0.000000
   91       -1.721152   0.000000
   92       -1.522149   0.000000
   93       -1.460543   0.000000
   94       -1.404803   0.000000
   95       -1.260548   0.000000
   96       -1.193333   0.000000
   97       -1.100381   0.000000
   98       -0.998851   0.000000
   99       -0.971847   0.000000
  100       -0.896821   0.000000
  101       -0.873563   0.000000
  102       -0.768010   0.000000
  103       -0.679159   0.000000
  104       -0.660268   0.000000
  105       -0.406219   0.000000
  106       -0.397835   0.000000
  107       -0.209181   0.000000
  108       -0.119173   0.000000
  109        0.051778   0.000000
  110        0.201966   0.000000
  111        0.376554   0.000000
  112        0.607467   0.000000
  113        0.649476   0.000000
  114        0.957974   0.000000
  115        1.038946   0.000000
  116        1.383404   0.000000
  117        1.409878   0.000000
  118        2.190610   0.000000
  119        2.253315   0.000000
  120        2.391475   0.000000
 
  0.0000000E+00  0.1250000E+00  0.0000000E+00  0.3125000E-01
    1      -17.801914   1.000000
    2      -16.794306   1.000000
    3      -16.760073   1.000000
    4      -16.616940   1.000000
    5      -16.557731   1.000000
    6      -16.502139   1.000000
    7      -16.377050   1.000000
    8      -16.257325   1.000000
    9      -16.136525   1.000000
   10      -16.082400   1.000000
   11      -16.034401   1.000000
   12      -15.943341   1.000000
   13      -15.867437   1.000000
   14      -15.757049   1.000000
   15      -15.616731   1.000000
   16      -15.411218   1.000000
   17      -15.395884   1.000000
   18      -15.183254   1.000000
   19       -9.342987   1.000000
   20       -9.153042   1.000000
   21       -9.067985   1.000000
   22       -9.014525   1.000000
   23       -8.788386   1.000000
   24       -8.714234   1.000000
   25       -8.644675   1.000000
   26       -8.558659   1.000000
   27       -8.537485   1.000000
   28       -8.503156   1.000000
   29       -8.402763   1.000000
   30       -8.284956   1.000000
   31       -8.244157   1.000000
   32       -8.073317   1.000000
   33       -8.023356   1.000000
   34       -7.915823   1.000000
   35       -7.781831   1.000000
   36       -7.751119   1.000000
   37       -7.624929   1.000000
   38       -7.597515   1.000000
   39       -7.513393   1.000000
   40       -7.449055   1.000000
   41       -7.330273   1.000000
   42       -7.174735   1.000000
   43       -7.136219   1.000000
   44       -6.959486   1.000000
   45       -6.858544   1.000000
   46       -6.780097   1.000000
   47       -6.724621   1.000000
   48       -6.662234   1.000000
   49       -6.517702   1.000000
   50       -6.457828   1.000000
   51       -6.426607   1.000000
   52       -6.398061   1.000000
   53       -6.299990   1.000000
   54       -6.253416   1.000000
   55       -6.244962   1.000000
   56       -6.122153   1.000000
   57       -6.042417   1.000000
   58       -5.955096   1.000000
   59       -5.797315   1.000000
   60       -5.519233   1.000000
   61       -5.435129   1.000000
   62       -5.423494   1.000000
   63       -5.325262   1.000000
   64       -5.236848   1.000000
   65       -5.086104   1.000000
   66       -5.036271   1.000000
   67       -4.949266   1.000000
   68       -4.904730   1.000000
   69       -4.807354   1.000000
   70       -4.730556   1.000000
   71       -4.646688   1.000000
   72       -4.588282   1.000000
   73       -4.473439   1.000000
   74       -4.284283   1.000000
   75       -4.066782   1.000000
   76       -3.942460   0.999988
   77       -3.881512   0.999923
   78       -3.691243   0.992633
   79       -3.584961   0.954232
   80       -3.445188   0.757726
   81       -3.117869   0.053102
   82       -2.930183   0.001627
   83       -2.809205   0.000073
   84       -2.685801   0.000002
   85       -2.557852   0.000000
   86       -2.409421   0.000000
   87       -2.353566   0.000000
   88       -2.288711   0.000000
   89       -2.222970   0.000000
   90       -2.145023   0.000000
   91       -1.708552   0.000000
   92       -1.539770   0.000000
   93       -1.450423   0.000000
   94       -1.272409   0.000000
   95       -1.123300   0.000000
   96       -1.043125   0.000000
   97       -0.988366   0.000000
   98       -0.896750   0.000000
   99       -0.788296   0.000000
  100       -0.729508   0.000000
  101       -0.637425   0.000000
  102       -0.571157   0.000000
  103       -0.535770   0.000000
  104       -0.404919   0.000000
  105       -0.307591   0.000000
  106       -0.190155   0.000000
  107       -0.127460   0.000000
  108       -0.020938   0.000000
  109        0.145014   0.000000
  110        0.172807   0.000000
  111        0.394940   0.000000
  112        0.548725   0.000000
  113        0.714014   0.000000
  114        0.902719   0.000000
  115        0.950418   0.000000
  116        1.004324   0.000000
  117        1.318501   0.000000
  118        1.688844   0.000000
  119        1.875310   0.000000
  120        2.188256   0.000000
 
  0.1250000E+00  0.1250000E+00  0.0000000E+00  0.3125000E-01
    1      -17.756172   1.000000
    2      -16.896473   1.000000
    3      -16.794641   1.000000
    4      -16.738437   1.000000
    5      -16.501172   1.000000
    6      -16.441695   1.000000
    7      -16.382249   1.000000
    8      -16.269235   1.000000
    9      -16.110840   1.000000
   10      -16.040693   1.000000
   11      -15.972129   1.000000
   12      -15.927978   1.000000
   13      -15.834412   1.000000
   14      -15.757370   1.000000
   15      -15.629619   1.000000
   16      -15.435205   1.000000
   17      -15.401644   1.000000
   18      -15.187955   1.000000
   19       -9.391999   1.000000
   20       -9.289155   1.000000
   21       -9.193099   1.000000
   22       -9.116796   1.000000
   23       -8.827950   1.000000
   24       -8.699271   1.000000
   25       -8.620068   1.000000
   26       -8.567581   1.000000
   27       -8.514105   1.000000
   28       -8.454829   1.000000
   29       -8.315901   1.000000
   30       -8.257832   1.000000
   31       -8.121660   1.000000
   32       -8.044566   1.000000
   33       -8.038670   1.000000
   34       -7.834128   1.000000
   35       -7.762814   1.000000
   36       -7.700475   1.000000
   37       -7.580094   1.000000
   38       -7.563683   1.000000
   39       -7.471049   1.000000
   40       -7.365181   1.000000
   41       -7.334571   1.000000
   42       -7.234007   1.000000
   43       -7.108687   1.000000
   44       -6.995986   1.000000
   45       -6.855681   1.000000
   46       -6.818391   1.000000
   47       -6.697000   1.000000
   48       -6.673683   1.000000
   49       -6.528460   1.000000
   50       -6.493022   1.000000
   51       -6.391636   1.000000
   52       -6.366359   1.000000
   53       -6.323471   1.000000
   54       -6.259192   1.000000
   55       -6.231576   1.000000
   56       -6.088939   1.000000
   57       -6.046897   1.000000
   58       -5.925506   1.000000
   59       -5.784435   1.000000
   60       -5.593535   1.000000
   61       -5.576460   1.000000
   62       -5.442868   1.000000
   63       -5.345712   1.000000
   64       -5.305407   1.000000
   65       -5.109955   1.000000
   66       -5.039300   1.000000
   67       -4.993107   1.000000
   68       -4.932815   1.000000
   69       -4.795246   1.000000
   70       -4.687577   1.000000
   71       -4.632019   1.000000
   72       -4.555553   1.000000
   73       -4.378263   1.000000
   74       -4.191733   1.000000
   75       -4.119491   1.000000
   76       -4.009734   0.999999
   77       -3.868865   0.999890
   78       -3.763986   0.998428
   79       -3.638477   0.980575
   80       -3.456375   0.781747
   81       -3.025137   0.011567
   82       -2.874184   0.000421
   83       -2.775619   0.000027
   84       -2.653951   0.000000
   85       -2.535619   0.000000
   86       -2.386339   0.000000
   87       -2.343157   0.000000
   88       -2.278834   0.000000
   89       -2.200440   0.000000
   90       -2.103349   0.000000
   91       -1.705228   0.000000
   92       -1.546690   0.000000
   93       -1.428050   0.000000
   94       -1.298217   0.000000
   95       -1.113397   0.000000
   96       -1.060191   0.000000
   97       -1.007260   0.000000
   98       -0.930616   0.000000
   99       -0.896889   0.000000
  100       -0.822422   0.000000
  101       -0.729926   0.000000
  102       -0.651458   0.000000
  103       -0.596803   0.000000
  104       -0.454133   0.000000
  105       -0.396319   0.000000
  106       -0.187238   0.000000
  107       -0.124946   0.000000
  108       -0.036646   0.000000
  109        0.119666   0.000000
  110        0.198273   0.000000
  111        0.396882   0.000000
  112        0.517275   0.000000
  113        0.675899   0.000000
  114        0.919327   0.000000
  115        0.959713   0.000000
  116        1.155345   0.000000
  117        1.334383   0.000000
  118        1.769132   0.000000
  119        1.954232   0.000000
  120        2.257324   0.000000
 
  0.2500000E+00  0.1250000E+00  0.0000000E+00  0.3125000E-01
    1      -17.669788   1.000000
    2      -17.066057   1.000000
    3      -16.889042   1.000000
    4      -16.736944   1.000000
    5      -16.503169   1.000000
    6      -16.418655   1.000000
    7      -16.355302   1.000000
    8      -16.231604   1.000000
    9      -16.100321   1.000000
   10      -16.022776   1.000000
   11      -15.934906   1.000000
   12      -15.887920   1.000000
   13      -15.778884   1.000000
   14      -15.732594   1.000000
   15      -15.656445   1.000000
   16      -15.449506   1.000000
   17      -15.416264   1.000000
   18      -15.200891   1.000000
   19       -9.602448   1.000000
   20       -9.391743   1.000000
   21       -9.286805   1.000000
   22       -9.141756   1.000000
   23       -8.862354   1.000000
   24       -8.696539   1.000000
   25       -8.561793   1.000000
   26       -8.498860   1.000000
   27       -8.436812   1.000000
   28       -8.410714   1.000000
   29       -8.281328   1.000000
   30       -8.216596   1.000000
   31       -8.169339   1.000000
   32       -8.062711   1.000000
   33       -7.962746   1.000000
   34       -7.887609   1.000000
   35       -7.810215   1.000000
   36       -7.660743   1.000000
   37       -7.569848   1.000000
   38       -7.452002   1.000000
   39       -7.406030   1.000000
   40       -7.275574   1.000000
   41       -7.228366   1.000000
   42       -7.176476   1.000000
   43       -7.051409   1.000000
   44       -6.967231   1.000000
   45       -6.872960   1.000000
   46       -6.803366   1.000000
   47       -6.727699   1.000000