       N       E                     dE             d eps       ncg     rms          rms(c)
DAV:   1     0.112630711875E+04    0.11263E+04   -0.35977E+04  8160   0.577E+02
DAV:   2     0.254912328410E-01   -0.11263E+04   -0.10834E+04 11160   0.173E+02
DAV:   3    -0.199413022460E+03   -0.19944E+03   -0.19123E+03 10880   0.823E+01
DAV:   4    -0.208917433457E+03   -0.95044E+01   -0.91938E+01 12160   0.264E+01
DAV:   5    -0.209246485966E+03   -0.32905E+00   -0.32806E+00 11520   0.359E+00    0.274E+01
DAV:   6    -0.236614715016E+03   -0.27368E+02   -0.10829E+02 12680   0.603E+01    0.592E+01
DAV:   7    -0.196792658777E+03    0.39822E+02   -0.17646E+02 13120   0.152E+02    0.205E+01
DAV:   8    -0.190231689807E+03    0.65610E+01   -0.21357E+01 11760   0.135E+01    0.139E+01
DAV:   9    -0.188313287419E+03    0.19184E+01   -0.35977E+00 11960   0.636E+00    0.941E+00
DAV:  10    -0.187164051963E+03    0.11492E+01   -0.18163E+00 13080   0.749E+00    0.373E+00
DAV:  11    -0.187003054182E+03    0.16100E+00   -0.73147E-01 12640   0.270E+00    0.226E+00
DAV:  12    -0.187101024507E+03   -0.97970E-01   -0.54625E-01 13000   0.385E+00    0.471E+00
DAV:  13    -0.186940511338E+03    0.16051E+00   -0.53825E-01 13160   0.388E+00    0.199E+00
DAV:  14    -0.186900997672E+03    0.39514E-01   -0.97533E-02 13160   0.161E+00    0.848E-01
DAV:  15    -0.186898408952E+03    0.25887E-02   -0.42929E-02 12920   0.112E+00    0.101E+00
DAV:  16    -0.186891818575E+03    0.65904E-02   -0.18835E-02 12680   0.766E-01    0.515E-01
DAV:  17    -0.186889377156E+03    0.24414E-02   -0.67322E-03 12920   0.314E-01    0.235E-01
DAV:  18    -0.186888407656E+03    0.96950E-03   -0.38023E-03 12680   0.279E-01    0.207E-01
DAV:  19    -0.186888056053E+03    0.35160E-03   -0.10721E-03 11560   0.163E-01    0.481E-02
DAV:  20    -0.186888807145E+03   -0.75109E-03   -0.72354E-04  9040   0.594E-02    0.530E-02
DAV:  21    -0.186889364303E+03   -0.55716E-03   -0.23669E-04  8360   0.456E-02    0.288E-02
DAV:  22    -0.186890525612E+03   -0.11613E-02   -0.17807E-04  7520   0.394E-02    0.339E-02
DAV:  23    -0.186891750595E+03   -0.12250E-02   -0.13050E-04  7560   0.410E-02    0.126E-02
DAV:  24    -0.186892343232E+03   -0.59264E-03   -0.26236E-05  6800   0.132E-02    0.647E-03
DAV:  25    -0.186892729309E+03   -0.38608E-03   -0.15157E-05  5560   0.977E-03    0.421E-03
DAV:  26    -0.186892969851E+03   -0.24054E-03   -0.91180E-06  6840   0.695E-03    0.157E-03
DAV:  27    -0.186893069632E+03   -0.99781E-04   -0.35296E-06  7280   0.415E-03
   1 F= -.18689307E+03 E0= -.18672237E+03  d E =-.186893E+03
       N       E                     dE             d eps       ncg     rms          rms(c)
DAV:   1    -0.187533457847E+03   -0.64049E+00   -0.27207E+02  8160   0.351E+01    0.463E+00
DAV:   2    -0.189427961212E+03   -0.18945E+01   -0.20152E+01 12280   0.153E+01    0.879E+00
DAV:   3    -0.189395178208E+03    0.32783E-01   -0.40305E+00 12400   0.120E+01    0.665E+00
DAV:   4    -0.188788015780E+03    0.60716E+00   -0.61024E-01 12480   0.466E+00    0.174E+00
DAV:   5    -0.188895480761E+03   -0.10746E+00   -0.46317E-01 12040   0.334E+00    0.529E+00
DAV:   6    -0.188752746380E+03    0.14273E+00   -0.73620E-01 12840   0.427E+00    0.200E+00
DAV:   7    -0.188722624015E+03    0.30122E-01   -0.11713E-01 11880   0.145E+00    0.119E+00
DAV:   8    -0.188711789940E+03    0.10834E-01   -0.57780E-02 13240   0.131E+00    0.116E+00
DAV:   9    -0.188701944355E+03    0.98456E-02   -0.19232E-02 11800   0.778E-01    0.326E-01
DAV:  10    -0.188701309885E+03    0.63447E-03   -0.35412E-03 11720   0.207E-01    0.213E-01
DAV:  11    -0.188700732602E+03    0.57728E-03   -0.24345E-03 12400   0.180E-01    0.107E-01
DAV:  12    -0.188700851474E+03   -0.11887E-03   -0.90544E-04 11360   0.953E-02    0.853E-02
DAV:  13    -0.188700783675E+03    0.67799E-04   -0.23746E-04  7960   0.558E-02
   2 F= -.18870078E+03 E0= -.18856175E+03  d E =-.180771E+01
       N       E                     dE             d eps       ncg     rms          rms(c)
DAV:   1    -0.190619749250E+03   -0.19189E+01   -0.31250E+01  8960   0.142E+01    0.442E+00
DAV:   2    -0.190566063900E+03    0.53685E-01   -0.27483E+00 11200   0.942E+00    0.719E+00
DAV:   3    -0.190105934803E+03    0.46013E+00   -0.13295E+00 12360   0.857E+00    0.420E+00
DAV:   4    -0.189897280392E+03    0.20865E+00   -0.72167E-01 12760   0.424E+00    0.251E+00
DAV:   5    -0.189876442792E+03    0.20838E-01   -0.38040E-01 12280   0.315E+00    0.283E+00
DAV:   6    -0.189799594686E+03    0.76848E-01   -0.15020E-01 12640   0.248E+00    0.711E-01
DAV:   7    -0.189793162278E+03    0.64324E-02   -0.13819E-02 11560   0.518E-01    0.207E-01
DAV:   8    -0.189793591214E+03   -0.42894E-03   -0.35015E-03 12040   0.275E-01    0.283E-01
DAV:   9    -0.189793206571E+03    0.38464E-03   -0.18037E-03 10680   0.280E-01    0.159E-01
DAV:  10    -0.189793399276E+03   -0.19270E-03   -0.77972E-04  9680   0.133E-01    0.107E-01
DAV:  11    -0.189793198828E+03    0.20045E-03   -0.35349E-04  8760   0.686E-02    0.218E-02
DAV:  12    -0.189793215984E+03   -0.17156E-04   -0.59162E-05  7160   0.249E-02
   3 F= -.18979322E+03 E0= -.18967478E+03  d E =-.109243E+01
       N       E                     dE             d eps       ncg     rms          rms(c)
DAV:   1    -0.191372489768E+03   -0.15793E+01   -0.78062E+01  8160   0.201E+01    0.460E+00
DAV:   2    -0.191206269728E+03    0.16622E+00   -0.54114E+00 13200   0.783E+00    0.472E+00
DAV:   3    -0.191316009848E+03   -0.10974E+00   -0.16077E+00 12200   0.911E+00    0.653E+00
DAV:   4    -0.190941965387E+03    0.37404E+00   -0.13737E+00 12440   0.753E+00    0.301E+00
DAV:   5    -0.190897829762E+03    0.44136E-01   -0.45590E-01 12560   0.405E+00    0.295E+00
DAV:   6    -0.190806364140E+03    0.91466E-01   -0.21432E-01 12280   0.321E+00    0.123E+00
DAV:   7    -0.190792324649E+03    0.14039E-01   -0.47019E-02 12720   0.112E+00    0.438E-01
DAV:   8    -0.190791604465E+03    0.72018E-03   -0.10603E-02 11440   0.594E-01    0.506E-01
DAV:   9    -0.190789424922E+03    0.21795E-02   -0.43102E-03 11320   0.449E-01    0.149E-01
DAV:  10    -0.190789691578E+03   -0.26666E-03   -0.12514E-03 11360   0.134E-01    0.921E-02
DAV:  11    -0.190789570449E+03    0.12113E-03   -0.48202E-04  9720   0.803E-02    0.450E-02
DAV:  12    -0.190789567512E+03    0.29370E-05   -0.10349E-04  7000   0.395E-02
   4 F= -.19078957E+03 E0= -.19068462E+03  d E =-.996352E+00
       N       E                     dE             d eps       ncg     rms          rms(c)
DAV:   1    -0.192094986042E+03   -0.13054E+01   -0.16083E+02  8160   0.283E+01    0.557E+00
DAV:   2    -0.191861949162E+03    0.23304E+00   -0.92143E+00 11440   0.806E+00    0.388E+00
DAV:   3    -0.192062386227E+03   -0.20044E+00   -0.20615E+00 11200   0.869E+00    0.805E+00
DAV:   4    -0.191747459846E+03    0.31493E+00   -0.28794E+00 11480   0.107E+01    0.445E+00
DAV:   5    -0.191572496462E+03    0.17496E+00   -0.74123E-01 12360   0.548E+00    0.321E+00
DAV:   6    -0.191447369865E+03    0.12513E+00   -0.27386E-01 12280   0.375E+00    0.126E+00
DAV:   7    -0.191433141903E+03    0.14228E-01   -0.61899E-02 12280   0.131E+00    0.511E-01
DAV:   8    -0.191428980941E+03    0.41610E-02   -0.10458E-02 10720   0.482E-01    0.239E-01
DAV:   9    -0.191430386229E+03   -0.14053E-02   -0.51560E-03 12680   0.490E-01    0.423E-01
DAV:  10    -0.191428891609E+03    0.14946E-02   -0.37251E-03 11200   0.379E-01    0.640E-02
DAV:  11    -0.191428960656E+03   -0.69046E-04   -0.37687E-04  9560   0.723E-02
   5 F= -.19142896E+03 E0= -.19132354E+03  d E =-.639393E+00
       N       E                     dE             d eps       ncg     rms          rms(c)
DAV:   1    -0.191477974566E+03   -0.49083E-01   -0.40548E+00  8160   0.426E+00    0.591E-01
DAV:   2    -0.191530825032E+03   -0.52850E-01   -0.24775E-01 13280   0.268E+00    0.199E+00
DAV:   3    -0.191489048339E+03    0.41777E-01   -0.88715E-02 12440   0.209E+00    0.383E-01
DAV:   4    -0.191490629980E+03   -0.15816E-02   -0.12329E-02 11400   0.698E-01    0.588E-01
DAV:   5    -0.191487181962E+03    0.34480E-02   -0.74184E-03 10280   0.570E-01    0.176E-01
DAV:   6    -0.191487164976E+03    0.16987E-04   -0.17292E-03 10440   0.171E-01    0.126E-01
DAV:   7    -0.191486870249E+03    0.29473E-03   -0.92109E-04 10200   0.126E-01    0.716E-02
DAV:   8    -0.191486868707E+03    0.15418E-05   -0.29177E-04  7840   0.111E-01
   6 F= -.19148687E+03 E0= -.19137910E+03  d E =-.579081E-01
       N       E                     dE             d eps       ncg     rms          rms(c)
DAV:   1    -0.191539974832E+03   -0.53105E-01   -0.47648E+00  8160   0.462E+00    0.579E-01
DAV:   2    -0.191575062304E+03   -0.35087E-01   -0.17878E-01 13600   0.204E+00    0.161E+00
DAV:   3    -0.191546896825E+03    0.28165E-01   -0.68963E-02 12440   0.187E+00    0.435E-01
DAV:   4    -0.191546565479E+03    0.33135E-03   -0.90441E-03 11080   0.549E-01    0.452E-01
DAV:   5    -0.191545115275E+03    0.14502E-02   -0.71829E-03 10720   0.554E-01    0.286E-01
DAV:   6    -0.191544482488E+03    0.63279E-03   -0.24924E-03 10000   0.268E-01    0.115E-01
DAV:   7    -0.191544314260E+03    0.16823E-03   -0.78209E-04 10440   0.116E-01    0.630E-02
DAV:   8    -0.191544327017E+03   -0.12756E-04   -0.29916E-04  8320   0.113E-01
   7 F= -.19154433E+03 E0= -.19143468E+03  d E =-.574583E-01
       N       E                     dE             d eps       ncg     rms          rms(c)
DAV:   1    -0.191550099238E+03   -0.57850E-02   -0.65363E-02  8160   0.563E-01    0.975E-02
DAV:   2    -0.191550482314E+03   -0.38308E-03   -0.35104E-03 11520   0.262E-01    0.193E-01
DAV:   3    -0.191550122162E+03    0.36015E-03   -0.11576E-03 10240   0.245E-01    0.800E-02
DAV:   4    -0.191550093947E+03    0.28215E-04   -0.27798E-04  6200   0.106E-01
   8 F= -.19155009E+03 E0= -.19144048E+03  d E =-.576693E-02
       N       E                     dE             d eps       ncg     rms          rms(c)
DAV:   1    -0.191529772050E+03    0.20350E-01   -0.66667E+00  8160   0.576E+00    0.119E+00
DAV:   2    -0.191560814211E+03   -0.31042E-01   -0.43933E-01 12720   0.306E+00    0.209E+00
DAV:   3    -0.191518497914E+03    0.42316E-01   -0.15416E-01 12280   0.285E+00    0.107E+00
DAV:   4    -0.191515282692E+03    0.32152E-02   -0.71985E-02 11560   0.159E+00    0.122E+00
DAV:   5    -0.191506686041E+03    0.85967E-02   -0.62692E-02 10760   0.154E+00    0.771E-01
DAV:   6    -0.191499041387E+03    0.76447E-02   -0.17278E-02 10280   0.726E-01    0.144E-01
DAV:   7    -0.191499121448E+03   -0.80061E-04   -0.31785E-03 11920   0.246E-01    0.164E-01
DAV:   8    -0.191499041915E+03    0.79533E-04   -0.15227E-03 10560   0.260E-01    0.159E-01
DAV:   9    -0.191498780665E+03    0.26125E-03   -0.45074E-04  8520   0.141E-01    0.303E-02
DAV:  10    -0.191498817366E+03   -0.36701E-04   -0.80023E-05  6200   0.328E-02
   9 F= -.19149882E+03 E0= -.19139027E+03  d E =0.512766E-01
       N       E                     dE             d eps       ncg     rms          rms(c)
DAV:   1    -0.191474522698E+03    0.24258E-01   -0.92466E-01  8160   0.206E+00    0.310E-01
DAV:   2    -0.191479761310E+03   -0.52386E-02   -0.42452E-02 13560   0.959E-01    0.654E-01
DAV:   3    -0.191475213932E+03    0.45474E-02   -0.13044E-02 12360   0.820E-01    0.241E-01
DAV:   4    -0.191475052943E+03    0.16099E-03   -0.32750E-03 11200   0.340E-01    0.264E-01
DAV:   5    -0.191474609453E+03    0.44349E-03   -0.30115E-03  9920   0.357E-01    0.186E-01
DAV:   6    -0.191474274637E+03    0.33482E-03   -0.11893E-03  9680   0.191E-01    0.622E-02
DAV:   7    -0.191474309923E+03   -0.35286E-04   -0.37353E-04  7640   0.113E-01
  10 F= -.19147431E+03 E0= -.19136641E+03  d E =0.245074E-01
       N       E                     dE             d eps       ncg     rms          rms(c)
DAV:   1    -0.191712277018E+03   -0.23800E+00   -0.39182E+01  8160   0.137E+01    0.223E+00
DAV:   2    -0.192038371054E+03   -0.32609E+00   -0.17880E+00 13600   0.725E+00    0.601E+00
DAV:   3    -0.191701807955E+03    0.33656E+00   -0.93031E-01 12240   0.684E+00    0.150E+00
DAV:   4    -0.191714111730E+03   -0.12304E-01   -0.18072E-01 12320   0.268E+00    0.238E+00
DAV:   5    -0.191668359334E+03    0.45752E-01   -0.17678E-01 11320   0.278E+00    0.127E+00
DAV:   6    -0.191651341147E+03    0.17018E-01   -0.59157E-02 11680   0.128E+00    0.500E-01
DAV:   7    -0.191653690165E+03   -0.23490E-02   -0.24146E-02 11960   0.969E-01    0.758E-01
DAV:   8    -0.191648328766E+03    0.53614E-02   -0.13162E-02 11600   0.756E-01    0.186E-01
DAV:   9    -0.191647781748E+03    0.54702E-03   -0.12180E-03 10200   0.161E-01    0.674E-02
DAV:  10    -0.191647775772E+03    0.59757E-05   -0.42565E-04  9680   0.648E-02
  11 F= -.19164778E+03 E0= -.19153952E+03  d E =-.173466E+00
       N       E                     dE             d eps       ncg     rms          rms(c)
DAV:   1    -0.191611504392E+03    0.36277E-01   -0.58316E+00  8160   0.527E+00    0.932E-01
DAV:   2    -0.191647271362E+03   -0.35767E-01   -0.28183E-01 12720   0.276E+00    0.197E+00
DAV:   3    -0.191603408480E+03    0.43863E-01   -0.10229E-01 12240   0.237E+00    0.665E-01
DAV:   4    -0.191602793526E+03    0.61495E-03   -0.33697E-02 11400   0.104E+00    0.799E-01
DAV:   5    -0.191599975640E+03    0.28179E-02   -0.28832E-02 12240   0.115E+00    0.688E-01
DAV:   6    -0.191594783269E+03    0.51924E-02   -0.12992E-02 11040   0.678E-01    0.167E-01
DAV:   7    -0.191595031810E+03   -0.24854E-03   -0.31692E-03 12640   0.307E-01    0.237E-01
DAV:   8    -0.191594565827E+03    0.46598E-03   -0.16578E-03 10200   0.266E-01    0.916E-02
DAV:   9    -0.191594484084E+03    0.81743E-04   -0.19553E-04  5960   0.810E-02
  12 F= -.19159448E+03 E0= -.19148401E+03  d E =0.532917E-01
       N       E                     dE             d eps       ncg     rms          rms(c)
DAV:   1    -0.191681757842E+03   -0.87192E-01   -0.89771E+00  8160   0.640E+00    0.828E-01
DAV:   2    -0.191735472421E+03   -0.53715E-01   -0.32006E-01 13600   0.283E+00    0.210E+00
DAV:   3    -0.191690557471E+03    0.44915E-01   -0.11398E-01 12240   0.245E+00    0.590E-01
DAV:   4    -0.191690959659E+03   -0.40219E-03   -0.24425E-02 12320   0.912E-01    0.767E-01
DAV:   5    -0.191686357058E+03    0.46026E-02   -0.20247E-02 11880   0.964E-01    0.439E-01
DAV:   6    -0.191684647338E+03    0.17097E-02   -0.68033E-03 11560   0.467E-01    0.210E-01
DAV:   7    -0.191685315067E+03   -0.66773E-03   -0.45937E-03 11560   0.439E-01    0.360E-01
DAV:   8    -0.191684039813E+03    0.12753E-02   -0.23955E-03  9760   0.329E-01    0.544E-02
DAV:   9    -0.191684021522E+03    0.18291E-04   -0.12817E-04  5680   0.510E-02
  13 F= -.19168402E+03 E0= -.19157734E+03  d E =-.895374E-01
       N       E                     dE             d eps       ncg     rms          rms(c)
DAV:   1    -0.191708006459E+03   -0.23967E-01   -0.59854E-01  8160   0.167E+00    0.242E-01
DAV:   2    -0.191713479711E+03   -0.54733E-02   -0.28769E-02 13200   0.890E-01    0.703E-01
DAV:   3    -0.191708777223E+03    0.47025E-02   -0.11421E-02 11160   0.741E-01    0.204E-01
DAV:   4    -0.191709093207E+03   -0.31598E-03   -0.29578E-03 10120   0.363E-01    0.282E-01
DAV:   5    -0.191708258117E+03    0.83509E-03   -0.16551E-03  9520   0.295E-01    0.806E-02
DAV:   6    -0.191708214326E+03    0.43791E-04   -0.43251E-04  8240   0.869E-02
  14 F= -.19170821E+03 E0= -.19160275E+03  d E =-.241928E-01
       N       E                     dE             d eps       ncg     rms          rms(c)
DAV:   1    -0.191700597218E+03    0.76609E-02   -0.35707E-01  8160   0.128E+00    0.177E-01
DAV:   2    -0.191702325645E+03   -0.17284E-02   -0.12427E-02 12720   0.544E-01    0.411E-01
DAV:   3    -0.191700681132E+03    0.16445E-02   -0.51492E-03 11520   0.497E-01    0.175E-01
DAV:   4    -0.191700651464E+03    0.29668E-04   -0.15532E-03  9520   0.250E-01    0.180E-01
DAV:   5    -0.191700451978E+03    0.19949E-03   -0.11360E-03  9560   0.230E-01    0.116E-01
DAV:   6    -0.191700283431E+03    0.16855E-03   -0.40805E-04  7800   0.120E-01    0.251E-02
DAV:   7    -0.191700288892E+03   -0.54607E-05   -0.80628E-05  6960   0.346E-02
  15 F= -.19170029E+03 E0= -.19159412E+03  d E =0.792543E-02
       N       E                     dE             d eps       ncg     rms          rms(c)
DAV:   1    -0.191775426048E+03   -0.75143E-01   -0.64283E+00  8160   0.539E+00    0.625E-01
DAV:   2    -0.191806106289E+03   -0.30680E-01   -0.20112E-01 13440   0.206E+00    0.155E+00
DAV:   3    -0.191784726416E+03    0.21380E-01   -0.68563E-02 12040   0.182E+00    0.598E-01
DAV:   4    -0.191785234577E+03   -0.50816E-03   -0.19970E-02 12200   0.927E-01    0.689E-01
DAV:   5    -0.191780479246E+03    0.47553E-02   -0.10850E-02 12080   0.776E-01    0.252E-01
DAV:   6    -0.191779885453E+03    0.59379E-03   -0.32991E-03 10920   0.287E-01    0.141E-01
DAV:   7    -0.191780206537E+03   -0.32108E-03   -0.22053E-03 12360   0.310E-01    0.244E-01
DAV:   8    -0.191779584474E+03    0.62206E-03   -0.10538E-03  9400   0.242E-01    0.427E-02
DAV:   9    -0.191779575036E+03    0.94382E-05   -0.76639E-05  5880   0.418E-02
  16 F= -.19177958E+03 E0= -.19167897E+03  d E =-.792861E-01
       N       E                     dE             d eps       ncg     rms          rms(c)
DAV:   1    -0.191830313003E+03   -0.50729E-01   -0.28299E+00  8160   0.359E+00    0.417E-01
DAV:   2    -0.191845349845E+03   -0.15037E-01   -0.97523E-02 12320   0.140E+00    0.108E+00
DAV:   3    -0.191835344621E+03    0.10005E-01   -0.32624E-02 11840   0.124E+00    0.411E-01
DAV:   4    -0.191835154628E+03    0.18999E-03   -0.78847E-03 11280   0.599E-01    0.408E-01
DAV:   5    -0.191833391414E+03    0.17632E-02   -0.37098E-03 10920   0.485E-01    0.156E-01
DAV:   6    -0.191833193847E+03    0.19757E-03   -0.13030E-03 10840   0.180E-01    0.811E-02
DAV:   7    -0.191833106359E+03    0.87488E-04   -0.46632E-04  9920   0.898E-02
  17 F= -.19183311E+03 E0= -.19173621E+03  d E =-.535313E-01
       N       E                     dE             d eps       ncg     rms          rms(c)
DAV:   1    -0.191949389863E+03   -0.11620E+00   -0.81940E+01  8160   0.194E+01    0.208E+00
DAV:   2    -0.192288708411E+03   -0.33932E+00   -0.27298E+00 11600   0.654E+00    0.502E+00
DAV:   3    -0.192136404490E+03    0.15230E+00   -0.90349E-01 11920   0.633E+00    0.215E+00
DAV:   4    -0.192102824053E+03    0.33580E-01   -0.14207E-01 12560   0.283E+00    0.165E+00
DAV:   5    -0.192070778995E+03    0.32045E-01   -0.63905E-02 11760   0.227E+00    0.849E-01
DAV:   6    -0.192064786704E+03    0.59923E-02   -0.36517E-02 12720   0.105E+00    0.456E-01
DAV:   7    -0.192060642386E+03    0.41443E-02   -0.13035E-02 11440   0.495E-01    0.201E-01
DAV:   8    -0.192060704692E+03   -0.62306E-04   -0.29698E-03 12600   0.397E-01    0.243E-01
DAV:   9    -0.192060133838E+03    0.57085E-03   -0.12921E-03 10720   0.291E-01    0.951E-02
DAV:  10    -0.192059960884E+03    0.17295E-03   -0.50435E-04 10200   0.102E-01    0.472E-02
DAV:  11    -0.192059965042E+03   -0.41578E-05   -0.16102E-04  7560   0.473E-02
  18 F= -.19205997E+03 E0= -.19197485E+03  d E =-.226859E+00
       N       E                     dE             d eps       ncg     rms          rms(c)
DAV:   1    -0.192039536269E+03    0.20425E-01   -0.47225E+00  8160   0.458E+00    0.473E-01
DAV:   2    -0.192053685585E+03   -0.14149E-01   -0.10297E-01 13440   0.140E+00    0.106E+00
DAV:   3    -0.192043089126E+03    0.10596E-01   -0.31054E-02 12560   0.134E+00    0.437E-01
DAV:   4    -0.192040960678E+03    0.21284E-02   -0.63597E-03 11840   0.451E-01    0.208E-01
DAV:   5    -0.192041706031E+03   -0.74535E-03   -0.45794E-03 12040   0.471E-01    0.380E-01
DAV:   6    -0.192040444993E+03    0.12610E-02   -0.33270E-03 11720   0.471E-01    0.160E-01
DAV:   7    -0.192040174400E+03    0.27059E-03   -0.73562E-04 10240   0.174E-01    0.548E-02
DAV:   8    -0.192040143380E+03    0.31020E-04   -0.15212E-04  8920   0.939E-02
  19 F= -.19204014E+03 E0= -.19195257E+03  d E =0.198217E-01
       N       E                     dE             d eps       ncg     rms          rms(c)
DAV:   1    -0.192067007090E+03   -0.26833E-01   -0.44182E+01  8160   0.142E+01    0.146E+00
DAV:   2    -0.192211545457E+03   -0.14454E+00   -0.14081E+00 11200   0.423E+00    0.274E+00
DAV:   3    -0.192172911448E+03    0.38634E-01   -0.32985E-01 12000   0.408E+00    0.168E+00
DAV:   4    -0.192140340135E+03    0.32571E-01   -0.59735E-02 12520   0.171E+00    0.712E-01
DAV:   5    -0.192138502266E+03    0.18379E-02   -0.25575E-02 12480   0.138E+00    0.754E-01
DAV:   6    -0.192133744728E+03    0.47575E-02   -0.19744E-02 12600   0.107E+00    0.359E-01
DAV:   7    -0.192131273307E+03    0.24714E-02   -0.58451E-03 12040   0.373E-01    0.103E-01
DAV:   8    -0.192131190181E+03    0.83126E-04   -0.94540E-04 11640   0.146E-01
  20 F= -.19213119E+03 E0= -.19204773E+03  d E =-.910468E-01
       N       E                     dE             d eps       ncg     rms          rms(c)
DAV:   1    -0.192125635375E+03    0.56379E-02   -0.35410E+00  8160   0.399E+00    0.398E-01
DAV:   2    -0.192134640955E+03   -0.90056E-02   -0.82096E-02 11240   0.111E+00    0.754E-01
DAV:   3    -0.192130365406E+03    0.42755E-02   -0.18425E-02 12520   0.107E+00    0.439E-01
DAV:   4    -0.192128267231E+03    0.20982E-02   -0.48496E-03 11320   0.440E-01    0.163E-01
DAV:   5    -0.192128242556E+03    0.24674E-04   -0.23006E-03 11960   0.289E-01    0.206E-01
DAV:   6    -0.192128131231E+03    0.11133E-03   -0.18932E-03 11080   0.362E-01    0.180E-01
DAV:   7    -0.192127758203E+03    0.37303E-03   -0.67882E-04  8960   0.199E-01    0.500E-02
DAV:   8    -0.192127743552E+03    0.14651E-04   -0.10474E-04  6840   0.841E-02
  21 F= -.19212774E+03 E0= -.19204290E+03  d E =0.344663E-02
       N       E                     dE             d eps       ncg     rms          rms(c)
DAV:   1    -0.192139556469E+03   -0.11798E-01   -0.97339E-01  8160   0.211E+00    0.235E-01
DAV:   2    -0.192142141362E+03   -0.25849E-02   -0.34616E-02 11880   0.574E-01    0.282E-01
DAV:   3    -0.192142452446E+03   -0.31108E-03   -0.50370E-03 11920   0.564E-01    0.344E-01
DAV:   4    -0.192141184450E+03    0.12680E-02   -0.21506E-03 10200   0.360E-01    0.116E-01
DAV:   5    -0.192141226181E+03   -0.41730E-04   -0.87610E-04  9960   0.240E-01
  22 F= -.19214123E+03 E0= -.19205641E+03  d E =-.134826E-01
       N       E                     dE             d eps       ncg     rms          rms(c)
DAV:   1    -0.192142513935E+03   -0.13295E-02   -0.26088E-02  8240   0.390E-01    0.775E-02
DAV:   2    -0.192143000100E+03   -0.48616E-03   -0.19790E-03 12360   0.247E-01    0.191E-01
DAV:   3    -0.192142528519E+03    0.47158E-03   -0.85409E-04 10160   0.246E-01    0.710E-02
DAV:   4    -0.192142487237E+03    0.41283E-04   -0.17365E-04  6120   0.939E-02
  23 F= -.19214249E+03 E0= -.19205811E+03  d E =-.126106E-02
       N       E                     dE             d eps       ncg     rms          rms(c)
DAV:   1    -0.192151776163E+03   -0.92476E-02   -0.64721E-01  8160   0.172E+00    0.205E-01
DAV:   2    -0.192154207139E+03   -0.24310E-02   -0.24984E-02 11280   0.602E-01    0.309E-01
DAV:   3    -0.192153531657E+03    0.67548E-03   -0.36913E-03 12200   0.515E-01    0.209E-01
DAV:   4    -0.192153143831E+03    0.38783E-03   -0.10913E-03 10040   0.264E-01    0.134E-01
DAV:   5    -0.192153051958E+03    0.91874E-04   -0.63718E-04  9400   0.216E-01
  24 F= -.19215305E+03 E0= -.19206893E+03  d E =-.105647E-01
       N       E                     dE             d eps       ncg     rms          rms(c)
DAV:   1    -0.192159521931E+03   -0.63781E-02   -0.30108E-01  8160   0.119E+00    0.165E-01
DAV:   2    -0.192161330381E+03   -0.18084E-02   -0.13301E-02 12120   0.487E-01    0.351E-01
DAV:   3    -0.192160193011E+03    0.11374E-02   -0.30511E-03 12240   0.470E-01    0.157E-01
DAV:   4    -0.192159948004E+03    0.24501E-03   -0.52645E-04  8480   0.160E-01    0.716E-02
DAV:   5    -0.192160022880E+03   -0.74876E-04   -0.47269E-04  9440   0.167E-01
  25 F= -.19216002E+03 E0= -.19207616E+03  d E =-.697092E-02
       N       E                     dE             d eps       ncg     rms          rms(c)
DAV:   1    -0.192167618787E+03   -0.76708E-02   -0.50908E-01  8160   0.154E+00    0.194E-01
DAV:   2    -0.192168697488E+03   -0.10787E-02   -0.19424E-02 11640   0.366E-01    0.148E-01
DAV:   3    -0.192169550605E+03   -0.85312E-03   -0.27372E-03 12280   0.422E-01    0.332E-01
DAV:   4    -0.192168338753E+03    0.12119E-02   -0.15585E-03  9880   0.335E-01    0.713E-02
DAV:   5    -0.192168505633E+03   -0.16688E-03   -0.46692E-04  8840   0.187E-01    0.128E-01
DAV:   6    -0.192168316366E+03    0.18927E-03   -0.32038E-04  9360   0.162E-01    0.317E-02
DAV:   7    -0.192168304158E+03    0.12208E-04   -0.64661E-05  6480   0.470E-02
  26 F= -.19216830E+03 E0= -.19208427E+03  d E =-.828128E-02
       N       E                     dE             d eps       ncg     rms          rms(c)
DAV:   1    -0.192178954936E+03   -0.10639E-01   -0.15913E+00  8160   0.269E+00    0.303E-01
DAV:   2    -0.192183484500E+03   -0.45296E-02   -0.58057E-02 11320   0.718E-01    0.315E-01
DAV:   3    -0.192184052034E+03   -0.56753E-03   -0.63758E-03 12200   0.693E-01    0.397E-01
DAV:   4    -0.192182301379E+03    0.17507E-02   -0.26103E-03 10120   0.441E-01    0.164E-01
DAV:   5    -0.192182355114E+03   -0.53736E-04   -0.11571E-03 10080   0.306E-01    0.174E-01
DAV:   6    -0.192182114983E+03    0.24013E-03   -0.72006E-04  9560   0.193E-01    0.739E-02
DAV:   7    -0.192182075755E+03    0.39228E-04   -0.22026E-04  7960   0.118E-01
  27 F= -.19218208E+03 E0= -.19209842E+03  d E =-.137716E-01
       N       E                     dE             d eps       ncg     rms          rms(c)
DAV:   1    -0.192187408217E+03   -0.52932E-02   -0.35504E-01  8160   0.129E+00    0.165E-01
DAV:   2    -0.192188938876E+03   -0.15307E-02   -0.15144E-02 10600   0.457E-01    0.282E-01
DAV:   3    -0.192188367751E+03    0.57113E-03   -0.31945E-03 12520   0.443E-01    0.177E-01
DAV:   4    -0.192188016527E+03    0.35122E-03   -0.62105E-04  8800   0.184E-01    0.614E-02
DAV:   5    -0.192188081613E+03   -0.65086E-04   -0.31637E-04  9160   0.137E-01
  28 F= -.19218808E+03 E0= -.19210422E+03  d E =-.600586E-02
       N       E                     dE             d eps       ncg     rms          rms(c)
DAV:   1    -0.192193109443E+03   -0.50929E-02   -0.36658E-01  8160   0.130E+00    0.164E-01
DAV:   2    -0.192194415736E+03   -0.13063E-02   -0.13954E-02 11120   0.413E-01    0.246E-01
DAV:   3    -0.192194078344E+03    0.33739E-03   -0.26141E-03 12200   0.413E-01    0.184E-01
DAV:   4    -0.192193753091E+03    0.32525E-03   -0.77515E-04  9160   0.215E-01    0.900E-02
DAV:   5    -0.192193741359E+03    0.11732E-04   -0.35215E-04  9000   0.167E-01
  29 F= -.19219374E+03 E0= -.19211023E+03  d E =-.565975E-02
       N       E                     dE             d eps       ncg     rms          rms(c)
DAV:   1    -0.192199106012E+03   -0.53529E-02   -0.54569E-01  8160   0.158E+00    0.216E-01
DAV:   2    -0.192202247504E+03   -0.31415E-02   -0.23584E-02 11400   0.687E-01    0.444E-01
DAV:   3    -0.192200235024E+03    0.20125E-02   -0.53201E-03 12040   0.608E-01    0.191E-01
DAV:   4    -0.192199992584E+03    0.24244E-03   -0.98841E-04  9520   0.243E-01    0.133E-01
DAV:   5    -0.192199869385E+03    0.12320E-03   -0.57260E-04 10000   0.216E-01    0.101E-01
DAV:   6    -0.192199823415E+03    0.45970E-04   -0.37099E-04  8960   0.150E-01
  30 F= -.19219982E+03 E0= -.19211632E+03  d E =-.608206E-02
       N       E                     dE             d eps       ncg     rms          rms(c)
DAV:   1    -0.192200627394E+03   -0.75801E-03   -0.13401E-02  9960   0.305E-01    0.102E-01
DAV:   2    -0.192201886105E+03   -0.12587E-02   -0.32668E-03 12240   0.439E-01    0.357E-01
DAV:   3    -0.192200434018E+03    0.14521E-02   -0.21365E-03  9840   0.388E-01    0.576E-02
DAV:   4    -0.192200455566E+03   -0.21548E-04   -0.15919E-04  5960   0.989E-02
  31 F= -.19220046E+03 E0= -.19211679E+03  d E =-.632151E-03
       N       E                     dE             d eps       ncg     rms          rms(c)
DAV:   1    -0.192204679273E+03   -0.42453E-02   -0.30714E-01  8160   0.123E+00    0.223E-01
DAV:   2    -0.192204451005E+03    0.22827E-03   -0.13663E-02 10280   0.372E-01    0.189E-01
DAV:   3    -0.192204826855E+03   -0.37585E-03   -0.28745E-03 11160   0.455E-01    0.290E-01
DAV:   4    -0.192203957106E+03    0.86975E-03   -0.19044E-03 10040   0.385E-01    0.144E-01
DAV:   5    -0.192203949179E+03    0.79270E-05   -0.10579E-03  9680   0.253E-01    0.151E-01
DAV:   6    -0.192203675292E+03    0.27389E-03   -0.45609E-04  8400   0.181E-01    0.360E-02
DAV:   7    -0.192203684311E+03   -0.90188E-05   -0.90812E-05  6480   0.698E-02
  32 F= -.19220368E+03 E0= -.19211982E+03  d E =-.322875E-02
       N       E                     dE             d eps       ncg     rms          rms(c)
DAV:   1    -0.192205696535E+03   -0.20212E-02   -0.42377E-02  8160   0.497E-01    0.143E-01
DAV:   2    -0.192205871264E+03   -0.17473E-03   -0.37431E-03 10720   0.367E-01    0.252E-01
DAV:   3    -0.192205242226E+03    0.62904E-03   -0.17383E-03 10600   0.359E-01    0.114E-01
DAV:   4    -0.192205173521E+03    0.68706E-04   -0.70566E-04  8600   0.198E-01
  33 F= -.19220517E+03 E0= -.19212165E+03  d E =-.148921E-02
       N       E                     dE             d eps       ncg     rms          rms(c)
DAV:   1    -0.192208288275E+03   -0.30460E-02   -0.27643E-01  8160   0.117E+00    0.190E-01
DAV:   2    -0.192208703675E+03   -0.41540E-03   -0.13548E-02 10880   0.395E-01    0.206E-01
DAV:   3    -0.192208819182E+03   -0.11551E-03   -0.29862E-03 11400   0.439E-01    0.246E-01
DAV:   4    -0.192208152345E+03    0.66684E-03   -0.15573E-03 10000   0.309E-01    0.104E-01
DAV:   5    -0.192208186418E+03   -0.34073E-04   -0.69061E-04  9880   0.205E-01
  34 F= -.19220819E+03 E0= -.19212523E+03  d E =-.301290E-02
       N       E                     dE             d eps       ncg     rms          rms(c)
DAV:   1    -0.192209502630E+03   -0.13503E-02   -0.68848E-02  8160   0.587E-01    0.920E-02
DAV:   2    -0.192210443398E+03   -0.94077E-03   -0.42075E-03 12360   0.368E-01    0.272E-01
DAV:   3    -0.192209614549E+03    0.82885E-03   -0.14976E-03 10000   0.318E-01    0.585E-02
DAV:   4    -0.192209594480E+03    0.20069E-04   -0.13396E-04  5800   0.765E-02
  35 F= -.19220959E+03 E0= -.19212643E+03  d E =-.140806E-02
       N       E                     dE             d eps       ncg     rms          rms(c)
DAV:   1    -0.192210652911E+03   -0.10384E-02   -0.33082E-02  8160   0.406E-01    0.677E-02
DAV:   2    -0.192210919509E+03   -0.26660E-03   -0.17794E-03 12360   0.196E-01    0.142E-01
DAV:   3    -0.192210698472E+03    0.22104E-03   -0.56185E-04 10200   0.194E-01    0.601E-02
DAV:   4    -0.192210686291E+03    0.12181E-04   -0.11296E-04  5720   0.837E-02
  36 F= -.19221069E+03 E0= -.19212733E+03  d E =-.109181E-02
       N       E                     dE             d eps       ncg     rms          rms(c)
DAV:   1    -0.192212318078E+03   -0.16196E-02   -0.11503E-01  8160   0.724E-01    0.923E-02
DAV:   2    -0.192212800784E+03   -0.48271E-03   -0.45915E-03 11840   0.273E-01    0.150E-01
DAV:   3    -0.192212593356E+03    0.20743E-03   -0.83931E-04 10920   0.237E-01    0.881E-02
DAV:   4    -0.192212541436E+03    0.51920E-04   -0.22453E-04  7240   0.117E-01
  37 F= -.19221254E+03 E0= -.19212930E+03  d E =-.185515E-02
       N       E                     dE             d eps       ncg     rms          rms(c)
DAV:   1    -0.192215342961E+03   -0.27496E-02   -0.15047E+00  8160   0.261E+00    0.310E-01
DAV:   2    -0.192220108703E+03   -0.47657E-02   -0.56913E-02 11200   0.756E-01    0.383E-01
DAV:   3    -0.192219842225E+03    0.26648E-03   -0.87401E-03 12400   0.750E-01    0.382E-01
DAV:   4    -0.192218304911E+03    0.15373E-02   -0.29056E-03 11360   0.436E-01    0.162E-01
DAV:   5    -0.192218261588E+03    0.43323E-04   -0.12245E-03 10280   0.302E-01    0.161E-01
DAV:   6    -0.192218116587E+03    0.14500E-03   -0.83880E-04 10480   0.230E-01    0.883E-02
DAV:   7    -0.192217974555E+03    0.14203E-03   -0.26168E-04  7800   0.873E-02    0.202E-02
DAV:   8    -0.192217981338E+03   -0.67839E-05   -0.55253E-05  7800   0.455E-02
  38 F= -.19221798E+03 E0= -.19213461E+03  d E =-.543990E-02
       N       E                     dE             d eps       ncg     rms          rms(c)
DAV:   1    -0.192219233043E+03   -0.12585E-02   -0.33357E-01  8160   0.123E+00    0.149E-01
DAV:   2    -0.192220748326E+03   -0.15153E-02   -0.14649E-02 10440   0.443E-01    0.258E-01
DAV:   3    -0.192220250134E+03    0.49819E-03   -0.27911E-03 12560   0.407E-01    0.157E-01
DAV:   4    -0.192219966357E+03    0.28378E-03   -0.48471E-04  8600   0.163E-01    0.514E-02
DAV:   5    -0.192220010260E+03   -0.43903E-04   -0.20292E-04  7400   0.107E-01
  39 F= -.19222001E+03 E0= -.19213656E+03  d E =-.202892E-02
       N       E                     dE             d eps       ncg     rms          rms(c)
DAV:   1    -0.192220524094E+03   -0.55774E-03   -0.46122E-01  8160   0.145E+00    0.176E-01
DAV:   2    -0.192222491642E+03   -0.19675E-02   -0.20891E-02 11040   0.501E-01    0.271E-01
DAV:   3    -0.192222089103E+03    0.40254E-03   -0.33797E-03 12320   0.457E-01    0.197E-01
DAV:   4    -0.192221625465E+03    0.46364E-03   -0.76571E-04  9000   0.209E-01    0.620E-02
DAV:   5    -0.192221761379E+03   -0.13591E-03   -0.37381E-04  9480   0.166E-01    0.118E-01
DAV:   6    -0.192221633590E+03    0.12779E-03   -0.33570E-04  9120   0.154E-01    0.495E-02
DAV:   7    -0.192221609662E+03    0.23928E-04   -0.93203E-05  6080   0.704E-02
  40 F= -.19222161E+03 E0= -.19213791E+03  d E =-.159940E-02
       N       E                     dE             d eps       ncg     rms          rms(c)
DAV:   1    -0.192221900382E+03   -0.26679E-03   -0.35404E-02  8160   0.402E-01    0.585E-02
DAV:   2    -0.192222139532E+03   -0.23915E-03   -0.19259E-03 11320   0.207E-01    0.118E-01
DAV:   3    -0.192221980469E+03    0.15906E-03   -0.31713E-04  9120   0.159E-01    0.408E-02
DAV:   4    -0.192221987430E+03   -0.69610E-05   -0.69784E-05  5920   0.729E-02
  41 F= -.19222199E+03 E0= -.19213833E+03  d E =-.377768E-03
