<?xml version="1.0" encoding="ISO-8859-1"?>
<modeling>
 <generator>
  <i name="program" type="string">vasp </i>
  <i name="version" type="string">5.4.1  </i>
  <i name="subversion" type="string">05Feb16 (build Jul 05 2020 17:13:04) complex                          parallel </i>
  <i name="platform" type="string">IFC91_ompi </i>
  <i name="date" type="string">2024 04 22 </i>
  <i name="time" type="string">08:45:01 </i>
 </generator>
 <incar>
  <i type="int" name="ISTART">     0</i>
  <i type="string" name="PREC">normal</i>
  <i type="string" name="ALGO"> Normal</i>
  <i type="int" name="ISPIN">     1</i>
  <i type="int" name="ICHARG">     2</i>
  <i type="int" name="IBRION">     1</i>
  <i type="int" name="NSW">   100</i>
  <i type="int" name="ISIF">     3</i>
  <i type="int" name="ISYM">     0</i>
  <i name="SYMPREC">      0.00000001</i>
  <i name="POTIM">      0.50000000</i>
  <i type="logical" name="LREAL"> F  </i>
  <i type="logical" name="LPLANE"> F  </i>
  <i type="int" name="ISMEAR">     0</i>
  <i type="logical" name="LWAVE"> F  </i>
  <i type="logical" name="LCHARG"> F  </i>
  <v type="int" name="KPOINT_BSE">    -1     0     0     0</v>
 </incar>
 <kpoints>
  <generation param="Gamma">
   <v type="int" name="divisions">       8        8        1 </v>
   <v name="usershift">      0.00000000       0.00000000       0.00000000 </v>
   <v name="genvec1">      0.12500000       0.00000000       0.00000000 </v>
   <v name="genvec2">     -0.00000000       0.12500000       0.00000000 </v>
   <v name="genvec3">      0.00000000       0.00000000       1.00000000 </v>
   <v name="shift">      0.00000000       0.00000000       0.00000000 </v>
  </generation>
  <varray name="kpointlist" >
   <v>       0.00000000       0.00000000       0.00000000 </v>
   <v>       0.12500000       0.00000000       0.00000000 </v>
   <v>       0.25000000       0.00000000       0.00000000 </v>
   <v>       0.37500000       0.00000000       0.00000000 </v>
   <v>       0.50000000       0.00000000       0.00000000 </v>
   <v>       0.00000000       0.12500000       0.00000000 </v>
   <v>       0.12500000       0.12500000       0.00000000 </v>
   <v>       0.25000000       0.12500000       0.00000000 </v>
   <v>       0.37500000       0.12500000       0.00000000 </v>
   <v>       0.50000000       0.12500000       0.00000000 </v>
   <v>      -0.37500000       0.12500000       0.00000000 </v>
   <v>      -0.25000000       0.12500000       0.00000000 </v>
   <v>      -0.12500000       0.12500000       0.00000000 </v>
   <v>       0.00000000       0.25000000       0.00000000 </v>
   <v>       0.12500000       0.25000000       0.00000000 </v>
   <v>       0.25000000       0.25000000       0.00000000 </v>
   <v>       0.37500000       0.25000000       0.00000000 </v>
   <v>       0.50000000       0.25000000       0.00000000 </v>
   <v>      -0.37500000       0.25000000       0.00000000 </v>
   <v>      -0.25000000       0.25000000       0.00000000 </v>
   <v>      -0.12500000       0.25000000       0.00000000 </v>
   <v>      -0.00000000       0.37500000       0.00000000 </v>
   <v>       0.12500000       0.37500000       0.00000000 </v>
   <v>       0.25000000       0.37500000       0.00000000 </v>
   <v>       0.37500000       0.37500000       0.00000000 </v>
   <v>       0.50000000       0.37500000       0.00000000 </v>
   <v>      -0.37500000       0.37500000       0.00000000 </v>
   <v>      -0.25000000       0.37500000       0.00000000 </v>
   <v>      -0.12500000       0.37500000       0.00000000 </v>
   <v>       0.00000000       0.50000000       0.00000000 </v>
   <v>       0.12500000       0.50000000       0.00000000 </v>
   <v>       0.25000000       0.50000000       0.00000000 </v>
   <v>       0.37500000       0.50000000       0.00000000 </v>
   <v>       0.50000000       0.50000000       0.00000000 </v>
  </varray>
  <varray name="weights" >
   <v>       0.01562500 </v>
   <v>       0.03125000 </v>
   <v>       0.03125000 </v>
   <v>       0.03125000 </v>
   <v>       0.01562500 </v>
   <v>       0.03125000 </v>
   <v>       0.03125000 </v>
   <v>       0.03125000 </v>
   <v>       0.03125000 </v>
   <v>       0.03125000 </v>
   <v>       0.03125000 </v>
   <v>       0.03125000 </v>
   <v>       0.03125000 </v>
   <v>       0.03125000 </v>
   <v>       0.03125000 </v>
   <v>       0.03125000 </v>
   <v>       0.03125000 </v>
   <v>       0.03125000 </v>
   <v>       0.03125000 </v>
   <v>       0.03125000 </v>
   <v>       0.03125000 </v>
   <v>       0.03125000 </v>
   <v>       0.03125000 </v>
   <v>       0.03125000 </v>
   <v>       0.03125000 </v>
   <v>       0.03125000 </v>
   <v>       0.03125000 </v>
   <v>       0.03125000 </v>
   <v>       0.03125000 </v>
   <v>       0.01562500 </v>
   <v>       0.03125000 </v>
   <v>       0.03125000 </v>
   <v>       0.03125000 </v>
   <v>       0.01562500 </v>
  </varray>
 </kpoints>
 <parameters>
  <separator name="general" >
   <i type="string" name="SYSTEM">unknown system</i>
   <i type="logical" name="LCOMPAT"> F  </i>
  </separator>
  <separator name="electronic" >
   <i type="string" name="PREC">normal</i>
   <i name="ENMAX">    280.00000000</i>
   <i name="ENAUG">    373.43800000</i>
   <i name="EDIFF">      0.00010000</i>
   <i type="int" name="IALGO">    38</i>
   <i type="int" name="IWAVPR">    11</i>
   <i type="int" name="NBANDS">   120</i>
   <i name="NELECT">    159.00000000</i>
   <i type="int" name="TURBO">     0</i>
   <i type="int" name="IRESTART">     0</i>
   <i type="int" name="NREBOOT">     0</i>
   <i type="int" name="NMIN">     0</i>
   <i name="EREF">      0.00000000</i>
   <separator name="electronic smearing" >
    <i type="int" name="ISMEAR">     0</i>
    <i name="SIGMA">      0.20000000</i>
    <i name="KSPACING">      0.50000000</i>
    <i type="logical" name="KGAMMA"> T  </i>
   </separator>
   <separator name="electronic projectors" >
    <i type="logical" name="LREAL"> F  </i>
    <v name="ROPT">      0.00000000      0.00000000      0.00000000      0.00000000</v>
    <i type="int" name="LMAXPAW">  -100</i>
    <i type="int" name="LMAXMIX">     2</i>
    <i type="logical" name="NLSPLINE"> F  </i>
   </separator>
   <separator name="electronic startup" >
    <i type="int" name="ISTART">     0</i>
    <i type="int" name="ICHARG">     2</i>
    <i type="int" name="INIWAV">     1</i>
   </separator>
   <separator name="electronic spin" >
    <i type="int" name="ISPIN">     1</i>
    <i type="logical" name="LNONCOLLINEAR"> F  </i>
    <v name="MAGMOM">      1.00000000      1.00000000      1.00000000      1.00000000      1.00000000      1.00000000      1.00000000      1.00000000      1.00000000      1.00000000      1.00000000      1.00000000      1.00000000      1.00000000      1.00000000      1.00000000      1.00000000      1.00000000      1.00000000      1.00000000
      1.00000000      1.00000000      1.00000000      1.00000000      1.00000000      1.00000000      1.00000000</v>
    <i name="NUPDOWN">     -1.00000000</i>
    <i type="logical" name="LSORBIT"> F  </i>
    <v name="SAXIS">      0.00000000      0.00000000      1.00000000</v>
    <i type="logical" name="LSPIRAL"> F  </i>
    <v name="QSPIRAL">      0.00000000      0.00000000      0.00000000</v>
    <i type="logical" name="LZEROZ"> F  </i>
   </separator>
   <separator name="electronic exchange-correlation" >
    <i type="logical" name="LASPH"> F  </i>
    <i type="logical" name="LMETAGGA"> F  </i>
   </separator>
   <separator name="electronic convergence" >
    <i type="int" name="NELM">    60</i>
    <i type="int" name="NELMDL">    -5</i>
    <i type="int" name="NELMIN">     2</i>
    <i name="ENINI">    280.00000000</i>
    <separator name="electronic convergence detail" >
     <i type="logical" name="LDIAG"> T  </i>
     <i type="logical" name="LSUBROT"> F  </i>
     <i name="WEIMIN">      0.00100000</i>
     <i name="EBREAK">      0.00000021</i>
     <i name="DEPER">      0.30000000</i>
     <i type="int" name="NRMM">     4</i>
     <i name="TIME">      0.40000000</i>
    </separator>
   </separator>
   <separator name="electronic mixer" >
    <i name="AMIX">      0.40000000</i>
    <i name="BMIX">      1.00000000</i>
    <i name="AMIN">      0.10000000</i>
    <i name="AMIX_MAG">      1.60000000</i>
    <i name="BMIX_MAG">      1.00000000</i>
    <separator name="electronic mixer details" >
     <i type="int" name="IMIX">     4</i>
     <i type="logical" name="MIXFIRST"> F  </i>
     <i type="int" name="MAXMIX">   -45</i>
     <i name="WC">    100.00000000</i>
     <i type="int" name="INIMIX">     1</i>
     <i type="int" name="MIXPRE">     1</i>
     <i type="int" name="MREMOVE">     5</i>
    </separator>
   </separator>
   <separator name="electronic dipolcorrection" >
    <i type="logical" name="LDIPOL"> F  </i>
    <i type="logical" name="LMONO"> F  </i>
    <i type="int" name="IDIPOL">     0</i>
    <i name="EPSILON">      1.00000000</i>
    <v name="DIPOL">   -100.00000000   -100.00000000   -100.00000000</v>
    <i name="EFIELD">      0.00000000</i>
   </separator>
  </separator>
  <separator name="grids" >
   <i type="int" name="NGX">    42</i>
   <i type="int" name="NGY">    42</i>
   <i type="int" name="NGZ">   126</i>
   <i type="int" name="NGXF">    84</i>
   <i type="int" name="NGYF">    84</i>
   <i type="int" name="NGZF">   252</i>
   <i type="logical" name="ADDGRID"> F  </i>
  </separator>
  <separator name="ionic" >
   <i type="int" name="NSW">   100</i>
   <i type="int" name="IBRION">     1</i>
   <i type="int" name="ISIF">     3</i>
   <i name="PSTRESS">      0.00000000</i>
   <i name="EDIFFG">      0.00100000</i>
   <i type="int" name="NFREE">     0</i>
   <i name="POTIM">      0.50000000</i>
   <i name="SMASS">     -3.00000000</i>
   <i name="SCALEE">      1.00000000</i>
  </separator>
  <separator name="ionic md" >
   <i name="TEBEG">      0.00010000</i>
   <i name="TEEND">      0.00010000</i>
   <i type="int" name="NBLOCK">     1</i>
   <i type="int" name="KBLOCK">   100</i>
   <i type="int" name="NPACO">   256</i>
   <i name="APACO">     16.00000000</i>
  </separator>
  <separator name="symmetry" >
   <i type="int" name="ISYM">     0</i>
   <i name="SYMPREC">      0.00000001</i>
  </separator>
  <separator name="dos" >
   <i type="logical" name="LORBIT"> F  </i>
   <v name="RWIGS">     -1.00000000     -1.00000000     -1.00000000     -1.00000000</v>
   <i type="int" name="NEDOS">   301</i>
   <i name="EMIN">     10.00000000</i>
   <i name="EMAX">    -10.00000000</i>
   <i name="EFERMI">      0.00000000</i>
  </separator>
  <separator name="writing" >
   <i type="int" name="NWRITE">     2</i>
   <i type="logical" name="LWAVE"> F  </i>
   <i type="logical" name="LCHARG"> F  </i>
   <i type="logical" name="LPARD"> F  </i>
   <i type="logical" name="LVTOT"> F  </i>
   <i type="logical" name="LVHAR"> F  </i>
   <i type="logical" name="LELF"> F  </i>
   <i type="logical" name="LOPTICS"> F  </i>
   <v name="STM">      0.00000000      0.00000000      0.00000000      0.00000000      0.00000000      0.00000000      0.00000000</v>
  </separator>
  <separator name="performance" >
   <i type="int" name="NPAR">    40</i>
   <i type="int" name="NSIM">     4</i>
   <i type="int" name="NBLK">    -1</i>
   <i type="logical" name="LPLANE"> F  </i>
   <i type="logical" name="LSCALAPACK"> T  </i>
   <i type="logical" name="LSCAAWARE"> F  </i>
   <i type="logical" name="LSCALU"> F  </i>
   <i type="logical" name="LASYNC"> F  </i>
   <i type="logical" name="LORBITALREAL"> F  </i>
  </separator>
  <separator name="miscellaneous" >
   <i type="int" name="IDIOT">     3</i>
   <i type="logical" name="LMUSIC"> F  </i>
   <v name="POMASS">     50.94100000     95.94000000    183.85000000     32.06600000</v>
   <v name="DARWINR">      0.00000000      0.00000000      0.00000000      0.00000000</v>
   <v name="DARWINV">      1.00000000      1.00000000      1.00000000      1.00000000</v>
   <i type="logical" name="LCORR"> T  </i>
  </separator>
  <i type="logical" name="GGA_COMPAT"> T  </i>
  <i type="logical" name="LBERRY"> F  </i>
  <i type="int" name="ICORELEVEL">     0</i>
  <i type="logical" name="LDAU"> F  </i>
  <i type="int" name="I_CONSTRAINED_M">     0</i>
  <separator name="electronic exchange-correlation" >
   <i type="string" name="GGA">--</i>
   <i type="int" name="VOSKOWN">     0</i>
   <i type="logical" name="LHFCALC"> F  </i>
   <i type="string" name="PRECFOCK"></i>
   <i type="logical" name="LSYMGRAD"> F  </i>
   <i type="logical" name="LHFONE"> F  </i>
   <i type="logical" name="LRHFCALC"> F  </i>
   <i type="logical" name="LTHOMAS"> F  </i>
   <i type="logical" name="LMODELHF"> F  </i>
   <i name="ENCUT4O">     -1.00000000</i>
   <i type="int" name="EXXOEP">     0</i>
   <i type="int" name="FOURORBIT">     0</i>
   <i name="AEXX">      0.00000000</i>
   <i name="HFALPHA">      0.00000000</i>
   <i name="MCALPHA">      0.00000000</i>
   <i name="ALDAX">      1.00000000</i>
   <i name="AGGAX">      1.00000000</i>
   <i name="ALDAC">      1.00000000</i>
   <i name="AGGAC">      1.00000000</i>
   <i type="int" name="NKREDX">     1</i>
   <i type="int" name="NKREDY">     1</i>
   <i type="int" name="NKREDZ">     1</i>
   <i type="logical" name="SHIFTRED"> F  </i>
   <i type="logical" name="ODDONLY"> F  </i>
   <i type="logical" name="EVENONLY"> F  </i>
   <i type="int" name="LMAXFOCK">     0</i>
   <i type="int" name="NMAXFOCKAE">     0</i>
   <i type="logical" name="LFOCKAEDFT"> F  </i>
   <i name="HFSCREEN">      0.00000000</i>
   <i name="HFSCREENC">      0.00000000</i>
   <i type="int" name="NBANDSGWLOW">     0</i>
  </separator>
  <separator name="vdW DFT" >
   <i type="logical" name="LUSE_VDW"> F  </i>
   <i name="Zab_VDW">     -0.84910000</i>
   <i name="PARAM1">      0.12340000</i>
   <i name="PARAM2">      1.00000000</i>
   <i name="PARAM3">      0.00000000</i>
  </separator>
  <separator name="model GW" >
   <i type="int" name="MODEL_GW">     0</i>
   <i name="MODEL_EPS0">     58.26239943</i>
   <i name="MODEL_ALPHA">      1.00000000</i>
  </separator>
  <separator name="linear response parameters" >
   <i type="logical" name="LEPSILON"> F  </i>
   <i type="logical" name="LRPA"> F  </i>
   <i type="logical" name="LNABLA"> F  </i>
   <i type="logical" name="LVEL"> F  </i>
   <i type="int" name="KINTER">     0</i>
   <i name="CSHIFT">      0.10000000</i>
   <i name="OMEGAMAX">     -1.00000000</i>
   <i name="DEG_THRESHOLD">      0.00200000</i>
  </separator>
  <separator name="orbital magnetization" >
   <i type="logical" name="NUCIND"> F  </i>
   <v name="MAGPOS">      0.00000000      0.00000000      0.00000000</v>
   <i type="logical" name="LNICSALL"> T  </i>
   <i type="logical" name="ORBITALMAG"> F  </i>
   <i type="logical" name="LMAGBLOCH"> F  </i>
   <i type="logical" name="LCHIMAG"> F  </i>
   <i type="logical" name="LGAUGE"> T  </i>
   <i type="int" name="MAGATOM">     0</i>
   <v name="MAGDIPOL">      0.00000000      0.00000000      0.00000000</v>
   <v name="AVECCONST">      0.00000000      0.00000000      0.00000000</v>
  </separator>
  <separator name="response functions" >
   <i type="logical" name="LADDER"> F  </i>
   <i type="logical" name="LFXC"> F  </i>
   <i type="logical" name="LHARTREE"> T  </i>
   <i type="int" name="IBSE">     0</i>
   <v type="int" name="KPOINT">    -1     0     0     0</v>
   <i type="logical" name="LTCTE"> F  </i>
   <i type="logical" name="LTETE"> F  </i>
   <i type="logical" name="LTRIPLET"> F  </i>
   <i type="logical" name="LFXCEPS"> F  </i>
   <i type="logical" name="LFXHEG"> F  </i>
   <i type="int" name="NATURALO">     0</i>
   <i type="logical" name="L2ORDER"> F  </i>
   <i type="logical" name="LUSEW"> F  </i>
   <i name="ENCUTGW">     -2.00000000</i>
   <i name="ENCUTGWSOFT">     -2.00000000</i>
   <i name="ENCUTLF">     -1.00000000</i>
   <i type="int" name="LMAXMP2">    -1</i>
   <i name="SCISSOR">      0.00000000</i>
   <i type="int" name="NOMEGA">     0</i>
   <i type="int" name="NOMEGAR">     0</i>
   <i type="int" name="NBANDSGW">    -1</i>
   <i type="int" name="NBANDSO">    -1</i>
   <i type="int" name="NBANDSV">    -1</i>
   <i type="int" name="NELM">     1</i>
   <i type="int" name="NELMHF">     1</i>
   <i type="int" name="DIM">     3</i>
   <i type="int" name="ANTIRES">     0</i>
   <i name="OMEGAMAX">    -30.00000000</i>
   <i name="OMEGAMIN">    -30.00000000</i>
   <i name="OMEGATL">   -200.00000000</i>
   <i type="int" name="OMEGAGRID">     0</i>
   <i name="CSHIFT">     -0.10000000</i>
   <i type="logical" name="SELFENERGY"> F  </i>
   <i type="logical" name="LSPECTRAL"> F  </i>
   <i type="logical" name="LSPECTRALGW"> F  </i>
   <i type="logical" name="LSINGLES"> F  </i>
   <i type="logical" name="LFERMIGW"> F  </i>
   <i type="logical" name="ODDONLYGW"> F  </i>
   <i type="logical" name="EVENONLYGW"> F  </i>
   <i type="int" name="NKREDLFX">     1</i>
   <i type="int" name="NKREDLFY">     1</i>
   <i type="int" name="NKREDLFZ">     1</i>
   <i type="int" name="MAXMEM">  1800</i>
   <i type="int" name="TELESCOPE">     0</i>
   <i type="int" name="TAUPAR">     1</i>
   <i type="int" name="OMEGAPAR">    -1</i>
   <i name="LAMBDA">      1.00000000</i>
  </separator>
  <separator name="External order field" >
   <i name="OFIELD_KAPPA">      0.00000000</i>
   <v name="OFIELD_K">      0.00000000      0.00000000      0.00000000</v>
   <i name="OFIELD_Q6_NEAR">      0.00000000</i>
   <i name="OFIELD_Q6_FAR">      0.00000000</i>
   <i name="OFIELD_A">      0.00000000</i>
  </separator>
 </parameters>
 <atominfo>
  <atoms>      27 </atoms>
  <types>       4 </types>
  <array name="atoms" >
   <dimension dim="1">ion</dimension>
   <field type="string">element</field>
   <field type="int">atomtype</field>
   <set>
    <rc><c>V </c><c>   1</c></rc>
    <rc><c>V </c><c>   1</c></rc>
    <rc><c>V </c><c>   1</c></rc>
    <rc><c>Mo</c><c>   2</c></rc>
    <rc><c>Mo</c><c>   2</c></rc>
    <rc><c>Mo</c><c>   2</c></rc>
    <rc><c>W </c><c>   3</c></rc>
    <rc><c>W </c><c>   3</c></rc>
    <rc><c>W </c><c>   3</c></rc>
    <rc><c>S </c><c>   4</c></rc>
    <rc><c>S </c><c>   4</c></rc>
    <rc><c>S </c><c>   4</c></rc>
    <rc><c>S </c><c>   4</c></rc>
    <rc><c>S </c><c>   4</c></rc>
    <rc><c>S </c><c>   4</c></rc>
    <rc><c>S </c><c>   4</c></rc>
    <rc><c>S </c><c>   4</c></rc>
    <rc><c>S </c><c>   4</c></rc>
    <rc><c>S </c><c>   4</c></rc>
    <rc><c>S </c><c>   4</c></rc>
    <rc><c>S </c><c>   4</c></rc>
    <rc><c>S </c><c>   4</c></rc>
    <rc><c>S </c><c>   4</c></rc>
    <rc><c>S </c><c>   4</c></rc>
    <rc><c>S </c><c>   4</c></rc>
    <rc><c>S </c><c>   4</c></rc>
    <rc><c>S </c><c>   4</c></rc>
   </set>
  </array>
  <array name="atomtypes" >
   <dimension dim="1">type</dimension>
   <field type="int">atomspertype</field>
   <field type="string">element</field>
   <field>mass</field>
   <field>valence</field>
   <field type="string">pseudopotential</field>
   <set>
    <rc><c>   3</c><c>V </c><c>     50.94100000</c><c>      5.00000000</c><c> PAW_PBE V 08Apr2002                    </c></rc>
    <rc><c>   3</c><c>Mo</c><c>     95.94000000</c><c>      6.00000000</c><c> PAW_PBE Mo 08Apr2002                   </c></rc>
    <rc><c>   3</c><c>W </c><c>    183.85000000</c><c>      6.00000000</c><c> PAW_PBE W 08Apr2002                    </c></rc>
    <rc><c>  18</c><c>S </c><c>     32.06600000</c><c>      6.00000000</c><c>  PAW_PBE S 17Jan2003                   </c></rc>
   </set>
  </array>
 </atominfo>
 <structure name="initialpos" >
  <crystal>
   <varray name="basis" >
    <v>       8.66999996       5.03999989       0.00000000 </v>
    <v>      -8.66999982       5.04000013       0.00000000 </v>
    <v>       0.00000000       0.00000000      30.00000000 </v>
   </varray>
   <i name="volume">   2621.80797419 </i>
   <varray name="rec_basis" >
    <v>       0.05767013       0.09920635       0.00000000 </v>
    <v>      -0.05767013       0.09920635       0.00000000 </v>
    <v>       0.00000000       0.00000000       0.03333333 </v>
   </varray>
  </crystal>
  <varray name="positions" >
   <v>       0.66666669       0.00000000       0.00000000 </v>
   <v>       0.00000000       0.00000000       0.00000000 </v>
   <v>       0.66666669       0.33333334       0.00000000 </v>
   <v>       0.33333334       0.33333334       0.00000000 </v>
   <v>       0.33333334       0.66666669       0.00000000 </v>
   <v>       0.66666669       0.66666669       0.00000000 </v>
   <v>       1.00000000       0.33333334       0.00000000 </v>
   <v>       0.00000000       0.66666669       0.00000000 </v>
   <v>       0.33333334       0.00000000       0.00000000 </v>
   <v>       0.11068511       0.22244981       0.95539999 </v>
   <v>       0.22244981       0.11068511       0.04460000 </v>
   <v>       0.11068511       0.55578315       0.95539999 </v>
   <v>       0.22244981       0.44401845       0.04460000 </v>
   <v>       0.11068511       0.88911647       0.95539999 </v>
   <v>       0.22244981       0.77735180       0.04460000 </v>
   <v>       0.44401845       0.22244981       0.95539999 </v>
   <v>       0.55578315       0.11068511       0.04460000 </v>
   <v>       0.44401845       0.55578315       0.95539999 </v>
   <v>       0.55578315       0.44401845       0.04460000 </v>
   <v>       0.44401845       0.88911647       0.95539999 </v>
   <v>       0.55578315       0.77735180       0.04460000 </v>
   <v>       0.77735180       0.22244981       0.95539999 </v>
   <v>       0.88911647       0.11068511       0.04460000 </v>
   <v>       0.77735180       0.55578315       0.95539999 </v>
   <v>       0.88911647       0.44401845       0.04460000 </v>
   <v>       0.77735180       0.88911647       0.95539999 </v>
   <v>       0.88911647       0.77735180       0.04460000 </v>
  </varray>
 </structure>
 <calculation>
  <scstep>
   <time name="dav">   22.90   22.96</time>
   <time name="total">   22.94   23.01</time>
   <energy>
    <i name="alphaZ">     81.65567618 </i>
    <i name="ewald">  41890.25209520 </i>
    <i name="hartreedc"> -47722.88012941 </i>
    <i name="XCdc">   -242.92958177 </i>
    <i name="pawpsdc">   3467.42045192 </i>
    <i name="pawaedc">  -2871.19716117 </i>
    <i name="eentropy">     -0.52790950 </i>
    <i name="bandstr">   -236.92884697 </i>
    <i name="atom">   6761.44252427 </i>
    <i name="e_fr_energy">   1126.30711875 </i>
    <i name="e_wo_entrp">   1126.83502824 </i>
    <i name="e_0_energy">   1126.57107350 </i>
   </energy>
  </scstep>
  <scstep>
   <time name="dav">   29.52   29.59</time>
   <time name="total">   29.52   29.60</time>
   <energy>
    <i name="e_fr_energy">      0.02549123 </i>
    <i name="e_wo_entrp">      0.20729894 </i>
    <i name="e_0_energy">      0.11639509 </i>
   </energy>
  </scstep>
  <scstep>
   <time name="dav">   28.85   28.92</time>
   <time name="total">   28.86   28.93</time>
   <energy>
    <i name="e_fr_energy">   -199.41302246 </i>
    <i name="e_wo_entrp">   -199.13774975 </i>
    <i name="e_0_energy">   -199.27538611 </i>
   </energy>
  </scstep>
  <scstep>
   <time name="dav">   31.59   31.67</time>
   <time name="total">   31.59   31.68</time>
   <energy>
    <i name="e_fr_energy">   -208.91743346 </i>
    <i name="e_wo_entrp">   -208.60772517 </i>
    <i name="e_0_energy">   -208.76257931 </i>
   </energy>
  </scstep>
  <scstep>
   <time name="dav">   30.14   30.22</time>
   <time name="total">   30.61   30.69</time>
   <energy>
    <i name="e_fr_energy">   -209.24648597 </i>
    <i name="e_wo_entrp">   -208.94000965 </i>
    <i name="e_0_energy">   -209.09324781 </i>
   </energy>
  </scstep>
  <scstep>
   <time name="dav">   32.60   32.68</time>
   <time name="total">   33.10   33.21</time>
   <energy>
    <i name="e_fr_energy">   -236.61471502 </i>
    <i name="e_wo_entrp">   -236.34033111 </i>
    <i name="e_0_energy">   -236.47752306 </i>
   </energy>
  </scstep>
  <scstep>
   <time name="dav">   33.58   33.66</time>
   <time name="total">   34.17   34.26</time>
   <energy>
    <i name="e_fr_energy">   -196.79265878 </i>
    <i name="e_wo_entrp">   -196.45319705 </i>
    <i name="e_0_energy">   -196.62292792 </i>
   </energy>
  </scstep>
  <scstep>
   <time name="dav">   30.63   30.70</time>
   <time name="total">   31.23   31.32</time>
   <energy>
    <i name="e_fr_energy">   -190.23168981 </i>
    <i name="e_wo_entrp">   -189.96388502 </i>
    <i name="e_0_energy">   -190.09778741 </i>
   </energy>
  </scstep>
  <scstep>
   <time name="dav">   31.08   31.15</time>
   <time name="total">   31.68   31.77</time>
   <energy>
    <i name="e_fr_energy">   -188.31328742 </i>
    <i name="e_wo_entrp">   -187.98328625 </i>
    <i name="e_0_energy">   -188.14828683 </i>
   </energy>
  </scstep>
  <scstep>
   <time name="dav">   33.54   33.62</time>
   <time name="total">   34.15   34.24</time>
   <energy>
    <i name="e_fr_energy">   -187.16405196 </i>
    <i name="e_wo_entrp">   -186.82226192 </i>
    <i name="e_0_energy">   -186.99315694 </i>
   </energy>
  </scstep>
  <scstep>
   <time name="dav">   32.62   32.70</time>
   <time name="total">   33.23   33.32</time>
   <energy>
    <i name="e_fr_energy">   -187.00305418 </i>
    <i name="e_wo_entrp">   -186.65446675 </i>
    <i name="e_0_energy">   -186.82876047 </i>
   </energy>
  </scstep>
  <scstep>
   <time name="dav">   33.35   33.43</time>
   <time name="total">   33.97   34.06</time>
   <energy>
    <i name="e_fr_energy">   -187.10102451 </i>
    <i name="e_wo_entrp">   -186.76856667 </i>
    <i name="e_0_energy">   -186.93479559 </i>
   </energy>
  </scstep>
  <scstep>
   <time name="dav">   33.72   33.80</time>
   <time name="total">   34.33   34.42</time>
   <energy>
    <i name="e_fr_energy">   -186.94051134 </i>
    <i name="e_wo_entrp">   -186.60536033 </i>
    <i name="e_0_energy">   -186.77293583 </i>
   </energy>
  </scstep>
  <scstep>
   <time name="dav">   33.70   33.78</time>
   <time name="total">   34.32   34.41</time>
   <energy>
    <i name="e_fr_energy">   -186.90099767 </i>
    <i name="e_wo_entrp">   -186.56026969 </i>
    <i name="e_0_energy">   -186.73063368 </i>
   </energy>
  </scstep>
  <scstep>
   <time name="dav">   33.18   33.26</time>
   <time name="total">   33.79   33.88</time>
   <energy>
    <i name="e_fr_energy">   -186.89840895 </i>
    <i name="e_wo_entrp">   -186.55520935 </i>
    <i name="e_0_energy">   -186.72680915 </i>
   </energy>
  </scstep>
  <scstep>
   <time name="dav">   32.66   32.74</time>
   <time name="total">   33.27   33.36</time>
   <energy>
    <i name="e_fr_energy">   -186.89181857 </i>
    <i name="e_wo_entrp">   -186.54857989 </i>
    <i name="e_0_energy">   -186.72019923 </i>
   </energy>
  </scstep>
  <scstep>
   <time name="dav">   33.09   33.17</time>
   <time name="total">   33.70   33.80</time>
   <energy>
    <i name="e_fr_energy">   -186.88937716 </i>
    <i name="e_wo_entrp">   -186.54720865 </i>
    <i name="e_0_energy">   -186.71829291 </i>
   </energy>
  </scstep>
  <scstep>
   <time name="dav">   32.59   32.67</time>
   <time name="total">   33.21   33.29</time>
   <energy>
    <i name="e_fr_energy">   -186.88840766 </i>
    <i name="e_wo_entrp">   -186.54735531 </i>
    <i name="e_0_energy">   -186.71788148 </i>
   </energy>
  </scstep>
  <scstep>
   <time name="dav">   30.17   30.25</time>
   <time name="total">   30.79   30.87</time>
   <energy>
    <i name="e_fr_energy">   -186.88805605 </i>
    <i name="e_wo_entrp">   -186.54636550 </i>
    <i name="e_0_energy">   -186.71721078 </i>
   </energy>
  </scstep>
  <scstep>
   <time name="dav">   24.71   24.77</time>
   <time name="total">   25.33   25.40</time>
   <energy>
    <i name="e_fr_energy">   -186.88880715 </i>
    <i name="e_wo_entrp">   -186.54745300 </i>
    <i name="e_0_energy">   -186.71813008 </i>
   </energy>
  </scstep>
  <scstep>
   <time name="dav">   23.33   23.38</time>
   <time name="total">   23.94   24.00</time>
   <energy>
    <i name="e_fr_energy">   -186.88936430 </i>
    <i name="e_wo_entrp">   -186.54794769 </i>
    <i name="e_0_energy">   -186.71865600 </i>
   </energy>
  </scstep>
  <scstep>
   <time name="dav">   21.47   21.53</time>
   <time name="total">   22.09   22.15</time>
   <energy>
    <i name="e_fr_energy">   -186.89052561 </i>
    <i name="e_wo_entrp">   -186.54907413 </i>
    <i name="e_0_energy">   -186.71979987 </i>
   </energy>
  </scstep>
  <scstep>
   <time name="dav">   21.59   21.64</time>
   <time name="total">   22.20   22.26</time>
   <energy>
    <i name="e_fr_energy">   -186.89175060 </i>
    <i name="e_wo_entrp">   -186.55040379 </i>
    <i name="e_0_energy">   -186.72107719 </i>
   </energy>
  </scstep>
  <scstep>
   <time name="dav">   20.02   20.07</time>
   <time name="total">   20.64   20.69</time>
   <energy>
    <i name="e_fr_energy">   -186.89234323 </i>
    <i name="e_wo_entrp">   -186.55096462 </i>
    <i name="e_0_energy">   -186.72165393 </i>
   </energy>
  </scstep>
  <scstep>
   <time name="dav">   17.38   17.42</time>
   <time name="total">   17.99   18.04</time>
   <energy>
    <i name="e_fr_energy">   -186.89272931 </i>
    <i name="e_wo_entrp">   -186.55131521 </i>
    <i name="e_0_energy">   -186.72202226 </i>
   </energy>
  </scstep>
  <scstep>
   <time name="dav">   20.14   20.19</time>
   <time name="total">   20.75   20.81</time>
   <energy>
    <i name="e_fr_energy">   -186.89296985 </i>
    <i name="e_wo_entrp">   -186.55157123 </i>
    <i name="e_0_energy">   -186.72227054 </i>
   </energy>
  </scstep>
  <scstep>
   <time name="dav">   21.12   21.17</time>
   <time name="total">   21.15   21.21</time>
   <energy>
    <i name="alphaZ">     81.65567618 </i>
    <i name="ewald">  41890.25209520 </i>
    <i name="hartreedc"> -47833.19594457 </i>
    <i name="XCdc">   -231.59883962 </i>
    <i name="pawpsdc">   4192.18583544 </i>
    <i name="pawaedc">  -3610.20994765 </i>
    <i name="eentropy">     -0.34139901 </i>
    <i name="bandstr">  -1437.08306987 </i>
    <i name="atom">   6761.44252427 </i>
    <i name="e_fr_energy">   -186.89306963 </i>
    <i name="e_wo_entrp">   -186.55167062 </i>
    <i name="e_0_energy">   -186.72237013 </i>
   </energy>
  </scstep>
  <structure>
   <crystal>
    <varray name="basis" >
     <v>       8.66999996       5.03999989       0.00000000 </v>
     <v>      -8.66999982       5.04000013       0.00000000 </v>
     <v>       0.00000000       0.00000000      30.00000000 </v>
    </varray>
    <i name="volume">   2621.80797419 </i>
    <varray name="rec_basis" >
     <v>       0.05767013       0.09920635       0.00000000 </v>
     <v>      -0.05767013       0.09920635       0.00000000 </v>
     <v>       0.00000000       0.00000000       0.03333333 </v>
    </varray>
   </crystal>
   <varray name="positions" >
    <v>       0.66666669       0.00000000       0.00000000 </v>
    <v>       0.00000000       0.00000000       0.00000000 </v>
    <v>       0.66666669       0.33333334       0.00000000 </v>
    <v>       0.33333334       0.33333334       0.00000000 </v>
    <v>       0.33333334       0.66666669       0.00000000 </v>
    <v>       0.66666669       0.66666669       0.00000000 </v>
    <v>       1.00000000       0.33333334       0.00000000 </v>
    <v>       0.00000000       0.66666669       0.00000000 </v>
    <v>       0.33333334       0.00000000       0.00000000 </v>
    <v>       0.11068511       0.22244981       0.95539999 </v>
    <v>       0.22244981       0.11068511       0.04460000 </v>
    <v>       0.11068511       0.55578315       0.95539999 </v>
    <v>       0.22244981       0.44401845       0.04460000 </v>
    <v>       0.11068511       0.88911647       0.95539999 </v>
    <v>       0.22244981       0.77735180       0.04460000 </v>
    <v>       0.44401845       0.22244981       0.95539999 </v>
    <v>       0.55578315       0.11068511       0.04460000 </v>
    <v>       0.44401845       0.55578315       0.95539999 </v>
    <v>       0.55578315       0.44401845       0.04460000 </v>
    <v>       0.44401845       0.88911647       0.95539999 </v>
    <v>       0.55578315       0.77735180       0.04460000 </v>
    <v>       0.77735180       0.22244981       0.95539999 </v>
    <v>       0.88911647       0.11068511       0.04460000 </v>
    <v>       0.77735180       0.55578315       0.95539999 </v>
    <v>       0.88911647       0.44401845       0.04460000 </v>
    <v>       0.77735180       0.88911647       0.95539999 </v>
    <v>       0.88911647       0.77735180       0.04460000 </v>
   </varray>
  </structure>
  <varray name="forces" >
   <v>       0.22264204      -0.27042079      -0.04603621 </v>
   <v>      -0.05721979      -0.04218084      -0.08647025 </v>
   <v>      -0.35196895      -0.03149940       0.06766371 </v>
   <v>      -0.26850352       0.44729863       0.13932031 </v>
   <v>       0.53361770      -0.02468380       0.01806693 </v>
   <v>      -0.29277737      -0.40198338       0.00237988 </v>
   <v>       0.28293171       0.29318491      -0.05963022 </v>
   <v>      -0.05111392      -0.02603245      -0.09013251 </v>
   <v>       0.01545340       0.09576982       0.05274761 </v>
   <v>       0.36653805      -0.73324437      -2.15665848 </v>
   <v>      -0.36374836      -0.68422727       2.11233444 </v>
   <v>       0.03298351      -0.11067861      -2.90812596 </v>
   <v>      -0.19279575      -0.14150058       2.93822116 </v>
   <v>      -0.62465148      -0.01829791      -2.17485731 </v>
   <v>      -0.24835194       0.00800321       2.85069531 </v>
   <v>       0.61967305       0.53888222      -2.13011982 </v>
   <v>       0.22010270       0.52921952       1.43892084 </v>
   <v>       0.10704051       0.01501220      -2.94168722 </v>
   <v>       0.76934903      -0.01769615       2.14922600 </v>
   <v>       0.36204075       0.68177775      -2.14672266 </v>
   <v>      -0.52724561       0.69071622       2.17418105 </v>
   <v>      -0.23780388      -0.51691537      -1.35788849 </v>
   <v>       0.23484570      -0.52665036       1.41243450 </v>
   <v>       0.62468663      -0.53212228      -2.13093590 </v>
   <v>      -0.48100762      -0.60405473       2.17832193 </v>
   <v>      -0.32391036       0.68762132      -1.42541590 </v>
   <v>      -0.37080622       0.69470249       2.12016727 </v>
  </varray>
  <varray name="stress" >
   <v>       7.27238988      -0.05143482      -1.53929424 </v>
   <v>      -0.05143481       4.50810674      -0.05186789 </v>
   <v>      -1.53929433      -0.05186772      30.27129082 </v>
  </varray>
  <energy>
   <i name="e_fr_energy">   -186.89306963 </i>
   <i name="e_wo_entrp">   -186.72237013 </i>
   <i name="e_0_energy">     -0.34139901 </i>
  </energy>
  <time name="totalsc">  826.26  828.54</time>
 </calculation>
 <calculation>
  <scstep>
   <time name="dav">   22.79   22.85</time>
   <time name="total">   23.41   23.47</time>
   <energy>
    <i name="alphaZ">     78.91535101 </i>
    <i name="ewald">  39377.60021472 </i>
    <i name="hartreedc"> -45335.15619577 </i>
    <i name="XCdc">   -239.05671041 </i>
    <i name="pawpsdc">   4192.16230103 </i>
    <i name="pawaedc">  -3610.18676895 </i>
    <i name="eentropy">     -0.28154305 </i>
    <i name="bandstr">  -1412.97263070 </i>
    <i name="atom">   6761.44252427 </i>
    <i name="e_fr_energy">   -187.53345785 </i>
    <i name="e_wo_entrp">   -187.25191480 </i>
    <i name="e_0_energy">   -187.39268632 </i>
   </energy>
  </scstep>
  <scstep>
   <time name="dav">   31.80   31.88</time>
   <time name="total">   32.41   32.50</time>
   <energy>
    <i name="e_fr_energy">   -189.42796121 </i>
    <i name="e_wo_entrp">   -189.10250845 </i>
    <i name="e_0_energy">   -189.26523483 </i>
   </energy>
  </scstep>
  <scstep>
   <time name="dav">   31.91   31.98</time>
   <time name="total">   32.54   32.62</time>
   <energy>
    <i name="e_fr_energy">   -189.39517821 </i>
    <i name="e_wo_entrp">   -189.12204509 </i>
    <i name="e_0_energy">   -189.25861165 </i>
   </energy>
  </scstep>
  <scstep>
   <time name="dav">   32.12   32.20</time>
   <time name="total">   32.74   32.83</time>
   <energy>
    <i name="e_fr_energy">   -188.78801578 </i>
    <i name="e_wo_entrp">   -188.50768432 </i>
    <i name="e_0_energy">   -188.64785005 </i>
   </energy>
  </scstep>
  <scstep>
   <time name="dav">   31.16   31.23</time>
   <time name="total">   31.78   31.86</time>
   <energy>
    <i name="e_fr_energy">   -188.89548076 </i>
    <i name="e_wo_entrp">   -188.60558055 </i>
    <i name="e_0_energy">   -188.75053066 </i>
   </energy>
  </scstep>
  <scstep>
   <time name="dav">   32.96   33.04</time>
   <time name="total">   33.58   33.67</time>
   <energy>
    <i name="e_fr_energy">   -188.75274638 </i>
    <i name="e_wo_entrp">   -188.47467748 </i>
    <i name="e_0_energy">   -188.61371193 </i>
   </energy>
  </scstep>
  <scstep>
   <time name="dav">   30.83   30.90</time>
   <time name="total">   31.45   31.54</time>
   <energy>
    <i name="e_fr_energy">   -188.72262401 </i>
    <i name="e_wo_entrp">   -188.44205236 </i>
    <i name="e_0_energy">   -188.58233819 </i>
   </energy>
  </scstep>
  <scstep>
   <time name="dav">   33.89   33.97</time>
   <time name="total">   34.51   34.60</time>
   <energy>
    <i name="e_fr_energy">   -188.71178994 </i>
    <i name="e_wo_entrp">   -188.43286565 </i>
    <i name="e_0_energy">   -188.57232779 </i>
   </energy>
  </scstep>
  <scstep>
   <time name="dav">   30.69   30.77</time>
   <time name="total">   31.32   31.41</time>
   <energy>
    <i name="e_fr_energy">   -188.70194435 </i>
    <i name="e_wo_entrp">   -188.42322099 </i>
    <i name="e_0_energy">   -188.56258267 </i>
   </energy>
  </scstep>
  <scstep>
   <time name="dav">   30.57   30.64</time>
   <time name="total">   31.19   31.27</time>
   <energy>
    <i name="e_fr_energy">   -188.70130988 </i>
    <i name="e_wo_entrp">   -188.42305056 </i>
    <i name="e_0_energy">   -188.56218022 </i>
   </energy>
  </scstep>
  <scstep>
   <time name="dav">   31.98   32.06</time>
   <time name="total">   32.61   32.70</time>
   <energy>
    <i name="e_fr_energy">   -188.70073260 </i>
    <i name="e_wo_entrp">   -188.42264378 </i>
    <i name="e_0_energy">   -188.56168819 </i>
   </energy>
  </scstep>
  <scstep>
   <time name="dav">   29.86   29.93</time>
   <time name="total">   30.48   30.56</time>
   <energy>
    <i name="e_fr_energy">   -188.70085147 </i>
    <i name="e_wo_entrp">   -188.42286941 </i>
    <i name="e_0_energy">   -188.56186044 </i>
   </energy>
  </scstep>
  <scstep>
   <time name="dav">   22.65   22.70</time>
   <time name="total">   22.69   22.75</time>
   <energy>
    <i name="alphaZ">     78.91535101 </i>
    <i name="ewald">  39377.60021472 </i>
    <i name="hartreedc"> -45345.89828507 </i>
    <i name="XCdc">   -237.96857108 </i>
    <i name="pawpsdc">   3950.58705966 </i>
    <i name="pawaedc">  -3365.10840434 </i>
    <i name="eentropy">     -0.27807015 </i>
    <i name="bandstr">  -1407.99260271 </i>
    <i name="atom">   6761.44252427 </i>
    <i name="e_fr_energy">   -188.70078368 </i>
    <i name="e_wo_entrp">   -188.42271353 </i>
    <i name="e_0_energy">   -188.56174860 </i>
   </energy>
  </scstep>
  <structure>
   <crystal>
    <varray name="basis" >
     <v>       8.85359660       5.10512881       0.00000000 </v>
     <v>      -8.85511238       5.10773679       0.00000000 </v>
     <v>       0.00000000       0.00000000      30.00000000 </v>
    </varray>
    <i name="volume">   2712.84991072 </i>
    <varray name="rec_basis" >
     <v>       0.05648381       0.09792409       0.00000000 </v>
     <v>      -0.05645497       0.09790733       0.00000000 </v>
     <v>       0.00000000       0.00000000       0.03333333 </v>
    </varray>
   </crystal>
   <varray name="positions" >
    <v>       0.66599188      -0.00191365      -0.00007403 </v>
    <v>      -0.00036107      -0.00004268      -0.00013905 </v>
    <v>       0.66553670       0.33416182       0.00010881 </v>
    <v>       0.33472708       0.33622112       0.00022404 </v>
    <v>       0.33469982       0.66506394       0.00002905 </v>
    <v>       0.66392825       0.66555736       0.00000383 </v>
    <v>       1.00219034       0.33394936      -0.00009589 </v>
    <v>      -0.00026680       0.66668430      -0.00014494 </v>
    <v>       0.33383469       0.00041536       0.00008482 </v>
    <v>       0.10819559       0.21792075       0.95193189 </v>
    <v>       0.21816311       0.10842242       0.04799682 </v>
    <v>       0.11024717       0.55516168       0.95072347 </v>
    <v>       0.22123620       0.44387762       0.04932492 </v>
    <v>       0.10885966       0.89076677       0.95190263 </v>
    <v>       0.22179716       0.77808105       0.04918417 </v>
    <v>       0.44832156       0.22330486       0.95197457 </v>
    <v>       0.55892835       0.11260558       0.04691391 </v>
    <v>       0.44438811       0.55555720       0.95066950 </v>
    <v>       0.55783891       0.44179331       0.04805614 </v>
    <v>       0.44828868       0.89137218       0.95194787 </v>
    <v>       0.55762202       0.78212443       0.04809627 </v>
    <v>       0.77421624       0.22063747       0.95321639 </v>
    <v>       0.88724931       0.10751119       0.04687132 </v>
    <v>       0.77654305       0.55149845       0.95197326 </v>
    <v>       0.88488723       0.44246570       0.04810293 </v>
    <v>       0.77974157       0.89330858       0.95310780 </v>
    <v>       0.89140965       0.78170827       0.04800942 </v>
   </varray>
  </structure>
  <varray name="forces" >
   <v>       0.14799745      -0.26561106      -0.09795578 </v>
   <v>       0.05277390      -0.03816551       0.03918736 </v>
   <v>      -0.30114449      -0.01985497      -0.05389792 </v>
   <v>      -0.42039225       0.50433241       0.03584981 </v>
   <v>       0.54108743      -0.20305075      -0.00119936 </v>
   <v>      -0.27084627      -0.52849871       0.01140079 </v>
   <v>       0.18630034       0.50848801      -0.10569545 </v>
   <v>       0.04006193       0.08049353       0.05850588 </v>
   <v>      -0.00759010      -0.08565772       0.08185095 </v>
   <v>      -0.10243317      -0.04037790       0.03013462 </v>
   <v>       0.10751125      -0.04035583      -0.13041396 </v>
   <v>      -0.06282646      -0.08070552      -0.02839150 </v>
   <v>      -0.04370049      -0.09971390       0.27963672 </v>
   <v>       0.06870245      -0.00264847      -0.00562200 </v>
   <v>      -0.09010273      -0.00378532      -0.10532315 </v>
   <v>       0.07199801      -0.05616498       0.08464209 </v>
   <v>      -0.05522819      -0.06617665      -0.11290705 </v>
   <v>       0.00408691      -0.00074167      -0.35293200 </v>
   <v>       0.04702459      -0.00058703       0.21625249 </v>
   <v>      -0.10597213       0.04799336       0.06351230 </v>
   <v>      -0.01990898       0.07687822       0.15168647 </v>
   <v>       0.06586953       0.07955412       0.31609500 </v>
   <v>      -0.06601772       0.07231555      -0.15868513 </v>
   <v>       0.07487494       0.04780633       0.04487414 </v>
   <v>       0.05795527       0.04396868      -0.14730825 </v>
   <v>      -0.01813583       0.02758714       0.04786889 </v>
   <v>       0.09805483       0.04267863      -0.16116599 </v>
  </varray>
  <varray name="stress" >
   <v>     -19.87171374       0.00211606       0.02540428 </v>
   <v>       0.00211589     -19.47840202       0.00519510 </v>
   <v>       0.02540413       0.00519521      -1.74752980 </v>
  </varray>
  <energy>
   <i name="e_fr_energy">   -188.70078368 </i>
   <i name="e_wo_entrp">   -188.56174860 </i>
   <i name="e_0_energy">     -0.27807015 </i>
  </energy>
  <time name="totalsc">  444.15  445.33</time>
 </calculation>
 <calculation>
  <scstep>
   <time name="dav">   24.51   24.57</time>
   <time name="total">   25.12   25.18</time>
   <energy>
    <i name="alphaZ">     82.32986702 </i>
    <i name="ewald">  41295.53045891 </i>
    <i name="hartreedc"> -47294.20104085 </i>
    <i name="XCdc">   -233.85795664 </i>
    <i name="pawpsdc">   3949.73263007 </i>
    <i name="pawaedc">  -3364.24629327 </i>
    <i name="eentropy">     -0.23502501 </i>
    <i name="bandstr">  -1387.11491375 </i>
    <i name="atom">   6761.44252427 </i>
    <i name="e_fr_energy">   -190.61974925 </i>
    <i name="e_wo_entrp">   -190.38472424 </i>
    <i name="e_0_energy">   -190.50223674 </i>
   </energy>
  </scstep>
  <scstep>
   <time name="dav">   29.37   29.44</time>
   <time name="total">   29.98   30.06</time>
   <energy>
    <i name="e_fr_energy">   -190.56606390 </i>
    <i name="e_wo_entrp">   -190.33219836 </i>
    <i name="e_0_energy">   -190.44913113 </i>
   </energy>
  </scstep>
  <scstep>
   <time name="dav">   31.85   31.93</time>
   <time name="total">   32.46   32.55</time>
   <energy>
    <i name="e_fr_energy">   -190.10593480 </i>
    <i name="e_wo_entrp">   -189.85534608 </i>
    <i name="e_0_energy">   -189.98064044 </i>
   </energy>
  </scstep>
  <scstep>
   <time name="dav">   32.77   32.85</time>
   <time name="total">   33.39   33.47</time>
   <energy>
    <i name="e_fr_energy">   -189.89728039 </i>
    <i name="e_wo_entrp">   -189.66376086 </i>
    <i name="e_0_energy">   -189.78052063 </i>
   </energy>
  </scstep>
  <scstep>
   <time name="dav">   31.71   31.79</time>
   <time name="total">   32.32   32.40</time>
   <energy>
    <i name="e_fr_energy">   -189.87644279 </i>
    <i name="e_wo_entrp">   -189.63807455 </i>
    <i name="e_0_energy">   -189.75725867 </i>
   </energy>
  </scstep>
  <scstep>
   <time name="dav">   32.50   32.58</time>
   <time name="total">   33.11   33.20</time>
   <energy>
    <i name="e_fr_energy">   -189.79959469 </i>
    <i name="e_wo_entrp">   -189.56231378 </i>
    <i name="e_0_energy">   -189.68095423 </i>
   </energy>
  </scstep>
  <scstep>
   <time name="dav">   30.13   30.20</time>
   <time name="total">   30.74   30.82</time>
   <energy>
    <i name="e_fr_energy">   -189.79316228 </i>
    <i name="e_wo_entrp">   -189.55643859 </i>
    <i name="e_0_energy">   -189.67480043 </i>
   </energy>
  </scstep>
  <scstep>
   <time name="dav">   31.16   31.24</time>
   <time name="total">   31.78   31.86</time>
   <energy>
    <i name="e_fr_energy">   -189.79359121 </i>
    <i name="e_wo_entrp">   -189.55690212 </i>
    <i name="e_0_energy">   -189.67524667 </i>
   </energy>
  </scstep>
  <scstep>
   <time name="dav">   28.30   28.36</time>
   <time name="total">   28.91   28.98</time>
   <energy>
    <i name="e_fr_energy">   -189.79320657 </i>
    <i name="e_wo_entrp">   -189.55642631 </i>
    <i name="e_0_energy">   -189.67481644 </i>
   </energy>
  </scstep>
  <scstep>
   <time name="dav">   26.07   26.13</time>
   <time name="total">   26.68   26.75</time>
   <energy>
    <i name="e_fr_energy">   -189.79339928 </i>
    <i name="e_wo_entrp">   -189.55652699 </i>
    <i name="e_0_energy">   -189.67496313 </i>
   </energy>
  </scstep>
  <scstep>
   <time name="dav">   24.22   24.27</time>
   <time name="total">   24.83   24.90</time>
   <energy>
    <i name="e_fr_energy">   -189.79319883 </i>
    <i name="e_wo_entrp">   -189.55634144 </i>
    <i name="e_0_energy">   -189.67477014 </i>
   </energy>
  </scstep>
  <scstep>
   <time name="dav">   20.83   20.88</time>
   <time name="total">   20.87   20.93</time>
   <energy>
    <i name="alphaZ">     82.32986702 </i>
    <i name="ewald">  41295.53045891 </i>
    <i name="hartreedc"> -47267.80450620 </i>
    <i name="XCdc">   -235.24490581 </i>
    <i name="pawpsdc">   4038.76213324 </i>
    <i name="pawaedc">  -3454.47508775 </i>
    <i name="eentropy">     -0.23686988 </i>
    <i name="bandstr">  -1410.09682980 </i>
    <i name="atom">   6761.44252427 </i>
    <i name="e_fr_energy">   -189.79321598 </i>
    <i name="e_wo_entrp">   -189.55634611 </i>
    <i name="e_0_energy">   -189.67478105 </i>
   </energy>
  </scstep>
  <structure>
   <crystal>
    <varray name="basis" >
     <v>       8.66621442       4.99923317       0.00000000 </v>
     <v>      -8.66767510       5.00174713       0.00000000 </v>
     <v>       0.00000000       0.00000000      30.00000000 </v>
    </varray>
    <i name="volume">   2600.33825747 </i>
    <varray name="rec_basis" >
     <v>       0.05770496       0.09999863       0.00000000 </v>
     <v>      -0.05767596       0.09998177       0.00000000 </v>
     <v>       0.00000000       0.00000000       0.03333333 </v>
    </varray>
   </crystal>
   <varray name="positions" >
    <v>       0.66569211      -0.00249724      -0.00012949 </v>
    <v>      -0.00037392      -0.00015675      -0.00011687 </v>
    <v>       0.66521477       0.33441756       0.00007830 </v>
    <v>       0.33516258       0.33746287       0.00024434 </v>
    <v>       0.33488119       0.66420747       0.00002837 </v>
    <v>       0.66278943       0.66493822       0.00001028 </v>
    <v>       1.00321477       0.33461628      -0.00015573 </v>
    <v>      -0.00009449       0.66677974      -0.00011182 </v>
    <v>       0.33368494       0.00028020       0.00013116 </v>
    <v>       0.10803016       0.21795182       0.95194895 </v>
    <v>       0.21819913       0.10825223       0.04792299 </v>
    <v>       0.11005267       0.55508772       0.95070739 </v>
    <v>       0.22102844       0.44375371       0.04948323 </v>
    <v>       0.10892116       0.89069649       0.95189944 </v>
    <v>       0.22170442       0.77816116       0.04912454 </v>
    <v>       0.44829722       0.22314243       0.95202249 </v>
    <v>       0.55876530       0.11254849       0.04684999 </v>
    <v>       0.44439079       0.55555204       0.95046969 </v>
    <v>       0.55788305       0.44174724       0.04817857 </v>
    <v>       0.44826684       0.89155360       0.95198383 </v>
    <v>       0.55773079       0.78227136       0.04818215 </v>
    <v>       0.77441175       0.22070660       0.95339534 </v>
    <v>       0.88730625       0.10769475       0.04678148 </v>
    <v>       0.77669439       0.55150615       0.95199866 </v>
    <v>       0.88501596       0.44248325       0.04801954 </v>
    <v>       0.77977005       0.89337184       0.95313490 </v>
    <v>       0.89157470       0.78168522       0.04791817 </v>
   </varray>
  </structure>
  <varray name="forces" >
   <v>       0.12462614      -0.27021926      -0.08713009 </v>
   <v>       0.11321339      -0.02985691       0.05762335 </v>
   <v>      -0.30483641      -0.00697504      -0.07336901 </v>
   <v>      -0.46298025       0.50902461       0.00217161 </v>
   <v>       0.52885913      -0.27306115      -0.00317633 </v>
   <v>      -0.24777375      -0.55338248       0.01300337 </v>
   <v>       0.15519530       0.57432944      -0.08626988 </v>
   <v>       0.07208204       0.12240108       0.07667085 </v>
   <v>      -0.02333080      -0.15592455       0.06129238 </v>
   <v>       0.03708732      -0.08177817      -0.46851077 </v>
   <v>      -0.02491102      -0.08124327       0.34884631 </v>
   <v>      -0.02461135       0.00241637      -0.59434325 </v>
   <v>      -0.00582171      -0.02932088       0.86339075 </v>
   <v>      -0.07559260       0.00359143      -0.52610403 </v>
   <v>       0.00534431      -0.00352748       0.43483989 </v>
   <v>       0.04899034       0.06426816      -0.39365505 </v>
   <v>       0.03272816       0.07695281       0.34703910 </v>
   <v>       0.00917699      -0.00244241      -0.91881329 </v>
   <v>       0.11297529       0.00347282       0.72899318 </v>
   <v>       0.01355400       0.09056190      -0.42381116 </v>
   <v>      -0.05905375       0.13540487       0.65117651 </v>
   <v>      -0.00672212      -0.04165250      -0.11581042 </v>
   <v>      -0.00237047      -0.04859935       0.28335062 </v>
   <v>       0.05547230      -0.07792722      -0.44240804 </v>
   <v>      -0.00110147      -0.08281606       0.34815380 </v>
   <v>      -0.03977882       0.07500772      -0.39791573 </v>
   <v>      -0.03042021       0.08129552       0.31476532 </v>
  </varray>
  <varray name="stress" >
   <v>     -10.15135574       0.00967540       0.00189138 </v>
   <v>       0.00967538      -9.84434107       0.01745322 </v>
   <v>       0.00189116       0.01745323       6.45873773 </v>
  </varray>
  <energy>
   <i name="e_fr_energy">   -189.79321598 </i>
   <i name="e_wo_entrp">   -189.67478105 </i>
   <i name="e_0_energy">     -0.23686988 </i>
  </energy>
  <time name="totalsc">  393.80  394.84</time>
 </calculation>
 <calculation>
  <scstep>
   <time name="dav">   22.82   22.88</time>
   <time name="total">   23.42   23.48</time>
   <energy>
    <i name="alphaZ">     85.80926619 </i>
    <i name="ewald">  42829.00400696 </i>
    <i name="hartreedc"> -48845.69705485 </i>
    <i name="XCdc">   -232.95111138 </i>
    <i name="pawpsdc">   4038.81014473 </i>
    <i name="pawaedc">  -3454.52091619 </i>
    <i name="eentropy">     -0.20512413 </i>
    <i name="bandstr">  -1373.06422538 </i>
    <i name="atom">   6761.44252427 </i>
    <i name="e_fr_energy">   -191.37248977 </i>
    <i name="e_wo_entrp">   -191.16736564 </i>
    <i name="e_0_energy">   -191.26992770 </i>
   </energy>
  </scstep>
  <scstep>
   <time name="dav">   33.79   33.87</time>
   <time name="total">   34.39   34.48</time>
   <energy>
    <i name="e_fr_energy">   -191.20626973 </i>
    <i name="e_wo_entrp">   -191.00108449 </i>
    <i name="e_0_energy">   -191.10367711 </i>
   </energy>
  </scstep>
  <scstep>
   <time name="dav">   31.55   31.62</time>
   <time name="total">   32.15   32.24</time>
   <energy>
    <i name="e_fr_energy">   -191.31600985 </i>
    <i name="e_wo_entrp">   -191.08757242 </i>
    <i name="e_0_energy">   -191.20179113 </i>
   </energy>
  </scstep>
  <scstep>
   <time name="dav">   32.03   32.11</time>
   <time name="total">   32.64   32.72</time>
   <energy>
    <i name="e_fr_energy">   -190.94196539 </i>
    <i name="e_wo_entrp">   -190.73330173 </i>
    <i name="e_0_energy">   -190.83763356 </i>
   </energy>
  </scstep>
  <scstep>
   <time name="dav">   32.32   32.40</time>
   <time name="total">   32.92   33.01</time>
   <energy>
    <i name="e_fr_energy">   -190.89782976 </i>
    <i name="e_wo_entrp">   -190.69080907 </i>
    <i name="e_0_energy">   -190.79431942 </i>
   </energy>
  </scstep>
  <scstep>
   <time name="dav">   31.66   31.73</time>
   <time name="total">   32.26   32.35</time>
   <energy>
    <i name="e_fr_energy">   -190.80636414 </i>
    <i name="e_wo_entrp">   -190.59557838 </i>
    <i name="e_0_energy">   -190.70097126 </i>
   </energy>
  </scstep>
  <scstep>
   <time name="dav">   32.69   32.77</time>
   <time name="total">   33.29   33.38</time>
   <energy>
    <i name="e_fr_energy">   -190.79232465 </i>
    <i name="e_wo_entrp">   -190.58235909 </i>
    <i name="e_0_energy">   -190.68734187 </i>
   </energy>
  </scstep>
  <scstep>
   <time name="dav">   29.91   29.98</time>
   <time name="total">   30.51   30.59</time>
   <energy>
    <i name="e_fr_energy">   -190.79160446 </i>
    <i name="e_wo_entrp">   -190.58170965 </i>
    <i name="e_0_energy">   -190.68665706 </i>
   </energy>
  </scstep>
  <scstep>
   <time name="dav">   29.62   29.69</time>
   <time name="total">   30.22   30.30</time>
   <energy>
    <i name="e_fr_energy">   -190.78942492 </i>
    <i name="e_wo_entrp">   -190.57960657 </i>
    <i name="e_0_energy">   -190.68451575 </i>
   </energy>
  </scstep>
  <scstep>
   <time name="dav">   29.69   29.76</time>
   <time name="total">   30.29   30.38</time>
   <energy>
    <i name="e_fr_energy">   -190.78969158 </i>
    <i name="e_wo_entrp">   -190.57981917 </i>
    <i name="e_0_energy">   -190.68475538 </i>
   </energy>
  </scstep>
  <scstep>
   <time name="dav">   26.21   26.27</time>
   <time name="total">   26.81   26.88</time>
   <energy>
    <i name="e_fr_energy">   -190.78957045 </i>
    <i name="e_wo_entrp">   -190.57970960 </i>
    <i name="e_0_energy">   -190.68464003 </i>
   </energy>
  </scstep>
  <scstep>
   <time name="dav">   20.46   20.51</time>
   <time name="total">   20.50   20.55</time>
   <energy>
    <i name="alphaZ">     85.80926619 </i>
    <i name="ewald">  42829.00400696 </i>
    <i name="hartreedc"> -48817.11932874 </i>
    <i name="XCdc">   -234.28108037 </i>
    <i name="pawpsdc">   4064.19988738 </i>
    <i name="pawaedc">  -3480.09673147 </i>
    <i name="eentropy">     -0.20990383 </i>
    <i name="bandstr">  -1399.53820790 </i>
    <i name="atom">   6761.44252427 </i>
    <i name="e_fr_energy">   -190.78956751 </i>
    <i name="e_wo_entrp">   -190.57966368 </i>
    <i name="e_0_energy">   -190.68461560 </i>
   </energy>
  </scstep>
  <structure>
   <crystal>
    <varray name="basis" >
     <v>       8.48477300       4.89964300       0.00000000 </v>
     <v>      -8.48572828       4.90128380       0.00000000 </v>
     <v>       0.00000000       0.00000000      30.00000000 </v>
    </varray>
    <i name="volume">   2494.89958869 </i>
    <varray name="rec_basis" >
     <v>       0.05893564       0.10203691       0.00000000 </v>
     <v>      -0.05891591       0.10202542       0.00000000 </v>
     <v>       0.00000000       0.00000000       0.03333333 </v>
    </varray>
   </crystal>
   <varray name="positions" >
    <v>       0.66440417      -0.00461868      -0.00030073 </v>
    <v>      -0.00004344      -0.00081955       0.00001820 </v>
    <v>       0.66409543       0.33551344      -0.00009027 </v>
    <v>       0.33662819       0.34239920       0.00022013 </v>
    <v>       0.33488983       0.66042705       0.00002011 </v>
    <v>       0.65839637       0.66227101       0.00003858 </v>
    <v>       1.00749521       0.33786357      -0.00031786 </v>
    <v>       0.00108447       0.66734479       0.00006247 </v>
    <v>       0.33242472      -0.00076564       0.00024059 </v>
    <v>       0.10774968       0.21700027       0.95055349 </v>
    <v>       0.21730623       0.10792204       0.04905407 </v>
    <v>       0.11024215       0.55534478       0.94899392 </v>
    <v>       0.22105463       0.44371260       0.05176914 </v>
    <v>       0.10847746       0.89121621       0.95036608 </v>
    <v>       0.22184016       0.77798258       0.05048565 </v>
    <v>       0.44914552       0.22370276       0.95079942 </v>
    <v>       0.55985139       0.11314372       0.04796087 </v>
    <v>       0.44441177       0.55549196       0.94808422 </v>
    <v>       0.55841886       0.44127554       0.05012558 </v>
    <v>       0.44916264       0.89200606       0.95069060 </v>
    <v>       0.55845576       0.78353630       0.04995668 </v>
    <v>       0.77371803       0.22027125       0.95278730 </v>
    <v>       0.88678226       0.10700418       0.04774517 </v>
    <v>       0.77606379       0.55053055       0.95066695 </v>
    <v>       0.88409019       0.44173615       0.04916300 </v>
    <v>       0.78018372       0.89413560       0.95193071 </v>
    <v>       0.89188526       0.78258673       0.04897583 </v>
   </varray>
  </structure>
  <varray name="forces" >
   <v>       0.09113135      -0.24118862      -0.03764442 </v>
   <v>       0.18349924      -0.04971191       0.06007374 </v>
   <v>      -0.30652699      -0.02159861      -0.07432835 </v>
   <v>      -0.46687094       0.48133037      -0.03097751 </v>
   <v>       0.47420059      -0.33088669      -0.00080884 </v>
   <v>      -0.21783759      -0.52550632       0.02187374 </v>
   <v>       0.14798501       0.58248238      -0.02191200 </v>
   <v>       0.09401168       0.17752525       0.05074214 </v>
   <v>      -0.03924427      -0.20259248       0.01253400 </v>
   <v>       0.04212668       0.05110548      -0.30433700 </v>
   <v>      -0.06627553       0.06395691       0.20881488 </v>
   <v>       0.01863381       0.08293906      -0.46137757 </v>
   <v>       0.03288176       0.03379395       0.68431528 </v>
   <v>      -0.04107815      -0.00756316      -0.39834542 </v>
   <v>       0.11228479       0.01140156       0.29740295 </v>
   <v>      -0.05578853       0.00716656      -0.20958122 </v>
   <v>       0.01702998       0.02834204       0.23871327 </v>
   <v>       0.00132698       0.00746655      -0.71429966 </v>
   <v>      -0.02055506      -0.01143029       0.56288593 </v>
   <v>       0.04849322      -0.03455267      -0.26801273 </v>
   <v>      -0.00332344      -0.00726608       0.45946696 </v>
   <v>       0.02999001       0.03974369      -0.02967539 </v>
   <v>      -0.02664997       0.02415981       0.13875559 </v>
   <v>      -0.03660961      -0.01436512      -0.26385310 </v>
   <v>       0.02849842      -0.03523122       0.20358638 </v>
   <v>       0.02326007      -0.04559462      -0.30590584 </v>
   <v>      -0.06459351      -0.06392583       0.18189420 </v>
  </varray>
  <varray name="stress" >
   <v>      -5.70634958      -0.08029334      -0.01541166 </v>
   <v>      -0.08029339      -5.65710888      -0.04347277 </v>
   <v>      -0.01541175      -0.04347312       4.48869397 </v>
  </varray>
  <energy>
   <i name="e_fr_energy">   -190.78956751 </i>
   <i name="e_wo_entrp">   -190.68461560 </i>
   <i name="e_0_energy">     -0.20990383 </i>
  </energy>
  <time name="totalsc">  402.80  403.87</time>
 </calculation>
 <calculation>
  <scstep>
   <time name="dav">   22.83   22.89</time>
   <time name="total">   23.42   23.48</time>
   <energy>
    <i name="alphaZ">     90.06197615 </i>
    <i name="ewald">  44613.93042972 </i>
    <i name="hartreedc"> -50656.21144285 </i>
    <i name="XCdc">   -231.90137478 </i>
    <i name="pawpsdc">   4064.14332229 </i>
    <i name="pawaedc">  -3480.03647795 </i>
    <i name="eentropy">     -0.20322888 </i>
    <i name="bandstr">  -1353.32071401 </i>
    <i name="atom">   6761.44252427 </i>
    <i name="e_fr_energy">   -192.09498604 </i>
    <i name="e_wo_entrp">   -191.89175716 </i>
    <i name="e_0_energy">   -191.99337160 </i>
   </energy>
  </scstep>
  <scstep>
   <time name="dav">   29.89   29.96</time>
   <time name="total">   30.48   30.56</time>
   <energy>
    <i name="e_fr_energy">   -191.86194916 </i>
    <i name="e_wo_entrp">   -191.65292837 </i>
    <i name="e_0_energy">   -191.75743877 </i>
   </energy>
  </scstep>
  <scstep>
   <time name="dav">   29.37   29.44</time>
   <time name="total">   29.95   30.04</time>
   <energy>
    <i name="e_fr_energy">   -192.06238623 </i>
    <i name="e_wo_entrp">   -191.84266970 </i>
    <i name="e_0_energy">   -191.95252796 </i>
   </energy>
  </scstep>
  <scstep>
   <time name="dav">   29.93   30.00</time>
   <time name="total">   30.53   30.61</time>
   <energy>
    <i name="e_fr_energy">   -191.74745985 </i>
    <i name="e_wo_entrp">   -191.53224977 </i>
    <i name="e_0_energy">   -191.63985481 </i>
   </energy>
  </scstep>
  <scstep>
   <time name="dav">   31.84   31.92</time>
   <time name="total">   32.43   32.52</time>
   <energy>
    <i name="e_fr_energy">   -191.57249646 </i>
    <i name="e_wo_entrp">   -191.37266369 </i>
    <i name="e_0_energy">   -191.47258008 </i>
   </energy>
  </scstep>
  <scstep>
   <time name="dav">   31.68   31.76</time>
   <time name="total">   32.27   32.36</time>
   <energy>
    <i name="e_fr_energy">   -191.44736987 </i>
    <i name="e_wo_entrp">   -191.23457885 </i>
    <i name="e_0_energy">   -191.34097436 </i>
   </energy>
  </scstep>
  <scstep>
   <time name="dav">   31.68   31.76</time>
   <time name="total">   32.28   32.36</time>
   <energy>
    <i name="e_fr_energy">   -191.43314190 </i>
    <i name="e_wo_entrp">   -191.22224317 </i>
    <i name="e_0_energy">   -191.32769254 </i>
   </energy>
  </scstep>
  <scstep>
   <time name="dav">   28.34   28.41</time>
   <time name="total">   28.93   29.01</time>
   <energy>
    <i name="e_fr_energy">   -191.42898094 </i>
    <i name="e_wo_entrp">   -191.21830314 </i>
    <i name="e_0_energy">   -191.32364204 </i>
   </energy>
  </scstep>
  <scstep>
   <time name="dav">   32.60   32.68</time>
   <time name="total">   33.19   33.28</time>
   <energy>
    <i name="e_fr_energy">   -191.43038623 </i>
    <i name="e_wo_entrp">   -191.21990270 </i>
    <i name="e_0_energy">   -191.32514446 </i>
   </energy>
  </scstep>
  <scstep>
   <time name="dav">   29.36   29.43</time>
   <time name="total">   29.96   30.04</time>
   <energy>
    <i name="e_fr_energy">   -191.42889161 </i>
    <i name="e_wo_entrp">   -191.21800046 </i>
    <i name="e_0_energy">   -191.32344603 </i>
   </energy>
  </scstep>
  <scstep>
   <time name="dav">   25.88   25.95</time>
   <time name="total">   25.92   25.99</time>
   <energy>
    <i name="alphaZ">     90.06197615 </i>
    <i name="ewald">  44613.93042972 </i>
    <i name="hartreedc"> -50623.10618483 </i>
    <i name="XCdc">   -233.38641108 </i>
    <i name="pawpsdc">   4085.11107028 </i>
    <i name="pawaedc">  -3501.09796857 </i>
    <i name="eentropy">     -0.21083517 </i>
    <i name="bandstr">  -1384.17356143 </i>
    <i name="atom">   6761.44252427 </i>
    <i name="e_fr_energy">   -191.42896066 </i>
    <i name="e_wo_entrp">   -191.21812549 </i>
    <i name="e_0_energy">   -191.32354307 </i>
   </energy>
  </scstep>
  <structure>
   <crystal>
    <varray name="basis" >
     <v>       8.27825117       4.77959640       0.00000000 </v>
     <v>      -8.28364363       4.78892086       0.00000000 </v>
     <v>       0.00000000       0.00000000      30.00000000 </v>
    </varray>
    <i name="volume">   2377.09088882 </i>
    <varray name="rec_basis" >
     <v>       0.06043842       0.10454346       0.00000000 </v>
     <v>      -0.06032074       0.10447541       0.00000000 </v>
     <v>       0.00000000       0.00000000       0.03333333 </v>
    </varray>
   </crystal>
   <varray name="positions" >
    <v>       0.66204583      -0.00824225      -0.00046536 </v>
    <v>       0.00072911      -0.00268732       0.00027266 </v>
    <v>       0.66173794       0.33746647      -0.00040297 </v>
    <v>       0.33919272       0.35164709       0.00008228 </v>
    <v>       0.33412454       0.65294437       0.00001375 </v>
    <v>       0.65037549       0.65728884       0.00012209 </v>
    <v>       1.01574095       0.34412009      -0.00041968 </v>
    <v>       0.00396193       0.66883914       0.00029464 </v>
    <v>       0.32955355      -0.00306424       0.00029597 </v>
    <v>       0.10855496       0.21676630       0.94877922 </v>
    <v>       0.21708602       0.10898793       0.05041859 </v>
    <v>       0.11150692       0.55630438       0.94654901 </v>
    <v>       0.22181831       0.44396376       0.05513841 </v>
    <v>       0.10786396       0.89171772       0.94821753 </v>
    <v>       0.22279837       0.77725429       0.05225859 </v>
    <v>       0.44933847       0.22455580       0.94940963 </v>
    <v>       0.56096105       0.11369610       0.04940842 </v>
    <v>       0.44450651       0.55553653       0.94460012 </v>
    <v>       0.55840617       0.44108245       0.05293841 </v>
    <v>       0.44957214       0.89140910       0.94907555 </v>
    <v>       0.55862737       0.78398829       0.05236059 </v>
    <v>       0.77377959       0.22021950       0.95220639 </v>
    <v>       0.88655312       0.10689440       0.04879861 </v>
    <v>       0.77522593       0.55009601       0.94905644 </v>
    <v>       0.88329875       0.44079459       0.05052488 </v>
    <v>       0.78003023       0.89384592       0.95023936 </v>
    <v>       0.89082451       0.78278920       0.05022675 </v>
   </varray>
  </structure>
  <varray name="forces" >
   <v>       0.06828058      -0.21258372      -0.00300317 </v>
   <v>       0.23418508      -0.11832469      -0.01769208 </v>
   <v>      -0.30263445      -0.07224595       0.02898855 </v>
   <v>      -0.04236887       0.09290690       0.02545955 </v>
   <v>      -0.05877179      -0.10303720      -0.05928332 </v>
   <v>      -0.06934557      -0.14200598      -0.02746977 </v>
   <v>       0.05883526       0.36659757       0.05206725 </v>
   <v>       0.15699011       0.27895148      -0.02809791 </v>
   <v>      -0.00038599      -0.23063957       0.01026623 </v>
   <v>       0.00351714       0.18449993       0.03279071 </v>
   <v>      -0.06865791       0.21398228      -0.08933805 </v>
   <v>       0.02448931       0.12807183      -0.16677711 </v>
   <v>       0.07170787       0.05309687       0.26022020 </v>
   <v>       0.00614836      -0.03649390      -0.13930418 </v>
   <v>       0.19893308       0.02528922       0.07636726 </v>
   <v>      -0.19081705      -0.08952553       0.06139903 </v>
   <v>      -0.02372111      -0.03552372      -0.03762408 </v>
   <v>      -0.05647348       0.02760273      -0.25024542 </v>
   <v>      -0.11914730      -0.04895481       0.13880272 </v>
   <v>       0.03306621      -0.17731927       0.01670230 </v>
   <v>       0.03877124      -0.16968267       0.08666121 </v>
   <v>       0.06734775       0.17067427       0.19865236 </v>
   <v>      -0.03895924       0.11249438      -0.13207852 </v>
   <v>      -0.11683454       0.08441592       0.07483739 </v>
   <v>       0.06403459       0.05235127      -0.06561190 </v>
   <v>       0.08700310      -0.13079317       0.00873029 </v>
   <v>      -0.02519236      -0.22380447      -0.05541954 </v>
  </varray>
  <varray name="stress" >
   <v>      -0.05735050      -0.20554495       0.27067169 </v>
   <v>      -0.20554499       0.30948284      -0.19564905 </v>
   <v>       0.27067181      -0.19564884      -0.70912200 </v>
  </varray>
  <energy>
   <i name="e_fr_energy">   -191.42896066 </i>
   <i name="e_wo_entrp">   -191.32354307 </i>
   <i name="e_0_energy">     -0.21083517 </i>
  </energy>
  <time name="totalsc">  373.10  374.09</time>
 </calculation>
 <calculation>
  <scstep>
   <time name="dav">   22.81   22.87</time>
   <time name="total">   23.41   23.47</time>
   <energy>
    <i name="alphaZ">     89.99244381 </i>
    <i name="ewald">  44567.93645523 </i>
    <i name="hartreedc"> -50577.00549689 </i>
    <i name="XCdc">   -233.49566691 </i>
    <i name="pawpsdc">   4085.30889956 </i>
    <i name="pawaedc">  -3501.29310594 </i>
    <i name="eentropy">     -0.21392331 </i>
    <i name="bandstr">  -1384.15010439 </i>
    <i name="atom">   6761.44252427 </i>
    <i name="e_fr_energy">   -191.47797457 </i>
    <i name="e_wo_entrp">   -191.26405126 </i>
    <i name="e_0_energy">   -191.37101291 </i>
   </energy>
  </scstep>
  <scstep>
   <time name="dav">   33.95   34.03</time>
   <time name="total">   34.54   34.63</time>
   <energy>
    <i name="e_fr_energy">   -191.53082503 </i>
    <i name="e_wo_entrp">   -191.30693028 </i>
    <i name="e_0_energy">   -191.41887766 </i>
   </energy>
  </scstep>
  <scstep>
   <time name="dav">   32.03   32.11</time>
   <time name="total">   32.63   32.71</time>
   <energy>
    <i name="e_fr_energy">   -191.48904834 </i>
    <i name="e_wo_entrp">   -191.27464754 </i>
    <i name="e_0_energy">   -191.38184794 </i>
   </energy>
  </scstep>
  <scstep>
   <time name="dav">   29.76   29.83</time>
   <time name="total">   30.35   30.43</time>
   <energy>
    <i name="e_fr_energy">   -191.49062998 </i>
    <i name="e_wo_entrp">   -191.27472766 </i>
    <i name="e_0_energy">   -191.38267882 </i>
   </energy>
  </scstep>
  <scstep>
   <time name="dav">   27.39   27.45</time>
   <time name="total">   27.98   28.06</time>
   <energy>
    <i name="e_fr_energy">   -191.48718196 </i>
    <i name="e_wo_entrp">   -191.27163404 </i>
    <i name="e_0_energy">   -191.37940800 </i>
   </energy>
  </scstep>
  <scstep>
   <time name="dav">   27.73   27.79</time>
   <time name="total">   28.31   28.39</time>
   <energy>
    <i name="e_fr_energy">   -191.48716498 </i>
    <i name="e_wo_entrp">   -191.27145041 </i>
    <i name="e_0_energy">   -191.37930770 </i>
   </energy>
  </scstep>
  <scstep>
   <time name="dav">   27.21   27.28</time>
   <time name="total">   27.81   27.88</time>
   <energy>
    <i name="e_fr_energy">   -191.48687025 </i>
    <i name="e_wo_entrp">   -191.27140784 </i>
    <i name="e_0_energy">   -191.37913905 </i>
   </energy>
  </scstep>
  <scstep>
   <time name="dav">   22.27   22.33</time>
   <time name="total">   22.31   22.37</time>
   <energy>
    <i name="alphaZ">     89.99244381 </i>
    <i name="ewald">  44567.93645523 </i>
    <i name="hartreedc"> -50578.45001490 </i>
    <i name="XCdc">   -233.45965241 </i>
    <i name="pawpsdc">   4082.37269430 </i>
    <i name="pawaedc">  -3498.31186107 </i>
    <i name="eentropy">     -0.21553329 </i>
    <i name="bandstr">  -1382.79392465 </i>
    <i name="atom">   6761.44252427 </i>
    <i name="e_fr_energy">   -191.48686871 </i>
    <i name="e_wo_entrp">   -191.27133542 </i>
    <i name="e_0_energy">   -191.37910206 </i>
   </energy>
  </scstep>
  <structure>
   <crystal>
    <varray name="basis" >
     <v>       8.27487895       4.77928082       0.00000000 </v>
     <v>      -8.28543519       4.79755213       0.00000000 </v>
     <v>       0.00000000       0.00000000      30.00000000 </v>
    </varray>
    <i name="volume">   2378.92753965 </i>
    <varray name="rec_basis" >
     <v>       0.06050061       0.10448534       0.00000000 </v>
     <v>      -0.06027019       0.10435222       0.00000000 </v>
     <v>       0.00000000       0.00000000       0.03333333 </v>
    </varray>
   </crystal>
   <varray name="positions" >
    <v>       0.66118791      -0.00948972      -0.00046947 </v>
    <v>       0.00081134      -0.00394953       0.00024336 </v>
    <v>       0.66050846       0.33797180      -0.00035538 </v>
    <v>       0.33952547       0.35219823       0.00012353 </v>
    <v>       0.33344125       0.65262801      -0.00008092 </v>
    <v>       0.64949482       0.65679813       0.00007789 </v>
    <v>       1.01771550       0.34576049      -0.00033606 </v>
    <v>       0.00580285       0.66977617       0.00024876 </v>
    <v>       0.32840846      -0.00420864       0.00031214 </v>
    <v>       0.10948668       0.21768233       0.94884006 </v>
    <v>       0.21796154       0.11025412       0.05026910 </v>
    <v>       0.11221424       0.55687086       0.94629379 </v>
    <v>       0.22228873       0.44402114       0.05553919 </v>
    <v>       0.10770195       0.89151444       0.94800492 </v>
    <v>       0.22349746       0.77680888       0.05237207 </v>
    <v>       0.44833514       0.22465484       0.94951464 </v>
    <v>       0.56070829       0.11358377       0.04934131 </v>
    <v>       0.44448088       0.55583792       0.94421572 </v>
    <v>       0.55781511       0.44118305       0.05314759 </v>
    <v>       0.44877659       0.89042757       0.94911002 </v>
    <v>       0.55788809       0.78302345       0.05248808 </v>
    <v>       0.77483123       0.22088044       0.95252725 </v>
    <v>       0.88700569       0.10757229       0.04858215 </v>
    <v>       0.77531483       0.55085951       0.94918380 </v>
    <v>       0.88375112       0.44087611       0.05041326 </v>
    <v>       0.77962689       0.89293952       0.95026120 </v>
    <v>       0.88963392       0.78173924       0.05013191 </v>
   </varray>
  </structure>
  <varray name="forces" >
   <v>       0.09104112      -0.23784202       0.01186322 </v>
   <v>       0.21093196      -0.13761928       0.01917692 </v>
   <v>      -0.32260856      -0.11381001      -0.00414363 </v>
   <v>      -0.09157191       0.20347462      -0.03738188 </v>
   <v>      -0.02198019      -0.12232230      -0.01554450 </v>
   <v>      -0.13345032      -0.19884974      -0.03809600 </v>
   <v>       0.05546687       0.38157141       0.03104268 </v>
   <v>       0.20275446       0.32421862       0.00064400 </v>
   <v>       0.02514279      -0.23820504       0.02846908 </v>
   <v>       0.00445657       0.10513592       0.05543393 </v>
   <v>      -0.03428912       0.10724323      -0.09375543 </v>
   <v>       0.00179524       0.06345524      -0.16028928 </v>
   <v>       0.04497189       0.06603989       0.16611178 </v>
   <v>       0.00928951      -0.02317059      -0.14343392 </v>
   <v>       0.10858475       0.03155826       0.10814662 </v>
   <v>      -0.10548175      -0.08190954       0.05837333 </v>
   <v>      -0.01941509      -0.03074207      -0.06260216 </v>
   <v>      -0.03685595       0.00174320      -0.11618172 </v>
   <v>      -0.07138981      -0.01072015       0.13078249 </v>
   <v>       0.00247786      -0.09398034      -0.01870953 </v>
   <v>       0.01857360      -0.10280917       0.05317060 </v>
   <v>       0.03912493       0.11193121       0.24808050 </v>
   <v>      -0.01510839       0.07925766      -0.17204154 </v>
   <v>      -0.06220433       0.06709297       0.10539917 </v>
   <v>       0.02804338       0.06141865      -0.08601215 </v>
   <v>       0.05899322      -0.07617623       0.01372878 </v>
   <v>       0.01270728      -0.13598439      -0.08223136 </v>
  </varray>
  <varray name="stress" >
   <v>      -0.16081411       0.04522638       0.17521564 </v>
   <v>       0.04522637      -0.07459584       0.00202610 </v>
   <v>       0.17521562       0.00202597      -1.26739196 </v>
  </varray>
  <energy>
   <i name="e_fr_energy">   -191.48686871 </i>
   <i name="e_wo_entrp">   -191.37910206 </i>
   <i name="e_0_energy">     -0.21553329 </i>
  </energy>
  <time name="totalsc">  270.92  271.64</time>
 </calculation>
 <calculation>
  <scstep>
   <time name="dav">   22.85   22.90</time>
   <time name="total">   23.44   23.50</time>
   <energy>
    <i name="alphaZ">     90.08179059 </i>
    <i name="ewald">  44608.99518375 </i>
    <i name="hartreedc"> -50620.42629866 </i>
    <i name="XCdc">   -233.39995869 </i>
    <i name="pawpsdc">   4082.27855824 </i>
    <i name="pawaedc">  -3498.21658783 </i>
    <i name="eentropy">     -0.21723872 </i>
    <i name="bandstr">  -1382.07794779 </i>
    <i name="atom">   6761.44252427 </i>
    <i name="e_fr_energy">   -191.53997483 </i>
    <i name="e_wo_entrp">   -191.32273611 </i>
    <i name="e_0_energy">   -191.43135547 </i>
   </energy>
  </scstep>
  <scstep>
   <time name="dav">   34.68   34.76</time>
   <time name="total">   35.26   35.36</time>
   <energy>
    <i name="e_fr_energy">   -191.57506230 </i>
    <i name="e_wo_entrp">   -191.34640635 </i>
    <i name="e_0_energy">   -191.46073433 </i>
   </energy>
  </scstep>
  <scstep>
   <time name="dav">   32.01   32.09</time>
   <time name="total">   32.61   32.70</time>
   <energy>
    <i name="e_fr_energy">   -191.54689683 </i>
    <i name="e_wo_entrp">   -191.32965628 </i>
    <i name="e_0_energy">   -191.43827655 </i>
   </energy>
  </scstep>
  <scstep>
   <time name="dav">   29.13   29.20</time>
   <time name="total">   29.72   29.80</time>
   <energy>
    <i name="e_fr_energy">   -191.54656548 </i>
    <i name="e_wo_entrp">   -191.32708071 </i>
    <i name="e_0_energy">   -191.43682309 </i>
   </energy>
  </scstep>
  <scstep>
   <time name="dav">   28.31   28.38</time>
   <time name="total">   28.91   28.99</time>
   <energy>
    <i name="e_fr_energy">   -191.54511528 </i>
    <i name="e_wo_entrp">   -191.32642540 </i>
    <i name="e_0_energy">   -191.43577034 </i>
   </energy>
  </scstep>
  <scstep>
   <time name="dav">   26.80   26.86</time>
   <time name="total">   27.38   27.46</time>
   <energy>
    <i name="e_fr_energy">   -191.54448249 </i>
    <i name="e_wo_entrp">   -191.32510777 </i>
    <i name="e_0_energy">   -191.43479513 </i>
   </energy>
  </scstep>
  <scstep>
   <time name="dav">   27.75   27.82</time>
   <time name="total">   28.34   28.42</time>
   <energy>
    <i name="e_fr_energy">   -191.54431426 </i>
    <i name="e_wo_entrp">   -191.32492014 </i>
    <i name="e_0_energy">   -191.43461720 </i>
   </energy>
  </scstep>
  <scstep>
   <time name="dav">   23.31   23.37</time>
   <time name="total">   23.35   23.42</time>
   <energy>
    <i name="alphaZ">     90.08179059 </i>
    <i name="ewald">  44608.99518375 </i>
    <i name="hartreedc"> -50620.24578254 </i>
    <i name="XCdc">   -233.41637845 </i>
    <i name="pawpsdc">   4084.26474308 </i>
    <i name="pawaedc">  -3500.22793469 </i>
    <i name="eentropy">     -0.21930008 </i>
    <i name="bandstr">  -1382.21917296 </i>
    <i name="atom">   6761.44252427 </i>
    <i name="e_fr_energy">   -191.54432702 </i>
    <i name="e_wo_entrp">   -191.32502694 </i>
[...]
      <set comment="kpoint 31">
       <r>  -17.5557    1.0000 </r>
       <r>  -17.2628    1.0000 </r>
       <r>  -16.8993    1.0000 </r>
       <r>  -16.7287    1.0000 </r>
       <r>  -16.5004    1.0000 </r>
       <r>  -16.4550    1.0000 </r>
       <r>  -16.3359    1.0000 </r>
       <r>  -16.1879    1.0000 </r>
       <r>  -16.0556    1.0000 </r>
       <r>  -16.0099    1.0000 </r>
       <r>  -15.9508    1.0000 </r>
       <r>  -15.8788    1.0000 </r>
       <r>  -15.7804    1.0000 </r>
       <r>  -15.7076    1.0000 </r>
       <r>  -15.6162    1.0000 </r>
       <r>  -15.4740    1.0000 </r>
       <r>  -15.4213    1.0000 </r>
       <r>  -15.2102    1.0000 </r>
       <r>   -9.7393    1.0000 </r>
       <r>   -9.4788    1.0000 </r>
       <r>   -9.3568    1.0000 </r>
       <r>   -9.0533    1.0000 </r>
       <r>   -8.8623    1.0000 </r>
       <r>   -8.7344    1.0000 </r>
       <r>   -8.5358    1.0000 </r>
       <r>   -8.4876    1.0000 </r>
       <r>   -8.4272    1.0000 </r>
       <r>   -8.3325    1.0000 </r>
       <r>   -8.2570    1.0000 </r>
       <r>   -8.1945    1.0000 </r>
       <r>   -8.1499    1.0000 </r>
       <r>   -8.0542    1.0000 </r>
       <r>   -8.0298    1.0000 </r>
       <r>   -7.9131    1.0000 </r>
       <r>   -7.8331    1.0000 </r>
       <r>   -7.7275    1.0000 </r>
       <r>   -7.6072    1.0000 </r>
       <r>   -7.4116    1.0000 </r>
       <r>   -7.2890    1.0000 </r>
       <r>   -7.2062    1.0000 </r>
       <r>   -7.1627    1.0000 </r>
       <r>   -7.0738    1.0000 </r>
       <r>   -7.0115    1.0000 </r>
       <r>   -6.9377    1.0000 </r>
       <r>   -6.8163    1.0000 </r>
       <r>   -6.8007    1.0000 </r>
       <r>   -6.7358    1.0000 </r>
       <r>   -6.6545    1.0000 </r>
       <r>   -6.5159    1.0000 </r>
       <r>   -6.4852    1.0000 </r>
       <r>   -6.4248    1.0000 </r>
       <r>   -6.3528    1.0000 </r>
       <r>   -6.2874    1.0000 </r>
       <r>   -6.2516    1.0000 </r>
       <r>   -6.1624    1.0000 </r>
       <r>   -6.0650    1.0000 </r>
       <r>   -5.9660    1.0000 </r>
       <r>   -5.8898    1.0000 </r>
       <r>   -5.8689    1.0000 </r>
       <r>   -5.8020    1.0000 </r>
       <r>   -5.7118    1.0000 </r>
       <r>   -5.6206    1.0000 </r>
       <r>   -5.4655    1.0000 </r>
       <r>   -5.3456    1.0000 </r>
       <r>   -5.2808    1.0000 </r>
       <r>   -5.1207    1.0000 </r>
       <r>   -5.0690    1.0000 </r>
       <r>   -4.8998    1.0000 </r>
       <r>   -4.8337    1.0000 </r>
       <r>   -4.6770    1.0000 </r>
       <r>   -4.6390    1.0000 </r>
       <r>   -4.5040    1.0000 </r>
       <r>   -4.3778    1.0000 </r>
       <r>   -4.2668    1.0000 </r>
       <r>   -4.1110    1.0000 </r>
       <r>   -4.0262    1.0000 </r>
       <r>   -3.8112    0.9995 </r>
       <r>   -3.6723    0.9894 </r>
       <r>   -3.5684    0.9418 </r>
       <r>   -3.4135    0.6826 </r>
       <r>   -2.9996    0.0071 </r>
       <r>   -2.8498    0.0002 </r>
       <r>   -2.7048    0.0000 </r>
       <r>   -2.5676    0.0000 </r>
       <r>   -2.5203    0.0000 </r>
       <r>   -2.4231    0.0000 </r>
       <r>   -2.2534    0.0000 </r>
       <r>   -2.1630    0.0000 </r>
       <r>   -2.1139    0.0000 </r>
       <r>   -1.9617    0.0000 </r>
       <r>   -1.6789    0.0000 </r>
       <r>   -1.5944    0.0000 </r>
       <r>   -1.5106    0.0000 </r>
       <r>   -1.3476    0.0000 </r>
       <r>   -1.2124    0.0000 </r>
       <r>   -1.1787    0.0000 </r>
       <r>   -1.1140    0.0000 </r>
       <r>   -1.0597    0.0000 </r>
       <r>   -0.9684    0.0000 </r>
       <r>   -0.9443    0.0000 </r>
       <r>   -0.8492    0.0000 </r>
       <r>   -0.7270    0.0000 </r>
       <r>   -0.6118    0.0000 </r>
       <r>   -0.5727    0.0000 </r>
       <r>   -0.4523    0.0000 </r>
       <r>   -0.3871    0.0000 </r>
       <r>   -0.2196    0.0000 </r>
       <r>   -0.1554    0.0000 </r>
       <r>   -0.0184    0.0000 </r>
       <r>    0.2814    0.0000 </r>
       <r>    0.3579    0.0000 </r>
       <r>    0.4830    0.0000 </r>
       <r>    0.6798    0.0000 </r>
       <r>    0.9748    0.0000 </r>
       <r>    1.0926    0.0000 </r>
       <r>    1.2067    0.0000 </r>
       <r>    1.5468    0.0000 </r>
       <r>    2.1269    0.0000 </r>
       <r>    2.2970    0.0000 </r>
       <r>    2.3865    0.0000 </r>
      </set>
      <set comment="kpoint 32">
       <r>  -17.5620    1.0000 </r>
       <r>  -17.1950    1.0000 </r>
       <r>  -17.0177    1.0000 </r>
       <r>  -16.7252    1.0000 </r>
       <r>  -16.4692    1.0000 </r>
       <r>  -16.3766    1.0000 </r>
       <r>  -16.2956    1.0000 </r>
       <r>  -16.2498    1.0000 </r>
       <r>  -16.1179    1.0000 </r>
       <r>  -16.0342    1.0000 </r>
       <r>  -15.9285    1.0000 </r>
       <r>  -15.8702    1.0000 </r>
       <r>  -15.7816    1.0000 </r>
       <r>  -15.6891    1.0000 </r>
       <r>  -15.6110    1.0000 </r>
       <r>  -15.4748    1.0000 </r>
       <r>  -15.4138    1.0000 </r>
       <r>  -15.2156    1.0000 </r>
       <r>   -9.6903    1.0000 </r>
       <r>   -9.5819    1.0000 </r>
       <r>   -9.4283    1.0000 </r>
       <r>   -9.0324    1.0000 </r>
       <r>   -8.7088    1.0000 </r>
       <r>   -8.6778    1.0000 </r>
       <r>   -8.5067    1.0000 </r>
       <r>   -8.4579    1.0000 </r>
       <r>   -8.4229    1.0000 </r>
       <r>   -8.3444    1.0000 </r>
       <r>   -8.2849    1.0000 </r>
       <r>   -8.2410    1.0000 </r>
       <r>   -8.1438    1.0000 </r>
       <r>   -8.1259    1.0000 </r>
       <r>   -8.0321    1.0000 </r>
       <r>   -7.9544    1.0000 </r>
       <r>   -7.8119    1.0000 </r>
       <r>   -7.7807    1.0000 </r>
       <r>   -7.5773    1.0000 </r>
       <r>   -7.4293    1.0000 </r>
       <r>   -7.3077    1.0000 </r>
       <r>   -7.2510    1.0000 </r>
       <r>   -7.1912    1.0000 </r>
       <r>   -7.0834    1.0000 </r>
       <r>   -6.9945    1.0000 </r>
       <r>   -6.9258    1.0000 </r>
       <r>   -6.8532    1.0000 </r>
       <r>   -6.7408    1.0000 </r>
       <r>   -6.7034    1.0000 </r>
       <r>   -6.5871    1.0000 </r>
       <r>   -6.5444    1.0000 </r>
       <r>   -6.4885    1.0000 </r>
       <r>   -6.4309    1.0000 </r>
       <r>   -6.3559    1.0000 </r>
       <r>   -6.2842    1.0000 </r>
       <r>   -6.2437    1.0000 </r>
       <r>   -6.1170    1.0000 </r>
       <r>   -6.0444    1.0000 </r>
       <r>   -5.9802    1.0000 </r>
       <r>   -5.9106    1.0000 </r>
       <r>   -5.8417    1.0000 </r>
       <r>   -5.7179    1.0000 </r>
       <r>   -5.6782    1.0000 </r>
       <r>   -5.5693    1.0000 </r>
       <r>   -5.4965    1.0000 </r>
       <r>   -5.4179    1.0000 </r>
       <r>   -5.2440    1.0000 </r>
       <r>   -5.1745    1.0000 </r>
       <r>   -5.0849    1.0000 </r>
       <r>   -4.9479    1.0000 </r>
       <r>   -4.8296    1.0000 </r>
       <r>   -4.7149    1.0000 </r>
       <r>   -4.5864    1.0000 </r>
       <r>   -4.5015    1.0000 </r>
       <r>   -4.3882    1.0000 </r>
       <r>   -4.3581    1.0000 </r>
       <r>   -4.1214    1.0000 </r>
       <r>   -4.0261    1.0000 </r>
       <r>   -3.8209    0.9996 </r>
       <r>   -3.6094    0.9686 </r>
       <r>   -3.5397    0.9142 </r>
       <r>   -3.2990    0.3689 </r>
       <r>   -3.0963    0.0386 </r>
       <r>   -2.8814    0.0005 </r>
       <r>   -2.7347    0.0000 </r>
       <r>   -2.5858    0.0000 </r>
       <r>   -2.5336    0.0000 </r>
       <r>   -2.4605    0.0000 </r>
       <r>   -2.2284    0.0000 </r>
       <r>   -2.1500    0.0000 </r>
       <r>   -2.1137    0.0000 </r>
       <r>   -1.9629    0.0000 </r>
       <r>   -1.7215    0.0000 </r>
       <r>   -1.5805    0.0000 </r>
       <r>   -1.5000    0.0000 </r>
       <r>   -1.3106    0.0000 </r>
       <r>   -1.1931    0.0000 </r>
       <r>   -1.1670    0.0000 </r>
       <r>   -1.0853    0.0000 </r>
       <r>   -1.0446    0.0000 </r>
       <r>   -0.9610    0.0000 </r>
       <r>   -0.9375    0.0000 </r>
       <r>   -0.8334    0.0000 </r>
       <r>   -0.7686    0.0000 </r>
       <r>   -0.6171    0.0000 </r>
       <r>   -0.5846    0.0000 </r>
       <r>   -0.4764    0.0000 </r>
       <r>   -0.4068    0.0000 </r>
       <r>   -0.2696    0.0000 </r>
       <r>   -0.0966    0.0000 </r>
       <r>    0.0715    0.0000 </r>
       <r>    0.2705    0.0000 </r>
       <r>    0.3818    0.0000 </r>
       <r>    0.4965    0.0000 </r>
       <r>    0.6663    0.0000 </r>
       <r>    0.9892    0.0000 </r>
       <r>    1.0736    0.0000 </r>
       <r>    1.1688    0.0000 </r>
       <r>    1.5192    0.0000 </r>
       <r>    2.1023    0.0000 </r>
       <r>    2.2634    0.0000 </r>
       <r>    2.5634    0.0000 </r>
      </set>
      <set comment="kpoint 33">
       <r>  -17.5467    1.0000 </r>
       <r>  -17.2642    1.0000 </r>
       <r>  -16.9163    1.0000 </r>
       <r>  -16.7210    1.0000 </r>
       <r>  -16.5079    1.0000 </r>
       <r>  -16.4498    1.0000 </r>
       <r>  -16.3282    1.0000 </r>
       <r>  -16.1975    1.0000 </r>
       <r>  -16.1404    1.0000 </r>
       <r>  -16.0192    1.0000 </r>
       <r>  -15.8878    1.0000 </r>
       <r>  -15.8342    1.0000 </r>
       <r>  -15.7827    1.0000 </r>
       <r>  -15.6844    1.0000 </r>
       <r>  -15.6230    1.0000 </r>
       <r>  -15.4736    1.0000 </r>
       <r>  -15.4231    1.0000 </r>
       <r>  -15.2254    1.0000 </r>
       <r>   -9.7806    1.0000 </r>
       <r>   -9.4664    1.0000 </r>
       <r>   -9.3863    1.0000 </r>
       <r>   -9.0298    1.0000 </r>
       <r>   -8.7894    1.0000 </r>
       <r>   -8.7343    1.0000 </r>
       <r>   -8.6291    1.0000 </r>
       <r>   -8.5766    1.0000 </r>
       <r>   -8.3691    1.0000 </r>
       <r>   -8.2896    1.0000 </r>
       <r>   -8.2322    1.0000 </r>
       <r>   -8.1717    1.0000 </r>
       <r>   -8.1151    1.0000 </r>
       <r>   -8.0766    1.0000 </r>
       <r>   -7.9866    1.0000 </r>
       <r>   -7.9258    1.0000 </r>
       <r>   -7.8293    1.0000 </r>
       <r>   -7.7688    1.0000 </r>
       <r>   -7.5483    1.0000 </r>
       <r>   -7.4535    1.0000 </r>
       <r>   -7.3902    1.0000 </r>
       <r>   -7.3465    1.0000 </r>
       <r>   -7.1282    1.0000 </r>
       <r>   -7.0640    1.0000 </r>
       <r>   -6.9745    1.0000 </r>
       <r>   -6.8965    1.0000 </r>
       <r>   -6.8568    1.0000 </r>
       <r>   -6.7677    1.0000 </r>
       <r>   -6.6959    1.0000 </r>
       <r>   -6.5833    1.0000 </r>
       <r>   -6.5572    1.0000 </r>
       <r>   -6.4807    1.0000 </r>
       <r>   -6.4468    1.0000 </r>
       <r>   -6.3526    1.0000 </r>
       <r>   -6.2712    1.0000 </r>
       <r>   -6.1450    1.0000 </r>
       <r>   -6.1054    1.0000 </r>
       <r>   -6.0519    1.0000 </r>
       <r>   -5.9813    1.0000 </r>
       <r>   -5.9430    1.0000 </r>
       <r>   -5.8601    1.0000 </r>
       <r>   -5.7395    1.0000 </r>
       <r>   -5.6732    1.0000 </r>
       <r>   -5.6308    1.0000 </r>
       <r>   -5.5127    1.0000 </r>
       <r>   -5.4134    1.0000 </r>
       <r>   -5.3120    1.0000 </r>
       <r>   -5.1909    1.0000 </r>
       <r>   -5.0605    1.0000 </r>
       <r>   -4.8570    1.0000 </r>
       <r>   -4.7568    1.0000 </r>
       <r>   -4.7142    1.0000 </r>
       <r>   -4.5995    1.0000 </r>
       <r>   -4.4507    1.0000 </r>
       <r>   -4.4222    1.0000 </r>
       <r>   -4.3586    1.0000 </r>
       <r>   -4.1478    1.0000 </r>
       <r>   -4.0462    1.0000 </r>
       <r>   -3.8981    1.0000 </r>
       <r>   -3.5668    0.9405 </r>
       <r>   -3.4781    0.8243 </r>
       <r>   -3.2627    0.2772 </r>
       <r>   -3.1330    0.0657 </r>
       <r>   -2.9205    0.0013 </r>
       <r>   -2.7947    0.0000 </r>
       <r>   -2.6045    0.0000 </r>
       <r>   -2.5615    0.0000 </r>
       <r>   -2.4848    0.0000 </r>
       <r>   -2.2017    0.0000 </r>
       <r>   -2.1585    0.0000 </r>
       <r>   -2.0895    0.0000 </r>
       <r>   -1.9194    0.0000 </r>
       <r>   -1.7585    0.0000 </r>
       <r>   -1.5672    0.0000 </r>
       <r>   -1.4794    0.0000 </r>
       <r>   -1.2954    0.0000 </r>
       <r>   -1.1755    0.0000 </r>
       <r>   -1.1531    0.0000 </r>
       <r>   -1.0714    0.0000 </r>
       <r>   -1.0396    0.0000 </r>
       <r>   -0.9449    0.0000 </r>
       <r>   -0.9183    0.0000 </r>
       <r>   -0.8571    0.0000 </r>
       <r>   -0.7592    0.0000 </r>
       <r>   -0.6385    0.0000 </r>
       <r>   -0.5866    0.0000 </r>
       <r>   -0.4987    0.0000 </r>
       <r>   -0.4358    0.0000 </r>
       <r>   -0.3754    0.0000 </r>
       <r>   -0.0178    0.0000 </r>
       <r>    0.0876    0.0000 </r>
       <r>    0.2410    0.0000 </r>
       <r>    0.4585    0.0000 </r>
       <r>    0.5411    0.0000 </r>
       <r>    0.6732    0.0000 </r>
       <r>    1.0195    0.0000 </r>
       <r>    1.0495    0.0000 </r>
       <r>    1.1579    0.0000 </r>
       <r>    1.5073    0.0000 </r>
       <r>    2.1388    0.0000 </r>
       <r>    2.2933    0.0000 </r>
       <r>    2.4009    0.0000 </r>
      </set>
      <set comment="kpoint 34">
       <r>  -17.5306    1.0000 </r>
       <r>  -17.3147    1.0000 </r>
       <r>  -16.7878    1.0000 </r>
       <r>  -16.7171    1.0000 </r>
       <r>  -16.6338    1.0000 </r>
       <r>  -16.4741    1.0000 </r>
       <r>  -16.3196    1.0000 </r>
       <r>  -16.1944    1.0000 </r>
       <r>  -16.1384    1.0000 </r>
       <r>  -16.0037    1.0000 </r>
       <r>  -15.8653    1.0000 </r>
       <r>  -15.8148    1.0000 </r>
       <r>  -15.7737    1.0000 </r>
       <r>  -15.6808    1.0000 </r>
       <r>  -15.6373    1.0000 </r>
       <r>  -15.4760    1.0000 </r>
       <r>  -15.4325    1.0000 </r>
       <r>  -15.2303    1.0000 </r>
       <r>   -9.8208    1.0000 </r>
       <r>   -9.3728    1.0000 </r>
       <r>   -9.3320    1.0000 </r>
       <r>   -9.0567    1.0000 </r>
       <r>   -8.8858    1.0000 </r>
       <r>   -8.8020    1.0000 </r>
       <r>   -8.6734    1.0000 </r>
       <r>   -8.6063    1.0000 </r>
       <r>   -8.3577    1.0000 </r>
       <r>   -8.2821    1.0000 </r>
       <r>   -8.2279    1.0000 </r>
       <r>   -8.1379    1.0000 </r>
       <r>   -8.0807    1.0000 </r>
       <r>   -8.0624    1.0000 </r>
       <r>   -7.9324    1.0000 </r>
       <r>   -7.8730    1.0000 </r>
       <r>   -7.7730    1.0000 </r>
       <r>   -7.7541    1.0000 </r>
       <r>   -7.6297    1.0000 </r>
       <r>   -7.4770    1.0000 </r>
       <r>   -7.4267    1.0000 </r>
       <r>   -7.3534    1.0000 </r>
       <r>   -7.0967    1.0000 </r>
       <r>   -7.0465    1.0000 </r>
       <r>   -6.9837    1.0000 </r>
       <r>   -6.9004    1.0000 </r>
       <r>   -6.8134    1.0000 </r>
       <r>   -6.7582    1.0000 </r>
       <r>   -6.6827    1.0000 </r>
       <r>   -6.6080    1.0000 </r>
       <r>   -6.5629    1.0000 </r>
       <r>   -6.5001    1.0000 </r>
       <r>   -6.4576    1.0000 </r>
       <r>   -6.3296    1.0000 </r>
       <r>   -6.2773    1.0000 </r>
       <r>   -6.1909    1.0000 </r>
       <r>   -6.1338    1.0000 </r>
       <r>   -6.0165    1.0000 </r>
       <r>   -5.9852    1.0000 </r>
       <r>   -5.9330    1.0000 </r>
       <r>   -5.8169    1.0000 </r>
       <r>   -5.7434    1.0000 </r>
       <r>   -5.7283    1.0000 </r>
       <r>   -5.5858    1.0000 </r>
       <r>   -5.5606    1.0000 </r>
       <r>   -5.4969    1.0000 </r>
       <r>   -5.3048    1.0000 </r>
       <r>   -5.1392    1.0000 </r>
       <r>   -5.1102    1.0000 </r>
       <r>   -4.8085    1.0000 </r>
       <r>   -4.7225    1.0000 </r>
       <r>   -4.6933    1.0000 </r>
       <r>   -4.5299    1.0000 </r>
       <r>   -4.4310    1.0000 </r>
       <r>   -4.4227    1.0000 </r>
       <r>   -4.3578    1.0000 </r>
       <r>   -4.2103    1.0000 </r>
       <r>   -4.0533    1.0000 </r>
       <r>   -3.9483    1.0000 </r>
       <r>   -3.5503    0.9253 </r>
       <r>   -3.4349    0.7343 </r>
       <r>   -3.3073    0.3912 </r>
       <r>   -3.0962    0.0385 </r>
       <r>   -2.9369    0.0019 </r>
       <r>   -2.8380    0.0002 </r>
       <r>   -2.5992    0.0000 </r>
       <r>   -2.5891    0.0000 </r>
       <r>   -2.4910    0.0000 </r>
       <r>   -2.1875    0.0000 </r>
       <r>   -2.1623    0.0000 </r>
       <r>   -2.0770    0.0000 </r>
       <r>   -1.8946    0.0000 </r>
       <r>   -1.7725    0.0000 </r>
       <r>   -1.5609    0.0000 </r>
       <r>   -1.4625    0.0000 </r>
       <r>   -1.2967    0.0000 </r>
       <r>   -1.1724    0.0000 </r>
       <r>   -1.1457    0.0000 </r>
       <r>   -1.0741    0.0000 </r>
       <r>   -1.0512    0.0000 </r>
       <r>   -0.9216    0.0000 </r>
       <r>   -0.9111    0.0000 </r>
       <r>   -0.8747    0.0000 </r>
       <r>   -0.6833    0.0000 </r>
       <r>   -0.6710    0.0000 </r>
       <r>   -0.6334    0.0000 </r>
       <r>   -0.4974    0.0000 </r>
       <r>   -0.4696    0.0000 </r>
       <r>   -0.4047    0.0000 </r>
       <r>   -0.0013    0.0000 </r>
       <r>    0.0804    0.0000 </r>
       <r>    0.2417    0.0000 </r>
       <r>    0.5175    0.0000 </r>
       <r>    0.5323    0.0000 </r>
       <r>    0.6928    0.0000 </r>
       <r>    1.0233    0.0000 </r>
       <r>    1.0630    0.0000 </r>
       <r>    1.1481    0.0000 </r>
       <r>    1.5079    0.0000 </r>
       <r>    2.2231    0.0000 </r>
       <r>    2.2540    0.0000 </r>
       <r>    2.3833    0.0000 </r>
      </set>
     </set>
    </set>
   </array>
  </eigenvalues>
  <separator name="orbital magnetization" >
   <v name="MAGDIPOLOUT">      0.00000000      0.00000000      0.00000000</v>
  </separator>
 </calculation>
 <structure name="finalpos" >
  <crystal>
   <varray name="basis" >
    <v>       8.32711481       4.82187264       0.00000000 </v>
    <v>      -8.33566768       4.83668578       0.00000000 </v>
    <v>       0.00000000       0.00000000      30.00000000 </v>
   </varray>
   <i name="volume">   2414.07497079 </i>
   <varray name="rec_basis" >
    <v>       0.06010608       0.10358834       0.00000000 </v>
    <v>      -0.05992199       0.10348206       0.00000000 </v>
    <v>       0.00000000       0.00000000       0.03333333 </v>
   </varray>
  </crystal>
  <varray name="positions" >
   <v>       0.64877923      -0.02713749      -0.00024479 </v>
   <v>      -0.01946383      -0.03642839      -0.00169532 </v>
   <v>       0.63107149       0.32731922       0.00135245 </v>
   <v>       0.34870665       0.36841125       0.00028188 </v>
   <v>       0.33538500       0.66588626       0.00010834 </v>
   <v>       0.64027435       0.65767546       0.00070225 </v>
   <v>       1.03584843       0.36730208      -0.00021981 </v>
   <v>       0.03568498       0.68215924      -0.00045466 </v>
   <v>       0.32464484      -0.02252720       0.00006564 </v>
   <v>       0.10972600       0.21800421       0.95212575 </v>
   <v>       0.21562467       0.11200041       0.04308523 </v>
   <v>       0.11980027       0.56361104       0.94333083 </v>
   <v>       0.23007022       0.45268288       0.05679927 </v>
   <v>       0.11024899       0.88914081       0.94530867 </v>
   <v>       0.23001224       0.77907457       0.05648546 </v>
   <v>       0.43795547       0.22274369       0.95009912 </v>
   <v>       0.55700117       0.10905729       0.04931597 </v>
   <v>       0.44484500       0.56288623       0.94342015 </v>
   <v>       0.55380429       0.44343702       0.05564681 </v>
   <v>       0.45130843       0.89500469       0.94642706 </v>
   <v>       0.55962062       0.78291316       0.05485871 </v>
   <v>       0.77685462       0.22377562       0.95905887 </v>
   <v>       0.89152442       0.11015536       0.04251419 </v>
   <v>       0.78037965       0.55118486       0.95621961 </v>
   <v>       0.88679930       0.44438333       0.04757724 </v>
   <v>       0.77326534       0.88590067       0.94833978 </v>
   <v>       0.88844262       0.76959815       0.04949119 </v>
  </varray>
 </structure>
</modeling>
