unknown system                          
           1
     8.853597    5.105129    0.000000
    -8.855112    5.107737    0.000000
     0.000000    0.000000   30.000000
   V    Mo   W    S 
   3   3   3  18
Direct configuration=     1
   0.66666669  0.00000000  0.00000000
   0.00000000  0.00000000  0.00000000
   0.66666669  0.33333334  0.00000000
   0.33333334  0.33333334  0.00000000
   0.33333334  0.66666669  0.00000000
   0.66666669  0.66666669  0.00000000
   1.00000000  0.33333334  0.00000000
   0.00000000  0.66666669  0.00000000
   0.33333334  0.00000000  0.00000000
   0.11068511  0.22244981  0.95539999
   0.22244981  0.11068511  0.04460000
   0.11068511  0.55578315  0.95539999
   0.22244981  0.44401845  0.04460000
   0.11068511  0.88911647  0.95539999
   0.22244981  0.77735180  0.04460000
   0.44401845  0.22244981  0.95539999
   0.55578315  0.11068511  0.04460000
   0.44401845  0.55578315  0.95539999
   0.55578315  0.44401845  0.04460000
   0.44401845  0.88911647  0.95539999
   0.55578315  0.77735180  0.04460000
   0.77735180  0.22244981  0.95539999
   0.88911647  0.11068511  0.04460000
   0.77735180  0.55578315  0.95539999
   0.88911647  0.44401845  0.04460000
   0.77735180  0.88911647  0.95539999
   0.88911647  0.77735180  0.04460000
unknown system                          
           1
     8.666214    4.999233    0.000000
    -8.667675    5.001747    0.000000
     0.000000    0.000000   30.000000
   V    Mo   W    S 
   3   3   3  18
Direct configuration=     2
   0.66599188 -0.00191365 -0.00007403
  -0.00036107 -0.00004268 -0.00013905
   0.66553670  0.33416182  0.00010881
   0.33472708  0.33622112  0.00022404
   0.33469982  0.66506394  0.00002905
   0.66392825  0.66555736  0.00000383
   1.00219034  0.33394936 -0.00009589
  -0.00026680  0.66668430 -0.00014494
   0.33383469  0.00041536  0.00008482
   0.10819559  0.21792075  0.95193189
   0.21816311  0.10842242  0.04799682
   0.11024717  0.55516168  0.95072347
   0.22123620  0.44387762  0.04932492
   0.10885966  0.89076677  0.95190263
   0.22179716  0.77808105  0.04918417
   0.44832156  0.22330486  0.95197457
   0.55892835  0.11260558  0.04691391
   0.44438811  0.55555720  0.95066950
   0.55783891  0.44179331  0.04805614
   0.44828868  0.89137218  0.95194787
   0.55762202  0.78212443  0.04809627
   0.77421624  0.22063747  0.95321639
   0.88724931  0.10751119  0.04687132
   0.77654305  0.55149845  0.95197326
   0.88488723  0.44246570  0.04810293
   0.77974157  0.89330858  0.95310780
   0.89140965  0.78170827  0.04800942
unknown system                          
           1
     8.484773    4.899643    0.000000
    -8.485728    4.901284    0.000000
     0.000000    0.000000   30.000000
   V    Mo   W    S 
   3   3   3  18
Direct configuration=     3
   0.66569211 -0.00249724 -0.00012949
  -0.00037392 -0.00015675 -0.00011687
   0.66521477  0.33441756  0.00007830
   0.33516258  0.33746287  0.00024434
   0.33488119  0.66420747  0.00002837
   0.66278943  0.66493822  0.00001028
   1.00321477  0.33461628 -0.00015573
  -0.00009449  0.66677974 -0.00011182
   0.33368494  0.00028020  0.00013116
   0.10803016  0.21795182  0.95194895
   0.21819913  0.10825223  0.04792299
   0.11005267  0.55508772  0.95070739
   0.22102844  0.44375371  0.04948323
   0.10892116  0.89069649  0.95189944
   0.22170442  0.77816116  0.04912454
   0.44829722  0.22314243  0.95202249
   0.55876530  0.11254849  0.04684999
   0.44439079  0.55555204  0.95046969
   0.55788305  0.44174724  0.04817857
   0.44826684  0.89155360  0.95198383
   0.55773079  0.78227136  0.04818215
   0.77441175  0.22070660  0.95339534
   0.88730625  0.10769475  0.04678148
   0.77669439  0.55150615  0.95199866
   0.88501596  0.44248325  0.04801954
   0.77977005  0.89337184  0.95313490
   0.89157470  0.78168522  0.04791817
unknown system                          
           1
     8.278251    4.779596    0.000000
    -8.283644    4.788921    0.000000
     0.000000    0.000000   30.000000
   V    Mo   W    S 
   3   3   3  18
Direct configuration=     4
   0.66440417 -0.00461868 -0.00030073
  -0.00004344 -0.00081955  0.00001820
   0.66409543  0.33551344 -0.00009027
   0.33662819  0.34239920  0.00022013
   0.33488983  0.66042705  0.00002011
   0.65839637  0.66227101  0.00003858
   1.00749521  0.33786357 -0.00031786
   0.00108447  0.66734479  0.00006247
   0.33242472 -0.00076564  0.00024059
   0.10774968  0.21700027  0.95055349
   0.21730623  0.10792204  0.04905407
   0.11024215  0.55534478  0.94899392
   0.22105463  0.44371260  0.05176914
   0.10847746  0.89121621  0.95036608
   0.22184016  0.77798258  0.05048565
   0.44914552  0.22370276  0.95079942
   0.55985139  0.11314372  0.04796087
   0.44441177  0.55549196  0.94808422
   0.55841886  0.44127554  0.05012558
   0.44916264  0.89200606  0.95069060
   0.55845576  0.78353630  0.04995668
   0.77371803  0.22027125  0.95278730
   0.88678226  0.10700418  0.04774517
   0.77606379  0.55053055  0.95066695
   0.88409019  0.44173615  0.04916300
   0.78018372  0.89413560  0.95193071
   0.89188526  0.78258673  0.04897583
unknown system                          
           1
     8.274879    4.779281    0.000000
    -8.285435    4.797552    0.000000
     0.000000    0.000000   30.000000
   V    Mo   W    S 
   3   3   3  18
Direct configuration=     5
   0.66204583 -0.00824225 -0.00046536
   0.00072911 -0.00268732  0.00027266
   0.66173794  0.33746647 -0.00040297
   0.33919272  0.35164709  0.00008228
   0.33412454  0.65294437  0.00001375
   0.65037549  0.65728884  0.00012209
   1.01574095  0.34412009 -0.00041968
   0.00396193  0.66883914  0.00029464
   0.32955355 -0.00306424  0.00029597
   0.10855496  0.21676630  0.94877922
   0.21708602  0.10898793  0.05041859
   0.11150692  0.55630438  0.94654901
   0.22181831  0.44396376  0.05513841
   0.10786396  0.89171772  0.94821753
   0.22279837  0.77725429  0.05225859
   0.44933847  0.22455580  0.94940963
   0.56096105  0.11369610  0.04940842
   0.44450651  0.55553653  0.94460012
   0.55840617  0.44108245  0.05293841
   0.44957214  0.89140910  0.94907555
   0.55862737  0.78398829  0.05236059
   0.77377959  0.22021950  0.95220639
   0.88655312  0.10689440  0.04879861
   0.77522593  0.55009601  0.94905644
   0.88329875  0.44079459  0.05052488
   0.78003023  0.89384592  0.95023936
   0.89082451  0.78278920  0.05022675
unknown system                          
           1
     8.270198    4.778356    0.000000
    -8.279782    4.794951    0.000000
     0.000000    0.000000   30.000000
   V    Mo   W    S 
   3   3   3  18
Direct configuration=     6
   0.66118791 -0.00948972 -0.00046947
   0.00081134 -0.00394953  0.00024336
   0.66050846  0.33797180 -0.00035538
   0.33952547  0.35219823  0.00012353
   0.33344125  0.65262801 -0.00008092
   0.64949482  0.65679813  0.00007789
   1.01771550  0.34576049 -0.00033606
   0.00580285  0.66977617  0.00024876
   0.32840846 -0.00420864  0.00031214
   0.10948668  0.21768233  0.94884006
   0.21796154  0.11025412  0.05026910
   0.11221424  0.55687086  0.94629379
   0.22228873  0.44402114  0.05553919
   0.10770195  0.89151444  0.94800492
   0.22349746  0.77680888  0.05237207
   0.44833514  0.22465484  0.94951464
   0.56070829  0.11358377  0.04934131
   0.44448088  0.55583792  0.94421572
   0.55781511  0.44118305  0.05314759
   0.44877659  0.89042757  0.94911002
   0.55788809  0.78302345  0.05248808
   0.77483123  0.22088044  0.95252725
   0.88700569  0.10757229  0.04858215
   0.77531483  0.55085951  0.94918380
   0.88375112  0.44087611  0.05041326
   0.77962689  0.89293952  0.95026120
   0.88963392  0.78173924  0.05013191
unknown system                          
           1
     8.272659    4.780117    0.000000
    -8.282295    4.796803    0.000000
     0.000000    0.000000   30.000000
   V    Mo   W    S 
   3   3   3  18
Direct configuration=     7
   0.66020656 -0.01102354 -0.00045305
   0.00074735 -0.00530338  0.00027704
   0.65894092  0.33837449 -0.00036543
   0.34032291  0.35362456  0.00006268
   0.33273713  0.65196606 -0.00010812
   0.64797743  0.65610635  0.00001709
   1.01995123  0.34763772 -0.00028604
   0.00809966  0.67085549  0.00025225
   0.32721955 -0.00553342  0.00035885
   0.11005850  0.21820849  0.94889989
   0.21841183  0.11093287  0.05013991
   0.11257291  0.55721073  0.94599154
   0.22277299  0.44422717  0.05586747
   0.10759819  0.89137679  0.94773520
   0.22400075  0.77663157  0.05257804
   0.44760256  0.22456764  0.94958567
   0.56051366  0.11349426  0.04926467
   0.44438336  0.55596052  0.94396607
   0.55754279  0.44133351  0.05340641
   0.44830458  0.88992026  0.94905309
   0.55741457  0.78244387  0.05261521
   0.77552513  0.22133920  0.95291880
   0.88736321  0.10802135  0.04832158
   0.77545703  0.55138198  0.94932738
   0.88413442  0.44108817  0.05029747
   0.77940700  0.89236654  0.95025546
   0.88894824  0.78100520  0.05002077
unknown system                          
           1
     8.232886    4.750906    0.000000
    -8.246701    4.774804    0.000000
     0.000000    0.000000   30.000000
   V    Mo   W    S 
   3   3   3  18
Direct configuration=     8
   0.66010596 -0.01116919 -0.00045351
   0.00070608 -0.00545386  0.00027979
   0.65872797  0.33837201 -0.00036620
   0.34042802  0.35364014  0.00006956
   0.33265578  0.65207093 -0.00011253
   0.64791306  0.65609157  0.00001422
   1.02004924  0.34775812 -0.00028388
   0.00839871  0.67098253  0.00024783
   0.32712949 -0.00567359  0.00036281
   0.11007683  0.21823821  0.94893798
   0.21843428  0.11094385  0.05009790
   0.11256510  0.55722189  0.94599164
   0.22281854  0.44424127  0.05584560
   0.10761262  0.89136124  0.94773866
   0.22402699  0.77664017  0.05259123
   0.44754687  0.22453575  0.94961308
   0.56048220  0.11348485  0.04923118
   0.44436304  0.55598883  0.94398960
   0.55753837  0.44135145  0.05338805
   0.44827979  0.88992678  0.94906359
   0.55738019  0.78240034  0.05259763
   0.77556640  0.22138262  0.95298720
   0.88739899  0.10805553  0.04827018
   0.77549881  0.55143046  0.94938186
   0.88417759  0.44112749  0.05025540
   0.77940353  0.89233982  0.95027800
   0.88893001  0.78092526  0.04998305
unknown system                          
           1
     8.225713    4.745152    0.000000
    -8.240219    4.770241    0.000000
     0.000000    0.000000   30.000000
   V    Mo   W    S 
   3   3   3  18
Direct configuration=     9
   0.66026543 -0.01036670 -0.00047241
   0.00112875 -0.00406720  0.00027319
   0.66034370  0.33898591 -0.00036315
   0.33958635  0.35352178  0.00014331
   0.33320607  0.65081631 -0.00012850
   0.64816339  0.65567385  0.00005654
   1.02016408  0.34774202 -0.00027642
   0.00569258  0.66925187  0.00027559
   0.32831877 -0.00429836  0.00032143
   0.11031589  0.21844724  0.94844280
   0.21867891  0.11144306  0.05052036
   0.11296360  0.55740036  0.94583543
   0.22261482  0.44407870  0.05632420
   0.10733442  0.89138672  0.94750170
   0.22410125  0.77630263  0.05250961
   0.44790471  0.22503641  0.94941906
   0.56083903  0.11365541  0.04952231
   0.44460161  0.55585525  0.94347220
   0.55732858  0.44106311  0.05362044
   0.44821764  0.88939908  0.94898392
   0.55741687  0.78253161  0.05285759
   0.77564443  0.22130545  0.95253839
   0.88711258  0.10801486  0.04872413
   0.77486875  0.55092096  0.94882817
   0.88376429  0.44061688  0.05067369
   0.77916109  0.89227561  0.95000050
   0.88847685  0.78122165  0.05039579
unknown system                          
           1
     8.282656    4.789968    0.000000
    -8.292721    4.807413    0.000000
     0.000000    0.000000   30.000000
   V    Mo   W    S 
   3   3   3  18
Direct configuration=    10
   0.66045806 -0.00991749 -0.00047228
   0.00132848 -0.00341125  0.00026232
   0.66119228  0.33919745 -0.00035255
   0.33911694  0.35320364  0.00014933
   0.33352086  0.65053071 -0.00012320
   0.64855098  0.65569799  0.00006680
   1.01987761  0.34744000 -0.00027543
   0.00438099  0.66852046  0.00028210
   0.32881065 -0.00364840  0.00030023
   0.11032030  0.21846299  0.94828417
   0.21869399  0.11150535  0.05067316
   0.11305050  0.55743005  0.94583050
   0.22249774  0.44401908  0.05642881
   0.10724063  0.89139820  0.94748969
   0.22405146  0.77621108  0.05242603
   0.44808006  0.22519831  0.94934871
   0.56097395  0.11372172  0.04962546
   0.44468850  0.55575556  0.94337213
   0.55729280  0.44095361  0.05366304
   0.44821111  0.88924773  0.94896607
   0.55747387  0.78261392  0.05290914
   0.77562111  0.22123753  0.95234057
   0.88699758  0.10797042  0.04889428
   0.77464801  0.55070600  0.94861521
   0.88359571  0.44043205  0.05083512
   0.77911096  0.89231242  0.94992920
   0.88842933  0.78142532  0.05053127
unknown system                          
           1
     8.254601    4.772941    0.000000
    -8.264520    4.790138    0.000000
     0.000000    0.000000   30.000000
   V    Mo   W    S 
   3   3   3  18
Direct configuration=    11
   0.65880918 -0.01324122 -0.00045620
   0.00034772 -0.00781460  0.00032548
   0.65563101  0.33853509 -0.00041367
   0.34208779  0.35539233  0.00003832
   0.33119502  0.65194123 -0.00016383
   0.64581643  0.65517436 -0.00004723
   1.02268672  0.35022581 -0.00024786
   0.01302817  0.67314358  0.00023459
   0.32517313 -0.00804277  0.00041041
   0.11066129  0.21869188  0.94909578
   0.21883074  0.11156989  0.04985590
   0.11280403  0.55753845  0.94546608
   0.22349041  0.44444459  0.05625020
   0.10764080  0.89126228  0.94733051
   0.22470951  0.77657029  0.05315960
   0.44665648  0.22433895  0.94967163
   0.56028676  0.11344232  0.04915212
   0.44415646  0.55637061  0.94362892
   0.55742912  0.44158005  0.05375630
   0.44790469  0.88966741  0.94884864
   0.55685193  0.78177293  0.05283797
   0.77621173  0.22198354  0.95360831
   0.88786851  0.10851907  0.04788313
   0.77580926  0.55214234  0.94975345
   0.88462018  0.44140814  0.05001111
   0.77926059  0.89172873  0.95023141
   0.88824681  0.77986915  0.04977883
unknown system                          
           1
     8.268506    4.783356    0.000000
    -8.278236    4.800232    0.000000
     0.000000    0.000000   30.000000
   V    Mo   W    S 
   3   3   3  18
Direct configuration=    12
   0.65843176 -0.01321649 -0.00045766
   0.00090803 -0.00627535  0.00032396
   0.65769960  0.33942128 -0.00034011
   0.34070859  0.35474348  0.00007738
   0.33242160  0.65134747 -0.00014397
   0.64644301  0.65518959 -0.00002657
   1.02277413  0.35013546 -0.00022049
   0.00951813  0.67110366  0.00022930
   0.32647335 -0.00653914  0.00041420
   0.11077595  0.21898246  0.94873765
   0.21898446  0.11179252  0.05013893
   0.11310847  0.55781139  0.94550471
   0.22343447  0.44442725  0.05648591
   0.10732952  0.89114485  0.94737433
   0.22463574  0.77628968  0.05278500
   0.44686665  0.22467720  0.94953869
   0.56054698  0.11357189  0.04928503
   0.44426074  0.55602738  0.94344445
   0.55717151  0.44131269  0.05383507
   0.44774420  0.88917453  0.94890410
   0.55689991  0.78183313  0.05289157
   0.77644375  0.22191226  0.95333878
   0.88768454  0.10863525  0.04811647
   0.77540771  0.55167237  0.94923656
   0.88440029  0.44113100  0.05036186
   0.77902952  0.89174817  0.95014733
   0.88811184  0.78016050  0.05001741
unknown system                          
           1
     8.272807    4.786824    0.000000
    -8.282276    4.803254    0.000000
     0.000000    0.000000   30.000000
   V    Mo   W    S 
   3   3   3  18
Direct configuration=    13
   0.65734241 -0.01506989 -0.00046839
   0.00043404 -0.00832552  0.00036874
   0.65492337  0.33915800 -0.00039602
   0.34223325  0.35597178  0.00005826
   0.33130388  0.65192584 -0.00018922
   0.64487464  0.65476436 -0.00007722
   1.02434431  0.35171596 -0.00021713
   0.01376204  0.67319225  0.00021648
   0.32487733 -0.00866787  0.00046359
   0.11094919  0.21910284  0.94909107
   0.21905273  0.11183985  0.04976864
   0.11305113  0.55785879  0.94531272
   0.22392091  0.44464278  0.05643513
   0.10756478  0.89111946  0.94724196
   0.22493185  0.77646014  0.05318077
   0.44627706  0.22429387  0.94970757
   0.56023675  0.11342384  0.04905814
   0.44402797  0.55636414  0.94350385
   0.55721184  0.44161759  0.05389084
   0.44770904  0.88946277  0.94881868
   0.55666684  0.78150715  0.05292498
   0.77669924  0.22221789  0.95399308
   0.88802768  0.10889603  0.04762576
   0.77590021  0.55231078  0.94977980
   0.88486584  0.44156260  0.04996905
   0.77906380  0.89146958  0.95025746
   0.88796230  0.77939943  0.04968131
unknown system                          
           1
     8.269306    4.783670    0.000000
    -8.279250    4.800920    0.000000
     0.000000    0.000000   30.000000
   V    Mo   W    S 
   3   3   3  18
Direct configuration=    14
   0.65663595 -0.01599141 -0.00046989
   0.00041543 -0.00876679  0.00038627
   0.65433015  0.33932134 -0.00040107
   0.34246340  0.35621543  0.00005244
   0.33126275  0.65219658 -0.00019778
   0.64446057  0.65463231 -0.00009172
   1.02496802  0.35234058 -0.00020965
   0.01457647  0.67350240  0.00020165
   0.32457083 -0.00919957  0.00048389
   0.11104619  0.21920320  0.94911696
   0.21911288  0.11193123  0.04971222
   0.11313477  0.55799175  0.94519596
   0.22415004  0.44476877  0.05652359
   0.10758603  0.89109202  0.94716879
   0.22505934  0.77644680  0.05329243
   0.44608224  0.22422993  0.94971859
   0.56022868  0.11341735  0.04902208
   0.44394233  0.55641368  0.94343363
   0.55716906  0.44167521  0.05397678
   0.44766854  0.88946586  0.94874338
   0.55660020  0.78140514  0.05300400
   0.77684672  0.22229451  0.95419951
   0.88809592  0.10904295  0.04748314
   0.77598771  0.55244586  0.94984721
   0.88497414  0.44165048  0.04992685
   0.77900586  0.89135393  0.95025329
   0.88784024  0.77913491  0.04962736
unknown system                          
           1
     8.274984    4.791459    0.000000
    -8.283299    4.805907    0.000000
     0.000000    0.000000   30.000000
   V    Mo   W    S 
   3   3   3  18
Direct configuration=    15
   0.65612919 -0.01647970 -0.00047051
   0.00068500 -0.00840381  0.00039203
   0.65484288  0.33981239 -0.00039074
   0.34211158  0.35610167  0.00005256
   0.33168920  0.65214986 -0.00020423
   0.64454824  0.65455549 -0.00010538
   1.02519695  0.35251614 -0.00020282
   0.01369014  0.67291357  0.00020124
   0.32481724 -0.00893795  0.00048517
   0.11105990  0.21931334  0.94905769
   0.21913672  0.11193795  0.04974939
   0.11329106  0.55811493  0.94520257
   0.22423160  0.44487081  0.05657013
   0.10755588  0.89108396  0.94720620
   0.22499393  0.77638678  0.05320191
   0.44611963  0.22429326  0.94973266
   0.56027100  0.11342969  0.04902344
   0.44397335  0.55632193  0.94342014
   0.55708248  0.44165139  0.05398152
   0.44761008  0.88937332  0.94869826
   0.55664461  0.78135880  0.05306149
   0.77696692  0.22227987  0.95425584
   0.88806671  0.10915197  0.04744714
   0.77584927  0.55237371  0.94974479
   0.88496589  0.44160207  0.04999714
   0.77890660  0.89128154  0.95025636
   0.88777842  0.77916147  0.04963589
unknown system                          
           1
     8.277990    4.796332    0.000000
    -8.285074    4.808666    0.000000
     0.000000    0.000000   30.000000
   V    Mo   W    S 
   3   3   3  18
Direct configuration=    16
   0.65492514 -0.01831253 -0.00047041
   0.00024751 -0.01012569  0.00043051
   0.65248133  0.33951114 -0.00041291
   0.34329436  0.35712580  0.00004551
   0.33101121  0.65295776 -0.00020798
   0.64315981  0.65427382 -0.00011248
   1.02650314  0.35387255 -0.00019848
   0.01728840  0.67466519  0.00017820
   0.32363981 -0.01089802  0.00055968
   0.11121998  0.21939881  0.94930297
   0.21925439  0.11206061  0.04946046
   0.11324485  0.55821374  0.94497737
   0.22469767  0.44510344  0.05658316
   0.10773851  0.89104171  0.94703013
   0.22533902  0.77653065  0.05358849
   0.44557139  0.22398596  0.94981309
   0.56010349  0.11333366  0.04885698
   0.44369866  0.55660662  0.94337342
   0.55711462  0.44188532  0.05410126
   0.44763417  0.88966499  0.94857563
   0.55648266  0.78113967  0.05313626
   0.77709717  0.22244073  0.95478839
   0.88829512  0.10937014  0.04703844
   0.77631197  0.55289334  0.95016583
   0.88533686  0.44197178  0.04969531
   0.77888250  0.89105734  0.95030057
   0.88764072  0.77844593  0.04940049
unknown system                          
           1
     8.289665    4.821124    0.000000
    -8.289367    4.820763    0.000000
     0.000000    0.000000   30.000000
   V    Mo   W    S 
   3   3   3  18
Direct configuration=    17
   0.65388541 -0.01975156 -0.00047053
  -0.00001584 -0.01124957  0.00045505
   0.65094706  0.33933698 -0.00042149
   0.34393783  0.35780889  0.00003421
   0.33077429  0.65367385 -0.00021659
   0.64225769  0.65407890 -0.00013350
   1.02742928  0.35484008 -0.00019489
   0.01944986  0.67569408  0.00013063
   0.32298784 -0.01228479  0.00060708
   0.11134107  0.21946269  0.94944346
   0.21935986  0.11218443  0.04926268
   0.11329908  0.55836810  0.94480201
   0.22508376  0.44535092  0.05662063
   0.10789327  0.89102142  0.94689258
   0.22563582  0.77661225  0.05390093
   0.44515312  0.22377901  0.94985273
   0.56003596  0.11328019  0.04876198
   0.44347463  0.55681240  0.94332450
   0.55708809  0.44204660  0.05421625
   0.44764974  0.88987385  0.94843947
   0.55638918  0.78099800  0.05325250
   0.77717069  0.22249431  0.95517011
   0.88841651  0.10953665  0.04673662
   0.77664969  0.55323624  0.95045429
   0.88559073  0.44226593  0.04950698
   0.77879899  0.89085923  0.95031088
   0.88753084  0.77788537  0.04926132
unknown system                          
           1
     8.293592    4.818951    0.000000
    -8.298019    4.826716    0.000000
     0.000000    0.000000   30.000000
   V    Mo   W    S 
   3   3   3  18
Direct configuration=    18
   0.64870937 -0.02677911 -0.00042832
  -0.00176519 -0.01748021  0.00057362
   0.64226852  0.33755051 -0.00037513
   0.34700240  0.36166444  0.00001396
   0.32950952  0.65771058 -0.00015101
   0.63776506  0.65307908 -0.00016845
   1.03223386  0.35987302 -0.00018086
   0.03068664  0.68105820 -0.00012352
   0.32006097 -0.01998935  0.00088623
   0.11197675  0.21977002  0.95022994
   0.22002193  0.11289585  0.04802857
   0.11376794  0.55927107  0.94385123
   0.22726725  0.44698311  0.05671601
   0.10897940  0.89104290  0.94610314
   0.22738007  0.77707147  0.05568624
   0.44265656  0.22257705  0.95004642
   0.55963737  0.11299208  0.04828751
   0.44208720  0.55811860  0.94305658
   0.55680525  0.44294721  0.05478520
   0.44772155  0.89111299  0.94759034
   0.55591849  0.78023113  0.05390918
   0.77741186  0.22272991  0.95720906
   0.88908488  0.11037273  0.04506810
   0.77878614  0.55507481  0.95219909
   0.88701473  0.44412863  0.04836274
   0.77816520  0.88961633  0.95029824
   0.88706076  0.77459143  0.04852579
unknown system                          
           1
     8.297591    4.830382    0.000000
    -8.298731    4.832493    0.000000
     0.000000    0.000000   30.000000
   V    Mo   W    S 
   3   3   3  18
Direct configuration=    19
   0.65005925 -0.02503704 -0.00045536
  -0.00200109 -0.01691449  0.00045019
   0.64392629  0.33728319 -0.00027343
   0.34613782  0.36119980 -0.00000122
   0.33059407  0.65777230 -0.00012624
   0.63895925  0.65370098 -0.00014551
   1.03103846  0.35867025 -0.00024744
   0.02723164  0.67940408 -0.00024325
   0.32138277 -0.01848080  0.00070599
   0.11187285  0.21962638  0.95011405
   0.21987463  0.11275631  0.04802737
   0.11397585  0.55943032  0.94401968
   0.22711569  0.44705851  0.05672388
   0.10917430  0.89128997  0.94624336
   0.22741044  0.77692819  0.05557291
   0.44238820  0.22238766  0.94992730
   0.55952113  0.11283524  0.04840491
   0.44217349  0.55819821  0.94313712
   0.55657480  0.44290915  0.05474845
   0.44760466  0.89094994  0.94770389
   0.55607439  0.78034253  0.05384275
   0.77711866  0.22256128  0.95692238
   0.88894168  0.11003979  0.04528165
   0.77901019  0.55479506  0.95221497
   0.88683481  0.44422777  0.04845784
   0.77797806  0.88966600  0.95026053
   0.88724216  0.77461385  0.04873311
unknown system                          
           1
     8.300574    4.826224    0.000000
    -8.304745    4.833542    0.000000
     0.000000    0.000000   30.000000
   V    Mo   W    S 
   3   3   3  18
Direct configuration=    20
   0.64667130 -0.02967084 -0.00040342
  -0.00389274 -0.02198088  0.00045831
   0.63746421  0.33521075 -0.00013745
   0.34812206  0.36433109 -0.00001051
   0.33017944  0.66114664  0.00000047
   0.63601595  0.65333176 -0.00010247
   1.03437251  0.36222085 -0.00027634
   0.03505318  0.68315415 -0.00038602
   0.31984826 -0.02425429  0.00089283
   0.11229643  0.21976565  0.95069669
   0.22028800  0.11322613  0.04689146
   0.11462825  0.56027148  0.94339697
   0.22873088  0.44856251  0.05673046
   0.11019860  0.89145984  0.94569625
   0.22854624  0.77725120  0.05674404
   0.44022781  0.22140749  0.95007259
   0.55909310  0.11245068  0.04811843
   0.44121862  0.55940794  0.94299763
   0.55607751  0.44362269  0.05512404
   0.44768439  0.89187761  0.94704974
   0.55596565  0.77992442  0.05430797
   0.77712623  0.22264284  0.95840747
   0.88940856  0.11049158  0.04402699
   0.78083173  0.55602265  0.95367902
   0.88779751  0.44573565  0.04756546
   0.77726215  0.88861504  0.95019163
   0.88699862  0.77198980  0.04826767
unknown system                          
           1
     8.304683    4.828515    0.000000
    -8.309014    4.836107    0.000000
     0.000000    0.000000   30.000000
   V    Mo   W    S 
   3   3   3  18
Direct configuration=    21
   0.64780741 -0.02812986 -0.00039717
  -0.00401636 -0.02131152  0.00038738
   0.63905217  0.33531281 -0.00010316
   0.34744266  0.36369679  0.00000686
   0.33069252  0.66056500  0.00000812
   0.63716326  0.65368664 -0.00007028
   1.03347153  0.36131706 -0.00029246
   0.03251423  0.68184465 -0.00033813
   0.32082357 -0.02238628  0.00078454
   0.11210105  0.21966804  0.95057360
   0.22007259  0.11305589  0.04694016
   0.11474287  0.56022449  0.94358992
   0.22831932  0.44842103  0.05670125
   0.11011728  0.89152507  0.94584314
   0.22819022  0.77713278  0.05640642
   0.44046913  0.22156946  0.95005253
   0.55907150  0.11233493  0.04825809
   0.44154601  0.55935977  0.94305438
   0.55599292  0.44349763  0.05501659
   0.44776537  0.89168017  0.94716247
   0.55622500  0.78021199  0.05422497
   0.77695507  0.22256204  0.95804307
   0.88932540  0.11023432  0.04427927
   0.78049109  0.55553190  0.95350310
   0.88747700  0.44536632  0.04775841
   0.77726138  0.88878067  0.95014024
   0.88714026  0.77246269  0.04846660
unknown system                          
           1
     8.305554    4.828401    0.000000
    -8.310002    4.836194    0.000000
     0.000000    0.000000   30.000000
   V    Mo   W    S 
   3   3   3  18
Direct configuration=    22
   0.64760282 -0.02841552 -0.00038548
  -0.00490634 -0.02254403  0.00030043
   0.63802820  0.33460908 -0.00002146
   0.34765839  0.36428251 -0.00000231
   0.33092786  0.66114835  0.00002167
   0.63708250  0.65386532 -0.00003460
   1.03382480  0.36177128 -0.00032932
   0.03330030  0.68219502 -0.00038151
   0.32107943 -0.02290137  0.00074518
   0.11205551  0.21964135  0.95066943
   0.22001424  0.11311850  0.04662353
   0.11505798  0.56048181  0.94356177
   0.22847878  0.44878628  0.05669903
   0.11029864  0.89152685  0.94580260
   0.22830034  0.77721055  0.05650697
   0.44007565  0.22149636  0.95009025
   0.55894975  0.11217484  0.04829734
   0.44156269  0.55970696  0.94307615
   0.55578349  0.44356724  0.05505224
   0.44788660  0.89183169  0.94706959
   0.55642849  0.78034054  0.05429866
   0.77685505  0.22257928  0.95821911
   0.88944175  0.11020911  0.04409338
   0.78072403  0.55545599  0.95381626
   0.88745714  0.44544352  0.04764018
   0.77705857  0.88859296  0.95006933
   0.88718780  0.77203998  0.04850147
unknown system                          
           1
     8.305001    4.826501    0.000000
    -8.310060    4.835342    0.000000
     0.000000    0.000000   30.000000
   V    Mo   W    S 
   3   3   3  18
Direct configuration=    23
   0.64767791 -0.02831850 -0.00038091
  -0.00514454 -0.02272894  0.00027554
   0.63794380  0.33445646  0.00000034
   0.34766316  0.36433766  0.00000037
   0.33100523  0.66117720  0.00002593
   0.63717936  0.65394516 -0.00002149
   1.03379608  0.36176820 -0.00033336
   0.03328848  0.68218600 -0.00037322
   0.32121282 -0.02283782  0.00073581
   0.11202154  0.21962875  0.95067579
   0.21996960  0.11311636  0.04657192
   0.11512885  0.56051811  0.94357960
   0.22844222  0.44882528  0.05669009
   0.11029745  0.89150538  0.94581235
   0.22826793  0.77723171  0.05646713
   0.44007885  0.22154406  0.95009825
   0.55893700  0.11214677  0.04832105
   0.44163191  0.55976065  0.94308880
   0.55574218  0.44354856  0.05504091
   0.44794281  0.89184356  0.94707223
   0.55650606  0.78041342  0.05429144
   0.77683096  0.22258705  0.95820681
   0.88945605  0.11018494  0.04409103
   0.78068931  0.55535796  0.95384191
   0.88740172  0.44538324  0.04764086
   0.77702768  0.88858589  0.95005004
   0.88722004  0.77204733  0.04853068
unknown system                          
           1
     8.307636    4.827316    0.000000
    -8.313089    4.836835    0.000000
     0.000000    0.000000   30.000000
   V    Mo   W    S 
   3   3   3  18
Direct configuration=    24
   0.64769963 -0.02830700 -0.00036178
  -0.00619531 -0.02388036  0.00018479
   0.63721232  0.33378395  0.00010001
   0.34777177  0.36484062  0.00001872
   0.33125051  0.66156885  0.00005199
   0.63726990  0.65417827  0.00001817
   1.03401954  0.36211759 -0.00034159
   0.03368747  0.68229235 -0.00039000
   0.32152871 -0.02305208  0.00069406
   0.11195824  0.21961317  0.95076271
   0.21984775  0.11314805  0.04626212
   0.11545878  0.56077532  0.94355962
   0.22851716  0.44911539  0.05666959
   0.11044400  0.89145747  0.94578029
   0.22837423  0.77733126  0.05651216
   0.43974440  0.22151611  0.95010362
   0.55878793  0.11194118  0.04838823
   0.44177111  0.56009197  0.94310592
   0.55553333  0.44359541  0.05507495
   0.44811012  0.89198426  0.94699887