   27   27  100    1
  0.9710400E+02  0.1002848E-08  0.1002848E-08  0.3000000E-08  0.5000000E-15
  1.000000000000000E-004
  CAR 
 unknown system                          
    159     34    120
 
  0.0000000E+00  0.0000000E+00  0.0000000E+00  0.1562500E-01
    1      -17.811313   1.000000
    2      -16.682787   1.000000
    3      -16.610664   1.000000
    4      -16.580673   1.000000
    5      -16.472705   1.000000
    6      -16.426096   1.000000
    7      -16.413610   1.000000
    8      -16.371508   1.000000
    9      -16.127768   1.000000
   10      -16.064228   1.000000
   11      -16.004623   1.000000
   12      -15.951906   1.000000
   13      -15.918840   1.000000
   14      -15.841743   1.000000
   15      -15.636372   1.000000
   16      -15.469544   1.000000
   17      -15.339000   1.000000
   18      -15.236080   1.000000
   19       -9.420744   1.000000
   20       -9.056157   1.000000
   21       -8.920212   1.000000
   22       -8.763547   1.000000
   23       -8.724501   1.000000
   24       -8.622699   1.000000
   25       -8.597456   1.000000
   26       -8.497604   1.000000
   27       -8.454983   1.000000
   28       -8.409978   1.000000
   29       -8.353407   1.000000
   30       -8.306185   1.000000
   31       -8.190455   1.000000
   32       -8.174964   1.000000
   33       -8.111648   1.000000
   34       -8.076749   1.000000
   35       -7.861554   1.000000
   36       -7.804561   1.000000
   37       -7.727913   1.000000
   38       -7.659743   1.000000
   39       -7.522142   1.000000
   40       -7.445862   1.000000
   41       -7.305009   1.000000
   42       -7.236138   1.000000
   43       -7.189574   1.000000
   44       -6.934033   1.000000
   45       -6.832928   1.000000
   46       -6.769678   1.000000
   47       -6.760575   1.000000
   48       -6.672241   1.000000
   49       -6.542256   1.000000
   50       -6.500979   1.000000
   51       -6.451491   1.000000
   52       -6.425850   1.000000
   53       -6.293254   1.000000
   54       -6.265145   1.000000
   55       -6.140525   1.000000
   56       -6.133508   1.000000
   57       -6.036863   1.000000
   58       -5.775420   1.000000
   59       -5.724185   1.000000
   60       -5.639641   1.000000
   61       -5.615366   1.000000
   62       -5.302533   1.000000
   63       -5.286166   1.000000
   64       -5.065173   1.000000
   65       -5.060459   1.000000
   66       -4.940708   1.000000
   67       -4.885886   1.000000
   68       -4.699366   1.000000
   69       -4.677377   1.000000
   70       -4.645169   1.000000
   71       -4.596855   1.000000
   72       -4.478125   1.000000
   73       -4.414822   1.000000
   74       -4.321267   1.000000
   75       -4.037853   1.000000
   76       -4.017416   1.000000
   77       -3.701540   0.997671
   78       -3.540863   0.954829
   79       -3.456897   0.864304
   80       -3.430288   0.819038
   81       -3.282900   0.448093
   82       -2.755434   0.000057
   83       -2.600097   0.000000
   84       -2.551068   0.000000
   85       -2.507383   0.000000
   86       -2.417391   0.000000
   87       -2.327078   0.000000
   88       -2.315187   0.000000
   89       -2.099700   0.000000
   90       -2.035573   0.000000
   91       -1.912998   0.000000
   92       -1.876848   0.000000
   93       -1.444838   0.000000
   94       -1.426876   0.000000
   95       -1.210455   0.000000
   96       -1.180501   0.000000
   97       -1.082187   0.000000
   98       -0.935304   0.000000
   99       -0.694291   0.000000
  100       -0.531576   0.000000
  101       -0.528674   0.000000
  102       -0.501628   0.000000
  103       -0.413993   0.000000
  104       -0.176402   0.000000
  105       -0.158256   0.000000
  106        0.095427   0.000000
  107        0.116541   0.000000
  108        0.250760   0.000000
  109        0.263556   0.000000
  110        0.403317   0.000000
  111        0.435845   0.000000
  112        0.591725   0.000000
  113        0.705657   0.000000
  114        0.726768   0.000000
  115        0.903521   0.000000
  116        0.944399   0.000000
  117        0.988368   0.000000
  118        1.656361   0.000000
  119        1.834957   0.000000
  120        2.167194   0.000000
 
  0.1250000E+00  0.2775558E-16  0.0000000E+00  0.3125000E-01
    1      -17.786888   1.000000
    2      -16.772211   1.000000
    3      -16.650329   1.000000
    4      -16.588434   1.000000
    5      -16.522181   1.000000
    6      -16.394373   1.000000
    7      -16.370513   1.000000
    8      -16.329036   1.000000
    9      -16.126497   1.000000
   10      -16.092966   1.000000
   11      -15.979742   1.000000
   12      -15.922362   1.000000
   13      -15.879450   1.000000
   14      -15.813831   1.000000
   15      -15.651425   1.000000
   16      -15.477129   1.000000
   17      -15.352284   1.000000
   18      -15.237804   1.000000
   19       -9.416506   1.000000
   20       -9.181853   1.000000
   21       -9.026751   1.000000
   22       -8.851049   1.000000
   23       -8.760766   1.000000
   24       -8.655295   1.000000
   25       -8.576750   1.000000
   26       -8.509705   1.000000
   27       -8.479494   1.000000
   28       -8.416949   1.000000
   29       -8.328325   1.000000
   30       -8.220519   1.000000
   31       -8.186274   1.000000
   32       -8.114409   1.000000
   33       -8.016232   1.000000
   34       -7.915376   1.000000
   35       -7.842110   1.000000
   36       -7.748633   1.000000
   37       -7.668471   1.000000
   38       -7.613391   1.000000
   39       -7.522277   1.000000
   40       -7.469256   1.000000
   41       -7.316070   1.000000
   42       -7.199465   1.000000
   43       -7.170583   1.000000
   44       -7.038048   1.000000
   45       -6.842923   1.000000
   46       -6.801083   1.000000
   47       -6.778782   1.000000
   48       -6.660828   1.000000
   49       -6.570568   1.000000
   50       -6.496526   1.000000
   51       -6.454856   1.000000
   52       -6.355439   1.000000
   53       -6.314100   1.000000
   54       -6.260928   1.000000
   55       -6.153162   1.000000
   56       -6.134552   1.000000
   57       -6.040646   1.000000
   58       -5.794732   1.000000
   59       -5.733469   1.000000
   60       -5.562038   1.000000
   61       -5.542325   1.000000
   62       -5.341629   1.000000
   63       -5.300615   1.000000
   64       -5.189411   1.000000
   65       -5.120180   1.000000
   66       -5.052507   1.000000
   67       -4.875997   1.000000
   68       -4.845963   1.000000
   69       -4.748353   1.000000
   70       -4.625570   1.000000
   71       -4.502064   1.000000
   72       -4.406508   1.000000
   73       -4.278062   1.000000
   74       -4.221313   1.000000
   75       -4.007316   1.000000
   76       -3.921542   0.999994
   77       -3.824248   0.999891
   78       -3.665923   0.995030
   79       -3.562589   0.967642
   80       -3.404692   0.767524
   81       -3.138744   0.125109
   82       -2.734221   0.000030
   83       -2.635460   0.000001
   84       -2.541262   0.000000
   85       -2.494829   0.000000
   86       -2.408175   0.000000
   87       -2.337248   0.000000
   88       -2.276585   0.000000
   89       -2.131690   0.000000
   90       -2.036550   0.000000
   91       -1.899912   0.000000
   92       -1.853485   0.000000
   93       -1.437429   0.000000
   94       -1.404618   0.000000
   95       -1.216134   0.000000
   96       -1.166775   0.000000
   97       -1.059467   0.000000
   98       -0.925571   0.000000
   99       -0.719821   0.000000
  100       -0.610248   0.000000
  101       -0.568178   0.000000
  102       -0.550028   0.000000
  103       -0.488524   0.000000
  104       -0.246589   0.000000
  105       -0.172981   0.000000
  106        0.020758   0.000000
  107        0.104098   0.000000
  108        0.224470   0.000000
  109        0.251915   0.000000
  110        0.323460   0.000000
  111        0.432900   0.000000
  112        0.591643   0.000000
  113        0.656546   0.000000
  114        0.828598   0.000000
  115        0.943332   0.000000
  116        0.985589   0.000000
  117        1.108172   0.000000
  118        1.699815   0.000000
  119        1.874050   0.000000
  120        2.202112   0.000000
 
  0.2500000E+00  0.5551115E-16  0.0000000E+00  0.3125000E-01
    1      -17.715545   1.000000
    2      -16.971898   1.000000
    3      -16.697661   1.000000
    4      -16.585651   1.000000
    5      -16.578616   1.000000
    6      -16.385050   1.000000
    7      -16.315677   1.000000
    8      -16.255494   1.000000
    9      -16.167589   1.000000
   10      -16.046763   1.000000
   11      -15.974887   1.000000
   12      -15.867904   1.000000
   13      -15.829120   1.000000
   14      -15.717404   1.000000
   15      -15.684794   1.000000
   16      -15.496268   1.000000
   17      -15.382837   1.000000
   18      -15.244995   1.000000
   19       -9.523322   1.000000
   20       -9.320979   1.000000
   21       -9.155049   1.000000
   22       -8.966922   1.000000
   23       -8.886620   1.000000
   24       -8.721426   1.000000
   25       -8.570787   1.000000
   26       -8.470819   1.000000
   27       -8.424499   1.000000
   28       -8.370883   1.000000
   29       -8.304293   1.000000
   30       -8.196032   1.000000
   31       -8.143078   1.000000
   32       -8.081085   1.000000
   33       -7.901916   1.000000
   34       -7.776783   1.000000
   35       -7.734952   1.000000
   36       -7.674153   1.000000
   37       -7.611329   1.000000
   38       -7.542937   1.000000
   39       -7.418266   1.000000
   40       -7.349295   1.000000
   41       -7.306258   1.000000
   42       -7.199553   1.000000
   43       -7.090700   1.000000
   44       -7.059779   1.000000
   45       -6.941847   1.000000
   46       -6.842146   1.000000
   47       -6.789370   1.000000
   48       -6.678205   1.000000
   49       -6.591690   1.000000
   50       -6.522198   1.000000
   51       -6.430390   1.000000
   52       -6.351682   1.000000
   53       -6.263287   1.000000
   54       -6.206378   1.000000
   55       -6.153554   1.000000
   56       -6.076478   1.000000
   57       -6.033981   1.000000
   58       -5.825506   1.000000
   59       -5.741718   1.000000
   60       -5.614713   1.000000
   61       -5.569786   1.000000
   62       -5.500398   1.000000
   63       -5.429481   1.000000
   64       -5.361534   1.000000
   65       -5.167464   1.000000
   66       -5.097200   1.000000
   67       -4.972223   1.000000
   68       -4.837041   1.000000
   69       -4.714634   1.000000
   70       -4.593308   1.000000
   71       -4.412781   1.000000
   72       -4.335816   1.000000
   73       -4.236423   1.000000
   74       -4.090929   1.000000
   75       -4.025982   1.000000
   76       -3.939161   0.999997
   77       -3.866875   0.999968
   78       -3.729302   0.998761
   79       -3.542308   0.955792
   80       -3.409132   0.777004
   81       -3.037427   0.031004
   82       -2.712446   0.000016
   83       -2.681898   0.000006
   84       -2.526952   0.000000
   85       -2.461224   0.000000
   86       -2.388888   0.000000
   87       -2.346941   0.000000
   88       -2.208796   0.000000
   89       -2.155876   0.000000
   90       -2.026459   0.000000
   91       -1.879569   0.000000
   92       -1.818489   0.000000
   93       -1.428500   0.000000
   94       -1.370170   0.000000
   95       -1.222417   0.000000
   96       -1.131952   0.000000
   97       -1.017184   0.000000
   98       -0.921295   0.000000
   99       -0.826776   0.000000
  100       -0.726384   0.000000
  101       -0.690912   0.000000
  102       -0.633243   0.000000
  103       -0.575297   0.000000
  104       -0.392454   0.000000
  105       -0.247745   0.000000
  106       -0.153889   0.000000
  107        0.010946   0.000000
  108        0.071504   0.000000
  109        0.174610   0.000000
  110        0.396137   0.000000
  111        0.436775   0.000000
  112        0.532758   0.000000
  113        0.641661   0.000000
  114        0.940329   0.000000
  115        1.012868   0.000000
  116        1.137631   0.000000
  117        1.315012   0.000000
  118        1.821940   0.000000
  119        1.986419   0.000000
  120        2.305717   0.000000
 
  0.3750000E+00  0.0000000E+00  0.0000000E+00  0.3125000E-01
    1      -17.606754   1.000000
    2      -17.175468   1.000000
    3      -16.735850   1.000000
    4      -16.619830   1.000000
    5      -16.559236   1.000000
    6      -16.414961   1.000000
    7      -16.284918   1.000000
    8      -16.203490   1.000000
    9      -16.160538   1.000000
   10      -16.017905   1.000000
   11      -15.954699   1.000000
   12      -15.831867   1.000000
   13      -15.781015   1.000000
   14      -15.718553   1.000000
   15      -15.659684   1.000000
   16      -15.497986   1.000000
   17      -15.408532   1.000000
   18      -15.256810   1.000000
   19       -9.716219   1.000000
   20       -9.352722   1.000000
   21       -9.214712   1.000000
   22       -9.038848   1.000000
   23       -8.961905   1.000000
   24       -8.773287   1.000000
   25       -8.529815   1.000000
   26       -8.454370   1.000000
   27       -8.391973   1.000000
   28       -8.346571   1.000000
   29       -8.248900   1.000000
   30       -8.197947   1.000000
   31       -8.126085   1.000000
   32       -8.015403   1.000000
   33       -7.908646   1.000000
   34       -7.779300   1.000000
   35       -7.760558   1.000000
   36       -7.640402   1.000000
   37       -7.623364   1.000000
   38       -7.477007   1.000000
   39       -7.292077   1.000000
   40       -7.251355   1.000000
   41       -7.205690   1.000000
   42       -7.126066   1.000000
   43       -7.047218   1.000000
   44       -6.989908   1.000000
   45       -6.890710   1.000000
   46       -6.822946   1.000000
   47       -6.732310   1.000000
   48       -6.657605   1.000000
   49       -6.616640   1.000000
   50       -6.500507   1.000000
   51       -6.389280   1.000000
   52       -6.290449   1.000000
   53       -6.259511   1.000000
   54       -6.208290   1.000000
   55       -6.116393   1.000000
   56       -6.046807   1.000000
   57       -5.959560   1.000000
   58       -5.943107   1.000000
   59       -5.867922   1.000000
   60       -5.819179   1.000000
   61       -5.698891   1.000000
   62       -5.649225   1.000000
   63       -5.570549   1.000000
   64       -5.418437   1.000000
   65       -5.158995   1.000000
   66       -5.017116   1.000000
   67       -4.938286   1.000000
   68       -4.836961   1.000000
   69       -4.710425   1.000000
   70       -4.626448   1.000000
   71       -4.555214   1.000000
   72       -4.344407   1.000000
   73       -4.265337   1.000000
   74       -4.141639   1.000000
   75       -3.956536   0.999998
   76       -3.816235   0.999864
   77       -3.780226   0.999646
   78       -3.650344   0.993202
   79       -3.500556   0.920520
   80       -3.443929   0.843313
   81       -3.007876   0.018984
   82       -2.725069   0.000023
   83       -2.696422   0.000009
   84       -2.532741   0.000000
   85       -2.430375   0.000000
   86       -2.352343   0.000000
   87       -2.328624   0.000000
   88       -2.230714   0.000000
   89       -2.057420   0.000000
   90       -1.999223   0.000000
   91       -1.869644   0.000000
   92       -1.802579   0.000000
   93       -1.425867   0.000000
   94       -1.346954   0.000000
   95       -1.245692   0.000000
   96       -1.151075   0.000000
   97       -1.035289   0.000000
   98       -0.937184   0.000000
   99       -0.864396   0.000000
  100       -0.839789   0.000000
  101       -0.770968   0.000000
  102       -0.670342   0.000000
  103       -0.618027   0.000000
  104       -0.536431   0.000000
  105       -0.368606   0.000000
  106       -0.236267   0.000000
  107       -0.167635   0.000000
  108       -0.030782   0.000000
  109        0.121327   0.000000
  110        0.373275   0.000000
  111        0.480804   0.000000
  112        0.509122   0.000000
  113        0.648387   0.000000
  114        1.034860   0.000000
  115        1.084064   0.000000
  116        1.251356   0.000000
  117        1.475325   0.000000
  118        2.005229   0.000000
  119        2.161543   0.000000
  120        2.471899   0.000000
 
  0.5000000E+00  0.1110223E-15  0.0000000E+00  0.1562500E-01
    1      -17.522542   1.000000
    2      -17.293375   1.000000
    3      -16.749599   1.000000
    4      -16.633310   1.000000
    5      -16.543432   1.000000
    6      -16.434637   1.000000
    7      -16.273334   1.000000
    8      -16.216855   1.000000
    9      -16.109299   1.000000
   10      -16.021339   1.000000
   11      -15.951776   1.000000
   12      -15.801482   1.000000
   13      -15.764819   1.000000
   14      -15.717770   1.000000
   15      -15.678149   1.000000
   16      -15.487983   1.000000
   17      -15.411967   1.000000
   18      -15.263766   1.000000
   19       -9.790858   1.000000
   20       -9.375037   1.000000
   21       -9.228822   1.000000
   22       -9.068434   1.000000
   23       -8.962493   1.000000
   24       -8.779944   1.000000
   25       -8.537584   1.000000
   26       -8.493892   1.000000
   27       -8.366979   1.000000
   28       -8.327244   1.000000
   29       -8.208182   1.000000
   30       -8.146109   1.000000
   31       -8.119897   1.000000
   32       -7.973629   1.000000
   33       -7.930711   1.000000
   34       -7.826913   1.000000
   35       -7.794988   1.000000
   36       -7.686984   1.000000
   37       -7.629626   1.000000
   38       -7.483145   1.000000
   39       -7.302389   1.000000
   40       -7.216699   1.000000
   41       -7.105821   1.000000
   42       -7.047546   1.000000
   43       -6.998074   1.000000
   44       -6.919997   1.000000
   45       -6.835212   1.000000
   46       -6.780127   1.000000
   47       -6.665620   1.000000
   48       -6.655697   1.000000
   49       -6.565327   1.000000
   50       -6.494876   1.000000
   51       -6.408575   1.000000
   52       -6.351144   1.000000
   53       -6.335735   1.000000
   54       -6.224023   1.000000
   55       -6.112448   1.000000
   56       -6.061954   1.000000
   57       -6.023895   1.000000
   58       -5.931479   1.000000
   59       -5.868317   1.000000
   60       -5.781150   1.000000
   61       -5.747059   1.000000
   62       -5.657866   1.000000
   63       -5.547110   1.000000
   64       -5.456436   1.000000
   65       -5.336810   1.000000
   66       -5.014455   1.000000
   67       -4.940041   1.000000
   68       -4.873543   1.000000
   69       -4.750605   1.000000
   70       -4.618431   1.000000
   71       -4.515713   1.000000
   72       -4.350342   1.000000
   73       -4.255023   1.000000
   74       -4.209078   1.000000
   75       -3.891814   0.999985
   76       -3.785515   0.999691
   77       -3.718229   0.998400
   78       -3.567924   0.970281
   79       -3.537004   0.952174
   80       -3.463234   0.873828
   81       -2.993058   0.014630
   82       -2.732053   0.000028
   83       -2.711944   0.000015
   84       -2.537080   0.000000
   85       -2.418198   0.000000
   86       -2.333704   0.000000
   87       -2.312455   0.000000
   88       -2.236038   0.000000
   89       -2.012972   0.000000
   90       -1.976847   0.000000
   91       -1.864794   0.000000
   92       -1.804930   0.000000
   93       -1.416122   0.000000
   94       -1.344875   0.000000
   95       -1.274856   0.000000
   96       -1.176465   0.000000
   97       -1.067174   0.000000
   98       -0.976103   0.000000
   99       -0.882674   0.000000
  100       -0.815617   0.000000
  101       -0.769326   0.000000
  102       -0.697739   0.000000
  103       -0.629389   0.000000
  104       -0.609649   0.000000
  105       -0.407672   0.000000
  106       -0.263387   0.000000
  107       -0.246530   0.000000
  108       -0.070295   0.000000
  109        0.100489   0.000000
  110        0.354495   0.000000
  111        0.495825   0.000000
  112        0.507098   0.000000
  113        0.652851   0.000000
  114        1.072687   0.000000
  115        1.113406   0.000000
  116        1.289800   0.000000
  117        1.530963   0.000000
  118        2.219266   0.000000
  119        2.253572   0.000000
  120        2.384544   0.000000
 
  0.0000000E+00  0.1250000E+00  0.0000000E+00  0.3125000E-01
    1      -17.786897   1.000000
    2      -16.772846   1.000000
    3      -16.648613   1.000000
    4      -16.588748   1.000000
    5      -16.522401   1.000000
    6      -16.393189   1.000000
    7      -16.370040   1.000000
    8      -16.332367   1.000000
    9      -16.127262   1.000000
   10      -16.091517   1.000000
   11      -15.979252   1.000000
   12      -15.921195   1.000000
   13      -15.879169   1.000000
   14      -15.815316   1.000000
   15      -15.651604   1.000000
   16      -15.476816   1.000000
   17      -15.352353   1.000000
   18      -15.237885   1.000000
   19       -9.416444   1.000000
   20       -9.183975   1.000000
   21       -9.022566   1.000000
   22       -8.850405   1.000000
   23       -8.762267   1.000000
   24       -8.652563   1.000000
   25       -8.575526   1.000000
   26       -8.513933   1.000000
   27       -8.478574   1.000000
   28       -8.421298   1.000000
   29       -8.329539   1.000000
   30       -8.220441   1.000000
   31       -8.181965   1.000000
   32       -8.117105   1.000000
   33       -8.017735   1.000000
   34       -7.912457   1.000000
   35       -7.839752   1.000000
   36       -7.748586   1.000000
   37       -7.670937   1.000000
   38       -7.613157   1.000000
   39       -7.521257   1.000000
   40       -7.470895   1.000000
   41       -7.315343   1.000000
   42       -7.196857   1.000000
   43       -7.173896   1.000000
   44       -7.038156   1.000000
   45       -6.843785   1.000000
   46       -6.796138   1.000000
   47       -6.780049   1.000000
   48       -6.661714   1.000000
   49       -6.569347   1.000000
   50       -6.498882   1.000000
   51       -6.454085   1.000000
   52       -6.355056   1.000000
   53       -6.309939   1.000000
   54       -6.268634   1.000000
   55       -6.153713   1.000000
   56       -6.133696   1.000000
   57       -6.038645   1.000000
   58       -5.799828   1.000000
   59       -5.728988   1.000000
   60       -5.566959   1.000000
   61       -5.534941   1.000000
   62       -5.342007   1.000000
   63       -5.295712   1.000000
   64       -5.197372   1.000000
   65       -5.123714   1.000000
   66       -5.046783   1.000000
   67       -4.883227   1.000000
   68       -4.842531   1.000000
   69       -4.744889   1.000000
   70       -4.622441   1.000000
   71       -4.496924   1.000000
   72       -4.409440   1.000000
   73       -4.279903   1.000000
   74       -4.225539   1.000000
   75       -4.007404   1.000000
   76       -3.920389   0.999994
   77       -3.822745   0.999886
   78       -3.671954   0.995611
   79       -3.560408   0.966509
   80       -3.402554   0.762882
   81       -3.143385   0.131997
   82       -2.733497   0.000030
   83       -2.634612   0.000001
   84       -2.534255   0.000000
   85       -2.495787   0.000000
   86       -2.410283   0.000000
   87       -2.334766   0.000000
   88       -2.275308   0.000000
   89       -2.131464   0.000000
   90       -2.036394   0.000000
   91       -1.899300   0.000000
   92       -1.854453   0.000000
   93       -1.441601   0.000000
   94       -1.409146   0.000000
   95       -1.220401   0.000000
   96       -1.160997   0.000000
   97       -1.061249   0.000000
   98       -0.921824   0.000000
   99       -0.720733   0.000000
  100       -0.609530   0.000000
  101       -0.569721   0.000000
  102       -0.547198   0.000000
  103       -0.486404   0.000000
  104       -0.247672   0.000000
  105       -0.172949   0.000000
  106        0.002964   0.000000
  107        0.115406   0.000000
  108        0.222823   0.000000
  109        0.249248   0.000000
  110        0.332830   0.000000
  111        0.434387   0.000000
  112        0.595342   0.000000
  113        0.660501   0.000000
  114        0.823497   0.000000
  115        0.939995   0.000000
  116        0.988336   0.000000
  117        1.104473   0.000000
  118        1.699791   0.000000
  119        1.874199   0.000000
  120        2.202123   0.000000
 
  0.1250000E+00  0.1250000E+00  0.0000000E+00  0.3125000E-01
    1      -17.740353   1.000000
    2      -16.865357   1.000000
    3      -16.791548   1.000000
    4      -16.595737   1.000000
    5      -16.448382   1.000000
    6      -16.414022   1.000000
    7      -16.318417   1.000000
    8      -16.312046   1.000000
    9      -16.147402   1.000000
   10      -16.077890   1.000000
   11      -15.934440   1.000000
   12      -15.909983   1.000000
   13      -15.812917   1.000000
   14      -15.769647   1.000000
   15      -15.686452   1.000000
   16      -15.483544   1.000000
   17      -15.383432   1.000000
   18      -15.236157   1.000000
   19       -9.439157   1.000000
   20       -9.350178   1.000000
   21       -9.133684   1.000000
   22       -9.006599   1.000000
   23       -8.709343   1.000000
   24       -8.699115   1.000000
   25       -8.550642   1.000000
   26       -8.494432   1.000000
   27       -8.471925   1.000000
   28       -8.419331   1.000000
   29       -8.243960   1.000000
   30       -8.200097   1.000000
   31       -8.197418   1.000000
   32       -8.087396   1.000000
   33       -7.950230   1.000000
   34       -7.800700   1.000000
   35       -7.797993   1.000000
   36       -7.740336   1.000000
   37       -7.553664   1.000000
   38       -7.485781   1.000000
   39       -7.467916   1.000000
   40       -7.399835   1.000000
   41       -7.301185   1.000000
   42       -7.226493   1.000000
   43       -7.127538   1.000000
   44       -7.122426   1.000000
   45       -6.894355   1.000000
   46       -6.797428   1.000000
   47       -6.761358   1.000000
   48       -6.711463   1.000000
   49       -6.589810   1.000000
   50       -6.486335   1.000000
   51       -6.473826   1.000000
   52       -6.350065   1.000000
   53       -6.284662   1.000000
   54       -6.222499   1.000000
   55       -6.143952   1.000000
   56       -6.113677   1.000000
   57       -6.036423   1.000000
   58       -5.815296   1.000000
   59       -5.806982   1.000000
   60       -5.557267   1.000000
   61       -5.513827   1.000000
   62       -5.401547   1.000000
   63       -5.393479   1.000000
   64       -5.254754   1.000000
   65       -5.166795   1.000000
   66       -5.082658   1.000000
   67       -5.042480   1.000000
   68       -4.878455   1.000000
   69       -4.804638   1.000000
   70       -4.496076   1.000000
   71       -4.454570   1.000000
   72       -4.264034   1.000000
   73       -4.220241   1.000000
   74       -4.072211   1.000000
   75       -4.065604   1.000000
   76       -3.946253   0.999997
   77       -3.912950   0.999992
   78       -3.760598   0.999418
   79       -3.538493   0.953213
   80       -3.453057   0.858300
   81       -3.014607   0.021300
   82       -2.713534   0.000016
   83       -2.642640   0.000002
   84       -2.527695   0.000000
   85       -2.463993   0.000000
   86       -2.403180   0.000000
   87       -2.331779   0.000000
   88       -2.235913   0.000000
   89       -2.151453   0.000000
   90       -2.046210   0.000000
   91       -1.870321   0.000000
   92       -1.816355   0.000000
   93       -1.424598   0.000000
   94       -1.394256   0.000000
   95       -1.198077   0.000000
   96       -1.184707   0.000000
   97       -1.042871   0.000000
   98       -0.923937   0.000000
   99       -0.796334   0.000000
  100       -0.680467   0.000000
  101       -0.670426   0.000000
  102       -0.607616   0.000000
  103       -0.600804   0.000000
  104       -0.266497   0.000000
  105       -0.253355   0.000000
  106       -0.083963   0.000000
  107        0.011351   0.000000
  108        0.099880   0.000000
  109        0.234307   0.000000
  110        0.299675   0.000000
  111        0.480620   0.000000
  112        0.615573   0.000000
  113        0.623321   0.000000
  114        0.949911   0.000000
  115        1.005451   0.000000
  116        1.067388   0.000000
  117        1.193245   0.000000
  118        1.782491   0.000000
  119        1.949217   0.000000
  120        2.270995   0.000000
 
  0.2500000E+00  0.1250000E+00  0.0000000E+00  0.3125000E-01
    1      -17.650247   1.000000
    2      -17.056325   1.000000
    3      -16.873566   1.000000
    4      -16.574850   1.000000
    5      -16.461193   1.000000
    6      -16.395202   1.000000
    7      -16.306194   1.000000
    8      -16.235872   1.000000
    9      -16.173013   1.000000
   10      -16.035902   1.000000
   11      -15.935493   1.000000
   12      -15.882159   1.000000
   13      -15.765805   1.000000
   14      -15.723442   1.000000
   15      -15.680832   1.000000
   16      -15.491779   1.000000
   17      -15.415079   1.000000
   18      -15.240744   1.000000
   19       -9.602475   1.000000
   20       -9.445424   1.000000
   21       -9.253016   1.000000
   22       -9.080615   1.000000
   23       -8.772372   1.000000
   24       -8.656569   1.000000
   25       -8.540696   1.000000
   26       -8.424031   1.000000
   27       -8.407040   1.000000
   28       -8.374512   1.000000
   29       -8.268140   1.000000
   30       -8.194964   1.000000
   31       -8.165568   1.000000
   32       -8.095480   1.000000
   33       -7.932465   1.000000
   34       -7.879254   1.000000
   35       -7.799469   1.000000
   36       -7.563053   1.000000
   37       -7.530635   1.000000
   38       -7.410670   1.000000
   39       -7.346883   1.000000
   40       -7.325080   1.000000
   41       -7.210185   1.000000
   42       -7.204129   1.000000
   43       -7.068008   1.000000
   44       -6.990653   1.000000
   45       -6.954532   1.000000
   46       -6.818374   1.000000
   47       -6.743010   1.000000