       N       E                     dE             d eps       ncg     rms          rms(c)
DAV:   1     0.112345245882E+04    0.11235E+04   -0.35865E+04  8160   0.577E+02
DAV:   2    -0.273952697979E+01   -0.11262E+04   -0.10841E+04 11160   0.173E+02
DAV:   3    -0.199859996471E+03   -0.19712E+03   -0.18909E+03 10880   0.820E+01
DAV:   4    -0.209080617324E+03   -0.92206E+01   -0.89412E+01 12280   0.261E+01
DAV:   5    -0.209392289388E+03   -0.31167E+00   -0.31074E+00 11280   0.347E+00    0.275E+01
DAV:   6    -0.237041692637E+03   -0.27649E+02   -0.11205E+02 12640   0.603E+01    0.597E+01
DAV:   7    -0.196393965601E+03    0.40648E+02   -0.17987E+02 13440   0.151E+02    0.198E+01
DAV:   8    -0.189123852012E+03    0.72701E+01   -0.15923E+01 12080   0.124E+01    0.119E+01
DAV:   9    -0.187415438918E+03    0.17084E+01   -0.27300E+00 13440   0.870E+00    0.593E+00
DAV:  10    -0.186970757111E+03    0.44468E+00   -0.11627E+00 13200   0.411E+00    0.240E+00
DAV:  11    -0.186967265259E+03    0.34919E-02   -0.45322E-01 12320   0.193E+00    0.274E+00
DAV:  12    -0.186879848020E+03    0.87417E-01   -0.29692E-01 12040   0.183E+00    0.191E+00
DAV:  13    -0.186860428767E+03    0.19419E-01   -0.14377E-01 12840   0.197E+00    0.160E+00
DAV:  14    -0.186849400149E+03    0.11029E-01   -0.86176E-02 13080   0.168E+00    0.113E+00
DAV:  15    -0.186836715378E+03    0.12685E-01   -0.21053E-02 12480   0.625E-01    0.567E-01
DAV:  16    -0.186834595601E+03    0.21198E-02   -0.12524E-02 12720   0.602E-01    0.419E-01
DAV:  17    -0.186834289527E+03    0.30607E-03   -0.49320E-03 12320   0.420E-01    0.378E-01
DAV:  18    -0.186832866974E+03    0.14226E-02   -0.20838E-03 11240   0.257E-01    0.517E-02
DAV:  19    -0.186833649521E+03   -0.78255E-03   -0.92190E-04  9320   0.686E-02    0.824E-02
DAV:  20    -0.186834676854E+03   -0.10273E-02   -0.43087E-04  8160   0.897E-02    0.477E-02
DAV:  21    -0.186835097550E+03   -0.42070E-03   -0.11879E-04  6960   0.319E-02    0.437E-02
DAV:  22    -0.186836323356E+03   -0.12258E-02   -0.17447E-04  7480   0.491E-02    0.246E-02
DAV:  23    -0.186836749047E+03   -0.42569E-03   -0.35638E-05  6720   0.193E-02    0.216E-02
DAV:  24    -0.186837230184E+03   -0.48114E-03   -0.30275E-05  6120   0.222E-02    0.677E-03
DAV:  25    -0.186837622632E+03   -0.39245E-03   -0.16392E-05  6000   0.986E-03    0.645E-03
DAV:  26    -0.186837854522E+03   -0.23189E-03   -0.83078E-06  6800   0.796E-03    0.169E-03
DAV:  27    -0.186837949106E+03   -0.94584E-04   -0.34926E-06  7200   0.377E-03
   1 F= -.18683795E+03 E0= -.18666483E+03  d E =-.186838E+03
       N       E                     dE             d eps       ncg     rms          rms(c)
DAV:   1    -0.187436030175E+03   -0.59818E+00   -0.26844E+02  8160   0.347E+01    0.453E+00
DAV:   2    -0.189068356356E+03   -0.16323E+01   -0.19598E+01 12240   0.142E+01    0.639E+00
DAV:   3    -0.189382173177E+03   -0.31382E+00   -0.29983E+00 12440   0.110E+01    0.733E+00
DAV:   4    -0.188714282559E+03    0.66789E+00   -0.73620E-01 12560   0.532E+00    0.212E+00
DAV:   5    -0.188696884114E+03    0.17398E-01   -0.28291E-01 10280   0.166E+00    0.226E+00
DAV:   6    -0.188712960202E+03   -0.16076E-01   -0.36972E-01 12680   0.312E+00    0.396E+00
DAV:   7    -0.188626982645E+03    0.85978E-01   -0.37269E-01 12400   0.330E+00    0.134E+00
DAV:   8    -0.188604837365E+03    0.22145E-01   -0.37334E-02 11680   0.836E-01    0.391E-01
DAV:   9    -0.188602980010E+03    0.18574E-02   -0.81074E-03 11720   0.244E-01    0.240E-01
DAV:  10    -0.188602542611E+03    0.43740E-03   -0.31307E-03 12840   0.224E-01    0.175E-01
DAV:  11    -0.188602698567E+03   -0.15596E-03   -0.17912E-03 12520   0.246E-01    0.225E-01
DAV:  12    -0.188602452501E+03    0.24607E-03   -0.97669E-04 11480   0.176E-01    0.810E-02
DAV:  13    -0.188602421946E+03    0.30555E-04   -0.17576E-04  7600   0.563E-02
   2 F= -.18860242E+03 E0= -.18845495E+03  d E =-.176447E+01
       N       E                     dE             d eps       ncg     rms          rms(c)
DAV:   1    -0.190505517851E+03   -0.19031E+01   -0.30402E+01  9360   0.141E+01    0.449E+00
DAV:   2    -0.190567690646E+03   -0.62173E-01   -0.29344E+00 11080   0.100E+01    0.790E+00
DAV:   3    -0.189971436373E+03    0.59625E+00   -0.13741E+00 12320   0.870E+00    0.409E+00
DAV:   4    -0.189769283738E+03    0.20215E+00   -0.67300E-01 12680   0.378E+00    0.250E+00
DAV:   5    -0.189707358002E+03    0.61926E-01   -0.32398E-01 12240   0.237E+00    0.191E+00
DAV:   6    -0.189671976471E+03    0.35382E-01   -0.85865E-02 12200   0.188E+00    0.778E-01
DAV:   7    -0.189665903565E+03    0.60729E-02   -0.13537E-02 12080   0.592E-01    0.178E-01
DAV:   8    -0.189665930562E+03   -0.26998E-04   -0.21463E-03 10920   0.161E-01    0.116E-01
DAV:   9    -0.189666376823E+03   -0.44626E-03   -0.10090E-03 10440   0.101E-01    0.135E-01
DAV:  10    -0.189666056136E+03    0.32069E-03   -0.68483E-04 10080   0.821E-02    0.324E-02
DAV:  11    -0.189666076226E+03   -0.20090E-04   -0.89378E-05  7200   0.340E-02
   3 F= -.18966608E+03 E0= -.18954114E+03  d E =-.106365E+01
       N       E                     dE             d eps       ncg     rms          rms(c)
DAV:   1    -0.191171970558E+03   -0.15059E+01   -0.63737E+01  8160   0.184E+01    0.466E+00
DAV:   2    -0.191121487838E+03    0.50483E-01   -0.53706E+00 13440   0.889E+00    0.592E+00
DAV:   3    -0.191028556161E+03    0.92932E-01   -0.16218E+00 12240   0.934E+00    0.591E+00
DAV:   4    -0.190661507873E+03    0.36705E+00   -0.10242E+00 13200   0.618E+00    0.239E+00
DAV:   5    -0.190611484788E+03    0.50023E-01   -0.31090E-01 12240   0.299E+00    0.224E+00
DAV:   6    -0.190565195793E+03    0.46289E-01   -0.13089E-01 12280   0.257E+00    0.931E-01
DAV:   7    -0.190561438552E+03    0.37572E-02   -0.24900E-02 12240   0.916E-01    0.493E-01
DAV:   8    -0.190557830328E+03    0.36082E-02   -0.78331E-03 11000   0.463E-01    0.270E-01
DAV:   9    -0.190557549329E+03    0.28100E-03   -0.19922E-03 10840   0.300E-01    0.181E-01
DAV:  10    -0.190557594510E+03   -0.45181E-04   -0.13378E-03 11360   0.160E-01    0.795E-02
DAV:  11    -0.190557508252E+03    0.86258E-04   -0.39885E-04  9360   0.748E-02
   4 F= -.19055751E+03 E0= -.19045478E+03  d E =-.891432E+00
       N       E                     dE             d eps       ncg     rms          rms(c)
DAV:   1    -0.192014583806E+03   -0.14570E+01   -0.12950E+02  8160   0.260E+01    0.597E+00
DAV:   2    -0.191687022648E+03    0.32756E+00   -0.95435E+00 12960   0.914E+00    0.492E+00
DAV:   3    -0.192004128878E+03   -0.31711E+00   -0.22849E+00 12200   0.113E+01    0.871E+00
DAV:   4    -0.191345522266E+03    0.65861E+00   -0.23182E+00 12480   0.111E+01    0.357E+00
DAV:   5    -0.191290574758E+03    0.54948E-01   -0.67331E-01 12240   0.562E+00    0.346E+00
DAV:   6    -0.191124867489E+03    0.16571E+00   -0.25251E-01 12240   0.382E+00    0.821E-01
DAV:   7    -0.191122666474E+03    0.22010E-02   -0.31802E-02 12320   0.920E-01    0.447E-01
DAV:   8    -0.191119430179E+03    0.32363E-02   -0.69508E-03 10800   0.371E-01    0.231E-01
DAV:   9    -0.191120429217E+03   -0.99904E-03   -0.37284E-03 12040   0.430E-01    0.354E-01
DAV:  10    -0.191119546605E+03    0.88261E-03   -0.32769E-03 11680   0.362E-01    0.108E-01
DAV:  11    -0.191119455764E+03    0.90841E-04   -0.55635E-04 10240   0.948E-02
   5 F= -.19111946E+03 E0= -.19103462E+03  d E =-.561948E+00
       N       E                     dE             d eps       ncg     rms          rms(c)
DAV:   1    -0.191163092374E+03   -0.43546E-01   -0.47334E+00  8160   0.460E+00    0.617E-01
DAV:   2    -0.191197782937E+03   -0.34691E-01   -0.17834E-01 13360   0.196E+00    0.160E+00
DAV:   3    -0.191169753758E+03    0.28029E-01   -0.65904E-02 12400   0.197E+00    0.525E-01
DAV:   4    -0.191167740663E+03    0.20131E-02   -0.10114E-02 10840   0.571E-01    0.378E-01
DAV:   5    -0.191167005376E+03    0.73529E-03   -0.60887E-03 11640   0.582E-01    0.344E-01
DAV:   6    -0.191165930404E+03    0.10750E-02   -0.29578E-03 11720   0.359E-01    0.133E-01
DAV:   7    -0.191165762155E+03    0.16825E-03   -0.10892E-03 10440   0.129E-01    0.591E-02
DAV:   8    -0.191165717180E+03    0.44975E-04   -0.19815E-04  7080   0.568E-02
   6 F= -.19116572E+03 E0= -.19107878E+03  d E =-.462614E-01
       N       E                     dE             d eps       ncg     rms          rms(c)
DAV:   1    -0.191211029141E+03   -0.45267E-01   -0.61740E+00  8160   0.519E+00    0.654E-01
DAV:   2    -0.191266765706E+03   -0.55737E-01   -0.21084E-01 13600   0.268E+00    0.209E+00
DAV:   3    -0.191217236390E+03    0.49529E-01   -0.89631E-02 12600   0.232E+00    0.409E-01
DAV:   4    -0.191216404924E+03    0.83147E-03   -0.84841E-03 11160   0.460E-01    0.349E-01
DAV:   5    -0.191215888667E+03    0.51626E-03   -0.53869E-03 12400   0.528E-01    0.337E-01
DAV:   6    -0.191214887123E+03    0.10015E-02   -0.26976E-03 11640   0.349E-01    0.129E-01
DAV:   7    -0.191214799582E+03    0.87541E-04   -0.89532E-04 10360   0.124E-01
   7 F= -.19121480E+03 E0= -.19112387E+03  d E =-.490824E-01
       N       E                     dE             d eps       ncg     rms          rms(c)
DAV:   1    -0.191261529967E+03   -0.46643E-01   -0.67443E+00  8160   0.545E+00    0.705E-01
DAV:   2    -0.191328733568E+03   -0.67204E-01   -0.26353E-01 13600   0.320E+00    0.233E+00
DAV:   3    -0.191268750462E+03    0.59983E-01   -0.10838E-01 12600   0.251E+00    0.377E-01
DAV:   4    -0.191267604792E+03    0.11457E-02   -0.78285E-03 11280   0.343E-01    0.274E-01
DAV:   5    -0.191267040844E+03    0.56395E-03   -0.41414E-03 11880   0.394E-01    0.310E-01
DAV:   6    -0.191266707394E+03    0.33345E-03   -0.39144E-03 11680   0.441E-01    0.235E-01
DAV:   7    -0.191266187127E+03    0.52027E-03   -0.12979E-03 10400   0.216E-01    0.543E-02
DAV:   8    -0.191266135055E+03    0.52072E-04   -0.16059E-04  6640   0.557E-02
   8 F= -.19126614E+03 E0= -.19117014E+03  d E =-.513355E-01
       N       E                     dE             d eps       ncg     rms          rms(c)
DAV:   1    -0.191244205230E+03    0.21982E-01   -0.11622E+00  8160   0.227E+00    0.291E-01
DAV:   2    -0.191254960676E+03   -0.10755E-01   -0.44920E-02 13560   0.131E+00    0.907E-01
DAV:   3    -0.191245181436E+03    0.97792E-02   -0.15262E-02 12400   0.959E-01    0.146E-01
DAV:   4    -0.191245155284E+03    0.26152E-04   -0.14579E-03 11240   0.173E-01    0.146E-01
DAV:   5    -0.191245091024E+03    0.64260E-04   -0.12650E-03 10720   0.240E-01    0.166E-01
DAV:   6    -0.191244854507E+03    0.23652E-03   -0.78877E-04  8880   0.187E-01    0.660E-02
DAV:   7    -0.191244814767E+03    0.39740E-04   -0.14833E-04  6080   0.629E-02
   9 F= -.19124481E+03 E0= -.19115098E+03  d E =0.213203E-01
       N       E                     dE             d eps       ncg     rms          rms(c)
DAV:   1    -0.191209926003E+03    0.34929E-01   -0.30655E+00  8160   0.369E+00    0.456E-01
DAV:   2    -0.191233669693E+03   -0.23744E-01   -0.11329E-01 13480   0.196E+00    0.131E+00
DAV:   3    -0.191213217316E+03    0.20452E-01   -0.33502E-02 12520   0.142E+00    0.243E-01
DAV:   4    -0.191212995087E+03    0.22223E-03   -0.34159E-03 11440   0.277E-01    0.228E-01
DAV:   5    -0.191212855878E+03    0.13921E-03   -0.27928E-03 11440   0.371E-01    0.256E-01
DAV:   6    -0.191212349194E+03    0.50668E-03   -0.18416E-03 10480   0.293E-01    0.113E-01
DAV:   7    -0.191212211996E+03    0.13720E-03   -0.39900E-04  8200   0.998E-02    0.244E-02
DAV:   8    -0.191212210549E+03    0.14469E-05   -0.59438E-05  7240   0.359E-02
  10 F= -.19121221E+03 E0= -.19112171E+03  d E =0.326042E-01
       N       E                     dE             d eps       ncg     rms          rms(c)
DAV:   1    -0.191221552101E+03   -0.93401E-02   -0.51138E-01  8160   0.150E+00    0.179E-01
DAV:   2    -0.191225354061E+03   -0.38020E-02   -0.19721E-02 12040   0.663E-01    0.505E-01
DAV:   3    -0.191222547541E+03    0.28065E-02   -0.65094E-03 11920   0.591E-01    0.158E-01
DAV:   4    -0.191222476024E+03    0.71518E-04   -0.10410E-03  9920   0.197E-01    0.135E-01
DAV:   5    -0.191222336438E+03    0.13959E-03   -0.56141E-04  8720   0.176E-01    0.875E-02
DAV:   6    -0.191222267285E+03    0.69152E-04   -0.20019E-04  5920   0.888E-02
  11 F= -.19122227E+03 E0= -.19113082E+03  d E =-.100567E-01
       N       E                     dE             d eps       ncg     rms          rms(c)
DAV:   1    -0.191226978680E+03   -0.46422E-02   -0.22459E+00  8160   0.315E+00    0.341E-01
DAV:   2    -0.191238206424E+03   -0.11228E-01   -0.62426E-02 12920   0.117E+00    0.926E-01
DAV:   3    -0.191229873582E+03    0.83328E-02   -0.23478E-02 11320   0.106E+00    0.340E-01
DAV:   4    -0.191229366355E+03    0.50723E-03   -0.41828E-03 11240   0.402E-01    0.254E-01
DAV:   5    -0.191228971476E+03    0.39488E-03   -0.24558E-03 10680   0.372E-01    0.207E-01
DAV:   6    -0.191228551437E+03    0.42004E-03   -0.11781E-03 10080   0.211E-01    0.815E-02
DAV:   7    -0.191228479546E+03    0.71890E-04   -0.23956E-04  7320   0.661E-02
  12 F= -.19122848E+03 E0= -.19113594E+03  d E =-.621226E-02
       N       E                     dE             d eps       ncg     rms          rms(c)
DAV:   1    -0.191248951825E+03   -0.20400E-01   -0.99429E+00  8160   0.665E+00    0.795E-01
DAV:   2    -0.191316967727E+03   -0.68016E-01   -0.34171E-01 12680   0.310E+00    0.233E+00
DAV:   3    -0.191262273442E+03    0.54694E-01   -0.13921E-01 12360   0.263E+00    0.654E-01
DAV:   4    -0.191261793106E+03    0.48034E-03   -0.22678E-02 12400   0.933E-01    0.696E-01
DAV:   5    -0.191258504683E+03    0.32884E-02   -0.16487E-02 11680   0.904E-01    0.468E-01
DAV:   6    -0.191256068928E+03    0.24358E-02   -0.62394E-03 11360   0.431E-01    0.161E-01
DAV:   7    -0.191255930039E+03    0.13889E-03   -0.18471E-03 11960   0.184E-01    0.130E-01
DAV:   8    -0.191255804950E+03    0.12509E-03   -0.78273E-04  9560   0.193E-01    0.101E-01
DAV:   9    -0.191255702039E+03    0.10291E-03   -0.22048E-04  7040   0.102E-01    0.260E-02
DAV:  10    -0.191255695750E+03    0.62889E-05   -0.57857E-05  6640   0.296E-02
  13 F= -.19125570E+03 E0= -.19115830E+03  d E =-.272162E-01
       N       E                     dE             d eps       ncg     rms          rms(c)
DAV:   1    -0.191268545992E+03   -0.12844E-01   -0.73997E+00  8160   0.575E+00    0.613E-01
DAV:   2    -0.191298006114E+03   -0.29460E-01   -0.21193E-01 11800   0.203E+00    0.137E+00
DAV:   3    -0.191279981516E+03    0.18025E-01   -0.65149E-02 12360   0.177E+00    0.591E-01
DAV:   4    -0.191278588788E+03    0.13927E-02   -0.14205E-02 12440   0.701E-01    0.507E-01
DAV:   5    -0.191276993114E+03    0.15957E-02   -0.10410E-02 11720   0.717E-01    0.407E-01
DAV:   6    -0.191275561479E+03    0.14316E-02   -0.48607E-03 11680   0.410E-01    0.169E-01
DAV:   7    -0.191275200316E+03    0.36116E-03   -0.12882E-03 10680   0.146E-01    0.668E-02
DAV:   8    -0.191275214297E+03   -0.13981E-04   -0.37732E-04  9280   0.131E-01
  14 F= -.19127521E+03 E0= -.19117464E+03  d E =-.195185E-01
       N       E                     dE             d eps       ncg     rms          rms(c)
DAV:   1    -0.191280475629E+03   -0.52753E-02   -0.31559E+00  8160   0.374E+00    0.351E-01
DAV:   2    -0.191288785059E+03   -0.83094E-02   -0.68756E-02 13360   0.973E-01    0.688E-01
DAV:   3    -0.191284729970E+03    0.40551E-02   -0.20344E-02 11600   0.926E-01    0.474E-01
DAV:   4    -0.191283078671E+03    0.16513E-02   -0.62072E-03 12080   0.470E-01    0.197E-01
DAV:   5    -0.191282458192E+03    0.62048E-03   -0.16745E-03 10640   0.205E-01    0.103E-01
DAV:   6    -0.191282934407E+03   -0.47621E-03   -0.13536E-03 10640   0.280E-01    0.220E-01
DAV:   7    -0.191282366924E+03    0.56748E-03   -0.84537E-04  9360   0.214E-01    0.377E-02
DAV:   8    -0.191282386394E+03   -0.19470E-04   -0.97402E-05  5960   0.664E-02
  15 F= -.19128239E+03 E0= -.19118222E+03  d E =-.717210E-02
       N       E                     dE             d eps       ncg     rms          rms(c)
DAV:   1    -0.191269227776E+03    0.13139E-01   -0.94558E-01  8160   0.204E+00    0.214E-01
DAV:   2    -0.191273721499E+03   -0.44937E-02   -0.23766E-02 13480   0.758E-01    0.577E-01
DAV:   3    -0.191270071171E+03    0.36503E-02   -0.77173E-03 12240   0.645E-01    0.177E-01
DAV:   4    -0.191270135202E+03   -0.64031E-04   -0.17192E-03  9680   0.251E-01    0.192E-01
DAV:   5    -0.191269849216E+03    0.28599E-03   -0.12639E-03 10120   0.240E-01    0.118E-01
DAV:   6    -0.191269710529E+03    0.13869E-03   -0.43378E-04  8280   0.122E-01    0.422E-02
DAV:   7    -0.191269726110E+03   -0.15581E-04   -0.13879E-04  6560   0.718E-02
  16 F= -.19126973E+03 E0= -.19117044E+03  d E =0.126603E-01
       N       E                     dE             d eps       ncg     rms          rms(c)
DAV:   1    -0.191258954696E+03    0.10756E-01   -0.30918E+00  8160   0.371E+00    0.369E-01
DAV:   2    -0.191267484632E+03   -0.85299E-02   -0.74049E-02 13440   0.101E+00    0.746E-01
DAV:   3    -0.191263489692E+03    0.39949E-02   -0.23421E-02 12400   0.100E+00    0.482E-01
DAV:   4    -0.191261559572E+03    0.19301E-02   -0.59133E-03 11840   0.460E-01    0.187E-01
DAV:   5    -0.191260935269E+03    0.62430E-03   -0.19082E-03 10200   0.175E-01    0.101E-01
DAV:   6    -0.191261427617E+03   -0.49235E-03   -0.15681E-03 11040   0.266E-01    0.240E-01
DAV:   7    -0.191260838892E+03    0.58873E-03   -0.11205E-03  9280   0.244E-01    0.462E-02
DAV:   8    -0.191260840067E+03   -0.11751E-05   -0.92234E-05  5800   0.599E-02
  17 F= -.19126084E+03 E0= -.19116155E+03  d E =0.888604E-02
       N       E                     dE             d eps       ncg     rms          rms(c)
DAV:   1    -0.191275817848E+03   -0.14979E-01   -0.14679E+00  8160   0.256E+00    0.261E-01
DAV:   2    -0.191280505764E+03   -0.46879E-02   -0.43026E-02 13400   0.763E-01    0.491E-01
DAV:   3    -0.191279033198E+03    0.14726E-02   -0.10781E-02 12400   0.713E-01    0.363E-01
DAV:   4    -0.191277918629E+03    0.11146E-02   -0.30830E-03 11200   0.337E-01    0.152E-01
DAV:   5    -0.191277742092E+03    0.17654E-03   -0.97867E-04 10000   0.203E-01    0.126E-01
DAV:   6    -0.191277722772E+03    0.19320E-04   -0.83226E-04 10520   0.201E-01
  18 F= -.19127772E+03 E0= -.19117775E+03  d E =-.168827E-01
       N       E                     dE             d eps       ncg     rms          rms(c)
DAV:   1    -0.191278280665E+03   -0.53857E-03   -0.46802E-02  8160   0.479E-01    0.546E-02
DAV:   2    -0.191278533854E+03   -0.25319E-03   -0.14662E-03 12920   0.172E-01    0.140E-01
DAV:   3    -0.191278336130E+03    0.19772E-03   -0.52815E-04  8560   0.165E-01    0.516E-02
DAV:   4    -0.191278326784E+03    0.93456E-05   -0.80034E-05  5760   0.625E-02
  19 F= -.19127833E+03 E0= -.19117824E+03  d E =-.604012E-03
       N       E                     dE             d eps       ncg     rms          rms(c)
DAV:   1    -0.191295213096E+03   -0.16877E-01   -0.16117E+00  8160   0.267E+00    0.295E-01
DAV:   2    -0.191303762886E+03   -0.85498E-02   -0.44584E-02 13240   0.107E+00    0.797E-01
DAV:   3    -0.191296955748E+03    0.68071E-02   -0.14852E-02 12280   0.912E-01    0.231E-01
DAV:   4    -0.191297049552E+03   -0.93805E-04   -0.28783E-03 11000   0.325E-01    0.256E-01
DAV:   5    -0.191296543846E+03    0.50571E-03   -0.21900E-03 10040   0.317E-01    0.158E-01
DAV:   6    -0.191296299817E+03    0.24403E-03   -0.76810E-04  9720   0.153E-01    0.539E-02
DAV:   7    -0.191296281607E+03    0.18210E-04   -0.15673E-04  6800   0.563E-02
  20 F= -.19129628E+03 E0= -.19119533E+03  d E =-.179548E-01
       N       E                     dE             d eps       ncg     rms          rms(c)
DAV:   1    -0.191279046437E+03    0.17253E-01   -0.25896E+00  8160   0.340E+00    0.381E-01
DAV:   2    -0.191283831006E+03   -0.47846E-02   -0.59414E-02 13280   0.826E-01    0.594E-01
DAV:   3    -0.191282451141E+03    0.13799E-02   -0.19442E-02 12400   0.963E-01    0.571E-01
DAV:   4    -0.191279610270E+03    0.28409E-02   -0.71833E-03 11600   0.546E-01    0.224E-01
DAV:   5    -0.191279501162E+03    0.10911E-03   -0.32500E-03 11560   0.378E-01    0.254E-01
DAV:   6    -0.191278971249E+03    0.52991E-03   -0.21291E-03 11000   0.321E-01    0.125E-01
DAV:   7    -0.191278765669E+03    0.20558E-03   -0.68427E-04  9800   0.140E-01    0.386E-02
DAV:   8    -0.191278759430E+03    0.62386E-05   -0.10786E-04  7480   0.688E-02
  21 F= -.19127876E+03 E0= -.19117825E+03  d E =0.175222E-01
       N       E                     dE             d eps       ncg     rms          rms(c)
DAV:   1    -0.191303329363E+03   -0.24564E-01   -0.31730E+00  8160   0.377E+00    0.387E-01
DAV:   2    -0.191310937131E+03   -0.76078E-02   -0.82260E-02 13160   0.964E-01    0.607E-01
DAV:   3    -0.191309629622E+03    0.13075E-02   -0.20697E-02 12760   0.998E-01    0.582E-01
DAV:   4    -0.191306805110E+03    0.28245E-02   -0.74870E-03 11520   0.556E-01    0.248E-01
DAV:   5    -0.191306370428E+03    0.43468E-03   -0.27554E-03 11040   0.352E-01    0.217E-01
DAV:   6    -0.191306141148E+03    0.22928E-03   -0.20708E-03 11200   0.305E-01    0.146E-01
DAV:   7    -0.191305890256E+03    0.25089E-03   -0.79209E-04 11360   0.159E-01    0.365E-02
DAV:   8    -0.191305874275E+03    0.15982E-04   -0.85488E-05  6200   0.491E-02
  22 F= -.19130587E+03 E0= -.19120484E+03  d E =-.271148E-01
       N       E                     dE             d eps       ncg     rms          rms(c)
DAV:   1    -0.191309339329E+03   -0.34491E-02   -0.82745E-02  8160   0.626E-01    0.771E-02
DAV:   2    -0.191309627820E+03   -0.28849E-03   -0.25829E-03 12400   0.193E-01    0.153E-01
DAV:   3    -0.191309438444E+03    0.18938E-03   -0.81051E-04  9120   0.202E-01    0.815E-02
DAV:   4    -0.191309375016E+03    0.63428E-04   -0.12801E-04  5640   0.755E-02
  23 F= -.19130938E+03 E0= -.19120840E+03  d E =-.350074E-02
       N       E                     dE             d eps       ncg     rms          rms(c)
DAV:   1    -0.191298612839E+03    0.10826E-01   -0.69201E+00  8160   0.565E+00    0.599E-01
DAV:   2    -0.191311445128E+03   -0.12832E-01   -0.16418E-01 12520   0.131E+00    0.868E-01
DAV:   3    -0.191309196617E+03    0.22485E-02   -0.40907E-02 11800   0.141E+00    0.775E-01
DAV:   4    -0.191304264771E+03    0.49318E-02   -0.15206E-02 11200   0.831E-01    0.449E-01
DAV:   5    -0.191303200854E+03    0.10639E-02   -0.99343E-03 11240   0.670E-01    0.390E-01
DAV:   6    -0.191302078459E+03    0.11224E-02   -0.47106E-03 11600   0.414E-01    0.156E-01
DAV:   7    -0.191301751136E+03    0.32732E-03   -0.14532E-03 10760   0.186E-01    0.102E-01
DAV:   8    -0.191301727782E+03    0.23354E-04   -0.60748E-04  8840   0.167E-01
  24 F= -.19130173E+03 E0= -.19119972E+03  d E =0.764723E-02
       N       E                     dE             d eps       ncg     rms          rms(c)
DAV:   1    -0.191335643080E+03   -0.33892E-01   -0.93751E+00  8160   0.674E+00    0.804E-01
DAV:   2    -0.191344581096E+03   -0.89380E-02   -0.26037E-01 11600   0.148E+00    0.686E-01
DAV:   3    -0.191352887791E+03   -0.83067E-02   -0.50429E-02 12080   0.167E+00    0.115E+00
DAV:   4    -0.191338241037E+03    0.14647E-01   -0.30721E-02 12040   0.128E+00    0.455E-01
DAV:   5    -0.191339270226E+03   -0.10292E-02   -0.15345E-02 10600   0.845E-01    0.619E-01
DAV:   6    -0.191335933486E+03    0.33367E-02   -0.10376E-02 10480   0.703E-01    0.231E-01
DAV:   7    -0.191335295879E+03    0.63761E-03   -0.17321E-03 11480   0.201E-01    0.944E-02
DAV:   8    -0.191335264110E+03    0.31769E-04   -0.57942E-04  9440   0.156E-01
  25 F= -.19133526E+03 E0= -.19123382E+03  d E =-.335363E-01
       N       E                     dE             d eps       ncg     rms          rms(c)
DAV:   1    -0.191343717664E+03   -0.84218E-02   -0.29097E-01  8160   0.114E+00    0.124E-01
DAV:   2    -0.191344132129E+03   -0.41447E-03   -0.63086E-03 12080   0.233E-01    0.144E-01
DAV:   3    -0.191344085256E+03    0.46873E-04   -0.15611E-03 11600   0.259E-01    0.169E-01
DAV:   4    -0.191343850919E+03    0.23434E-03   -0.66566E-04  8600   0.186E-01    0.794E-02
DAV:   5    -0.191343825641E+03    0.25278E-04   -0.35958E-04  7360   0.123E-01
  26 F= -.19134383E+03 E0= -.19124244E+03  d E =-.856153E-02
       N       E                     dE             d eps       ncg     rms          rms(c)
DAV:   1    -0.191371116396E+03   -0.27265E-01   -0.18886E+00  8160   0.293E+00    0.301E-01
DAV:   2    -0.191375228329E+03   -0.41119E-02   -0.47623E-02 13280   0.704E-01    0.409E-01
DAV:   3    -0.191374716159E+03    0.51217E-03   -0.93534E-03 11640   0.723E-01    0.399E-01
DAV:   4    -0.191373331825E+03    0.13843E-02   -0.33279E-03 11520   0.400E-01    0.199E-01
DAV:   5    -0.191373179724E+03    0.15210E-03   -0.19493E-03  9960   0.302E-01    0.195E-01
DAV:   6    -0.191372963518E+03    0.21621E-03   -0.13499E-03  9840   0.232E-01    0.104E-01
DAV:   7    -0.191372826675E+03    0.13684E-03   -0.37203E-04  8400   0.102E-01    0.321E-02
DAV:   8    -0.191372831680E+03   -0.50050E-05   -0.87198E-05  7280   0.651E-02
  27 F= -.19137283E+03 E0= -.19127246E+03  d E =-.290060E-01
       N       E                     dE             d eps       ncg     rms          rms(c)
DAV:   1    -0.191360058818E+03    0.12768E-01   -0.31083E-01  8160   0.120E+00    0.139E-01
DAV:   2    -0.191361196495E+03   -0.11377E-02   -0.96671E-03 13560   0.406E-01    0.272E-01
DAV:   3    -0.191360516451E+03    0.68004E-03   -0.23992E-03 11080   0.363E-01    0.143E-01
DAV:   4    -0.191360402607E+03    0.11384E-03   -0.78340E-04  8640   0.181E-01    0.108E-01
DAV:   5    -0.191360316433E+03    0.86174E-04   -0.45177E-04  8160   0.155E-01
  28 F= -.19136032E+03 E0= -.19125968E+03  d E =0.125152E-01
       N       E                     dE             d eps       ncg     rms          rms(c)
DAV:   1    -0.191308526625E+03    0.51876E-01   -0.67957E+00  8160   0.565E+00    0.793E-01
DAV:   2    -0.191339742715E+03   -0.31216E-01   -0.25970E-01 13320   0.229E+00    0.160E+00
DAV:   3    -0.191314880706E+03    0.24862E-01   -0.76122E-02 11320   0.206E+00    0.782E-01
DAV:   4    -0.191311130439E+03    0.37503E-02   -0.24688E-02 11600   0.103E+00    0.607E-01
DAV:   5    -0.191308579947E+03    0.25505E-02   -0.14867E-02 11160   0.893E-01    0.460E-01
DAV:   6    -0.191306370735E+03    0.22092E-02   -0.72140E-03 12920   0.516E-01    0.173E-01
DAV:   7    -0.191306149603E+03    0.22113E-03   -0.19048E-03 11880   0.224E-01    0.153E-01
DAV:   8    -0.191306002349E+03    0.14725E-03   -0.10079E-03  9160   0.210E-01    0.105E-01
DAV:   9    -0.191305887128E+03    0.11522E-03   -0.22325E-04  6600   0.962E-02    0.249E-02
DAV:  10    -0.191305903125E+03   -0.15997E-04   -0.74011E-05  6480   0.327E-02
  29 F= -.19130590E+03 E0= -.19120502E+03  d E =0.544133E-01
       N       E                     dE             d eps       ncg     rms          rms(c)
DAV:   1    -0.191397169515E+03   -0.91282E-01   -0.18270E+01  8160   0.932E+00    0.118E+00
DAV:   2    -0.191480602076E+03   -0.83433E-01   -0.64451E-01 13560   0.351E+00    0.269E+00
DAV:   3    -0.191423250305E+03    0.57352E-01   -0.22948E-01 11680   0.338E+00    0.117E+00
DAV:   4    -0.191416304254E+03    0.69461E-02   -0.56366E-02 12320   0.158E+00    0.102E+00
DAV:   5    -0.191407053899E+03    0.92504E-02   -0.37000E-02 11280   0.142E+00    0.698E-01
DAV:   6    -0.191402081861E+03    0.49720E-02   -0.18343E-02 11880   0.778E-01    0.288E-01
DAV:   7    -0.191401865396E+03    0.21646E-03   -0.59649E-03 12080   0.451E-01    0.332E-01
DAV:   8    -0.191400869835E+03    0.99556E-03   -0.30324E-03 11400   0.390E-01    0.132E-01
DAV:   9    -0.191400660440E+03    0.20939E-03   -0.44428E-04  8600   0.120E-01    0.414E-02
DAV:  10    -0.191400648282E+03    0.12158E-04   -0.14752E-04  7640   0.463E-02
  30 F= -.19140065E+03 E0= -.19130093E+03  d E =-.947452E-01
       N       E                     dE             d eps       ncg     rms          rms(c)
DAV:   1    -0.191416070551E+03   -0.15410E-01   -0.63506E-01  8160   0.168E+00    0.181E-01
DAV:   2    -0.191419097268E+03   -0.30267E-02   -0.16968E-02 13240   0.672E-01    0.469E-01
DAV:   3    -0.191416780651E+03    0.23166E-02   -0.51817E-03 11360   0.548E-01    0.154E-01
DAV:   4    -0.191416738796E+03    0.41854E-04   -0.10951E-03  9600   0.210E-01    0.147E-01
DAV:   5    -0.191416608445E+03    0.13035E-03   -0.79949E-04  8920   0.205E-01    0.109E-01
DAV:   6    -0.191416488402E+03    0.12004E-03   -0.32664E-04  7360   0.110E-01    0.357E-02
DAV:   7    -0.191416520375E+03   -0.31973E-04   -0.12622E-04  6720   0.744E-02
  31 F= -.19141652E+03 E0= -.19131693E+03  d E =-.158721E-01
       N       E                     dE             d eps       ncg     rms          rms(c)
DAV:   1    -0.191374146874E+03    0.42342E-01   -0.62724E+00  8160   0.525E+00    0.545E-01
DAV:   2    -0.191407364951E+03   -0.33218E-01   -0.15371E-01 13000   0.199E+00    0.153E+00
DAV:   3    -0.191380400875E+03    0.26964E-01   -0.46576E-02 12200   0.171E+00    0.427E-01
DAV:   4    -0.191380860142E+03   -0.45927E-03   -0.95297E-03 10880   0.634E-01    0.483E-01
DAV:   5    -0.191378861720E+03    0.19984E-02   -0.67775E-03 11280   0.580E-01    0.240E-01
DAV:   6    -0.191378433307E+03    0.42841E-03   -0.22355E-03 11520   0.268E-01    0.140E-01
DAV:   7    -0.191378824881E+03   -0.39157E-03   -0.18447E-03 10480   0.310E-01    0.242E-01
DAV:   8    -0.191378191383E+03    0.63350E-03   -0.10056E-03  9360   0.235E-01    0.312E-02
DAV:   9    -0.191378199217E+03   -0.78343E-05   -0.54660E-05  5880   0.340E-02
  32 F= -.19137820E+03 E0= -.19127922E+03  d E =0.383212E-01
       N       E                     dE             d eps       ncg     rms          rms(c)
DAV:   1    -0.191339498950E+03    0.38692E-01   -0.21849E+01  8160   0.980E+00    0.109E+00
DAV:   2    -0.191480935132E+03   -0.14144E+00   -0.56116E-01 13120   0.439E+00    0.315E+00
DAV:   3    -0.191356605945E+03    0.12433E+00   -0.16941E-01 11960   0.343E+00    0.755E-01
DAV:   4    -0.191360255719E+03   -0.36498E-02   -0.33757E-02 11200   0.131E+00    0.101E+00
DAV:   5    -0.191351431657E+03    0.88241E-02   -0.26638E-02 11200   0.118E+00    0.442E-01
DAV:   6    -0.191350046291E+03    0.13854E-02   -0.79988E-03 12400   0.549E-01    0.315E-01
DAV:   7    -0.191350893373E+03   -0.84708E-03   -0.65610E-03 12040   0.631E-01    0.417E-01
DAV:   8    -0.191348861882E+03    0.20315E-02   -0.29636E-03 10280   0.397E-01    0.461E-02
DAV:   9    -0.191348882178E+03   -0.20296E-04   -0.19429E-04  6400   0.538E-02
  33 F= -.19134888E+03 E0= -.19125250E+03  d E =0.293170E-01
       N       E                     dE             d eps       ncg     rms          rms(c)
DAV:   1    -0.191342719976E+03    0.61419E-02   -0.10727E+01  8160   0.686E+00    0.736E-01
DAV:   2    -0.191397536365E+03   -0.54816E-01   -0.24537E-01 13320   0.258E+00    0.210E+00
DAV:   3    -0.191352113728E+03    0.45423E-01   -0.89963E-02 12320   0.236E+00    0.620E-01
DAV:   4    -0.191351875861E+03    0.23787E-03   -0.16190E-02 11280   0.892E-01    0.643E-01
DAV:   5    -0.191347935101E+03    0.39408E-02   -0.10809E-02 12080   0.806E-01    0.295E-01
DAV:   6    -0.191347704510E+03    0.23059E-03   -0.40653E-03 12480   0.433E-01    0.270E-01
DAV:   7    -0.191347587186E+03    0.11732E-03   -0.33114E-03 11280   0.455E-01    0.249E-01
DAV:   8    -0.191346873356E+03    0.71383E-03   -0.13275E-03 10040   0.254E-01    0.496E-02
DAV:   9    -0.191346843863E+03    0.29493E-04   -0.13191E-04  6600   0.480E-02
  34 F= -.19134684E+03 E0= -.19125140E+03  d E =0.203832E-02
       N       E                     dE             d eps       ncg     rms          rms(c)
DAV:   1    -0.191362041096E+03   -0.15168E-01   -0.10522E+00  8160   0.221E+00    0.265E-01
DAV:   2    -0.191366200255E+03   -0.41592E-02   -0.42147E-02 12120   0.710E-01    0.457E-01
DAV:   3    -0.191365161080E+03    0.10392E-02   -0.80787E-03 12440   0.682E-01    0.335E-01
DAV:   4    -0.191363958492E+03    0.12026E-02   -0.18885E-03 11160   0.307E-01    0.966E-02
DAV:   5    -0.191363967963E+03   -0.94715E-05   -0.80181E-04 10440   0.135E-01
  35 F= -.19136397E+03 E0= -.19126925E+03  d E =-.171241E-01
       N       E                     dE             d eps       ncg     rms          rms(c)
DAV:   1    -0.191381056349E+03   -0.17098E-01   -0.25578E+00  8160   0.345E+00    0.441E-01
DAV:   2    -0.191400121943E+03   -0.19066E-01   -0.82915E-02 13400   0.153E+00    0.125E+00
DAV:   3    -0.191383774734E+03    0.16347E-01   -0.29222E-02 12400   0.140E+00    0.339E-01
DAV:   4    -0.191384407596E+03   -0.63286E-03   -0.54235E-03 10280   0.556E-01    0.420E-01
DAV:   5    -0.191382407853E+03    0.19997E-02   -0.36460E-03 11680   0.490E-01    0.131E-01
DAV:   6    -0.191382505711E+03   -0.97858E-04   -0.12376E-03 11040   0.197E-01    0.137E-01
DAV:   7    -0.191382430626E+03    0.75086E-04   -0.99306E-04 10560   0.237E-01
  36 F= -.19138243E+03 E0= -.19128873E+03  d E =-.184627E-01
       N       E                     dE             d eps       ncg     rms          rms(c)
DAV:   1    -0.191392266167E+03   -0.97605E-02   -0.52147E-01  8160   0.157E+00    0.222E-01
DAV:   2    -0.191394486620E+03   -0.22205E-02   -0.20863E-02 13600   0.616E-01    0.431E-01
DAV:   3    -0.191392975320E+03    0.15113E-02   -0.57812E-03 12120   0.591E-01    0.228E-01
DAV:   4    -0.191392525737E+03    0.44958E-03   -0.14477E-03 10320   0.273E-01    0.134E-01
DAV:   5    -0.191392438284E+03    0.87453E-04   -0.84139E-04 10280   0.231E-01
  37 F= -.19139244E+03 E0= -.19129930E+03  d E =-.100077E-01
       N       E                     dE             d eps       ncg     rms          rms(c)
DAV:   1    -0.191402801922E+03   -0.10276E-01   -0.62309E-01  8160   0.171E+00    0.233E-01
DAV:   2    -0.191405009708E+03   -0.22078E-02   -0.21465E-02 13440   0.593E-01    0.436E-01
DAV:   3    -0.191403619892E+03    0.13898E-02   -0.56831E-03 12120   0.603E-01    0.252E-01
DAV:   4    -0.191402943707E+03    0.67619E-03   -0.13555E-03 10400   0.247E-01    0.100E-01
DAV:   5    -0.191402991909E+03   -0.48202E-04   -0.80932E-04 10680   0.192E-01
  38 F= -.19140299E+03 E0= -.19131055E+03  d E =-.105536E-01
       N       E                     dE             d eps       ncg     rms          rms(c)
DAV:   1    -0.191411138832E+03   -0.81951E-02   -0.50354E-01  8160   0.153E+00    0.207E-01
DAV:   2    -0.191415114309E+03   -0.39755E-02   -0.21832E-02 11600   0.717E-01    0.533E-01
DAV:   3    -0.191411987030E+03    0.31273E-02   -0.62781E-03 11720   0.626E-01    0.169E-01
DAV:   4    -0.191411935949E+03    0.51081E-04   -0.11228E-03  9600   0.235E-01    0.148E-01
DAV:   5    -0.191411742656E+03    0.19329E-03   -0.70505E-04 10040   0.204E-01    0.104E-01
DAV:   6    -0.191411694801E+03    0.47856E-04   -0.37217E-04  8440   0.141E-01
  39 F= -.19141169E+03 E0= -.19131973E+03  d E =-.870289E-02
       N       E                     dE             d eps       ncg     rms          rms(c)
DAV:   1    -0.191419033855E+03   -0.72912E-02   -0.31520E-01  8160   0.124E+00    0.197E-01
DAV:   2    -0.191421695918E+03   -0.26621E-02   -0.14934E-02 12720   0.620E-01    0.502E-01
DAV:   3    -0.191419253524E+03    0.24424E-02   -0.51885E-03 11480   0.589E-01    0.164E-01
DAV:   4    -0.191419052425E+03    0.20110E-03   -0.90988E-04 10120   0.185E-01    0.116E-01
DAV:   5    -0.191418975276E+03    0.77149E-04   -0.62112E-04 10120   0.199E-01
  40 F= -.19141898E+03 E0= -.19132772E+03  d E =-.728048E-02
       N       E                     dE             d eps       ncg     rms          rms(c)
DAV:   1    -0.191430579636E+03   -0.11527E-01   -0.12371E+00  8160   0.240E+00    0.289E-01
DAV:   2    -0.191437379907E+03   -0.68003E-02   -0.45255E-02 13400   0.941E-01    0.705E-01
DAV:   3    -0.191432847226E+03    0.45327E-02   -0.10622E-02 12320   0.835E-01    0.244E-01
DAV:   4    -0.191432259756E+03    0.58747E-03   -0.15353E-03 11520   0.240E-01    0.126E-01
DAV:   5    -0.191432207155E+03    0.52600E-04   -0.11106E-03 11440   0.213E-01    0.137E-01
DAV:   6    -0.191432234982E+03   -0.27826E-04   -0.93349E-04 10200   0.246E-01
  41 F= -.19143223E+03 E0= -.19134173E+03  d E =-.132597E-01
       N       E                     dE             d eps       ncg     rms          rms(c)
DAV:   1    -0.191446241303E+03   -0.14034E-01   -0.26303E+00  8160   0.350E+00    0.430E-01
DAV:   2    -0.191459838036E+03   -0.13597E-01   -0.98894E-02 13160   0.132E+00    0.959E-01
DAV:   3    -0.191451422753E+03    0.84153E-02   -0.21904E-02 12320   0.121E+00    0.392E-01
DAV:   4    -0.191450148945E+03    0.12738E-02   -0.39243E-03 11480   0.437E-01    0.263E-01
DAV:   5    -0.191449609276E+03    0.53967E-03   -0.24026E-03 12320   0.411E-01    0.195E-01
DAV:   6    -0.191449445975E+03    0.16330E-03   -0.15701E-03 11040   0.281E-01    0.134E-01
DAV:   7    -0.191449295878E+03    0.15010E-03   -0.85623E-04 10880   0.210E-01    0.111E-01
DAV:   8    -0.191449156866E+03    0.13901E-03   -0.25486E-04  8400   0.131E-01    0.246E-02
DAV:   9    -0.191449149868E+03    0.69980E-05   -0.29109E-05  6040   0.277E-02
  42 F= -.19144915E+03 E0= -.19136008E+03  d E =-.169149E-01
       N       E                     dE             d eps       ncg     rms          rms(c)
DAV:   1    -0.191453839935E+03   -0.46831E-02   -0.34449E-01  8160   0.125E+00    0.144E-01
DAV:   2    -0.191455979043E+03   -0.21391E-02   -0.13476E-02 12800   0.545E-01    0.370E-01
DAV:   3    -0.191454569408E+03    0.14096E-02   -0.27242E-03 11600   0.435E-01    0.112E-01
DAV:   4    -0.191454529684E+03    0.39723E-04   -0.41760E-04  8360   0.163E-01
  43 F= -.19145453E+03 E0= -.19136583E+03  d E =-.537982E-02
       N       E                     dE             d eps       ncg     rms          rms(c)
DAV:   1    -0.191457804247E+03   -0.32348E-02   -0.13058E-01  8160   0.781E-01    0.118E-01
DAV:   2    -0.191459007160E+03   -0.12029E-02   -0.56281E-03 12920   0.398E-01    0.314E-01
DAV:   3    -0.191457945702E+03    0.10615E-02   -0.17780E-03 10640   0.358E-01    0.879E-02
DAV:   4    -0.191457970524E+03   -0.24822E-04   -0.32217E-04  8600   0.146E-01
  44 F= -.19145797E+03 E0= -.19136972E+03  d E =-.344084E-02
       N       E                     dE             d eps       ncg     rms          rms(c)
DAV:   1    -0.191465760472E+03   -0.78148E-02   -0.11795E+00  8160   0.233E+00    0.266E-01
DAV:   2    -0.191471080074E+03   -0.53196E-02   -0.42261E-02 13360   0.816E-01    0.560E-01
DAV:   3    -0.191468421566E+03    0.26585E-02   -0.82776E-03 12360   0.744E-01    0.272E-01
DAV:   4    -0.191467638378E+03    0.78319E-03   -0.16432E-03 11120   0.274E-01    0.115E-01
DAV:   5    -0.191467557010E+03    0.81369E-04   -0.72315E-04 10720   0.164E-01
  45 F= -.19146756E+03 E0= -.19138049E+03  d E =-.958649E-02
       N       E                     dE             d eps       ncg     rms          rms(c)
DAV:   1    -0.191471967944E+03   -0.43296E-02   -0.32088E-01  8160   0.123E+00    0.175E-01
DAV:   2    -0.191475314020E+03   -0.33461E-02   -0.13215E-02 12880   0.666E-01    0.493E-01
DAV:   3    -0.191472313066E+03    0.30010E-02   -0.44245E-03 12080   0.572E-01    0.996E-02
DAV:   4    -0.191472460058E+03   -0.14699E-03   -0.59572E-04  9120   0.189E-01    0.149E-01
DAV:   5    -0.191472237816E+03    0.22224E-03   -0.39896E-04  9080   0.176E-01    0.546E-02
DAV:   6    -0.191472235983E+03    0.18328E-05   -0.12611E-04  6160   0.619E-02
  46 F= -.19147224E+03 E0= -.19138542E+03  d E =-.467897E-02
       N       E                     dE             d eps       ncg     rms          rms(c)
DAV:   1    -0.191474000418E+03   -0.17626E-02   -0.49332E-02  8160   0.478E-01    0.607E-02
DAV:   2    -0.191474370602E+03   -0.37018E-03   -0.19056E-03 13600   0.222E-01    0.165E-01
DAV:   3    -0.191474057078E+03    0.31352E-03   -0.55675E-04  8680   0.198E-01    0.431E-02
DAV:   4    -0.191474058162E+03   -0.10837E-05   -0.71520E-05  5520   0.619E-02
  47 F= -.19147406E+03 E0= -.19138725E+03  d E =-.182218E-02
       N       E                     dE             d eps       ncg     rms          rms(c)
DAV:   1    -0.191477016464E+03   -0.29594E-02   -0.13404E-01  8160   0.780E-01    0.939E-02
DAV:   2    -0.191477646221E+03   -0.62976E-03   -0.45741E-03 13520   0.286E-01    0.205E-01
DAV:   3    -0.191477244240E+03    0.40198E-03   -0.10212E-03 10120   0.267E-01    0.871E-02
DAV:   4    -0.191477175994E+03    0.68246E-04   -0.17454E-04  6480   0.996E-02
  48 F= -.19147718E+03 E0= -.19139064E+03  d E =-.311783E-02
       N       E                     dE             d eps       ncg     rms          rms(c)
DAV:   1    -0.191479508768E+03   -0.22645E-02   -0.84473E-02  8160   0.622E-01    0.853E-02
DAV:   2    -0.191480295226E+03   -0.78646E-03   -0.31383E-03 13560   0.314E-01    0.245E-01
DAV:   3    -0.191479586184E+03    0.70904E-03   -0.10737E-03 10040   0.277E-01    0.547E-02
DAV:   4    -0.191479617225E+03   -0.31040E-04   -0.13003E-04  5640   0.961E-02
  49 F= -.19147962E+03 E0= -.19139309E+03  d E =-.244123E-02
       N       E                     dE             d eps       ncg     rms          rms(c)
DAV:   1    -0.191480087742E+03   -0.50156E-03   -0.10680E-02  8160   0.237E-01    0.487E-02
DAV:   2    -0.191480429499E+03   -0.34176E-03   -0.79174E-04 11360   0.208E-01    0.178E-01
DAV:   3    -0.191480077284E+03    0.35221E-03   -0.40198E-04  8320   0.182E-01    0.271E-02
DAV:   4    -0.191480084296E+03   -0.70120E-05   -0.34085E-05  5680   0.428E-02
  50 F= -.19148008E+03 E0= -.19139388E+03  d E =-.467071E-03
       N       E                     dE             d eps       ncg     rms          rms(c)
DAV:   1    -0.191485854425E+03   -0.57771E-02   -0.59686E-01  8160   0.163E+00    0.162E-01
DAV:   2    -0.191487494967E+03   -0.16405E-02   -0.15393E-02 13440   0.450E-01    0.276E-01
DAV:   3    -0.191486908015E+03    0.58695E-03   -0.29192E-03 12600   0.429E-01    0.185E-01
DAV:   4    -0.191486604303E+03    0.30371E-03   -0.75843E-04  9520   0.215E-01    0.963E-02
DAV:   5    -0.191486573457E+03    0.30846E-04   -0.37128E-04  8960   0.162E-01
  51 F= -.19148657E+03 E0= -.19140111E+03  d E =-.648916E-02
       N       E                     dE             d eps       ncg     rms          rms(c)
DAV:   1    -0.191483432400E+03    0.31719E-02   -0.12288E-01  8160   0.748E-01    0.748E-02
DAV:   2    -0.191484035648E+03   -0.60325E-03   -0.36858E-03 13400   0.258E-01    0.186E-01
DAV:   3    -0.191483649530E+03    0.38612E-03   -0.90885E-04 10000   0.245E-01    0.800E-02
DAV:   4    -0.191483583279E+03    0.66251E-04   -0.14215E-04  5600   0.924E-02
  52 F= -.19148358E+03 E0= -.19139769E+03  d E =0.299018E-02
       N       E                     dE             d eps       ncg     rms          rms(c)
DAV:   1    -0.191476308071E+03    0.73415E-02   -0.12885E+00  8160   0.239E+00    0.252E-01
DAV:   2    -0.191478232163E+03   -0.19241E-02   -0.26810E-02 13040   0.615E-01    0.342E-01
DAV:   3    -0.191477912717E+03    0.31945E-03   -0.55539E-03 11400   0.605E-01    0.323E-01
DAV:   4    -0.191476858781E+03    0.10539E-02   -0.20623E-03 11920   0.367E-01    0.135E-01
DAV:   5    -0.191476894030E+03   -0.35250E-04   -0.11328E-03  9680   0.257E-01    0.163E-01
DAV:   6    -0.191476620112E+03    0.27392E-03   -0.68427E-04 10200   0.216E-01    0.595E-02
DAV:   7    -0.191476597772E+03    0.22340E-04   -0.13177E-04  6240   0.796E-02
  53 F= -.19147660E+03 E0= -.19139023E+03  d E =0.698551E-02
       N       E                     dE             d eps       ncg     rms          rms(c)
DAV:   1    -0.191483578215E+03   -0.69581E-02   -0.11760E+00  8160   0.229E+00    0.228E-01
DAV:   2    -0.191485703033E+03   -0.21248E-02   -0.29479E-02 13360   0.629E-01    0.273E-01
DAV:   3    -0.191485454210E+03    0.24882E-03   -0.39442E-03 12160   0.509E-01    0.259E-01
DAV:   4    -0.191484739793E+03    0.71442E-03   -0.16487E-03 11040   0.330E-01    0.135E-01
DAV:   5    -0.191484803729E+03   -0.63935E-04   -0.91184E-04 10160   0.247E-01
  54 F= -.19148480E+03 E0= -.19139872E+03  d E =-.820596E-02
       N       E                     dE             d eps       ncg     rms          rms(c)
DAV:   1    -0.191485275277E+03   -0.53548E-03   -0.22710E-02  9240   0.366E-01    0.759E-02
DAV:   2    -0.191485944744E+03   -0.66947E-03   -0.18204E-03 11760   0.300E-01    0.243E-01
DAV:   3    -0.191485238429E+03    0.70632E-03   -0.85674E-04  9640   0.261E-01    0.471E-02
DAV:   4    -0.191485261312E+03   -0.22883E-04   -0.99418E-05  5520   0.856E-02
  55 F= -.19148526E+03 E0= -.19139948E+03  d E =-.457583E-03
       N       E                     dE             d eps       ncg     rms          rms(c)
DAV:   1    -0.191490041867E+03   -0.48034E-02   -0.42214E-01  8160   0.137E+00    0.131E-01
DAV:   2    -0.191490941344E+03   -0.89948E-03   -0.10066E-02 12800   0.388E-01    0.182E-01
DAV:   3    -0.191490717693E+03    0.22365E-03   -0.13759E-03 11920   0.305E-01    0.130E-01
DAV:   4    -0.191490535561E+03    0.18213E-03   -0.38347E-04  8240   0.151E-01    0.656E-02
DAV:   5    -0.191490578499E+03   -0.42938E-04   -0.24733E-04  7440   0.132E-01
  56 F= -.19149058E+03 E0= -.19140476E+03  d E =-.531719E-02
       N       E                     dE             d eps       ncg     rms          rms(c)
DAV:   1    -0.191484147789E+03    0.63878E-02   -0.77411E-01  8160   0.185E+00    0.192E-01
DAV:   2    -0.191487026080E+03   -0.28783E-02   -0.17878E-02 12760   0.609E-01    0.465E-01
DAV:   3    -0.191484959483E+03    0.20666E-02   -0.50185E-03 11920   0.591E-01    0.183E-01
DAV:   4    -0.191484575032E+03    0.38445E-03   -0.81960E-04  9680   0.186E-01    0.693E-02
DAV:   5    -0.191484553647E+03    0.21385E-04   -0.33543E-04  8360   0.112E-01
  57 F= -.19148455E+03 E0= -.19139879E+03  d E =0.602485E-02
       N       E                     dE             d eps       ncg     rms          rms(c)
DAV:   1    -0.191477988553E+03    0.65865E-02   -0.17225E+00  8160   0.274E+00    0.269E-01
DAV:   2    -0.191483579733E+03   -0.55912E-02   -0.34105E-02 13200   0.874E-01    0.641E-01
DAV:   3    -0.191479728022E+03    0.38517E-02   -0.87214E-03 12400   0.792E-01    0.235E-01
DAV:   4    -0.191479198245E+03    0.52978E-03   -0.12799E-03 10320   0.226E-01    0.952E-02
DAV:   5    -0.191479130249E+03    0.67996E-04   -0.59454E-04 11480   0.132E-01
  58 F= -.19147913E+03 E0= -.19139376E+03  d E =0.542340E-02
       N       E                     dE             d eps       ncg     rms          rms(c)
DAV:   1    -0.191481182302E+03   -0.19841E-02   -0.17560E-01  8160   0.902E-01    0.140E-01
DAV:   2    -0.191484137475E+03   -0.29552E-02   -0.10292E-02 12280   0.615E-01    0.458E-01
DAV:   3    -0.191481488294E+03    0.26492E-02   -0.36171E-03 11320   0.517E-01    0.698E-02
DAV:   4    -0.191481521257E+03   -0.32963E-04   -0.30621E-04  8200   0.125E-01
  59 F= -.19148152E+03 E0= -.19139615E+03  d E =-.239101E-02
       N       E                     dE             d eps       ncg     rms          rms(c)
DAV:   1    -0.191482795919E+03   -0.13076E-02   -0.82054E-02  8160   0.609E-01    0.686E-02
DAV:   2    -0.191483013917E+03   -0.21800E-03   -0.19426E-03 12840   0.188E-01    0.118E-01
DAV:   3    -0.191482869824E+03    0.14409E-03   -0.43796E-04  9040   0.179E-01    0.641E-02
DAV:   4    -0.191482831718E+03    0.38106E-04   -0.11957E-04  6000   0.862E-02
  60 F= -.19148283E+03 E0= -.19139755E+03  d E =-.131046E-02
       N       E                     dE             d eps       ncg     rms          rms(c)
DAV:   1    -0.191487170577E+03   -0.43008E-02   -0.59229E-01  8160   0.164E+00    0.188E-01
DAV:   2    -0.191488606716E+03   -0.14361E-02   -0.17717E-02 13560   0.472E-01    0.274E-01
DAV:   3    -0.191488308285E+03    0.29843E-03   -0.34024E-03 12080   0.476E-01    0.243E-01
DAV:   4    -0.191487653964E+03    0.65432E-03   -0.11399E-03  9520   0.262E-01    0.782E-02
DAV:   5    -0.191487668616E+03   -0.14651E-04   -0.42246E-04  8840   0.150E-01
  61 F= -.19148767E+03 E0= -.19140288E+03  d E =-.483690E-02
       N       E                     dE             d eps       ncg     rms          rms(c)
DAV:   1    -0.191488432792E+03   -0.77883E-03   -0.75424E-02  8160   0.600E-01    0.819E-02
DAV:   2    -0.191489091251E+03   -0.65846E-03   -0.29881E-03 12080   0.314E-01    0.218E-01
DAV:   3    -0.191488501953E+03    0.58930E-03   -0.93714E-04 10200   0.263E-01    0.484E-02
DAV:   4    -0.191488500278E+03    0.16755E-05   -0.88444E-05  5600   0.748E-02
  62 F= -.19148850E+03 E0= -.19140354E+03  d E =-.831662E-03
       N       E                     dE             d eps       ncg     rms          rms(c)
DAV:   1    -0.191491363174E+03   -0.28612E-02   -0.61016E-01  8160   0.166E+00    0.188E-01
DAV:   2    -0.191494365042E+03   -0.30019E-02   -0.19414E-02 13080   0.632E-01    0.436E-01
DAV:   3    -0.191492415773E+03    0.19493E-02   -0.44309E-03 12360   0.558E-01    0.164E-01
DAV:   4    -0.191492280439E+03    0.13533E-03   -0.83289E-04  9720   0.216E-01    0.123E-01
DAV:   5    -0.191492156059E+03    0.12438E-03   -0.51005E-04  9920   0.199E-01    0.900E-02
DAV:   6    -0.191492111466E+03    0.44593E-04   -0.24508E-04  7720   0.110E-01
  63 F= -.19149211E+03 E0= -.19140784E+03  d E =-.361119E-02
       N       E                     dE             d eps       ncg     rms          rms(c)
DAV:   1    -0.191492245912E+03   -0.89853E-04   -0.20296E-01  8160   0.947E-01    0.116E-01
DAV:   2    -0.191493600813E+03   -0.13549E-02   -0.61240E-03 13040   0.471E-01    0.326E-01
DAV:   3    -0.191492375636E+03    0.12252E-02   -0.18854E-03 10880   0.376E-01    0.739E-02
DAV:   4    -0.191492397776E+03   -0.22141E-04   -0.27506E-04  8120   0.133E-01
  64 F= -.19149240E+03 E0= -.19140823E+03  d E =-.286310E-03
       N       E                     dE             d eps       ncg     rms          rms(c)
DAV:   1    -0.191492371030E+03    0.46052E-05   -0.26747E-04  7600   0.130E-01    0.538E-02
DAV:   2    -0.191492866817E+03   -0.49579E-03   -0.77568E-04 11160   0.250E-01    0.206E-01
DAV:   3    -0.191492332356E+03    0.53446E-03   -0.52116E-04  8960   0.215E-01    0.291E-02
DAV:   4    -0.191492341050E+03   -0.86942E-05   -0.30515E-05  5600   0.428E-02
  65 F= -.19149234E+03 E0= -.19140786E+03  d E =0.567263E-04
       N       E                     dE             d eps       ncg     rms          rms(c)
DAV:   1    -0.191495557476E+03   -0.32251E-02   -0.32903E-01  8160   0.121E+00    0.117E-01
DAV:   2    -0.191496102683E+03   -0.54521E-03   -0.73926E-03 12440   0.308E-01    0.134E-01
DAV:   3    -0.191496071169E+03    0.31513E-04   -0.11272E-03 10960   0.267E-01    0.136E-01
DAV:   4    -0.191495867561E+03    0.20361E-03   -0.46477E-04  8720   0.171E-01    0.583E-02
DAV:   5    -0.191495867464E+03    0.96924E-07   -0.16967E-04  5840   0.104E-01
  66 F= -.19149587E+03 E0= -.19141140E+03  d E =-.352641E-02
       N       E                     dE             d eps       ncg     rms          rms(c)
DAV:   1    -0.191482595188E+03    0.13272E-01   -0.31992E+00  8160   0.377E+00    0.356E-01
DAV:   2    -0.191488441117E+03   -0.58459E-02   -0.75151E-02 12320   0.923E-01    0.418E-01
DAV:   3    -0.191488397864E+03    0.43253E-04   -0.12392E-02 12200   0.860E-01    0.458E-01
DAV:   4    -0.191486023748E+03    0.23741E-02   -0.48996E-03 12160   0.549E-01    0.150E-01
DAV:   5    -0.191485756391E+03    0.26736E-03   -0.12015E-03 10280   0.182E-01    0.982E-02
DAV:   6    -0.191486026437E+03   -0.27005E-03   -0.98684E-04 10920   0.259E-01    0.166E-01
DAV:   7    -0.191485680817E+03    0.34562E-03   -0.41748E-04  8320   0.178E-01    0.356E-02
DAV:   8    -0.191485682132E+03   -0.13157E-05   -0.58644E-05  5920   0.561E-02
  67 F= -.19148568E+03 E0= -.19140119E+03  d E =0.101853E-01
       N       E                     dE             d eps       ncg     rms          rms(c)
DAV:   1    -0.191488275893E+03   -0.25951E-02   -0.25517E-01  8160   0.107E+00    0.103E-01
DAV:   2    -0.191488903725E+03   -0.62783E-03   -0.74056E-03 13160   0.285E-01    0.138E-01
DAV:   3    -0.191488867055E+03    0.36670E-04   -0.95336E-04 10880   0.253E-01
  68 F= -.19148887E+03 E0= -.19140500E+03  d E =-.318492E-02
       N       E                     dE             d eps       ncg     rms          rms(c)
DAV:   1    -0.191479970410E+03    0.89333E-02   -0.15214E+00  8160   0.261E+00    0.260E-01
DAV:   2    -0.191487896450E+03   -0.79260E-02   -0.42838E-02 13520   0.954E-01    0.731E-01
DAV:   3    -0.191482253040E+03    0.56434E-02   -0.95167E-03 12440   0.850E-01    0.180E-01
DAV:   4    -0.191481909795E+03    0.34325E-03   -0.99899E-04 10080   0.184E-01    0.828E-02
DAV:   5    -0.191481869967E+03    0.39828E-04   -0.47149E-04 10120   0.129E-01
  69 F= -.19148187E+03 E0= -.19139664E+03  d E =0.699709E-02
       N       E                     dE             d eps       ncg     rms          rms(c)
DAV:   1    -0.191481206715E+03    0.70308E-03   -0.85683E-02  8160   0.631E-01    0.988E-02
DAV:   2    -0.191482347222E+03   -0.11405E-02   -0.35473E-03 13480   0.376E-01    0.295E-01
DAV:   3    -0.191481235694E+03    0.11115E-02   -0.14338E-03 10320   0.334E-01    0.541E-02
DAV:   4    -0.191481280149E+03   -0.44455E-04   -0.16884E-04  6440   0.100E-01
  70 F= -.19148128E+03 E0= -.19139594E+03  d E =0.589818E-03
       N       E                     dE             d eps       ncg     rms          rms(c)
DAV:   1    -0.191479679979E+03    0.15557E-02   -0.18936E-01  8160   0.917E-01    0.972E-02
DAV:   2    -0.191479965190E+03   -0.28521E-03   -0.38067E-03 12440   0.225E-01    0.116E-01
DAV:   3    -0.191479895955E+03    0.69235E-04   -0.73552E-04 10920   0.213E-01
  71 F= -.19147990E+03 E0= -.19139440E+03  d E =0.138419E-02
       N       E                     dE             d eps       ncg     rms          rms(c)
DAV:   1    -0.191483654296E+03   -0.36891E-02   -0.10172E+00  8160   0.212E+00    0.219E-01
DAV:   2    -0.191489372441E+03   -0.57181E-02   -0.27671E-02 13160   0.841E-01    0.659E-01
DAV:   3    -0.191484898701E+03    0.44737E-02   -0.74294E-03 11640   0.735E-01    0.142E-01
DAV:   4    -0.191484748415E+03    0.15029E-03   -0.73245E-04 10120   0.175E-01    0.102E-01
DAV:   5    -0.191484729439E+03    0.18976E-04   -0.47799E-04 10720   0.183E-01
  72 F= -.19148473E+03 E0= -.19139993E+03  d E =-.483348E-02
       N       E                     dE             d eps       ncg     rms          rms(c)
DAV:   1    -0.191475410765E+03    0.93376E-02   -0.34533E+00  8160   0.390E+00    0.364E-01
DAV:   2    -0.191483464232E+03   -0.80535E-02   -0.71968E-02 12240   0.105E+00    0.650E-01
DAV:   3    -0.191480145463E+03    0.33188E-02   -0.14592E-02 12400   0.100E+00    0.431E-01
DAV:   4    -0.191478234061E+03    0.19114E-02   -0.39825E-03 11720   0.473E-01    0.156E-01
DAV:   5    -0.191478136097E+03    0.97964E-04   -0.13129E-03 10520   0.236E-01    0.161E-01
DAV:   6    -0.191478008506E+03    0.12759E-03   -0.10149E-03 10680   0.271E-01    0.117E-01
DAV:   7    -0.191477921148E+03    0.87358E-04   -0.39636E-04  8960   0.153E-01
  73 F= -.19147792E+03 E0= -.19139249E+03  d E =0.680829E-02
       N       E                     dE             d eps       ncg     rms          rms(c)
DAV:   1    -0.191479189085E+03   -0.11806E-02   -0.20663E-01  8160   0.962E-01    0.106E-01
DAV:   2    -0.191480333979E+03   -0.11449E-02   -0.62792E-03 13240   0.408E-01    0.292E-01
DAV:   3    -0.191479459310E+03    0.87467E-03   -0.14659E-03 10160   0.333E-01    0.758E-02
DAV:   4    -0.191479419977E+03    0.39333E-04   -0.17299E-04  6080   0.904E-02
  74 F= -.19147942E+03 E0= -.19139428E+03  d E =-.149883E-02
       N       E                     dE             d eps       ncg     rms          rms(c)
DAV:   1    -0.191480981038E+03   -0.15217E-02   -0.11362E-01  8160   0.733E-01    0.100E-01
DAV:   2    -0.191481713025E+03   -0.73199E-03   -0.43259E-03 13400   0.317E-01    0.238E-01
DAV:   3    -0.191481108666E+03    0.60436E-03   -0.12400E-03 10280   0.299E-01    0.845E-02
DAV:   4    -0.191481084843E+03    0.23823E-04   -0.25713E-04  7000   0.115E-01
  75 F= -.19148108E+03 E0= -.19139586E+03  d E =-.166487E-02
       N       E                     dE             d eps       ncg     rms          rms(c)
DAV:   1    -0.191481232905E+03   -0.12424E-03   -0.80463E-02  8160   0.602E-01    0.640E-02
DAV:   2    -0.191481659381E+03   -0.42648E-03   -0.19215E-03 13560   0.233E-01    0.179E-01
DAV:   3    -0.191481291340E+03    0.36804E-03   -0.53225E-04  9560   0.204E-01    0.440E-02
DAV:   4    -0.191481298918E+03   -0.75777E-05   -0.74641E-05  5800   0.743E-02
  76 F= -.19148130E+03 E0= -.19139629E+03  d E =-.214074E-03
       N       E                     dE             d eps       ncg     rms          rms(c)
DAV:   1    -0.191483085506E+03   -0.17942E-02   -0.15997E-01  8160   0.850E-01    0.106E-01
DAV:   2    -0.191484496442E+03   -0.14109E-02   -0.60715E-03 12720   0.411E-01    0.320E-01
DAV:   3    -0.191483341869E+03    0.11546E-02   -0.17323E-03 11080   0.361E-01    0.690E-02
DAV:   4    -0.191483365233E+03   -0.23365E-04   -0.20478E-04  7240   0.115E-01
  77 F= -.19148337E+03 E0= -.19139854E+03  d E =-.206632E-02
       N       E                     dE             d eps       ncg     rms          rms(c)
DAV:   1    -0.191483654161E+03   -0.31229E-03   -0.44475E-03  8160   0.166E-01    0.458E-02
DAV:   2    -0.191483884910E+03   -0.23075E-03   -0.46764E-04 10160   0.174E-01    0.146E-01
DAV:   3    -0.191483631177E+03    0.25373E-03   -0.27461E-04  8040   0.155E-01    0.276E-02
DAV:   4    -0.191483644875E+03   -0.13699E-04   -0.38484E-05  5800   0.519E-02
  78 F= -.19148364E+03 E0= -.19139904E+03  d E =-.279642E-03
       N       E                     dE             d eps       ncg     rms          rms(c)
DAV:   1    -0.191485362224E+03   -0.17310E-02   -0.18066E-01  8160   0.902E-01    0.106E-01
DAV:   2    -0.191486774844E+03   -0.14126E-02   -0.62793E-03 12680   0.416E-01    0.324E-01
DAV:   3    -0.191485639714E+03    0.11351E-02   -0.17721E-03 11320   0.365E-01    0.676E-02
DAV:   4    -0.191485633082E+03    0.66318E-05   -0.15236E-04  6000   0.896E-02
  79 F= -.19148563E+03 E0= -.19140130E+03  d E =-.198821E-02
       N       E                     dE             d eps       ncg     rms          rms(c)
DAV:   1    -0.191484132186E+03    0.15075E-02   -0.83526E-02  8160   0.617E-01    0.650E-02
DAV:   2    -0.191484814997E+03   -0.68281E-03   -0.31318E-03 12720   0.283E-01    0.211E-01
DAV:   3    -0.191484299010E+03    0.51599E-03   -0.79425E-04  9880   0.240E-01    0.368E-02
DAV:   4    -0.191484310061E+03   -0.11050E-04   -0.54924E-05  5520   0.661E-02
  80 F= -.19148431E+03 E0= -.19140005E+03  d E =0.132302E-02
       N       E                     dE             d eps       ncg     rms          rms(c)
DAV:   1    -0.191485433190E+03   -0.11342E-02   -0.84271E-02  8160   0.614E-01    0.682E-02
DAV:   2    -0.191486129671E+03   -0.69648E-03   -0.30545E-03 13440   0.312E-01    0.227E-01
DAV:   3    -0.191485571753E+03    0.55792E-03   -0.81150E-04  9640   0.249E-01    0.376E-02
DAV:   4    -0.191485579547E+03   -0.77942E-05   -0.56981E-05  5520   0.604E-02
  81 F= -.19148558E+03 E0= -.19140133E+03  d E =-.126949E-02
       N       E                     dE             d eps       ncg     rms          rms(c)
DAV:   1    -0.191485755244E+03   -0.18349E-03   -0.15854E-03  8320   0.937E-02    0.266E-02
DAV:   2    -0.191485796555E+03   -0.41311E-04   -0.99749E-05  6360   0.863E-02
  82 F= -.19148580E+03 E0= -.19140146E+03  d E =-.217007E-03
       N       E                     dE             d eps       ncg     rms          rms(c)
DAV:   1    -0.191486741424E+03   -0.98618E-03   -0.78778E-02  8160   0.599E-01    0.708E-02
DAV:   2    -0.191487249393E+03   -0.50797E-03   -0.33738E-03 13160   0.261E-01    0.172E-01
DAV:   3    -0.191486952953E+03    0.29644E-03   -0.67646E-04  9320   0.219E-01    0.617E-02
DAV:   4    -0.191486922080E+03    0.30873E-04   -0.93650E-05  5520   0.714E-02
  83 F= -.19148692E+03 E0= -.19140300E+03  d E =-.112553E-02
       N       E                     dE             d eps       ncg     rms          rms(c)
DAV:   1    -0.191489030880E+03   -0.20779E-02   -0.43616E-01  8160   0.140E+00    0.156E-01
DAV:   2    -0.191491557644E+03   -0.25268E-02   -0.13373E-02 13280   0.552E-01    0.424E-01
DAV:   3    -0.191489711978E+03    0.18457E-02   -0.33472E-03 12040   0.499E-01    0.114E-01
DAV:   4    -0.191489595932E+03    0.11605E-03   -0.35049E-04  8400   0.110E-01    0.597E-02
DAV:   5    -0.191489583741E+03    0.12191E-04   -0.24264E-04  8800   0.108E-01
  84 F= -.19148958E+03 E0= -.19140643E+03  d E =-.266166E-02
       N       E                     dE             d eps       ncg     rms          rms(c)
DAV:   1    -0.191491489851E+03   -0.18939E-02   -0.12214E+00  8160   0.234E+00    0.259E-01
DAV:   2    -0.191499062556E+03   -0.75727E-02   -0.40476E-02 13280   0.100E+00    0.711E-01
DAV:   3    -0.191493653903E+03    0.54087E-02   -0.95978E-03 12400   0.840E-01    0.178E-01
DAV:   4    -0.191493590555E+03    0.63348E-04   -0.10303E-03  9920   0.255E-01    0.175E-01
DAV:   5    -0.191493274764E+03    0.31579E-03   -0.66981E-04 10960   0.235E-01    0.769E-02
DAV:   6    -0.191493338567E+03   -0.63803E-04   -0.37875E-04  8920   0.131E-01
  85 F= -.19149334E+03 E0= -.19141094E+03  d E =-.375483E-02
       N       E                     dE             d eps       ncg     rms          rms(c)
DAV:   1    -0.191490225702E+03    0.30491E-02   -0.59039E-01  8160   0.163E+00    0.183E-01
DAV:   2    -0.191493590792E+03   -0.33651E-02   -0.21908E-02 12720   0.694E-01    0.458E-01
DAV:   3    -0.191491409457E+03    0.21813E-02   -0.47356E-03 12240   0.577E-01    0.153E-01
DAV:   4    -0.191491180036E+03    0.22942E-03   -0.71987E-04  9600   0.185E-01    0.930E-02
DAV:   5    -0.191491130712E+03    0.49324E-04   -0.41688E-04  9480   0.169E-01
  86 F= -.19149113E+03 E0= -.19140757E+03  d E =0.220786E-02
       N       E                     dE             d eps       ncg     rms          rms(c)
DAV:   1    -0.191492645290E+03   -0.14653E-02   -0.11879E-01  8160   0.756E-01    0.154E-01
DAV:   2    -0.191493115396E+03   -0.47011E-03   -0.55396E-03 11800   0.396E-01    0.283E-01
DAV:   3    -0.191492306999E+03    0.80840E-03   -0.20128E-03 11080   0.385E-01    0.136E-01
DAV:   4    -0.191492224140E+03    0.82859E-04   -0.77948E-04  9680   0.212E-01
  87 F= -.19149222E+03 E0= -.19140837E+03  d E =-.109343E-02
       N       E                     dE             d eps       ncg     rms          rms(c)
DAV:   1    -0.191494009724E+03   -0.17027E-02   -0.61984E-01  8160   0.167E+00    0.222E-01
DAV:   2    -0.191500656280E+03   -0.66466E-02   -0.25813E-02 12680   0.924E-01    0.695E-01
DAV:   3    -0.191494961551E+03    0.56947E-02   -0.80850E-03 12320   0.785E-01    0.140E-01
DAV:   4    -0.191495017518E+03   -0.55967E-04   -0.95155E-04  9680   0.246E-01
  88 F= -.19149502E+03 E0= -.19141165E+03  d E =-.279338E-02
       N       E                     dE             d eps       ncg     rms          rms(c)
DAV:   1    -0.191494284035E+03    0.67752E-03   -0.49235E-02  8160   0.491E-01    0.809E-02
DAV:   2    -0.191494892241E+03   -0.60821E-03   -0.30933E-03 11920   0.274E-01    0.198E-01
DAV:   3    -0.191494398411E+03    0.49383E-03   -0.89420E-04 10200   0.251E-01    0.558E-02
DAV:   4    -0.191494393295E+03    0.51152E-05   -0.12453E-04  5920   0.890E-02
  89 F= -.19149439E+03 E0= -.19141117E+03  d E =0.624222E-03
       N       E                     dE             d eps       ncg     rms          rms(c)
DAV:   1    -0.191495245164E+03   -0.84675E-03   -0.81663E-02  8160   0.612E-01    0.917E-02
DAV:   2    -0.191496067600E+03   -0.82244E-03   -0.29705E-03 13280   0.344E-01    0.272E-01
DAV:   3    -0.191495255276E+03    0.81232E-03   -0.11905E-03 10080   0.309E-01    0.587E-02
DAV:   4    -0.191495268569E+03   -0.13293E-04   -0.13784E-04  6000   0.913E-02
  90 F= -.19149527E+03 E0= -.19141198E+03  d E =-.875274E-03
       N       E                     dE             d eps       ncg     rms          rms(c)
DAV:   1    -0.191495086330E+03    0.16895E-03   -0.52716E-03  8160   0.203E-01    0.330E-02
DAV:   2    -0.191495186176E+03   -0.99846E-04   -0.30086E-04  9320   0.118E-01
  91 F= -.19149519E+03 E0= -.19141199E+03  d E =0.823930E-04
       N       E                     dE             d eps       ncg     rms          rms(c)
DAV:   1    -0.191495775665E+03   -0.68934E-03   -0.71760E-02  8160   0.574E-01    0.667E-02
DAV:   2    -0.191496297954E+03   -0.52229E-03   -0.25718E-03 13480   0.273E-01    0.193E-01
DAV:   3    -0.191495890917E+03    0.40704E-03   -0.63478E-04  8760   0.220E-01    0.429E-02
DAV:   4    -0.191495900657E+03   -0.97393E-05   -0.86590E-05  5640   0.723E-02
  92 F= -.19149590E+03 E0= -.19141291E+03  d E =-.714481E-03
