<?xml version="1.0" encoding="ISO-8859-1"?>
<modeling>
 <generator>
  <i name="program" type="string">vasp </i>
  <i name="version" type="string">5.4.1  </i>
  <i name="subversion" type="string">05Feb16 (build Jul 05 2020 17:13:04) complex                          parallel </i>
  <i name="platform" type="string">IFC91_ompi </i>
  <i name="date" type="string">2024 04 20 </i>
  <i name="time" type="string">11:33:14 </i>
 </generator>
 <incar>
  <i type="int" name="ISTART">     0</i>
  <i type="string" name="PREC">normal</i>
  <i type="string" name="ALGO"> Normal</i>
  <i type="int" name="ISPIN">     1</i>
  <i type="int" name="ICHARG">     2</i>
  <i type="int" name="IBRION">     1</i>
  <i type="int" name="NSW">   100</i>
  <i type="int" name="ISIF">     3</i>
  <i type="int" name="ISYM">     0</i>
  <i name="SYMPREC">      0.00000001</i>
  <i name="POTIM">      0.50000000</i>
  <i type="logical" name="LREAL"> F  </i>
  <i type="logical" name="LPLANE"> F  </i>
  <i type="int" name="ISMEAR">     0</i>
  <i type="logical" name="LWAVE"> F  </i>
  <i type="logical" name="LCHARG"> F  </i>
  <v type="int" name="KPOINT_BSE">    -1     0     0     0</v>
 </incar>
 <kpoints>
  <generation param="Gamma">
   <v type="int" name="divisions">       8        8        1 </v>
   <v name="usershift">      0.00000000       0.00000000       0.00000000 </v>
   <v name="genvec1">      0.12500000       0.00000000       0.00000000 </v>
   <v name="genvec2">     -0.00000000       0.12500000       0.00000000 </v>
   <v name="genvec3">      0.00000000       0.00000000       1.00000000 </v>
   <v name="shift">      0.00000000       0.00000000       0.00000000 </v>
  </generation>
  <varray name="kpointlist" >
   <v>       0.00000000       0.00000000       0.00000000 </v>
   <v>       0.12500000       0.00000000       0.00000000 </v>
   <v>       0.25000000       0.00000000       0.00000000 </v>
   <v>       0.37500000       0.00000000       0.00000000 </v>
   <v>       0.50000000       0.00000000       0.00000000 </v>
   <v>       0.00000000       0.12500000       0.00000000 </v>
   <v>       0.12500000       0.12500000       0.00000000 </v>
   <v>       0.25000000       0.12500000       0.00000000 </v>
   <v>       0.37500000       0.12500000       0.00000000 </v>
   <v>       0.50000000       0.12500000       0.00000000 </v>
   <v>      -0.37500000       0.12500000       0.00000000 </v>
   <v>      -0.25000000       0.12500000       0.00000000 </v>
   <v>      -0.12500000       0.12500000       0.00000000 </v>
   <v>       0.00000000       0.25000000       0.00000000 </v>
   <v>       0.12500000       0.25000000       0.00000000 </v>
   <v>       0.25000000       0.25000000       0.00000000 </v>
   <v>       0.37500000       0.25000000       0.00000000 </v>
   <v>       0.50000000       0.25000000       0.00000000 </v>
   <v>      -0.37500000       0.25000000       0.00000000 </v>
   <v>      -0.25000000       0.25000000       0.00000000 </v>
   <v>      -0.12500000       0.25000000       0.00000000 </v>
   <v>      -0.00000000       0.37500000       0.00000000 </v>
   <v>       0.12500000       0.37500000       0.00000000 </v>
   <v>       0.25000000       0.37500000       0.00000000 </v>
   <v>       0.37500000       0.37500000       0.00000000 </v>
   <v>       0.50000000       0.37500000       0.00000000 </v>
   <v>      -0.37500000       0.37500000       0.00000000 </v>
   <v>      -0.25000000       0.37500000       0.00000000 </v>
   <v>      -0.12500000       0.37500000       0.00000000 </v>
   <v>       0.00000000       0.50000000       0.00000000 </v>
   <v>       0.12500000       0.50000000       0.00000000 </v>
   <v>       0.25000000       0.50000000       0.00000000 </v>
   <v>       0.37500000       0.50000000       0.00000000 </v>
   <v>       0.50000000       0.50000000       0.00000000 </v>
  </varray>
  <varray name="weights" >
   <v>       0.01562500 </v>
   <v>       0.03125000 </v>
   <v>       0.03125000 </v>
   <v>       0.03125000 </v>
   <v>       0.01562500 </v>
   <v>       0.03125000 </v>
   <v>       0.03125000 </v>
   <v>       0.03125000 </v>
   <v>       0.03125000 </v>
   <v>       0.03125000 </v>
   <v>       0.03125000 </v>
   <v>       0.03125000 </v>
   <v>       0.03125000 </v>
   <v>       0.03125000 </v>
   <v>       0.03125000 </v>
   <v>       0.03125000 </v>
   <v>       0.03125000 </v>
   <v>       0.03125000 </v>
   <v>       0.03125000 </v>
   <v>       0.03125000 </v>
   <v>       0.03125000 </v>
   <v>       0.03125000 </v>
   <v>       0.03125000 </v>
   <v>       0.03125000 </v>
   <v>       0.03125000 </v>
   <v>       0.03125000 </v>
   <v>       0.03125000 </v>
   <v>       0.03125000 </v>
   <v>       0.03125000 </v>
   <v>       0.01562500 </v>
   <v>       0.03125000 </v>
   <v>       0.03125000 </v>
   <v>       0.03125000 </v>
   <v>       0.01562500 </v>
  </varray>
 </kpoints>
 <parameters>
  <separator name="general" >
   <i type="string" name="SYSTEM">unknown system</i>
   <i type="logical" name="LCOMPAT"> F  </i>
  </separator>
  <separator name="electronic" >
   <i type="string" name="PREC">normal</i>
   <i name="ENMAX">    280.00000000</i>
   <i name="ENAUG">    373.43800000</i>
   <i name="EDIFF">      0.00010000</i>
   <i type="int" name="IALGO">    38</i>
   <i type="int" name="IWAVPR">    11</i>
   <i type="int" name="NBANDS">   120</i>
   <i name="NELECT">    159.00000000</i>
   <i type="int" name="TURBO">     0</i>
   <i type="int" name="IRESTART">     0</i>
   <i type="int" name="NREBOOT">     0</i>
   <i type="int" name="NMIN">     0</i>
   <i name="EREF">      0.00000000</i>
   <separator name="electronic smearing" >
    <i type="int" name="ISMEAR">     0</i>
    <i name="SIGMA">      0.20000000</i>
    <i name="KSPACING">      0.50000000</i>
    <i type="logical" name="KGAMMA"> T  </i>
   </separator>
   <separator name="electronic projectors" >
    <i type="logical" name="LREAL"> F  </i>
    <v name="ROPT">      0.00000000      0.00000000      0.00000000      0.00000000</v>
    <i type="int" name="LMAXPAW">  -100</i>
    <i type="int" name="LMAXMIX">     2</i>
    <i type="logical" name="NLSPLINE"> F  </i>
   </separator>
   <separator name="electronic startup" >
    <i type="int" name="ISTART">     0</i>
    <i type="int" name="ICHARG">     2</i>
    <i type="int" name="INIWAV">     1</i>
   </separator>
   <separator name="electronic spin" >
    <i type="int" name="ISPIN">     1</i>
    <i type="logical" name="LNONCOLLINEAR"> F  </i>
    <v name="MAGMOM">      1.00000000      1.00000000      1.00000000      1.00000000      1.00000000      1.00000000      1.00000000      1.00000000      1.00000000      1.00000000      1.00000000      1.00000000      1.00000000      1.00000000      1.00000000      1.00000000      1.00000000      1.00000000      1.00000000      1.00000000
      1.00000000      1.00000000      1.00000000      1.00000000      1.00000000      1.00000000      1.00000000</v>
    <i name="NUPDOWN">     -1.00000000</i>
    <i type="logical" name="LSORBIT"> F  </i>
    <v name="SAXIS">      0.00000000      0.00000000      1.00000000</v>
    <i type="logical" name="LSPIRAL"> F  </i>
    <v name="QSPIRAL">      0.00000000      0.00000000      0.00000000</v>
    <i type="logical" name="LZEROZ"> F  </i>
   </separator>
   <separator name="electronic exchange-correlation" >
    <i type="logical" name="LASPH"> F  </i>
    <i type="logical" name="LMETAGGA"> F  </i>
   </separator>
   <separator name="electronic convergence" >
    <i type="int" name="NELM">    60</i>
    <i type="int" name="NELMDL">    -5</i>
    <i type="int" name="NELMIN">     2</i>
    <i name="ENINI">    280.00000000</i>
    <separator name="electronic convergence detail" >
     <i type="logical" name="LDIAG"> T  </i>
     <i type="logical" name="LSUBROT"> F  </i>
     <i name="WEIMIN">      0.00100000</i>
     <i name="EBREAK">      0.00000021</i>
     <i name="DEPER">      0.30000000</i>
     <i type="int" name="NRMM">     4</i>
     <i name="TIME">      0.40000000</i>
    </separator>
   </separator>
   <separator name="electronic mixer" >
    <i name="AMIX">      0.40000000</i>
    <i name="BMIX">      1.00000000</i>
    <i name="AMIN">      0.10000000</i>
    <i name="AMIX_MAG">      1.60000000</i>
    <i name="BMIX_MAG">      1.00000000</i>
    <separator name="electronic mixer details" >
     <i type="int" name="IMIX">     4</i>
     <i type="logical" name="MIXFIRST"> F  </i>
     <i type="int" name="MAXMIX">   -45</i>
     <i name="WC">    100.00000000</i>
     <i type="int" name="INIMIX">     1</i>
     <i type="int" name="MIXPRE">     1</i>
     <i type="int" name="MREMOVE">     5</i>
    </separator>
   </separator>
   <separator name="electronic dipolcorrection" >
    <i type="logical" name="LDIPOL"> F  </i>
    <i type="logical" name="LMONO"> F  </i>
    <i type="int" name="IDIPOL">     0</i>
    <i name="EPSILON">      1.00000000</i>
    <v name="DIPOL">   -100.00000000   -100.00000000   -100.00000000</v>
    <i name="EFIELD">      0.00000000</i>
   </separator>
  </separator>
  <separator name="grids" >
   <i type="int" name="NGX">    42</i>
   <i type="int" name="NGY">    42</i>
   <i type="int" name="NGZ">   126</i>
   <i type="int" name="NGXF">    84</i>
   <i type="int" name="NGYF">    84</i>
   <i type="int" name="NGZF">   252</i>
   <i type="logical" name="ADDGRID"> F  </i>
  </separator>
  <separator name="ionic" >
   <i type="int" name="NSW">   100</i>
   <i type="int" name="IBRION">     1</i>
   <i type="int" name="ISIF">     3</i>
   <i name="PSTRESS">      0.00000000</i>
   <i name="EDIFFG">      0.00100000</i>
   <i type="int" name="NFREE">     0</i>
   <i name="POTIM">      0.50000000</i>
   <i name="SMASS">     -3.00000000</i>
   <i name="SCALEE">      1.00000000</i>
  </separator>
  <separator name="ionic md" >
   <i name="TEBEG">      0.00010000</i>
   <i name="TEEND">      0.00010000</i>
   <i type="int" name="NBLOCK">     1</i>
   <i type="int" name="KBLOCK">   100</i>
   <i type="int" name="NPACO">   256</i>
   <i name="APACO">     16.00000000</i>
  </separator>
  <separator name="symmetry" >
   <i type="int" name="ISYM">     0</i>
   <i name="SYMPREC">      0.00000001</i>
  </separator>
  <separator name="dos" >
   <i type="logical" name="LORBIT"> F  </i>
   <v name="RWIGS">     -1.00000000     -1.00000000     -1.00000000     -1.00000000</v>
   <i type="int" name="NEDOS">   301</i>
   <i name="EMIN">     10.00000000</i>
   <i name="EMAX">    -10.00000000</i>
   <i name="EFERMI">      0.00000000</i>
  </separator>
  <separator name="writing" >
   <i type="int" name="NWRITE">     2</i>
   <i type="logical" name="LWAVE"> F  </i>
   <i type="logical" name="LCHARG"> F  </i>
   <i type="logical" name="LPARD"> F  </i>
   <i type="logical" name="LVTOT"> F  </i>
   <i type="logical" name="LVHAR"> F  </i>
   <i type="logical" name="LELF"> F  </i>
   <i type="logical" name="LOPTICS"> F  </i>
   <v name="STM">      0.00000000      0.00000000      0.00000000      0.00000000      0.00000000      0.00000000      0.00000000</v>
  </separator>
  <separator name="performance" >
   <i type="int" name="NPAR">    40</i>
   <i type="int" name="NSIM">     4</i>
   <i type="int" name="NBLK">    -1</i>
   <i type="logical" name="LPLANE"> F  </i>
   <i type="logical" name="LSCALAPACK"> T  </i>
   <i type="logical" name="LSCAAWARE"> F  </i>
   <i type="logical" name="LSCALU"> F  </i>
   <i type="logical" name="LASYNC"> F  </i>
   <i type="logical" name="LORBITALREAL"> F  </i>
  </separator>
  <separator name="miscellaneous" >
   <i type="int" name="IDIOT">     3</i>
   <i type="logical" name="LMUSIC"> F  </i>
   <v name="POMASS">     50.94100000     95.94000000    183.85000000     32.06600000</v>
   <v name="DARWINR">      0.00000000      0.00000000      0.00000000      0.00000000</v>
   <v name="DARWINV">      1.00000000      1.00000000      1.00000000      1.00000000</v>
   <i type="logical" name="LCORR"> T  </i>
  </separator>
  <i type="logical" name="GGA_COMPAT"> T  </i>
  <i type="logical" name="LBERRY"> F  </i>
  <i type="int" name="ICORELEVEL">     0</i>
  <i type="logical" name="LDAU"> F  </i>
  <i type="int" name="I_CONSTRAINED_M">     0</i>
  <separator name="electronic exchange-correlation" >
   <i type="string" name="GGA">--</i>
   <i type="int" name="VOSKOWN">     0</i>
   <i type="logical" name="LHFCALC"> F  </i>
   <i type="string" name="PRECFOCK"></i>
   <i type="logical" name="LSYMGRAD"> F  </i>
   <i type="logical" name="LHFONE"> F  </i>
   <i type="logical" name="LRHFCALC"> F  </i>
   <i type="logical" name="LTHOMAS"> F  </i>
   <i type="logical" name="LMODELHF"> F  </i>
   <i name="ENCUT4O">     -1.00000000</i>
   <i type="int" name="EXXOEP">     0</i>
   <i type="int" name="FOURORBIT">     0</i>
   <i name="AEXX">      0.00000000</i>
   <i name="HFALPHA">      0.00000000</i>
   <i name="MCALPHA">      0.00000000</i>
   <i name="ALDAX">      1.00000000</i>
   <i name="AGGAX">      1.00000000</i>
   <i name="ALDAC">      1.00000000</i>
   <i name="AGGAC">      1.00000000</i>
   <i type="int" name="NKREDX">     1</i>
   <i type="int" name="NKREDY">     1</i>
   <i type="int" name="NKREDZ">     1</i>
   <i type="logical" name="SHIFTRED"> F  </i>
   <i type="logical" name="ODDONLY"> F  </i>
   <i type="logical" name="EVENONLY"> F  </i>
   <i type="int" name="LMAXFOCK">     0</i>
   <i type="int" name="NMAXFOCKAE">     0</i>
   <i type="logical" name="LFOCKAEDFT"> F  </i>
   <i name="HFSCREEN">      0.00000000</i>
   <i name="HFSCREENC">      0.00000000</i>
   <i type="int" name="NBANDSGWLOW">     0</i>
  </separator>
  <separator name="vdW DFT" >
   <i type="logical" name="LUSE_VDW"> F  </i>
   <i name="Zab_VDW">     -0.84910000</i>
   <i name="PARAM1">      0.12340000</i>
   <i name="PARAM2">      1.00000000</i>
   <i name="PARAM3">      0.00000000</i>
  </separator>
  <separator name="model GW" >
   <i type="int" name="MODEL_GW">     0</i>
   <i name="MODEL_EPS0">     58.26239943</i>
   <i name="MODEL_ALPHA">      1.00000000</i>
  </separator>
  <separator name="linear response parameters" >
   <i type="logical" name="LEPSILON"> F  </i>
   <i type="logical" name="LRPA"> F  </i>
   <i type="logical" name="LNABLA"> F  </i>
   <i type="logical" name="LVEL"> F  </i>
   <i type="int" name="KINTER">     0</i>
   <i name="CSHIFT">      0.10000000</i>
   <i name="OMEGAMAX">     -1.00000000</i>
   <i name="DEG_THRESHOLD">      0.00200000</i>
  </separator>
  <separator name="orbital magnetization" >
   <i type="logical" name="NUCIND"> F  </i>
   <v name="MAGPOS">      0.00000000      0.00000000      0.00000000</v>
   <i type="logical" name="LNICSALL"> T  </i>
   <i type="logical" name="ORBITALMAG"> F  </i>
   <i type="logical" name="LMAGBLOCH"> F  </i>
   <i type="logical" name="LCHIMAG"> F  </i>
   <i type="logical" name="LGAUGE"> T  </i>
   <i type="int" name="MAGATOM">     0</i>
   <v name="MAGDIPOL">      0.00000000      0.00000000      0.00000000</v>
   <v name="AVECCONST">      0.00000000      0.00000000      0.00000000</v>
  </separator>
  <separator name="response functions" >
   <i type="logical" name="LADDER"> F  </i>
   <i type="logical" name="LFXC"> F  </i>
   <i type="logical" name="LHARTREE"> T  </i>
   <i type="int" name="IBSE">     0</i>
   <v type="int" name="KPOINT">    -1     0     0     0</v>
   <i type="logical" name="LTCTE"> F  </i>
   <i type="logical" name="LTETE"> F  </i>
   <i type="logical" name="LTRIPLET"> F  </i>
   <i type="logical" name="LFXCEPS"> F  </i>
   <i type="logical" name="LFXHEG"> F  </i>
   <i type="int" name="NATURALO">     0</i>
   <i type="logical" name="L2ORDER"> F  </i>
   <i type="logical" name="LUSEW"> F  </i>
   <i name="ENCUTGW">     -2.00000000</i>
   <i name="ENCUTGWSOFT">     -2.00000000</i>
   <i name="ENCUTLF">     -1.00000000</i>
   <i type="int" name="LMAXMP2">    -1</i>
   <i name="SCISSOR">      0.00000000</i>
   <i type="int" name="NOMEGA">     0</i>
   <i type="int" name="NOMEGAR">     0</i>
   <i type="int" name="NBANDSGW">    -1</i>
   <i type="int" name="NBANDSO">    -1</i>
   <i type="int" name="NBANDSV">    -1</i>
   <i type="int" name="NELM">     1</i>
   <i type="int" name="NELMHF">     1</i>
   <i type="int" name="DIM">     3</i>
   <i type="int" name="ANTIRES">     0</i>
   <i name="OMEGAMAX">    -30.00000000</i>
   <i name="OMEGAMIN">    -30.00000000</i>
   <i name="OMEGATL">   -200.00000000</i>
   <i type="int" name="OMEGAGRID">     0</i>
   <i name="CSHIFT">     -0.10000000</i>
   <i type="logical" name="SELFENERGY"> F  </i>
   <i type="logical" name="LSPECTRAL"> F  </i>
   <i type="logical" name="LSPECTRALGW"> F  </i>
   <i type="logical" name="LSINGLES"> F  </i>
   <i type="logical" name="LFERMIGW"> F  </i>
   <i type="logical" name="ODDONLYGW"> F  </i>
   <i type="logical" name="EVENONLYGW"> F  </i>
   <i type="int" name="NKREDLFX">     1</i>
   <i type="int" name="NKREDLFY">     1</i>
   <i type="int" name="NKREDLFZ">     1</i>
   <i type="int" name="MAXMEM">  1800</i>
   <i type="int" name="TELESCOPE">     0</i>
   <i type="int" name="TAUPAR">     1</i>
   <i type="int" name="OMEGAPAR">    -1</i>
   <i name="LAMBDA">      1.00000000</i>
  </separator>
  <separator name="External order field" >
   <i name="OFIELD_KAPPA">      0.00000000</i>
   <v name="OFIELD_K">      0.00000000      0.00000000      0.00000000</v>
   <i name="OFIELD_Q6_NEAR">      0.00000000</i>
   <i name="OFIELD_Q6_FAR">      0.00000000</i>
   <i name="OFIELD_A">      0.00000000</i>
  </separator>
 </parameters>
 <atominfo>
  <atoms>      27 </atoms>
  <types>       4 </types>
  <array name="atoms" >
   <dimension dim="1">ion</dimension>
   <field type="string">element</field>
   <field type="int">atomtype</field>
   <set>
    <rc><c>V </c><c>   1</c></rc>
    <rc><c>V </c><c>   1</c></rc>
    <rc><c>V </c><c>   1</c></rc>
    <rc><c>Mo</c><c>   2</c></rc>
    <rc><c>Mo</c><c>   2</c></rc>
    <rc><c>Mo</c><c>   2</c></rc>
    <rc><c>W </c><c>   3</c></rc>
    <rc><c>W </c><c>   3</c></rc>
    <rc><c>W </c><c>   3</c></rc>
    <rc><c>S </c><c>   4</c></rc>
    <rc><c>S </c><c>   4</c></rc>
    <rc><c>S </c><c>   4</c></rc>
    <rc><c>S </c><c>   4</c></rc>
    <rc><c>S </c><c>   4</c></rc>
    <rc><c>S </c><c>   4</c></rc>
    <rc><c>S </c><c>   4</c></rc>
    <rc><c>S </c><c>   4</c></rc>
    <rc><c>S </c><c>   4</c></rc>
    <rc><c>S </c><c>   4</c></rc>
    <rc><c>S </c><c>   4</c></rc>
    <rc><c>S </c><c>   4</c></rc>
    <rc><c>S </c><c>   4</c></rc>
    <rc><c>S </c><c>   4</c></rc>
    <rc><c>S </c><c>   4</c></rc>
    <rc><c>S </c><c>   4</c></rc>
    <rc><c>S </c><c>   4</c></rc>
    <rc><c>S </c><c>   4</c></rc>
   </set>
  </array>
  <array name="atomtypes" >
   <dimension dim="1">type</dimension>
   <field type="int">atomspertype</field>
   <field type="string">element</field>
   <field>mass</field>
   <field>valence</field>
   <field type="string">pseudopotential</field>
   <set>
    <rc><c>   3</c><c>V </c><c>     50.94100000</c><c>      5.00000000</c><c> PAW_PBE V 08Apr2002                    </c></rc>
    <rc><c>   3</c><c>Mo</c><c>     95.94000000</c><c>      6.00000000</c><c> PAW_PBE Mo 08Apr2002                   </c></rc>
    <rc><c>   3</c><c>W </c><c>    183.85000000</c><c>      6.00000000</c><c> PAW_PBE W 08Apr2002                    </c></rc>
    <rc><c>  18</c><c>S </c><c>     32.06600000</c><c>      6.00000000</c><c>  PAW_PBE S 17Jan2003                   </c></rc>
   </set>
  </array>
 </atominfo>
 <structure name="initialpos" >
  <crystal>
   <varray name="basis" >
    <v>       8.66999996       5.03999989       0.00000000 </v>
    <v>      -8.66999982       5.04000013       0.00000000 </v>
    <v>       0.00000000       0.00000000      30.00000000 </v>
   </varray>
   <i name="volume">   2621.80797419 </i>
   <varray name="rec_basis" >
    <v>       0.05767013       0.09920635       0.00000000 </v>
    <v>      -0.05767013       0.09920635       0.00000000 </v>
    <v>       0.00000000       0.00000000       0.03333333 </v>
   </varray>
  </crystal>
  <varray name="positions" >
   <v>       0.66666669       0.33333334       0.00000000 </v>
   <v>       1.00000000       0.33333334       0.00000000 </v>
   <v>       0.66666669       0.66666669       0.00000000 </v>
   <v>       0.33333334       0.33333334       0.00000000 </v>
   <v>       0.00000000       0.66666669       0.00000000 </v>
   <v>       0.66666669       0.00000000       0.00000000 </v>
   <v>       0.00000000       0.00000000       0.00000000 </v>
   <v>       0.33333334       0.00000000       0.00000000 </v>
   <v>       0.33333334       0.66666669       0.00000000 </v>
   <v>       0.11068511       0.22244981       0.95539999 </v>
   <v>       0.22244981       0.11068511       0.04460000 </v>
   <v>       0.11068511       0.55578315       0.95539999 </v>
   <v>       0.22244981       0.44401845       0.04460000 </v>
   <v>       0.11068511       0.88911647       0.95539999 </v>
   <v>       0.22244981       0.77735180       0.04460000 </v>
   <v>       0.44401845       0.22244981       0.95539999 </v>
   <v>       0.55578315       0.11068511       0.04460000 </v>
   <v>       0.44401845       0.55578315       0.95539999 </v>
   <v>       0.55578315       0.44401845       0.04460000 </v>
   <v>       0.44401845       0.88911647       0.95539999 </v>
   <v>       0.55578315       0.77735180       0.04460000 </v>
   <v>       0.77735180       0.22244981       0.95539999 </v>
   <v>       0.88911647       0.11068511       0.04460000 </v>
   <v>       0.77735180       0.55578315       0.95539999 </v>
   <v>       0.88911647       0.44401845       0.04460000 </v>
   <v>       0.77735180       0.88911647       0.95539999 </v>
   <v>       0.88911647       0.77735180       0.04460000 </v>
  </varray>
 </structure>
 <calculation>
  <scstep>
   <time name="dav">   22.84   22.90</time>
   <time name="total">   22.89   22.95</time>
   <energy>
    <i name="alphaZ">     81.65567618 </i>
    <i name="ewald">  41890.25210247 </i>
    <i name="hartreedc"> -47722.90108079 </i>
    <i name="XCdc">   -242.92644656 </i>
    <i name="pawpsdc">   3467.42045192 </i>
    <i name="pawaedc">  -2871.19716117 </i>
    <i name="eentropy">     -0.53704514 </i>
    <i name="bandstr">   -239.75656237 </i>
    <i name="atom">   6761.44252427 </i>
    <i name="e_fr_energy">   1123.45245882 </i>
    <i name="e_wo_entrp">   1123.98950396 </i>
    <i name="e_0_energy">   1123.72098139 </i>
   </energy>
  </scstep>
  <scstep>
   <time name="dav">   29.41   29.48</time>
   <time name="total">   29.41   29.49</time>
   <energy>
    <i name="e_fr_energy">     -2.73952698 </i>
    <i name="e_wo_entrp">     -2.53791272 </i>
    <i name="e_0_energy">     -2.63871985 </i>
   </energy>
  </scstep>
  <scstep>
   <time name="dav">   28.82   28.89</time>
   <time name="total">   28.82   28.89</time>
   <energy>
    <i name="e_fr_energy">   -199.85999647 </i>
    <i name="e_wo_entrp">   -199.58638937 </i>
    <i name="e_0_energy">   -199.72319292 </i>
   </energy>
  </scstep>
  <scstep>
   <time name="dav">   31.78   31.86</time>
   <time name="total">   31.78   31.86</time>
   <energy>
    <i name="e_fr_energy">   -209.08061732 </i>
    <i name="e_wo_entrp">   -208.75534086 </i>
    <i name="e_0_energy">   -208.91797909 </i>
   </energy>
  </scstep>
  <scstep>
   <time name="dav">   29.60   29.67</time>
   <time name="total">   30.07   30.14</time>
   <energy>
    <i name="e_fr_energy">   -209.39228939 </i>
    <i name="e_wo_entrp">   -209.06924258 </i>
    <i name="e_0_energy">   -209.23076598 </i>
   </energy>
  </scstep>
  <scstep>
   <time name="dav">   32.53   32.60</time>
   <time name="total">   33.02   33.11</time>
   <energy>
    <i name="e_fr_energy">   -237.04169264 </i>
    <i name="e_wo_entrp">   -236.74274504 </i>
    <i name="e_0_energy">   -236.89221884 </i>
   </energy>
  </scstep>
  <scstep>
   <time name="dav">   34.31   34.39</time>
   <time name="total">   34.90   35.00</time>
   <energy>
    <i name="e_fr_energy">   -196.39396560 </i>
    <i name="e_wo_entrp">   -196.10749025 </i>
    <i name="e_0_energy">   -196.25072792 </i>
   </energy>
  </scstep>
  <scstep>
   <time name="dav">   31.37   31.44</time>
   <time name="total">   31.97   32.05</time>
   <energy>
    <i name="e_fr_energy">   -189.12385201 </i>
    <i name="e_wo_entrp">   -188.81733692 </i>
    <i name="e_0_energy">   -188.97059446 </i>
   </energy>
  </scstep>
  <scstep>
   <time name="dav">   34.31   34.39</time>
   <time name="total">   34.92   35.01</time>
   <energy>
    <i name="e_fr_energy">   -187.41543892 </i>
    <i name="e_wo_entrp">   -187.10071354 </i>
    <i name="e_0_energy">   -187.25807623 </i>
   </energy>
  </scstep>
  <scstep>
   <time name="dav">   33.78   33.86</time>
   <time name="total">   34.40   34.49</time>
   <energy>
    <i name="e_fr_energy">   -186.97075711 </i>
    <i name="e_wo_entrp">   -186.61578405 </i>
    <i name="e_0_energy">   -186.79327058 </i>
   </energy>
  </scstep>
  <scstep>
   <time name="dav">   31.89   31.96</time>
   <time name="total">   32.50   32.58</time>
   <energy>
    <i name="e_fr_energy">   -186.96726526 </i>
    <i name="e_wo_entrp">   -186.62782235 </i>
    <i name="e_0_energy">   -186.79754380 </i>
   </energy>
  </scstep>
  <scstep>
   <time name="dav">   31.27   31.34</time>
   <time name="total">   31.88   31.97</time>
   <energy>
    <i name="e_fr_energy">   -186.87984802 </i>
    <i name="e_wo_entrp">   -186.54154291 </i>
    <i name="e_0_energy">   -186.71069547 </i>
   </energy>
  </scstep>
  <scstep>
   <time name="dav">   32.99   33.07</time>
   <time name="total">   33.60   33.69</time>
   <energy>
    <i name="e_fr_energy">   -186.86042877 </i>
    <i name="e_wo_entrp">   -186.51477127 </i>
    <i name="e_0_energy">   -186.68760002 </i>
   </energy>
  </scstep>
  <scstep>
   <time name="dav">   33.49   33.57</time>
   <time name="total">   34.10   34.19</time>
   <energy>
    <i name="e_fr_energy">   -186.84940015 </i>
    <i name="e_wo_entrp">   -186.50013539 </i>
    <i name="e_0_energy">   -186.67476777 </i>
   </energy>
  </scstep>
  <scstep>
   <time name="dav">   32.19   32.27</time>
   <time name="total">   32.80   32.89</time>
   <energy>
    <i name="e_fr_energy">   -186.83671538 </i>
    <i name="e_wo_entrp">   -186.48822310 </i>
    <i name="e_0_energy">   -186.66246924 </i>
   </energy>
  </scstep>
  <scstep>
   <time name="dav">   32.66   32.74</time>
   <time name="total">   33.28   33.37</time>
   <energy>
    <i name="e_fr_energy">   -186.83459560 </i>
    <i name="e_wo_entrp">   -186.48905091 </i>
    <i name="e_0_energy">   -186.66182325 </i>
   </energy>
  </scstep>
  <scstep>
   <time name="dav">   31.84   31.91</time>
   <time name="total">   32.45   32.54</time>
   <energy>
    <i name="e_fr_energy">   -186.83428953 </i>
    <i name="e_wo_entrp">   -186.48890573 </i>
    <i name="e_0_energy">   -186.66159763 </i>
   </energy>
  </scstep>
  <scstep>
   <time name="dav">   29.42   29.50</time>
   <time name="total">   30.03   30.13</time>
   <energy>
    <i name="e_fr_energy">   -186.83286697 </i>
    <i name="e_wo_entrp">   -186.48642602 </i>
    <i name="e_0_energy">   -186.65964650 </i>
   </energy>
  </scstep>
  <scstep>
   <time name="dav">   25.32   25.38</time>
   <time name="total">   25.93   26.00</time>
   <energy>
    <i name="e_fr_energy">   -186.83364952 </i>
    <i name="e_wo_entrp">   -186.48763266 </i>
    <i name="e_0_energy">   -186.66064109 </i>
   </energy>
  </scstep>
  <scstep>
   <time name="dav">   22.87   22.93</time>
   <time name="total">   23.49   23.55</time>
   <energy>
    <i name="e_fr_energy">   -186.83467685 </i>
    <i name="e_wo_entrp">   -186.48834953 </i>
    <i name="e_0_energy">   -186.66151319 </i>
   </energy>
  </scstep>
  <scstep>
   <time name="dav">   20.38   20.43</time>
   <time name="total">   21.00   21.06</time>
   <energy>
    <i name="e_fr_energy">   -186.83509755 </i>
    <i name="e_wo_entrp">   -186.48877638 </i>
    <i name="e_0_energy">   -186.66193696 </i>
   </energy>
  </scstep>
  <scstep>
   <time name="dav">   21.40   21.45</time>
   <time name="total">   22.02   22.08</time>
   <energy>
    <i name="e_fr_energy">   -186.83632336 </i>
    <i name="e_wo_entrp">   -186.49018740 </i>
    <i name="e_0_energy">   -186.66325538 </i>
   </energy>
  </scstep>
  <scstep>
   <time name="dav">   19.85   19.90</time>
   <time name="total">   20.46   20.52</time>
   <energy>
    <i name="e_fr_energy">   -186.83674905 </i>
    <i name="e_wo_entrp">   -186.49060714 </i>
    <i name="e_0_energy">   -186.66367809 </i>
   </energy>
  </scstep>
  <scstep>
   <time name="dav">   18.58   18.63</time>
   <time name="total">   19.20   19.26</time>
   <energy>
    <i name="e_fr_energy">   -186.83723018 </i>
    <i name="e_wo_entrp">   -186.49098267 </i>
    <i name="e_0_energy">   -186.66410643 </i>
   </energy>
  </scstep>
  <scstep>
   <time name="dav">   18.30   18.35</time>
   <time name="total">   18.91   18.97</time>
   <energy>
    <i name="e_fr_energy">   -186.83762263 </i>
    <i name="e_wo_entrp">   -186.49137154 </i>
    <i name="e_0_energy">   -186.66449709 </i>
   </energy>
  </scstep>
  <scstep>
   <time name="dav">   20.03   20.08</time>
   <time name="total">   20.65   20.70</time>
   <energy>
    <i name="e_fr_energy">   -186.83785452 </i>
    <i name="e_wo_entrp">   -186.49162795 </i>
    <i name="e_0_energy">   -186.66474123 </i>
   </energy>
  </scstep>
  <scstep>
   <time name="dav">   20.91   20.96</time>
   <time name="total">   20.95   21.01</time>
   <energy>
    <i name="alphaZ">     81.65567618 </i>
    <i name="ewald">  41890.25210247 </i>
    <i name="hartreedc"> -47832.71431404 </i>
    <i name="XCdc">   -231.61250377 </i>
    <i name="pawpsdc">   4191.99011665 </i>
    <i name="pawaedc">  -3609.98601484 </i>
    <i name="eentropy">     -0.34622880 </i>
    <i name="bandstr">  -1437.51930722 </i>
    <i name="atom">   6761.44252427 </i>
    <i name="e_fr_energy">   -186.83794911 </i>
    <i name="e_wo_entrp">   -186.49172031 </i>
    <i name="e_0_energy">   -186.66483471 </i>
   </energy>
  </scstep>
  <structure>
   <crystal>
    <varray name="basis" >
     <v>       8.66999996       5.03999989       0.00000000 </v>
     <v>      -8.66999982       5.04000013       0.00000000 </v>
     <v>       0.00000000       0.00000000      30.00000000 </v>
    </varray>
    <i name="volume">   2621.80797419 </i>
    <varray name="rec_basis" >
     <v>       0.05767013       0.09920635       0.00000000 </v>
     <v>      -0.05767013       0.09920635       0.00000000 </v>
     <v>       0.00000000       0.00000000       0.03333333 </v>
    </varray>
   </crystal>
   <varray name="positions" >
    <v>       0.66666669       0.33333334       0.00000000 </v>
    <v>       1.00000000       0.33333334       0.00000000 </v>
    <v>       0.66666669       0.66666669       0.00000000 </v>
    <v>       0.33333334       0.33333334       0.00000000 </v>
    <v>       0.00000000       0.66666669       0.00000000 </v>
    <v>       0.66666669       0.00000000       0.00000000 </v>
    <v>       0.00000000       0.00000000       0.00000000 </v>
    <v>       0.33333334       0.00000000       0.00000000 </v>
    <v>       0.33333334       0.66666669       0.00000000 </v>
    <v>       0.11068511       0.22244981       0.95539999 </v>
    <v>       0.22244981       0.11068511       0.04460000 </v>
    <v>       0.11068511       0.55578315       0.95539999 </v>
    <v>       0.22244981       0.44401845       0.04460000 </v>
    <v>       0.11068511       0.88911647       0.95539999 </v>
    <v>       0.22244981       0.77735180       0.04460000 </v>
    <v>       0.44401845       0.22244981       0.95539999 </v>
    <v>       0.55578315       0.11068511       0.04460000 </v>
    <v>       0.44401845       0.55578315       0.95539999 </v>
    <v>       0.55578315       0.44401845       0.04460000 </v>
    <v>       0.44401845       0.88911647       0.95539999 </v>
    <v>       0.55578315       0.77735180       0.04460000 </v>
    <v>       0.77735180       0.22244981       0.95539999 </v>
    <v>       0.88911647       0.11068511       0.04460000 </v>
    <v>       0.77735180       0.55578315       0.95539999 </v>
    <v>       0.88911647       0.44401845       0.04460000 </v>
    <v>       0.77735180       0.88911647       0.95539999 </v>
    <v>       0.88911647       0.77735180       0.04460000 </v>
   </varray>
  </structure>
  <varray name="forces" >
   <v>       0.00001770       0.09836584       0.00000005 </v>
   <v>      -0.08643527      -0.04006790      -0.10054303 </v>
   <v>       0.08644858      -0.04009572       0.10052979 </v>
   <v>       0.02949518       0.01196694       0.04380079 </v>
   <v>       0.00003238      -0.03723172       0.00000032 </v>
   <v>      -0.02952379       0.01202380      -0.04381487 </v>
   <v>      -0.06551303      -0.04515744      -0.12677677 </v>
   <v>      -0.00001532       0.07005248      -0.00000458 </v>
   <v>       0.06548624      -0.04522472       0.12676116 </v>
   <v>      -0.68170494      -0.16263964      -2.13751605 </v>
   <v>      -0.03617615      -0.11877104       2.89758930 </v>
   <v>       0.61588936      -0.58383771      -2.16154204 </v>
   <v>      -0.61677321      -0.52707350       2.13698988 </v>
   <v>       0.03746721       0.14893683      -2.91731605 </v>
   <v>      -0.03745497       0.14893530       2.91733856 </v>
   <v>       0.61194809       0.53707692      -2.15584248 </v>
   <v>      -0.61195242       0.53706110       2.15586970 </v>
   <v>       0.37653720       0.69724818      -2.14992706 </v>
   <v>       0.30760092       0.68361436       1.43376765 </v>
   <v>       0.03618317      -0.11877910      -2.89757175 </v>
   <v>       0.68166888      -0.16265188       2.13752503 </v>
   <v>      -0.30759175       0.68366342      -1.43376040 </v>
   <v>      -0.37655388       0.69727102       2.14992598 </v>
   <v>      -0.31382040      -0.66690863      -1.41640099 </v>
   <v>       0.31385007      -0.66692183       1.41639259 </v>
   <v>       0.61675931      -0.52703722      -2.13699124 </v>
   <v>      -0.61586916      -0.58381814       2.16151651 </v>
  </varray>
  <varray name="stress" >
   <v>       7.32215273       0.00005894      -1.61867410 </v>
   <v>       0.00005900       4.40707909      -0.00000047 </v>
   <v>      -1.61867429      -0.00000048      30.32128393 </v>
  </varray>
  <energy>
   <i name="e_fr_energy">   -186.83794911 </i>
   <i name="e_wo_entrp">   -186.66483471 </i>
   <i name="e_0_energy">     -0.34622880 </i>
  </energy>
  <time name="totalsc">  809.47  811.63</time>
 </calculation>
 <calculation>
  <scstep>
   <time name="dav">   22.84   22.89</time>
   <time name="total">   23.46   23.52</time>
   <energy>
    <i name="alphaZ">     78.92711880 </i>
    <i name="ewald">  39382.33985321 </i>
    <i name="hartreedc"> -45339.68686549 </i>
    <i name="XCdc">   -239.06762444 </i>
    <i name="pawpsdc">   4191.97990295 </i>
    <i name="pawaedc">  -3609.97580440 </i>
    <i name="eentropy">     -0.29908940 </i>
    <i name="bandstr">  -1413.09604567 </i>
    <i name="atom">   6761.44252427 </i>
    <i name="e_fr_energy">   -187.43603018 </i>
    <i name="e_wo_entrp">   -187.13694077 </i>
    <i name="e_0_energy">   -187.28648547 </i>
   </energy>
  </scstep>
  <scstep>
   <time name="dav">   31.70   31.78</time>
   <time name="total">   32.32   32.40</time>
   <energy>
    <i name="e_fr_energy">   -189.06835636 </i>
    <i name="e_wo_entrp">   -188.75937067 </i>
    <i name="e_0_energy">   -188.91386351 </i>
   </energy>
  </scstep>
  <scstep>
   <time name="dav">   32.04   32.12</time>
   <time name="total">   32.67   32.75</time>
   <energy>
    <i name="e_fr_energy">   -189.38217318 </i>
    <i name="e_wo_entrp">   -189.09202115 </i>
    <i name="e_0_energy">   -189.23709716 </i>
   </energy>
  </scstep>
  <scstep>
   <time name="dav">   32.27   32.35</time>
   <time name="total">   32.89   32.98</time>
   <energy>
    <i name="e_fr_energy">   -188.71428256 </i>
    <i name="e_wo_entrp">   -188.41985509 </i>
    <i name="e_0_energy">   -188.56706882 </i>
   </energy>
  </scstep>
  <scstep>
   <time name="dav">   27.41   27.47</time>
   <time name="total">   28.03   28.10</time>
   <energy>
    <i name="e_fr_energy">   -188.69688411 </i>
    <i name="e_wo_entrp">   -188.39701167 </i>
    <i name="e_0_energy">   -188.54694789 </i>
   </energy>
  </scstep>
  <scstep>
   <time name="dav">   32.59   32.67</time>
   <time name="total">   33.21   33.29</time>
   <energy>
    <i name="e_fr_energy">   -188.71296020 </i>
    <i name="e_wo_entrp">   -188.41136312 </i>
    <i name="e_0_energy">   -188.56216166 </i>
   </energy>
  </scstep>
  <scstep>
   <time name="dav">   32.01   32.09</time>
   <time name="total">   32.64   32.72</time>
   <energy>
    <i name="e_fr_energy">   -188.62698264 </i>
    <i name="e_wo_entrp">   -188.33232809 </i>
    <i name="e_0_energy">   -188.47965537 </i>
   </energy>
  </scstep>
  <scstep>
   <time name="dav">   30.44   30.51</time>
   <time name="total">   31.06   31.14</time>
   <energy>
    <i name="e_fr_energy">   -188.60483737 </i>
    <i name="e_wo_entrp">   -188.30956319 </i>
    <i name="e_0_energy">   -188.45720028 </i>
   </energy>
  </scstep>
  <scstep>
   <time name="dav">   30.62   30.69</time>
   <time name="total">   31.24   31.32</time>
   <energy>
    <i name="e_fr_energy">   -188.60298001 </i>
    <i name="e_wo_entrp">   -188.30742265 </i>
    <i name="e_0_energy">   -188.45520133 </i>
   </energy>
  </scstep>
  <scstep>
   <time name="dav">   32.92   33.00</time>
   <time name="total">   33.54   33.63</time>
   <energy>
    <i name="e_fr_energy">   -188.60254261 </i>
    <i name="e_wo_entrp">   -188.30758325 </i>
    <i name="e_0_energy">   -188.45506293 </i>
   </energy>
  </scstep>
  <scstep>
   <time name="dav">   32.33   32.41</time>
   <time name="total">   32.95   33.04</time>
   <energy>
    <i name="e_fr_energy">   -188.60269857 </i>
    <i name="e_wo_entrp">   -188.30777017 </i>
    <i name="e_0_energy">   -188.45523437 </i>
   </energy>
  </scstep>
  <scstep>
   <time name="dav">   29.99   30.06</time>
   <time name="total">   30.61   30.69</time>
   <energy>
    <i name="e_fr_energy">   -188.60245250 </i>
    <i name="e_wo_entrp">   -188.30750600 </i>
    <i name="e_0_energy">   -188.45497925 </i>
   </energy>
  </scstep>
  <scstep>
   <time name="dav">   21.81   21.87</time>
   <time name="total">   21.85   21.91</time>
   <energy>
    <i name="alphaZ">     78.92711880 </i>
    <i name="ewald">  39382.33985321 </i>
    <i name="hartreedc"> -45350.51537962 </i>
    <i name="XCdc">   -237.98493882 </i>
    <i name="pawpsdc">   3950.09494528 </i>
    <i name="pawaedc">  -3364.58829003 </i>
    <i name="eentropy">     -0.29494829 </i>
    <i name="bandstr">  -1408.02330675 </i>
    <i name="atom">   6761.44252427 </i>
    <i name="e_fr_energy">   -188.60242195 </i>
    <i name="e_wo_entrp">   -188.30747366 </i>
    <i name="e_0_energy">   -188.45494780 </i>
   </energy>
  </scstep>
  <structure>
   <crystal>
    <varray name="basis" >
     <v>       8.85561692       5.10494540       0.00000000 </v>
     <v>      -8.85561504       5.10494265       0.00000000 </v>
     <v>       0.00000000       0.00000000      30.00000000 </v>
    </varray>
    <i name="volume">   2712.44543303 </i>
    <varray name="rec_basis" >
     <v>       0.05646133       0.09794426       0.00000000 </v>
     <v>      -0.05646136       0.09794428       0.00000000 </v>
     <v>       0.00000000       0.00000000       0.03333333 </v>
    </varray>
   </crystal>
   <varray name="positions" >
    <v>       0.66713751       0.33380407       0.00000000 </v>
    <v>       0.99956776       0.33338206      -0.00016168 </v>
    <v>       0.66671530       0.66623428       0.00016166 </v>
    <v>       0.33347268       0.33330856       0.00007044 </v>
    <v>      -0.00017810       0.66648841       0.00000000 </v>
    <v>       0.66664209       0.00013969      -0.00007046 </v>
    <v>      -0.00039839      -0.00003385      -0.00020387 </v>
    <v>       0.33366857       0.00033531      -0.00000001 </v>
    <v>       0.33329909       0.66626805       0.00020384 </v>
    <v>       0.10801011       0.22356803       0.95196268 </v>
    <v>       0.22178073       0.11021732       0.04925958 </v>
    <v>       0.10960438       0.55127542       0.95192404 </v>
    <v>       0.21821129       0.44321185       0.04803647 </v>
    <v>       0.11150216       0.88972503       0.95070869 </v>
    <v>       0.22305840       0.77816880       0.04929134 </v>
    <v>       0.44829143       0.22331771       0.95193320 </v>
    <v>       0.55665097       0.11495802       0.04806683 </v>
    <v>       0.44840305       0.55807258       0.95194272 </v>
    <v>       0.55991071       0.44643442       0.04690562 </v>
    <v>       0.44355065       0.88844732       0.95074044 </v>
    <v>       0.55690122       0.77467684       0.04803733 </v>
    <v>       0.77976802       0.22657758       0.95309438 </v>
    <v>       0.89140596       0.11506987       0.04805727 </v>
    <v>       0.77328689       0.55346444       0.95312229 </v>
    <v>       0.88679777       0.43995340       0.04687768 </v>
    <v>       0.77654533       0.88487815       0.95196352 </v>
    <v>       0.88460888       0.77627110       0.04807591 </v>
   </varray>
  </structure>
  <varray name="forces" >
   <v>       0.00044004       0.01721064       0.00000660 </v>
   <v>      -0.00918843      -0.02024959      -0.03037733 </v>
   <v>       0.00927313      -0.02033088       0.03035869 </v>
   <v>       0.02754682      -0.13601339       0.00529732 </v>
   <v>       0.00060407       0.27926400      -0.00001032 </v>
   <v>      -0.02821495      -0.13491206      -0.00535133 </v>
   <v>       0.07812060       0.06735072      -0.03634975 </v>
   <v>      -0.00004242      -0.10133221       0.00018774 </v>
   <v>      -0.07867302       0.06671227       0.03632911 </v>
   <v>       0.00031489      -0.11535940      -0.03385431 </v>
   <v>       0.07353677      -0.12350497      -0.00061151 </v>
   <v>       0.09566604       0.03649005       0.01578408 </v>
   <v>      -0.09512782       0.04044658      -0.01939309 </v>
   <v>      -0.08903651       0.11750305      -0.04532991 </v>
   <v>       0.08884798       0.11780350       0.04544773 </v>
   <v>       0.08367842      -0.02665569       0.02439919 </v>
   <v>      -0.08385736      -0.02688581      -0.02456709 </v>
   <v>      -0.09820854       0.05952567       0.07307831 </v>
   <v>       0.01710235       0.05364077      -0.02938265 </v>
   <v>      -0.07313508      -0.12353563       0.00055484 </v>
   <v>      -0.00123855      -0.11521732       0.03458523 </v>
   <v>      -0.01678598       0.05430497       0.03061008 </v>
   <v>       0.09795494       0.06026977      -0.07400091 </v>
   <v>       0.00029943      -0.05235354       0.06754938 </v>
   <v>       0.00064792      -0.05239027      -0.06853941 </v>
   <v>       0.09459718       0.04109607       0.01863547 </v>
   <v>      -0.09512190       0.03712268      -0.01505616 </v>
  </varray>
  <varray name="stress" >
   <v>     -19.85704380       0.00029359       0.00549967 </v>
   <v>       0.00029361     -19.45200176       0.00017006 </v>
   <v>       0.00549971       0.00016996      -1.70568505 </v>
  </varray>
  <energy>
   <i name="e_fr_energy">   -188.60242195 </i>
   <i name="e_wo_entrp">   -188.45494780 </i>
   <i name="e_0_energy">     -0.29494829 </i>
  </energy>
  <time name="totalsc">  440.41  441.57</time>
 </calculation>
 <calculation>
  <scstep>
   <time name="dav">   25.37   25.43</time>
   <time name="total">   25.98   26.05</time>
   <energy>
    <i name="alphaZ">     82.35756093 </i>
    <i name="ewald">  41308.62220490 </i>
    <i name="hartreedc"> -47307.29111834 </i>
    <i name="XCdc">   -233.85884942 </i>
    <i name="pawpsdc">   3949.06329468 </i>
    <i name="pawaedc">  -3363.54755468 </i>
    <i name="eentropy">     -0.24448453 </i>
    <i name="bandstr">  -1387.04909567 </i>
    <i name="atom">   6761.44252427 </i>
    <i name="e_fr_energy">   -190.50551785 </i>
    <i name="e_wo_entrp">   -190.26103332 </i>
    <i name="e_0_energy">   -190.38327559 </i>
   </energy>
  </scstep>
  <scstep>
   <time name="dav">   29.08   29.15</time>
   <time name="total">   29.69   29.76</time>
   <energy>
    <i name="e_fr_energy">   -190.56769065 </i>
    <i name="e_wo_entrp">   -190.31499361 </i>
    <i name="e_0_energy">   -190.44134213 </i>
   </energy>
  </scstep>
  <scstep>
   <time name="dav">   31.75   31.83</time>
   <time name="total">   32.36   32.44</time>
   <energy>
    <i name="e_fr_energy">   -189.97143637 </i>
    <i name="e_wo_entrp">   -189.71862489 </i>
    <i name="e_0_energy">   -189.84503063 </i>
   </energy>
  </scstep>
  <scstep>
   <time name="dav">   32.57   32.65</time>
   <time name="total">   33.19   33.28</time>
   <energy>
    <i name="e_fr_energy">   -189.76928374 </i>
    <i name="e_wo_entrp">   -189.51748912 </i>
    <i name="e_0_energy">   -189.64338643 </i>
   </energy>
  </scstep>
  <scstep>
   <time name="dav">   31.55   31.63</time>
   <time name="total">   32.16   32.25</time>
   <energy>
    <i name="e_fr_energy">   -189.70735800 </i>
    <i name="e_wo_entrp">   -189.45927212 </i>
    <i name="e_0_energy">   -189.58331506 </i>
   </energy>
  </scstep>
  <scstep>
   <time name="dav">   31.52   31.60</time>
   <time name="total">   32.13   32.22</time>
   <energy>
    <i name="e_fr_energy">   -189.67197647 </i>
    <i name="e_wo_entrp">   -189.42250363 </i>
    <i name="e_0_energy">   -189.54724005 </i>
   </energy>
  </scstep>
  <scstep>
   <time name="dav">   31.25   31.32</time>
   <time name="total">   31.86   31.94</time>
   <energy>
    <i name="e_fr_energy">   -189.66590356 </i>
    <i name="e_wo_entrp">   -189.41566983 </i>
    <i name="e_0_energy">   -189.54078670 </i>
   </energy>
  </scstep>
  <scstep>
   <time name="dav">   28.68   28.75</time>
   <time name="total">   29.30   29.37</time>
   <energy>
    <i name="e_fr_energy">   -189.66593056 </i>
    <i name="e_wo_entrp">   -189.41607180 </i>
    <i name="e_0_energy">   -189.54100118 </i>
   </energy>
  </scstep>
  <scstep>
   <time name="dav">   27.73   27.79</time>
   <time name="total">   28.34   28.41</time>
   <energy>
    <i name="e_fr_energy">   -189.66637682 </i>
    <i name="e_wo_entrp">   -189.41661229 </i>
    <i name="e_0_energy">   -189.54149456 </i>
   </energy>
  </scstep>
  <scstep>
   <time name="dav">   26.97   27.03</time>
   <time name="total">   27.58   27.66</time>
   <energy>
    <i name="e_fr_energy">   -189.66605614 </i>
    <i name="e_wo_entrp">   -189.41614066 </i>
    <i name="e_0_energy">   -189.54109840 </i>
   </energy>
  </scstep>
  <scstep>
   <time name="dav">   20.95   21.00</time>
   <time name="total">   20.99   21.05</time>
   <energy>
    <i name="alphaZ">     82.35756093 </i>
    <i name="ewald">  41308.62220490 </i>
    <i name="hartreedc"> -47280.72568089 </i>
    <i name="XCdc">   -235.25520320 </i>
    <i name="pawpsdc">   4038.29338741 </i>
    <i name="pawaedc">  -3453.98276182 </i>
    <i name="eentropy">     -0.24987161 </i>
    <i name="bandstr">  -1410.16823621 </i>
    <i name="atom">   6761.44252427 </i>
    <i name="e_fr_energy">   -189.66607623 </i>
    <i name="e_wo_entrp">   -189.41620462 </i>
    <i name="e_0_energy">   -189.54114042 </i>
   </energy>
  </scstep>
  <structure>
   <crystal>
    <varray name="basis" >
     <v>       8.66730488       4.99860644       0.00000000 </v>
     <v>      -8.66729983       4.99859819       0.00000000 </v>
     <v>       0.00000000       0.00000000      30.00000000 </v>
    </varray>
    <i name="volume">   2599.46385639 </i>
    <varray name="rec_basis" >
     <v>       0.05768803       0.10002793       0.00000000 </v>
     <v>      -0.05768812       0.10002799       0.00000000 </v>
     <v>       0.00000000       0.00000000       0.03333333 </v>
    </varray>
   </crystal>
   <varray name="positions" >
    <v>       0.66716673       0.33383244       0.00000000 </v>
    <v>       0.99952503       0.33335704      -0.00017898 </v>
    <v>       0.66669024       0.66619132       0.00017894 </v>
    <v>       0.33327172       0.33305447       0.00007345 </v>
    <v>       0.00028963       0.66695497      -0.00000001 </v>
    <v>       0.66638921      -0.00005879      -0.00007350 </v>
    <v>      -0.00021039       0.00000348      -0.00022456 </v>
    <v>       0.33349902       0.00016585       0.00000010 </v>
    <v>       0.33333482       0.66645551       0.00022453 </v>
    <v>       0.10781744       0.22337476       0.95194340 </v>
    <v>       0.22164504       0.10993981       0.04925923 </v>
    <v>       0.10975767       0.55124420       0.95193303 </v>
    <v>       0.21818721       0.44337124       0.04802543 </v>
    <v>       0.11161286       0.89000745       0.95068288 </v>
    <v>       0.22334114       0.77828019       0.04931721 </v>
    <v>       0.44832753       0.22319243       0.95194710 </v>
    <v>       0.55652513       0.11499391       0.04805284 </v>
    <v>       0.44840793       0.55826686       0.95198432 </v>
    <v>       0.56001693       0.44650766       0.04688890 </v>
    <v>       0.44327347       0.88831120       0.95074075 </v>
    <v>       0.55670729       0.77448530       0.04805702 </v>
    <v>       0.77984268       0.22668460       0.95311180 </v>
    <v>       0.89160123       0.11507623       0.04801514 </v>
    <v>       0.77319960       0.55337658       0.95316075 </v>
    <v>       0.88671076       0.43986514       0.04683866 </v>
    <v>       0.77670530       0.88485568       0.95197413 </v>
    <v>       0.88457925       0.77642493       0.04806734 </v>
   </varray>
  </structure>
  <varray name="forces" >
   <v>       0.00051421      -0.03316388       0.00003258 </v>
   <v>       0.03833317       0.00144000      -0.00507719 </v>
   <v>      -0.03782734       0.00109717       0.00528320 </v>
   <v>       0.02501620      -0.19106256      -0.00695055 </v>
   <v>       0.00090724       0.38122299       0.00006900 </v>
   <v>      -0.02589556      -0.18942703       0.00699473 </v>
   <v>       0.13831493       0.10618522      -0.00058412 </v>
   <v>      -0.00016743      -0.17689065      -0.00029329 </v>
   <v>      -0.13911182       0.10424054       0.00065734 </v>
   <v>      -0.11521887      -0.04469324      -0.54563987 </v>
   <v>       0.03510130      -0.06833922       0.55736489 </v>
   <v>       0.09493733      -0.08398625      -0.48257917 </v>
   <v>      -0.09465099      -0.09891152       0.48003682 </v>
   <v>      -0.04749707       0.06186295      -0.61703423 </v>
   <v>       0.04756686       0.06186406       0.61724050 </v>
   <v>       0.08598962       0.10590786      -0.47339656 </v>
   <v>      -0.08617806       0.10596658       0.47372290 </v>
   <v>       0.01834915       0.11845660      -0.41249251 </v>
   <v>       0.05891646       0.11510822       0.42376057 </v>
   <v>      -0.03528247      -0.06845824      -0.55716508 </v>
   <v>       0.11491952      -0.04490002       0.54532766 </v>
   <v>      -0.05878529       0.11579519      -0.42401401 </v>
   <v>      -0.01853876       0.11902794       0.41266874 </v>
   <v>      -0.03520790      -0.10806948      -0.37437297 </v>
   <v>       0.03566564      -0.10811918       0.37419582 </v>
   <v>       0.09454194      -0.09856843      -0.48000417 </v>
   <v>      -0.09471202      -0.08358560       0.48224898 </v>
  </varray>
  <varray name="stress" >
   <v>     -10.17570792       0.00106990      -0.00529397 </v>
   <v>       0.00106979      -9.82573821      -0.00009797 </v>
   <v>      -0.00529415      -0.00009808       6.56818989 </v>
  </varray>
  <energy>
   <i name="e_fr_energy">   -189.66607623 </i>
   <i name="e_wo_entrp">   -189.54114042 </i>
   <i name="e_0_energy">     -0.24987161 </i>
  </energy>
  <time name="totalsc">  367.24  368.20</time>
 </calculation>
 <calculation>
  <scstep>
   <time name="dav">   22.81   22.86</time>
   <time name="total">   23.41   23.47</time>
   <energy>
    <i name="alphaZ">     85.85697079 </i>
    <i name="ewald">  42847.58348923 </i>
    <i name="hartreedc"> -48864.59493614 </i>
    <i name="XCdc">   -232.95850272 </i>
    <i name="pawpsdc">   4038.40821978 </i>
    <i name="pawaedc">  -3454.09541966 </i>
    <i name="eentropy">     -0.19675058 </i>
    <i name="bandstr">  -1372.61756554 </i>
    <i name="atom">   6761.44252427 </i>
    <i name="e_fr_energy">   -191.17197056 </i>
    <i name="e_wo_entrp">   -190.97521998 </i>
    <i name="e_0_energy">   -191.07359527 </i>
   </energy>
  </scstep>
  <scstep>
   <time name="dav">   34.28   34.36</time>
   <time name="total">   34.88   34.97</time>
   <energy>
    <i name="e_fr_energy">   -191.12148784 </i>
    <i name="e_wo_entrp">   -190.91037013 </i>
    <i name="e_0_energy">   -191.01592898 </i>
   </energy>
  </scstep>
  <scstep>
   <time name="dav">   31.57   31.65</time>
   <time name="total">   32.17   32.26</time>
   <energy>
    <i name="e_fr_energy">   -191.02855616 </i>
    <i name="e_wo_entrp">   -190.81655812 </i>
    <i name="e_0_energy">   -190.92255714 </i>
   </energy>
  </scstep>
  <scstep>
   <time name="dav">   33.73   33.81</time>
   <time name="total">   34.33   34.42</time>
   <energy>
    <i name="e_fr_energy">   -190.66150787 </i>
    <i name="e_wo_entrp">   -190.45618655 </i>
    <i name="e_0_energy">   -190.55884721 </i>
   </energy>
  </scstep>
  <scstep>
   <time name="dav">   31.53   31.60</time>
   <time name="total">   32.13   32.21</time>
   <energy>
    <i name="e_fr_energy">   -190.61148479 </i>
    <i name="e_wo_entrp">   -190.40683330 </i>
    <i name="e_0_energy">   -190.50915904 </i>
   </energy>
  </scstep>
  <scstep>
   <time name="dav">   31.66   31.73</time>
   <time name="total">   32.25   32.34</time>
   <energy>
    <i name="e_fr_energy">   -190.56519579 </i>
    <i name="e_wo_entrp">   -190.35888997 </i>
    <i name="e_0_energy">   -190.46204288 </i>
   </energy>
  </scstep>
  <scstep>
   <time name="dav">   31.56   31.64</time>
   <time name="total">   32.17   32.25</time>
   <energy>
    <i name="e_fr_energy">   -190.56143855 </i>
    <i name="e_wo_entrp">   -190.35518104 </i>
    <i name="e_0_energy">   -190.45830979 </i>
   </energy>
  </scstep>
  <scstep>
   <time name="dav">   28.96   29.02</time>
   <time name="total">   29.55   29.63</time>
   <energy>
    <i name="e_fr_energy">   -190.55783033 </i>
    <i name="e_wo_entrp">   -190.35219840 </i>
    <i name="e_0_energy">   -190.45501437 </i>
   </energy>
  </scstep>
  <scstep>
   <time name="dav">   28.60   28.67</time>
   <time name="total">   29.20   29.28</time>
   <energy>
    <i name="e_fr_energy">   -190.55754933 </i>
    <i name="e_wo_entrp">   -190.35196843 </i>
    <i name="e_0_energy">   -190.45475888 </i>
   </energy>
  </scstep>
  <scstep>
   <time name="dav">   29.69   29.76</time>
   <time name="total">   30.29   30.37</time>
   <energy>
    <i name="e_fr_energy">   -190.55759451 </i>
    <i name="e_wo_entrp">   -190.35217332 </i>
    <i name="e_0_energy">   -190.45488391 </i>
   </energy>
  </scstep>
  <scstep>
   <time name="dav">   25.43   25.49</time>
   <time name="total">   25.47   25.53</time>
   <energy>
    <i name="alphaZ">     85.85697079 </i>
    <i name="ewald">  42847.58348923 </i>
    <i name="hartreedc"> -48835.78911601 </i>
    <i name="XCdc">   -234.31518274 </i>
    <i name="pawpsdc">   4061.75814519 </i>
    <i name="pawaedc">  -3477.60342288 </i>
    <i name="eentropy">     -0.20544650 </i>
    <i name="bandstr">  -1399.28546962 </i>
    <i name="atom">   6761.44252427 </i>
    <i name="e_fr_energy">   -190.55750825 </i>
    <i name="e_wo_entrp">   -190.35206175 </i>
    <i name="e_0_energy">   -190.45478500 </i>
   </energy>
  </scstep>
  <structure>
   <crystal>
    <varray name="basis" >
     <v>       8.48379366       4.89864667       0.00000000 </v>
     <v>      -8.48373718       4.89854922       0.00000000 </v>
     <v>       0.00000000       0.00000000      30.00000000 </v>
    </varray>
    <i name="volume">   2493.51335093 </i>
    <varray name="rec_basis" >
     <v>       0.05893551       0.10206968       0.00000000 </v>
     <v>      -0.05893668       0.10207036       0.00000000 </v>
     <v>       0.00000000       0.00000000       0.03333333 </v>
    </varray>
   </crystal>
   <varray name="positions" >
    <v>       0.66683428       0.33349605       0.00000009 </v>
    <v>       0.99979584       0.33321293      -0.00016795 </v>
    <v>       0.66654576       0.66645689       0.00016854 </v>
    <v>       0.33202091       0.33162972       0.00004859 </v>
    <v>       0.00294287       0.66960076       0.00000021 </v>
    <v>       0.66497257      -0.00129449      -0.00004847 </v>
    <v>       0.00114167       0.00017964      -0.00019530 </v>
    <v>       0.33219811      -0.00113350      -0.00000092 </v>
    <v>       0.33349227       0.66779534       0.00019549 </v>
    <v>       0.10712953       0.22385517       0.95037501 </v>
    <v>       0.22142566       0.10957707       0.05089131 </v>
    <v>       0.10927141       0.55007220       0.95050693 </v>
    <v>       0.21687487       0.44274330       0.04944715 </v>
    <v>       0.11174995       0.89036876       0.94891528 </v>
    <v>       0.22370233       0.77841591       0.05108532 </v>
    <v>       0.44963944       0.22387465       0.95054054 </v>
    <v>       0.55720775       0.11630762       0.04946050 </v>
    <v>       0.44953415       0.55892365       0.95071457 </v>
    <v>       0.56116755       0.44711070       0.04815440 </v>
    <v>       0.44290827       0.88809235       0.94910930 </v>
    <v>       0.55718535       0.77379540       0.04962387 </v>
    <v>       0.78045030       0.22783939       0.95184451 </v>
    <v>       0.89226059       0.11620620       0.04928620 </v>
    <v>       0.77220258       0.55273715       0.95200729 </v>
    <v>       0.88607194       0.43886682       0.04799245 </v>
    <v>       0.77607895       0.88354451       0.95055314 </v>
    <v>       0.88340954       0.77594025       0.04949184 </v>
   </varray>
  </structure>
  <varray name="forces" >
   <v>      -0.00076191      -0.07242097      -0.00007959 </v>
   <v>       0.09577916       0.02372320       0.05129371 </v>
   <v>      -0.09602378       0.02384718      -0.05167507 </v>
   <v>       0.02759721      -0.23327412      -0.01662882 </v>
   <v>      -0.00100047       0.44294513       0.00008030 </v>
   <v>      -0.02636560      -0.23500044       0.01643412 </v>
   <v>       0.21415563       0.14870032       0.03453176 </v>
   <v>      -0.00002461      -0.27077350       0.00038982 </v>
   <v>      -0.21309562       0.15063149      -0.03464291 </v>
   <v>      -0.04661558      -0.02696589      -0.40907177 </v>
   <v>       0.00755863      -0.01495226       0.40025171 </v>
   <v>       0.01752927      -0.02002860      -0.31998903 </v>
   <v>      -0.03697116      -0.03673047       0.28994239 </v>
   <v>      -0.01631748       0.03059935      -0.49720230 </v>
   <v>       0.01616813       0.03063062       0.49711389 </v>
   <v>       0.03824334       0.04217293      -0.30239302 </v>
   <v>      -0.03824972       0.04205660       0.30198276 </v>
   <v>       0.02631312       0.01205142      -0.21966076 </v>
   <v>       0.01594693       0.01236688       0.31925969 </v>
   <v>      -0.00729336      -0.01481113      -0.39983217 </v>
   <v>       0.04711709      -0.02699568       0.40794679 </v>
   <v>      -0.01629133       0.01164400      -0.31969616 </v>
   <v>      -0.02590852       0.01114769       0.22040663 </v>
   <v>       0.02223550       0.01367144      -0.23466156 </v>
   <v>      -0.02308685       0.01367868       0.23554569 </v>
   <v>       0.03734368      -0.03721881      -0.28881895 </v>
   <v>      -0.01798170      -0.02069505       0.31917285 </v>
  </varray>
  <varray name="stress" >
   <v>      -5.90542672      -0.00248871      -0.10407694 </v>
   <v>      -0.00248867      -5.93813477      -0.00079365 </v>
   <v>      -0.10407686      -0.00079357       4.56918640 </v>
  </varray>
  <energy>
   <i name="e_fr_energy">   -190.55750825 </i>
   <i name="e_wo_entrp">   -190.45478500 </i>
   <i name="e_0_energy">     -0.20544650 </i>
  </energy>
  <time name="totalsc">  379.78  380.78</time>
 </calculation>
 <calculation>
  <scstep>
   <time name="dav">   22.78   22.83</time>
   <time name="total">   23.38   23.43</time>
   <energy>
    <i name="alphaZ">     90.52209193 </i>
    <i name="ewald">  44821.53576415 </i>
    <i name="hartreedc"> -50868.70387473 </i>
    <i name="XCdc">   -231.62943030 </i>
    <i name="pawpsdc">   4061.70155201 </i>
    <i name="pawaedc">  -3477.54281060 </i>
    <i name="eentropy">     -0.15935606 </i>
    <i name="bandstr">  -1349.18104448 </i>
    <i name="atom">   6761.44252427 </i>
    <i name="e_fr_energy">   -192.01458381 </i>
    <i name="e_wo_entrp">   -191.85522775 </i>
    <i name="e_0_energy">   -191.93490578 </i>
   </energy>
  </scstep>
  <scstep>
   <time name="dav">   33.20   33.28</time>
   <time name="total">   33.80   33.88</time>
   <energy>
    <i name="e_fr_energy">   -191.68702265 </i>
    <i name="e_wo_entrp">   -191.50641906 </i>
    <i name="e_0_energy">   -191.59672086 </i>
   </energy>
  </scstep>
  <scstep>
   <time name="dav">   31.51   31.59</time>
   <time name="total">   32.11   32.19</time>
   <energy>
    <i name="e_fr_energy">   -192.00412888 </i>
    <i name="e_wo_entrp">   -191.82798579 </i>
    <i name="e_0_energy">   -191.91605733 </i>
   </energy>
  </scstep>
  <scstep>
   <time name="dav">   32.09   32.17</time>
   <time name="total">   32.69   32.78</time>
   <energy>
    <i name="e_fr_energy">   -191.34552227 </i>
    <i name="e_wo_entrp">   -191.17290963 </i>
    <i name="e_0_energy">   -191.25921595 </i>
   </energy>
  </scstep>
  <scstep>
   <time name="dav">   31.56   31.64</time>
   <time name="total">   32.15   32.24</time>
   <energy>
    <i name="e_fr_energy">   -191.29057476 </i>
    <i name="e_wo_entrp">   -191.12197493 </i>
    <i name="e_0_energy">   -191.20627484 </i>
   </energy>
  </scstep>
  <scstep>
   <time name="dav">   31.56   31.63</time>
   <time name="total">   32.15   32.24</time>
   <energy>
    <i name="e_fr_energy">   -191.12486749 </i>
    <i name="e_wo_entrp">   -190.95415903 </i>
    <i name="e_0_energy">   -191.03951326 </i>
   </energy>
  </scstep>
  <scstep>
   <time name="dav">   31.75   31.83</time>
   <time name="total">   32.35   32.43</time>
   <energy>
    <i name="e_fr_energy">   -191.12266647 </i>
    <i name="e_wo_entrp">   -190.95188321 </i>
    <i name="e_0_energy">   -191.03727484 </i>
   </energy>
  </scstep>
  <scstep>
   <time name="dav">   28.52   28.59</time>
   <time name="total">   29.12   29.19</time>
   <energy>
    <i name="e_fr_energy">   -191.11943018 </i>
    <i name="e_wo_entrp">   -190.94943720 </i>
    <i name="e_0_energy">   -191.03443369 </i>
   </energy>
  </scstep>
  <scstep>
   <time name="dav">   31.16   31.23</time>
   <time name="total">   31.75   31.84</time>
   <energy>
    <i name="e_fr_energy">   -191.12042922 </i>
    <i name="e_wo_entrp">   -190.95059050 </i>
    <i name="e_0_energy">   -191.03550986 </i>
   </energy>
  </scstep>
  <scstep>
   <time name="dav">   30.40   30.47</time>
   <time name="total">   31.00   31.09</time>
   <energy>
    <i name="e_fr_energy">   -191.11954660 </i>
    <i name="e_wo_entrp">   -190.94986160 </i>
    <i name="e_0_energy">   -191.03470410 </i>
   </energy>
  </scstep>
  <scstep>
   <time name="dav">   27.28   27.35</time>
   <time name="total">   27.32   27.39</time>
   <energy>
    <i name="alphaZ">     90.52209193 </i>
    <i name="ewald">  44821.53576415 </i>
    <i name="hartreedc"> -50831.84391698 </i>
    <i name="XCdc">   -233.32612127 </i>
    <i name="pawpsdc">   4082.36223769 </i>
    <i name="pawaedc">  -3498.25038578 </i>
    <i name="eentropy">     -0.16967660 </i>
    <i name="bandstr">  -1383.39197317 </i>
    <i name="atom">   6761.44252427 </i>
    <i name="e_fr_energy">   -191.11945576 </i>
    <i name="e_wo_entrp">   -190.94977916 </i>
    <i name="e_0_energy">   -191.03461746 </i>
   </energy>
  </scstep>
  <structure>
   <crystal>
    <varray name="basis" >
     <v>       8.26232108       4.77058756       0.00000000 </v>
     <v>      -8.26239219       4.77071102       0.00000000 </v>
     <v>       0.00000000       0.00000000      30.00000000 </v>
    </varray>
    <i name="volume">   2365.00834619 </i>
    <varray name="rec_basis" >
     <v>       0.06051621       0.10480799       0.00000000 </v>
     <v>      -0.06051464       0.10480709       0.00000000 </v>
     <v>       0.00000000       0.00000000       0.03333333 </v>
    </varray>
   </crystal>
   <varray name="positions" >
    <v>       0.66582468       0.33249475      -0.00000015 </v>
    <v>       1.00085255       0.33281318       0.00003877 </v>
    <v>       0.66614568       0.66751385      -0.00003920 </v>
    <v>       0.32915611       0.32837380      -0.00002755 </v>
    <v>       0.00877396       0.67544160       0.00000061 </v>
    <v>       0.66170884      -0.00418016       0.00002710 </v>
    <v>       0.00467720       0.00051316      -0.00003500 </v>
    <v>       0.32868936      -0.00464117      -0.00000019 </v>
    <v>       0.33384492       0.67133913       0.00003494 </v>
    <v>       0.10635479       0.22431339       0.94806905 </v>
    <v>       0.22132535       0.10944481       0.05322055 </v>
    <v>       0.10874122       0.54912829       0.94856923 </v>
    <v>       0.21554095       0.44206904       0.05127715 </v>
    <v>       0.11194592       0.89072183       0.94619128 </v>
    <v>       0.22405441       0.77861173       0.05380921 </v>
    <v>       0.45102863       0.22459604       0.94867155 </v>
    <v>       0.55792860       0.11769678       0.05132872 </v>
    <v>       0.45044753       0.55905574       0.94918867 </v>
    <v>       0.56193049       0.44740375       0.05000884 </v>
    <v>       0.44277753       0.88799263       0.94678195 </v>
    <v>       0.55764576       0.77301492       0.05192455 </v>
    <v>       0.78073437       0.22859808       0.94998683 </v>
    <v>       0.89238575       0.11710771       0.05081600 </v>
    <v>       0.77203130       0.55248243       0.95049500 </v>
    <v>       0.88581140       0.43870127       0.04950864 </v>
    <v>       0.77540201       0.88220192       0.94872800 </v>
    <v>       0.88245516       0.77540596       0.05142533 </v>
   </varray>
  </structure>
  <varray name="forces" >
   <v>      -0.00011183      -0.06819201       0.00002046 </v>
   <v>       0.12932146       0.02354298       0.02105870 </v>
   <v>      -0.12969516       0.02368524      -0.02136227 </v>
   <v>       0.04631160      -0.21556687      -0.00295352 </v>
   <v>      -0.00017791       0.29941450      -0.00037149 </v>
   <v>      -0.04630380      -0.21525072       0.00349110 </v>
   <v>       0.24772107       0.17247546      -0.01665283 </v>
   <v>      -0.00018435      -0.24346861       0.00086372 </v>
   <v>      -0.24784737       0.17223950       0.01671213 </v>
   <v>       0.03574336      -0.04936022      -0.09517152 </v>
   <v>       0.04724923       0.02533456       0.17616689 </v>
   <v>      -0.06381590       0.07760907      -0.01492486 </v>
   <v>       0.01763258       0.07534067      -0.03863420 </v>
   <v>      -0.01031243       0.03712453      -0.24910345 </v>
   <v>       0.01036865       0.03738821       0.24854014 </v>
   <v>       0.00095687      -0.10036047      -0.00820514 </v>
   <v>      -0.00065897      -0.10013090       0.00751950 </v>
   <v>      -0.03820085      -0.11004276       0.06582071 </v>
   <v>      -0.04018383      -0.07876611      -0.00834598 </v>
   <v>      -0.04724569       0.02512139      -0.17700910 </v>
   <v>      -0.03577664      -0.04883253       0.09719053 </v>
   <v>       0.04029607      -0.07893254       0.01002623 </v>
   <v>       0.03830105      -0.10951198      -0.06721359 </v>
   <v>       0.06415259       0.14786367       0.06844996 </v>
   <v>      -0.06366851       0.14791032      -0.06979734 </v>
   <v>      -0.01790298       0.07550212       0.03705223 </v>
   <v>       0.06403170       0.07786351       0.01683297 </v>
  </varray>
  <varray name="stress" >
   <v>      -0.43010000       0.00280757       0.08392645 </v>
   <v>       0.00280773      -0.11748578       0.00213208 </v>
   <v>       0.08392662       0.00213196      -0.27378197 </v>
  </varray>
  <energy>
   <i name="e_fr_energy">   -191.11945576 </i>
   <i name="e_wo_entrp">   -191.03461746 </i>
   <i name="e_0_energy">     -0.16967660 </i>
  </energy>
  <time name="totalsc">  381.61  382.60</time>
 </calculation>
 <calculation>
  <scstep>
   <time name="dav">   22.84   22.89</time>
   <time name="total">   23.43   23.49</time>
   <energy>
    <i name="alphaZ">     90.75235766 </i>
    <i name="ewald">  44902.67409733 </i>
    <i name="hartreedc"> -50916.41783234 </i>
    <i name="XCdc">   -233.26212028 </i>
    <i name="pawpsdc">   4082.35222101 </i>
    <i name="pawaedc">  -3498.23661740 </i>
    <i name="eentropy">     -0.17342481 </i>
    <i name="bandstr">  -1380.29429782 </i>
    <i name="atom">   6761.44252427 </i>
    <i name="e_fr_energy">   -191.16309237 </i>
    <i name="e_wo_entrp">   -190.98966757 </i>
    <i name="e_0_energy">   -191.07637997 </i>
   </energy>
  </scstep>
  <scstep>
   <time name="dav">   34.14   34.22</time>
   <time name="total">   34.73   34.82</time>
   <energy>
    <i name="e_fr_energy">   -191.19778294 </i>
    <i name="e_wo_entrp">   -191.02510624 </i>
    <i name="e_0_energy">   -191.11144459 </i>
   </energy>
  </scstep>
  <scstep>
   <time name="dav">   31.95   32.03</time>
   <time name="total">   32.55   32.63</time>
   <energy>
    <i name="e_fr_energy">   -191.16975376 </i>
    <i name="e_wo_entrp">   -190.99562459 </i>
    <i name="e_0_energy">   -191.08268917 </i>
   </energy>
  </scstep>
  <scstep>
   <time name="dav">   28.57   28.64</time>
   <time name="total">   29.17   29.24</time>
   <energy>
    <i name="e_fr_energy">   -191.16774066 </i>
    <i name="e_wo_entrp">   -190.99347731 </i>
    <i name="e_0_energy">   -191.08060899 </i>
   </energy>
  </scstep>
  <scstep>
   <time name="dav">   30.33   30.40</time>
   <time name="total">   30.93   31.01</time>
   <energy>
    <i name="e_fr_energy">   -191.16700538 </i>
    <i name="e_wo_entrp">   -190.99370958 </i>
    <i name="e_0_energy">   -191.08035748 </i>
   </energy>
  </scstep>
  <scstep>
   <time name="dav">   30.50   30.57</time>
   <time name="total">   31.10   31.18</time>
   <energy>
    <i name="e_fr_energy">   -191.16593040 </i>
    <i name="e_wo_entrp">   -190.99211421 </i>
    <i name="e_0_energy">   -191.07902231 </i>
   </energy>
  </scstep>
  <scstep>
   <time name="dav">   27.74   27.81</time>
   <time name="total">   28.34   28.42</time>
   <energy>
    <i name="e_fr_energy">   -191.16576215 </i>
    <i name="e_wo_entrp">   -190.99178200 </i>
    <i name="e_0_energy">   -191.07877208 </i>
   </energy>
  </scstep>
  <scstep>
   <time name="dav">   20.66   20.71</time>
   <time name="total">   20.69   20.75</time>
   <energy>
    <i name="alphaZ">     90.75235766 </i>
    <i name="ewald">  44902.67409733 </i>
    <i name="hartreedc"> -50915.41095653 </i>
    <i name="XCdc">   -233.33514580 </i>
    <i name="pawpsdc">   4080.66315200 </i>
    <i name="pawaedc">  -3496.50650569 </i>
    <i name="eentropy">     -0.17386790 </i>
    <i name="bandstr">  -1381.27137253 </i>
    <i name="atom">   6761.44252427 </i>
    <i name="e_fr_energy">   -191.16571718 </i>
    <i name="e_wo_entrp">   -190.99184928 </i>
    <i name="e_0_energy">   -191.07878323 </i>
   </energy>
  </scstep>
  <structure>
   <crystal>
    <varray name="basis" >
     <v>       8.24827202       4.76667041       0.00000000 </v>
     <v>      -8.24827178       4.76667041       0.00000000 </v>
     <v>       0.00000000       0.00000000      30.00000000 </v>
    </varray>
    <i name="volume">   2359.00761663 </i>
    <varray name="rec_basis" >
     <v>       0.06061876       0.10489502       0.00000000 </v>
     <v>      -0.06061876       0.10489502       0.00000000 </v>
     <v>       0.00000000       0.00000000       0.03333333 </v>
    </varray>
   </crystal>
   <varray name="positions" >
    <v>       0.66542825       0.33209921      -0.00000012 </v>
    <v>       1.00140911       0.33252877       0.00008078 </v>
    <v>       0.66586086       0.66807225      -0.00008174 </v>
    <v>       0.32805972       0.32698102      -0.00003508 </v>
    <v>       0.01055350       0.67722243       0.00000000 </v>
    <v>       0.66031760      -0.00527535       0.00003553 </v>
    <v>       0.00646773       0.00068053      -0.00005776 </v>
    <v>       0.32728227      -0.00604706       0.00000127 </v>
    <v>       0.33401098       0.67312885       0.00005780 </v>
    <v>       0.10617583       0.22396486       0.94782321 </v>
    <v>       0.22160261       0.10943255       0.05360528 </v>
    <v>       0.10893314       0.54969583       0.94847068 </v>
    <v>       0.21594165       0.44238464       0.05128208 </v>
    <v>       0.11211637       0.89095890       0.94567092 </v>
    <v>       0.22429302       0.77878337       0.05432862 </v>
    <v>       0.45055325       0.22409159       0.94858644 </v>
    <v>       0.55742628       0.11722173       0.05141267 </v>
    <v>       0.44978534       0.55859555       0.94923955 </v>
    <v>       0.56142219       0.44712263       0.05006381 </v>
    <v>       0.44276415       0.88826878       0.94639586 </v>
    <v>       0.55729997       0.77283866       0.05217362 </v>
    <v>       0.78045248       0.22808847       0.94993456 </v>
    <v>       0.89192850       0.11644772       0.05076290 </v>
    <v>       0.77299884       0.55305830       0.95055227 </v>
    <v>       0.88638883       0.43966773       0.04944922 </v>
    <v>       0.77571756       0.88260405       0.94872055 </v>
    <v>       0.88302442       0.77559846       0.05152697 </v>
   </varray>
  </structure>
  <varray name="forces" >
   <v>       0.00052241      -0.03847985       0.00000227 </v>
   <v>       0.11705378       0.00990407       0.02688787 </v>
   <v>      -0.11657272       0.00996578      -0.02659033 </v>
   <v>       0.08064851      -0.24342639      -0.00377784 </v>
   <v>       0.00062651       0.29049286       0.00003435 </v>
   <v>      -0.08137762      -0.24233520       0.00340378 </v>
   <v>       0.24945389       0.19524687       0.01349683 </v>
   <v>      -0.00000089      -0.20793339      -0.00068925 </v>
   <v>      -0.25021789       0.19447102      -0.01370420 </v>
   <v>       0.02364517      -0.04193472      -0.07972891 </v>
   <v>       0.04640521       0.00534142       0.13555075 </v>
   <v>      -0.03480273       0.06463224       0.01685251 </v>
   <v>       0.00246178       0.06302302      -0.06708510 </v>
   <v>      -0.00095482       0.03161660      -0.19828612 </v>
   <v>       0.00097885       0.03137238       0.19863493 </v>
   <v>       0.00746726      -0.08235157       0.00905590 </v>
   <v>      -0.00743346      -0.08234359      -0.00870254 </v>
   <v>      -0.04673358      -0.08321031       0.10984663 </v>
   <v>      -0.03771947      -0.05057854      -0.04647478 </v>
   <v>      -0.04648867       0.00540126      -0.13504984 </v>
   <v>      -0.02396643      -0.04197799       0.08081862 </v>
   <v>       0.03790371      -0.05035029       0.04721294 </v>
   <v>       0.04641249      -0.08273520      -0.11081821 </v>
   <v>       0.03903280       0.10889565       0.10531473 </v>
   <v>      -0.03862559       0.10883404      -0.10620737 </v>
   <v>      -0.00270667       0.06349269       0.06611212 </v>
   <v>       0.03498819       0.06496714      -0.01610975 </v>
  </varray>
  <varray name="stress" >
   <v>      -0.07983582       0.00011235       0.05425639 </v>
   <v>       0.00011224       0.04255865      -0.00024237 </v>
   <v>       0.05425617      -0.00024240      -1.08617662 </v>
  </varray>
  <energy>
   <i name="e_fr_energy">   -191.16571718 </i>
   <i name="e_wo_entrp">   -191.07878323 </i>
   <i name="e_0_energy">     -0.17386790 </i>
  </energy>
  <time name="totalsc">  274.88  275.59</time>
 </calculation>
 <calculation>
  <scstep>
   <time name="dav">   22.84   22.89</time>
   <time name="total">   23.44   23.50</time>
   <energy>
    <i name="alphaZ">     90.79402406 </i>
    <i name="ewald">  44913.29612164 </i>
    <i name="hartreedc"> -50926.70810427 </i>
    <i name="XCdc">   -233.33733193 </i>
    <i name="pawpsdc">   4080.71360428 </i>
    <i name="pawaedc">  -3496.55741289 </i>
    <i name="eentropy">     -0.18153580 </i>
    <i name="bandstr">  -1380.67291851 </i>
    <i name="atom">   6761.44252427 </i>
    <i name="e_fr_energy">   -191.21102914 </i>
    <i name="e_wo_entrp">   -191.02949335 </i>
    <i name="e_0_energy">   -191.12026124 </i>
   </energy>
  </scstep>
  <scstep>
   <time name="dav">   34.64   34.72</time>
   <time name="total">   35.23   35.33</time>
   <energy>
    <i name="e_fr_energy">   -191.26676571 </i>
    <i name="e_wo_entrp">   -191.08597756 </i>
    <i name="e_0_energy">   -191.17637163 </i>
   </energy>
  </scstep>
  <scstep>
   <time name="dav">   32.37   32.45</time>
   <time name="total">   32.97   33.06</time>
   <energy>
    <i name="e_fr_energy">   -191.21723639 </i>
    <i name="e_wo_entrp">   -191.03540947 </i>
    <i name="e_0_energy">   -191.12632293 </i>
   </energy>
  </scstep>
  <scstep>
   <time name="dav">   29.29   29.36</time>
   <time name="total">   29.89   29.96</time>
   <energy>
    <i name="e_fr_energy">   -191.21640492 </i>
    <i name="e_wo_entrp">   -191.03421415 </i>
    <i name="e_0_energy">   -191.12530954 </i>
   </energy>
  </scstep>
  <scstep>
   <time name="dav">   31.97   32.05</time>
   <time name="total">   32.57   32.67</time>
   <energy>
    <i name="e_fr_energy">   -191.21588867 </i>
    <i name="e_wo_entrp">   -191.03458780 </i>
    <i name="e_0_energy">   -191.12523823 </i>
   </energy>
  </scstep>
  <scstep>
   <time name="dav">   30.31   30.38</time>
   <time name="total">   30.90   30.98</time>
   <energy>
    <i name="e_fr_energy">   -191.21488712 </i>
    <i name="e_wo_entrp">   -191.03314942 </i>
    <i name="e_0_energy">   -191.12401827 </i>
   </energy>
  </scstep>
  <scstep>
   <time name="dav">   27.56   27.63</time>
   <time name="total">   27.60   27.67</time>
   <energy>
    <i name="alphaZ">     90.79402406 </i>
    <i name="ewald">  44913.29612164 </i>
    <i name="hartreedc"> -50926.97688766 </i>
    <i name="XCdc">   -233.34410601 </i>
    <i name="pawpsdc">   4081.39362955 </i>
    <i name="pawaedc">  -3497.23878147 </i>
    <i name="eentropy">     -0.18186852 </i>
    <i name="bandstr">  -1380.39945545 </i>
    <i name="atom">   6761.44252427 </i>
    <i name="e_fr_energy">   -191.21479958 </i>
    <i name="e_wo_entrp">   -191.03293106 </i>
    <i name="e_0_energy">   -191.12386532 </i>
   </energy>
  </scstep>
  <structure>
   <crystal>
    <varray name="basis" >
     <v>       8.24459384       4.76661297       0.00000000 </v>
     <v>      -8.24458974       4.76660630       0.00000000 </v>
     <v>       0.00000000       0.00000000      30.00000000 </v>
    </varray>
    <i name="volume">   2357.92504134 </i>
    <varray name="rec_basis" >
     <v>       0.06064577       0.10489633       0.00000000 </v>
     <v>      -0.06064586       0.10489639       0.00000000 </v>
     <v>       0.00000000       0.00000000       0.03333333 </v>
    </varray>
   </crystal>
   <varray name="positions" >
    <v>       0.66516115       0.33182821      -0.00000011 </v>
    <v>       1.00193828       0.33214044       0.00013955 </v>
[...]
      <set comment="kpoint 31">
       <r>  -17.5297    1.0000 </r>
       <r>  -17.2538    1.0000 </r>
       <r>  -16.8900    1.0000 </r>
       <r>  -16.5521    1.0000 </r>
       <r>  -16.4828    1.0000 </r>
       <r>  -16.4267    1.0000 </r>
       <r>  -16.2678    1.0000 </r>
       <r>  -16.2199    1.0000 </r>
       <r>  -16.1243    1.0000 </r>
       <r>  -16.0292    1.0000 </r>
       <r>  -15.9438    1.0000 </r>
       <r>  -15.8985    1.0000 </r>
       <r>  -15.7307    1.0000 </r>
       <r>  -15.7158    1.0000 </r>
       <r>  -15.6617    1.0000 </r>
       <r>  -15.4841    1.0000 </r>
       <r>  -15.4009    1.0000 </r>
       <r>  -15.2620    1.0000 </r>
       <r>   -9.7563    1.0000 </r>
       <r>   -9.4645    1.0000 </r>
       <r>   -9.3199    1.0000 </r>
       <r>   -9.0432    1.0000 </r>
       <r>   -8.8189    1.0000 </r>
       <r>   -8.7140    1.0000 </r>
       <r>   -8.5208    1.0000 </r>
       <r>   -8.4681    1.0000 </r>
       <r>   -8.3733    1.0000 </r>
       <r>   -8.3296    1.0000 </r>
       <r>   -8.2247    1.0000 </r>
       <r>   -8.1836    1.0000 </r>
       <r>   -8.1198    1.0000 </r>
       <r>   -8.0376    1.0000 </r>
       <r>   -7.9603    1.0000 </r>
       <r>   -7.8993    1.0000 </r>
       <r>   -7.8060    1.0000 </r>
       <r>   -7.6824    1.0000 </r>
       <r>   -7.5676    1.0000 </r>
       <r>   -7.4418    1.0000 </r>
       <r>   -7.2901    1.0000 </r>
       <r>   -7.1848    1.0000 </r>
       <r>   -7.1545    1.0000 </r>
       <r>   -7.0547    1.0000 </r>
       <r>   -7.0179    1.0000 </r>
       <r>   -6.9493    1.0000 </r>
       <r>   -6.8457    1.0000 </r>
       <r>   -6.7762    1.0000 </r>
       <r>   -6.7224    1.0000 </r>
       <r>   -6.6461    1.0000 </r>
       <r>   -6.5713    1.0000 </r>
       <r>   -6.4998    1.0000 </r>
       <r>   -6.4310    1.0000 </r>
       <r>   -6.3475    1.0000 </r>
       <r>   -6.2986    1.0000 </r>
       <r>   -6.1931    1.0000 </r>
       <r>   -6.0719    1.0000 </r>
       <r>   -6.0462    1.0000 </r>
       <r>   -5.9791    1.0000 </r>
       <r>   -5.9234    1.0000 </r>
       <r>   -5.8283    1.0000 </r>
       <r>   -5.7850    1.0000 </r>
       <r>   -5.7292    1.0000 </r>
       <r>   -5.6515    1.0000 </r>
       <r>   -5.5138    1.0000 </r>
       <r>   -5.4255    1.0000 </r>
       <r>   -5.2561    1.0000 </r>
       <r>   -5.1352    1.0000 </r>
       <r>   -5.0181    1.0000 </r>
       <r>   -4.9042    1.0000 </r>
       <r>   -4.7729    1.0000 </r>
       <r>   -4.6878    1.0000 </r>
       <r>   -4.4602    1.0000 </r>
       <r>   -4.3387    1.0000 </r>
       <r>   -4.2952    1.0000 </r>
       <r>   -4.2003    1.0000 </r>
       <r>   -3.9077    1.0000 </r>
       <r>   -3.7656    0.9995 </r>
       <r>   -3.7368    0.9990 </r>
       <r>   -3.5685    0.9705 </r>
       <r>   -3.4977    0.9175 </r>
       <r>   -3.4052    0.7686 </r>
       <r>   -2.9847    0.0126 </r>
       <r>   -2.7598    0.0001 </r>
       <r>   -2.7021    0.0000 </r>
       <r>   -2.5402    0.0000 </r>
       <r>   -2.4521    0.0000 </r>
       <r>   -2.3418    0.0000 </r>
       <r>   -2.3106    0.0000 </r>
       <r>   -2.2330    0.0000 </r>
       <r>   -1.9960    0.0000 </r>
       <r>   -1.9911    0.0000 </r>
       <r>   -1.8808    0.0000 </r>
       <r>   -1.8265    0.0000 </r>
       <r>   -1.4250    0.0000 </r>
       <r>   -1.3292    0.0000 </r>
       <r>   -1.2882    0.0000 </r>
       <r>   -1.1605    0.0000 </r>
       <r>   -1.0523    0.0000 </r>
       <r>   -0.9537    0.0000 </r>
       <r>   -0.9007    0.0000 </r>
       <r>   -0.8097    0.0000 </r>
       <r>   -0.7621    0.0000 </r>
       <r>   -0.7028    0.0000 </r>
       <r>   -0.6271    0.0000 </r>
       <r>   -0.5897    0.0000 </r>
       <r>   -0.3923    0.0000 </r>
       <r>   -0.2874    0.0000 </r>
       <r>   -0.1615    0.0000 </r>
       <r>   -0.0572    0.0000 </r>
       <r>    0.0733    0.0000 </r>
       <r>    0.2922    0.0000 </r>
       <r>    0.4274    0.0000 </r>
       <r>    0.5779    0.0000 </r>
       <r>    0.6237    0.0000 </r>
       <r>    1.0533    0.0000 </r>
       <r>    1.1316    0.0000 </r>
       <r>    1.2885    0.0000 </r>
       <r>    1.5282    0.0000 </r>
       <r>    2.1418    0.0000 </r>
       <r>    2.2948    0.0000 </r>
       <r>    2.3992    0.0000 </r>
      </set>
      <set comment="kpoint 32">
       <r>  -17.5268    1.0000 </r>
       <r>  -17.2164    1.0000 </r>
       <r>  -16.9833    1.0000 </r>
       <r>  -16.5445    1.0000 </r>
       <r>  -16.4538    1.0000 </r>
       <r>  -16.3392    1.0000 </r>
       <r>  -16.2671    1.0000 </r>
       <r>  -16.2224    1.0000 </r>
       <r>  -16.1658    1.0000 </r>
       <r>  -16.0406    1.0000 </r>
       <r>  -15.9758    1.0000 </r>
       <r>  -15.9216    1.0000 </r>
       <r>  -15.7340    1.0000 </r>
       <r>  -15.7061    1.0000 </r>
       <r>  -15.6469    1.0000 </r>
       <r>  -15.4826    1.0000 </r>
       <r>  -15.3848    1.0000 </r>
       <r>  -15.2580    1.0000 </r>
       <r>   -9.7089    1.0000 </r>
       <r>   -9.5576    1.0000 </r>
       <r>   -9.3848    1.0000 </r>
       <r>   -9.0012    1.0000 </r>
       <r>   -8.6772    1.0000 </r>
       <r>   -8.6656    1.0000 </r>
       <r>   -8.5612    1.0000 </r>
       <r>   -8.4480    1.0000 </r>
       <r>   -8.3847    1.0000 </r>
       <r>   -8.3042    1.0000 </r>
       <r>   -8.2675    1.0000 </r>
       <r>   -8.2286    1.0000 </r>
       <r>   -8.1346    1.0000 </r>
       <r>   -8.0721    1.0000 </r>
       <r>   -8.0213    1.0000 </r>
       <r>   -7.9080    1.0000 </r>
       <r>   -7.8293    1.0000 </r>
       <r>   -7.6315    1.0000 </r>
       <r>   -7.4892    1.0000 </r>
       <r>   -7.3696    1.0000 </r>
       <r>   -7.2948    1.0000 </r>
       <r>   -7.2721    1.0000 </r>
       <r>   -7.1771    1.0000 </r>
       <r>   -7.1102    1.0000 </r>
       <r>   -7.0276    1.0000 </r>
       <r>   -6.9932    1.0000 </r>
       <r>   -6.8266    1.0000 </r>
       <r>   -6.7847    1.0000 </r>
       <r>   -6.6943    1.0000 </r>
       <r>   -6.6134    1.0000 </r>
       <r>   -6.5843    1.0000 </r>
       <r>   -6.5272    1.0000 </r>
       <r>   -6.4245    1.0000 </r>
       <r>   -6.3526    1.0000 </r>
       <r>   -6.2761    1.0000 </r>
       <r>   -6.1718    1.0000 </r>
       <r>   -6.0942    1.0000 </r>
       <r>   -5.9948    1.0000 </r>
       <r>   -5.9756    1.0000 </r>
       <r>   -5.9170    1.0000 </r>
       <r>   -5.8265    1.0000 </r>
       <r>   -5.6944    1.0000 </r>
       <r>   -5.6008    1.0000 </r>
       <r>   -5.5468    1.0000 </r>
       <r>   -5.4977    1.0000 </r>
       <r>   -5.4278    1.0000 </r>
       <r>   -5.3435    1.0000 </r>
       <r>   -5.2293    1.0000 </r>
       <r>   -5.0423    1.0000 </r>
       <r>   -4.9849    1.0000 </r>
       <r>   -4.8706    1.0000 </r>
       <r>   -4.6591    1.0000 </r>
       <r>   -4.5066    1.0000 </r>
       <r>   -4.4042    1.0000 </r>
       <r>   -4.2620    1.0000 </r>
       <r>   -4.1122    1.0000 </r>
       <r>   -3.9075    1.0000 </r>
       <r>   -3.8163    0.9999 </r>
       <r>   -3.6936    0.9972 </r>
       <r>   -3.6132    0.9863 </r>
       <r>   -3.4312    0.8207 </r>
       <r>   -3.2480    0.3529 </r>
       <r>   -2.9898    0.0138 </r>
       <r>   -2.8091    0.0002 </r>
       <r>   -2.7546    0.0001 </r>
       <r>   -2.5689    0.0000 </r>
       <r>   -2.5068    0.0000 </r>
       <r>   -2.4006    0.0000 </r>
       <r>   -2.3206    0.0000 </r>
       <r>   -2.2180    0.0000 </r>
       <r>   -2.0057    0.0000 </r>
       <r>   -1.9522    0.0000 </r>
       <r>   -1.9157    0.0000 </r>
       <r>   -1.8592    0.0000 </r>
       <r>   -1.4227    0.0000 </r>
       <r>   -1.2910    0.0000 </r>
       <r>   -1.2578    0.0000 </r>
       <r>   -1.1356    0.0000 </r>
       <r>   -1.0115    0.0000 </r>
       <r>   -0.9367    0.0000 </r>
       <r>   -0.8870    0.0000 </r>
       <r>   -0.8408    0.0000 </r>
       <r>   -0.7433    0.0000 </r>
       <r>   -0.6822    0.0000 </r>
       <r>   -0.6178    0.0000 </r>
       <r>   -0.5909    0.0000 </r>
       <r>   -0.4045    0.0000 </r>
       <r>   -0.2600    0.0000 </r>
       <r>   -0.0821    0.0000 </r>
       <r>   -0.0412    0.0000 </r>
       <r>    0.0532    0.0000 </r>
       <r>    0.2212    0.0000 </r>
       <r>    0.3235    0.0000 </r>
       <r>    0.5300    0.0000 </r>
       <r>    0.6125    0.0000 </r>
       <r>    1.0283    0.0000 </r>
       <r>    1.1953    0.0000 </r>
       <r>    1.3055    0.0000 </r>
       <r>    1.5597    0.0000 </r>
       <r>    2.1127    0.0000 </r>
       <r>    2.2644    0.0000 </r>
       <r>    2.5802    0.0000 </r>
      </set>
      <set comment="kpoint 33">
       <r>  -17.4910    1.0000 </r>
       <r>  -17.3093    1.0000 </r>
       <r>  -16.8729    1.0000 </r>
       <r>  -16.5346    1.0000 </r>
       <r>  -16.4954    1.0000 </r>
       <r>  -16.4293    1.0000 </r>
       <r>  -16.2772    1.0000 </r>
       <r>  -16.2194    1.0000 </r>
       <r>  -16.1325    1.0000 </r>
       <r>  -16.0471    1.0000 </r>
       <r>  -15.9667    1.0000 </r>
       <r>  -15.8599    1.0000 </r>
       <r>  -15.7505    1.0000 </r>
       <r>  -15.6929    1.0000 </r>
       <r>  -15.6581    1.0000 </r>
       <r>  -15.4838    1.0000 </r>
       <r>  -15.3901    1.0000 </r>
       <r>  -15.2564    1.0000 </r>
       <r>   -9.7832    1.0000 </r>
       <r>   -9.4370    1.0000 </r>
       <r>   -9.3513    1.0000 </r>
       <r>   -8.9406    1.0000 </r>
       <r>   -8.7896    1.0000 </r>
       <r>   -8.7412    1.0000 </r>
       <r>   -8.6872    1.0000 </r>
       <r>   -8.5343    1.0000 </r>
       <r>   -8.3736    1.0000 </r>
       <r>   -8.3513    1.0000 </r>
       <r>   -8.2319    1.0000 </r>
       <r>   -8.1540    1.0000 </r>
       <r>   -8.0998    1.0000 </r>
       <r>   -8.0609    1.0000 </r>
       <r>   -7.8884    1.0000 </r>
       <r>   -7.8472    1.0000 </r>
       <r>   -7.7966    1.0000 </r>
       <r>   -7.5989    1.0000 </r>
       <r>   -7.5485    1.0000 </r>
       <r>   -7.4594    1.0000 </r>
       <r>   -7.3542    1.0000 </r>
       <r>   -7.3040    1.0000 </r>
       <r>   -7.1118    1.0000 </r>
       <r>   -7.0365    1.0000 </r>
       <r>   -7.0062    1.0000 </r>
       <r>   -6.9330    1.0000 </r>
       <r>   -6.8645    1.0000 </r>
       <r>   -6.7497    1.0000 </r>
       <r>   -6.7211    1.0000 </r>
       <r>   -6.6418    1.0000 </r>
       <r>   -6.5874    1.0000 </r>
       <r>   -6.5563    1.0000 </r>
       <r>   -6.4501    1.0000 </r>
       <r>   -6.2982    1.0000 </r>
       <r>   -6.2122    1.0000 </r>
       <r>   -6.1663    1.0000 </r>
       <r>   -6.0939    1.0000 </r>
       <r>   -6.0246    1.0000 </r>
       <r>   -5.9558    1.0000 </r>
       <r>   -5.9113    1.0000 </r>
       <r>   -5.8691    1.0000 </r>
       <r>   -5.7835    1.0000 </r>
       <r>   -5.6446    1.0000 </r>
       <r>   -5.5574    1.0000 </r>
       <r>   -5.4976    1.0000 </r>
       <r>   -5.4522    1.0000 </r>
       <r>   -5.3354    1.0000 </r>
       <r>   -5.1569    1.0000 </r>
       <r>   -5.0962    1.0000 </r>
       <r>   -4.9369    1.0000 </r>
       <r>   -4.7676    1.0000 </r>
       <r>   -4.6398    1.0000 </r>
       <r>   -4.5459    1.0000 </r>
       <r>   -4.4592    1.0000 </r>
       <r>   -4.2829    1.0000 </r>
       <r>   -4.0093    1.0000 </r>
       <r>   -3.9654    1.0000 </r>
       <r>   -3.8024    0.9998 </r>
       <r>   -3.6916    0.9971 </r>
       <r>   -3.6528    0.9935 </r>
       <r>   -3.3590    0.6583 </r>
       <r>   -3.1652    0.1679 </r>
       <r>   -3.0409    0.0328 </r>
       <r>   -2.8358    0.0005 </r>
       <r>   -2.8049    0.0002 </r>
       <r>   -2.6203    0.0000 </r>
       <r>   -2.5721    0.0000 </r>
       <r>   -2.4243    0.0000 </r>
       <r>   -2.2963    0.0000 </r>
       <r>   -2.2103    0.0000 </r>
       <r>   -2.0029    0.0000 </r>
       <r>   -1.9659    0.0000 </r>
       <r>   -1.9186    0.0000 </r>
       <r>   -1.8586    0.0000 </r>
       <r>   -1.3892    0.0000 </r>
       <r>   -1.2704    0.0000 </r>
       <r>   -1.2274    0.0000 </r>
       <r>   -1.1143    0.0000 </r>
       <r>   -0.9656    0.0000 </r>
       <r>   -0.9339    0.0000 </r>
       <r>   -0.8895    0.0000 </r>
       <r>   -0.8368    0.0000 </r>
       <r>   -0.7391    0.0000 </r>
       <r>   -0.6775    0.0000 </r>
       <r>   -0.6233    0.0000 </r>
       <r>   -0.5692    0.0000 </r>
       <r>   -0.5114    0.0000 </r>
       <r>   -0.1883    0.0000 </r>
       <r>   -0.0909    0.0000 </r>
       <r>   -0.0756    0.0000 </r>
       <r>    0.0859    0.0000 </r>
       <r>    0.1374    0.0000 </r>
       <r>    0.3602    0.0000 </r>
       <r>    0.4612    0.0000 </r>
       <r>    0.5776    0.0000 </r>
       <r>    1.0355    0.0000 </r>
       <r>    1.2766    0.0000 </r>
       <r>    1.3421    0.0000 </r>
       <r>    1.6079    0.0000 </r>
       <r>    2.1476    0.0000 </r>
       <r>    2.2968    0.0000 </r>
       <r>    2.4093    0.0000 </r>
      </set>
      <set comment="kpoint 34">
       <r>  -17.4193    1.0000 </r>
       <r>  -17.4133    1.0000 </r>
       <r>  -16.7127    1.0000 </r>
       <r>  -16.6476    1.0000 </r>
       <r>  -16.5240    1.0000 </r>
       <r>  -16.4715    1.0000 </r>
       <r>  -16.2487    1.0000 </r>
       <r>  -16.2235    1.0000 </r>
       <r>  -16.1480    1.0000 </r>
       <r>  -16.0333    1.0000 </r>
       <r>  -15.9565    1.0000 </r>
       <r>  -15.8009    1.0000 </r>
       <r>  -15.7519    1.0000 </r>
       <r>  -15.7058    1.0000 </r>
       <r>  -15.6683    1.0000 </r>
       <r>  -15.4834    1.0000 </r>
       <r>  -15.4017    1.0000 </r>
       <r>  -15.2556    1.0000 </r>
       <r>   -9.8208    1.0000 </r>
       <r>   -9.3364    1.0000 </r>
       <r>   -9.2916    1.0000 </r>
       <r>   -8.9192    1.0000 </r>
       <r>   -8.8945    1.0000 </r>
       <r>   -8.8437    1.0000 </r>
       <r>   -8.7612    1.0000 </r>
       <r>   -8.5390    1.0000 </r>
       <r>   -8.3717    1.0000 </r>
       <r>   -8.3649    1.0000 </r>
       <r>   -8.2304    1.0000 </r>
       <r>   -8.1365    1.0000 </r>
       <r>   -8.0711    1.0000 </r>
       <r>   -7.9835    1.0000 </r>
       <r>   -7.8794    1.0000 </r>
       <r>   -7.8438    1.0000 </r>
       <r>   -7.6639    1.0000 </r>
       <r>   -7.6088    1.0000 </r>
       <r>   -7.5914    1.0000 </r>
       <r>   -7.4893    1.0000 </r>
       <r>   -7.3914    1.0000 </r>
       <r>   -7.3645    1.0000 </r>
       <r>   -7.0640    1.0000 </r>
       <r>   -7.0443    1.0000 </r>
       <r>   -6.9434    1.0000 </r>
       <r>   -6.9370    1.0000 </r>
       <r>   -6.7962    1.0000 </r>
       <r>   -6.7868    1.0000 </r>
       <r>   -6.6441    1.0000 </r>
       <r>   -6.6277    1.0000 </r>
       <r>   -6.5826    1.0000 </r>
       <r>   -6.5527    1.0000 </r>
       <r>   -6.5116    1.0000 </r>
       <r>   -6.3801    1.0000 </r>
       <r>   -6.1973    1.0000 </r>
       <r>   -6.1891    1.0000 </r>
       <r>   -6.0679    1.0000 </r>
       <r>   -6.0615    1.0000 </r>
       <r>   -5.9365    1.0000 </r>
       <r>   -5.9247    1.0000 </r>
       <r>   -5.8657    1.0000 </r>
       <r>   -5.8115    1.0000 </r>
       <r>   -5.6692    1.0000 </r>
       <r>   -5.5671    1.0000 </r>
       <r>   -5.4979    1.0000 </r>
       <r>   -5.4566    1.0000 </r>
       <r>   -5.4558    1.0000 </r>
       <r>   -5.0949    1.0000 </r>
       <r>   -4.9781    1.0000 </r>
       <r>   -4.9539    1.0000 </r>
       <r>   -4.7183    1.0000 </r>
       <r>   -4.6154    1.0000 </r>
       <r>   -4.5552    1.0000 </r>
       <r>   -4.4441    1.0000 </r>
       <r>   -4.3200    1.0000 </r>
       <r>   -4.0137    1.0000 </r>
       <r>   -3.9696    1.0000 </r>
       <r>   -3.7902    0.9997 </r>
       <r>   -3.7252    0.9986 </r>
       <r>   -3.6388    0.9915 </r>
       <r>   -3.3143    0.5364 </r>
       <r>   -3.1745    0.1849 </r>
       <r>   -3.0675    0.0491 </r>
       <r>   -2.8399    0.0006 </r>
       <r>   -2.8201    0.0003 </r>
       <r>   -2.6381    0.0000 </r>
       <r>   -2.6077    0.0000 </r>
       <r>   -2.4254    0.0000 </r>
       <r>   -2.2792    0.0000 </r>
       <r>   -2.2073    0.0000 </r>
       <r>   -1.9968    0.0000 </r>
       <r>   -1.9852    0.0000 </r>
       <r>   -1.9230    0.0000 </r>
       <r>   -1.8442    0.0000 </r>
       <r>   -1.3541    0.0000 </r>
       <r>   -1.2698    0.0000 </r>
       <r>   -1.2218    0.0000 </r>
       <r>   -1.1053    0.0000 </r>
       <r>   -0.9623    0.0000 </r>
       <r>   -0.9109    0.0000 </r>
       <r>   -0.8853    0.0000 </r>
       <r>   -0.8096    0.0000 </r>
       <r>   -0.7610    0.0000 </r>
       <r>   -0.7264    0.0000 </r>
       <r>   -0.5956    0.0000 </r>
       <r>   -0.5782    0.0000 </r>
       <r>   -0.5497    0.0000 </r>
       <r>   -0.1665    0.0000 </r>
       <r>   -0.1122    0.0000 </r>
       <r>   -0.0672    0.0000 </r>
       <r>    0.0359    0.0000 </r>
       <r>    0.1643    0.0000 </r>
       <r>    0.3661    0.0000 </r>
       <r>    0.4429    0.0000 </r>
       <r>    0.5704    0.0000 </r>
       <r>    1.0495    0.0000 </r>
       <r>    1.3086    0.0000 </r>
       <r>    1.3622    0.0000 </r>
       <r>    1.6366    0.0000 </r>
       <r>    2.2370    0.0000 </r>
       <r>    2.2577    0.0000 </r>
       <r>    2.3837    0.0000 </r>
      </set>
     </set>
    </set>
   </array>
  </eigenvalues>
  <separator name="orbital magnetization" >
   <v name="MAGDIPOLOUT">      0.00000000      0.00000000      0.00000000</v>
  </separator>
 </calculation>
 <structure name="finalpos" >
  <crystal>
   <varray name="basis" >
    <v>       8.29770666       4.83586907       0.00000000 </v>
    <v>      -8.29742079       4.83536330       0.00000000 </v>
    <v>       0.00000000       0.00000000      30.00000000 </v>
   </varray>
   <i name="volume">   2407.43000448 </i>
   <varray name="rec_basis" >
    <v>       0.06025550       0.10339766       0.00000000 </v>
    <v>      -0.06026180       0.10340122       0.00000000 </v>
    <v>       0.00000000       0.00000000       0.03333333 </v>
   </varray>
  </crystal>
  <varray name="positions" >
   <v>       0.65078912       0.31765927      -0.00004471 </v>
   <v>       0.98157939       0.30030186      -0.00138705 </v>
   <v>       0.63360434       0.64861907       0.00141335 </v>
   <v>       0.33074185       0.35154375       0.00029191 </v>
   <v>       0.03344051       0.69947110      -0.00000993 </v>
   <v>       0.68283903      -0.00290612      -0.00029283 </v>
   <v>       0.01651271       0.00968242      -0.00009940 </v>
   <v>       0.31648320      -0.01824292      -0.00000695 </v>
   <v>       0.34323385       0.68307477       0.00014416 </v>
   <v>       0.10650311       0.22480370       0.94646276 </v>
   <v>       0.23037341       0.11751020       0.05195734 </v>
   <v>       0.10860469       0.54919261       0.95203660 </v>
   <v>       0.20679092       0.44522708       0.04956754 </v>
   <v>       0.11780804       0.89711569       0.94335416 </v>
   <v>       0.23048054       0.78405675       0.05677641 </v>
   <v>       0.44342824       0.22446677       0.95038295 </v>
   <v>       0.55798347       0.11062940       0.04984064 </v>
   <v>       0.44585301       0.56311897       0.94656981 </v>
   <v>       0.55418525       0.44280078       0.05119400 </v>
   <v>       0.45048962       0.89635975       0.94765351 </v>
   <v>       0.55816178       0.77331910       0.05364519 </v>
   <v>       0.77584124       0.22090866       0.94883465 </v>
   <v>       0.89596706       0.11206593       0.05324403 </v>
   <v>       0.77755908       0.55501823       0.95657810 </v>
   <v>       0.88795759       0.44382004       0.04352459 </v>
   <v>       0.77846776       0.87365296       0.95057268 </v>
   <v>       0.88253567       0.77494464       0.04779640 </v>
  </varray>
 </structure>
</modeling>
