unknown system                          
           1
     8.855617    5.104945    0.000000
    -8.855615    5.104943    0.000000
     0.000000    0.000000   30.000000
   V    Mo   W    S 
   3   3   3  18
Direct configuration=     1
   0.66666669  0.33333334  0.00000000
   1.00000000  0.33333334  0.00000000
   0.66666669  0.66666669  0.00000000
   0.33333334  0.33333334  0.00000000
   0.00000000  0.66666669  0.00000000
   0.66666669  0.00000000  0.00000000
   0.00000000  0.00000000  0.00000000
   0.33333334  0.00000000  0.00000000
   0.33333334  0.66666669  0.00000000
   0.11068511  0.22244981  0.95539999
   0.22244981  0.11068511  0.04460000
   0.11068511  0.55578315  0.95539999
   0.22244981  0.44401845  0.04460000
   0.11068511  0.88911647  0.95539999
   0.22244981  0.77735180  0.04460000
   0.44401845  0.22244981  0.95539999
   0.55578315  0.11068511  0.04460000
   0.44401845  0.55578315  0.95539999
   0.55578315  0.44401845  0.04460000
   0.44401845  0.88911647  0.95539999
   0.55578315  0.77735180  0.04460000
   0.77735180  0.22244981  0.95539999
   0.88911647  0.11068511  0.04460000
   0.77735180  0.55578315  0.95539999
   0.88911647  0.44401845  0.04460000
   0.77735180  0.88911647  0.95539999
   0.88911647  0.77735180  0.04460000
unknown system                          
           1
     8.667305    4.998606    0.000000
    -8.667300    4.998598    0.000000
     0.000000    0.000000   30.000000
   V    Mo   W    S 
   3   3   3  18
Direct configuration=     2
   0.66713751  0.33380407  0.00000000
   0.99956776  0.33338206 -0.00016168
   0.66671530  0.66623428  0.00016166
   0.33347268  0.33330856  0.00007044
  -0.00017810  0.66648841  0.00000000
   0.66664209  0.00013969 -0.00007046
  -0.00039839 -0.00003385 -0.00020387
   0.33366857  0.00033531 -0.00000001
   0.33329909  0.66626805  0.00020384
   0.10801011  0.22356803  0.95196268
   0.22178073  0.11021732  0.04925958
   0.10960438  0.55127542  0.95192404
   0.21821129  0.44321185  0.04803647
   0.11150216  0.88972503  0.95070869
   0.22305840  0.77816880  0.04929134
   0.44829143  0.22331771  0.95193320
   0.55665097  0.11495802  0.04806683
   0.44840305  0.55807258  0.95194272
   0.55991071  0.44643442  0.04690562
   0.44355065  0.88844732  0.95074044
   0.55690122  0.77467684  0.04803733
   0.77976802  0.22657758  0.95309438
   0.89140596  0.11506987  0.04805727
   0.77328689  0.55346444  0.95312229
   0.88679777  0.43995340  0.04687768
   0.77654533  0.88487815  0.95196352
   0.88460888  0.77627110  0.04807591
unknown system                          
           1
     8.483794    4.898647    0.000000
    -8.483737    4.898549    0.000000
     0.000000    0.000000   30.000000
   V    Mo   W    S 
   3   3   3  18
Direct configuration=     3
   0.66716673  0.33383244  0.00000000
   0.99952503  0.33335704 -0.00017898
   0.66669024  0.66619132  0.00017894
   0.33327172  0.33305447  0.00007345
   0.00028963  0.66695497 -0.00000001
   0.66638921 -0.00005879 -0.00007350
  -0.00021039  0.00000348 -0.00022456
   0.33349902  0.00016585  0.00000010
   0.33333482  0.66645551  0.00022453
   0.10781744  0.22337476  0.95194340
   0.22164504  0.10993981  0.04925923
   0.10975767  0.55124420  0.95193303
   0.21818721  0.44337124  0.04802543
   0.11161286  0.89000745  0.95068288
   0.22334114  0.77828019  0.04931721
   0.44832753  0.22319243  0.95194710
   0.55652513  0.11499391  0.04805284
   0.44840793  0.55826686  0.95198432
   0.56001693  0.44650766  0.04688890
   0.44327347  0.88831120  0.95074075
   0.55670729  0.77448530  0.04805702
   0.77984268  0.22668460  0.95311180
   0.89160123  0.11507623  0.04801514
   0.77319960  0.55337658  0.95316075
   0.88671076  0.43986514  0.04683866
   0.77670530  0.88485568  0.95197413
   0.88457925  0.77642493  0.04806734
unknown system                          
           1
     8.262321    4.770588    0.000000
    -8.262392    4.770711    0.000000
     0.000000    0.000000   30.000000
   V    Mo   W    S 
   3   3   3  18
Direct configuration=     4
   0.66683428  0.33349605  0.00000009
   0.99979584  0.33321293 -0.00016795
   0.66654576  0.66645689  0.00016854
   0.33202091  0.33162972  0.00004859
   0.00294287  0.66960076  0.00000021
   0.66497257 -0.00129449 -0.00004847
   0.00114167  0.00017964 -0.00019530
   0.33219811 -0.00113350 -0.00000092
   0.33349227  0.66779534  0.00019549
   0.10712953  0.22385517  0.95037501
   0.22142566  0.10957707  0.05089131
   0.10927141  0.55007220  0.95050693
   0.21687487  0.44274330  0.04944715
   0.11174995  0.89036876  0.94891528
   0.22370233  0.77841591  0.05108532
   0.44963944  0.22387465  0.95054054
   0.55720775  0.11630762  0.04946050
   0.44953415  0.55892365  0.95071457
   0.56116755  0.44711070  0.04815440
   0.44290827  0.88809235  0.94910930
   0.55718535  0.77379540  0.04962387
   0.78045030  0.22783939  0.95184451
   0.89226059  0.11620620  0.04928620
   0.77220258  0.55273715  0.95200729
   0.88607194  0.43886682  0.04799245
   0.77607895  0.88354451  0.95055314
   0.88340954  0.77594025  0.04949184
unknown system                          
           1
     8.248272    4.766670    0.000000
    -8.248272    4.766670    0.000000
     0.000000    0.000000   30.000000
   V    Mo   W    S 
   3   3   3  18
Direct configuration=     5
   0.66582468  0.33249475 -0.00000015
   1.00085255  0.33281318  0.00003877
   0.66614568  0.66751385 -0.00003920
   0.32915611  0.32837380 -0.00002755
   0.00877396  0.67544160  0.00000061
   0.66170884 -0.00418016  0.00002710
   0.00467720  0.00051316 -0.00003500
   0.32868936 -0.00464117 -0.00000019
   0.33384492  0.67133913  0.00003494
   0.10635479  0.22431339  0.94806905
   0.22132535  0.10944481  0.05322055
   0.10874122  0.54912829  0.94856923
   0.21554095  0.44206904  0.05127715
   0.11194592  0.89072183  0.94619128
   0.22405441  0.77861173  0.05380921
   0.45102863  0.22459604  0.94867155
   0.55792860  0.11769678  0.05132872
   0.45044753  0.55905574  0.94918867
   0.56193049  0.44740375  0.05000884
   0.44277753  0.88799263  0.94678195
   0.55764576  0.77301492  0.05192455
   0.78073437  0.22859808  0.94998683
   0.89238575  0.11710771  0.05081600
   0.77203130  0.55248243  0.95049500
   0.88581140  0.43870127  0.04950864
   0.77540201  0.88220192  0.94872800
   0.88245516  0.77540596  0.05142533
unknown system                          
           1
     8.244594    4.766613    0.000000
    -8.244590    4.766606    0.000000
     0.000000    0.000000   30.000000
   V    Mo   W    S 
   3   3   3  18
Direct configuration=     6
   0.66542825  0.33209921 -0.00000012
   1.00140911  0.33252877  0.00008078
   0.66586086  0.66807225 -0.00008174
   0.32805972  0.32698102 -0.00003508
   0.01055350  0.67722243  0.00000000
   0.66031760 -0.00527535  0.00003553
   0.00646773  0.00068053 -0.00005776
   0.32728227 -0.00604706  0.00000127
   0.33401098  0.67312885  0.00005780
   0.10617583  0.22396486  0.94782321
   0.22160261  0.10943255  0.05360528
   0.10893314  0.54969583  0.94847068
   0.21594165  0.44238464  0.05128208
   0.11211637  0.89095890  0.94567092
   0.22429302  0.77878337  0.05432862
   0.45055325  0.22409159  0.94858644
   0.55742628  0.11722173  0.05141267
   0.44978534  0.55859555  0.94923955
   0.56142219  0.44712263  0.05006381
   0.44276415  0.88826878  0.94639586
   0.55729997  0.77283866  0.05217362
   0.78045248  0.22808847  0.94993456
   0.89192850  0.11644772  0.05076290
   0.77299884  0.55305830  0.95055227
   0.88638883  0.43966773  0.04944922
   0.77571756  0.88260405  0.94872055
   0.88302442  0.77559846  0.05152697
unknown system                          
           1
     8.248321    4.772491    0.000000
    -8.248324    4.772497    0.000000
     0.000000    0.000000   30.000000
   V    Mo   W    S 
   3   3   3  18
Direct configuration=     7
   0.66516115  0.33182821 -0.00000011
   1.00193828  0.33214044  0.00013955
   0.66547476  0.66860000 -0.00013990
   0.32671990  0.32501909 -0.00004384
   0.01255063  0.67921486  0.00000007
   0.65836006 -0.00660531  0.00004351
   0.00876336  0.00102278 -0.00002828
   0.32585898 -0.00747032 -0.00000015
   0.33434528  0.67542229  0.00002788
   0.10597935  0.22360009  0.94762821
   0.22181792  0.10929029  0.05391979
   0.10922223  0.55025091  0.94848344
   0.21635676  0.44278638  0.05116187
   0.11232496  0.89117670  0.94521949
   0.22450932  0.77899027  0.05478077
   0.45004785  0.22352222  0.94858367
   0.55685712  0.11671627  0.05141616
   0.44906075  0.55822055  0.94945297
   0.56094743  0.44693292  0.04998716
   0.44262196  0.88848480  0.94608239
   0.55693376  0.77264309  0.05237091
   0.78026489  0.22761447  0.95001276
   0.89155541  0.11572743  0.05054746
   0.77387495  0.55363195  0.95075686
   0.88696360  0.44054191  0.04924277
   0.77612145  0.88302312  0.94883874
   0.88358235  0.77588903  0.05151577
unknown system                          
           1
     8.245694    4.769334    0.000000
    -8.245691    4.769328    0.000000
     0.000000    0.000000   30.000000
   V    Mo   W    S 
   3   3   3  18
Direct configuration=     8
   0.66520803  0.33188249  0.00000009
   1.00237402  0.33173464  0.00020611
   0.66506560  0.66903941 -0.00020691
   0.32533209  0.32256740 -0.00007557
   0.01421869  0.68089017  0.00000044
   0.65590236 -0.00801176  0.00007653
   0.01122039  0.00146296 -0.00006622
   0.32487100 -0.00845762  0.00000134
   0.33480153  0.67788596  0.00006712
   0.10579492  0.22323886  0.94749873
   0.22210119  0.10905813  0.05424406
   0.10952753  0.55072809  0.94856636
   0.21682692  0.44321767  0.05090871
   0.11247062  0.89133496  0.94487001
   0.22466874  0.77913826  0.05512932
   0.44968238  0.22305124  0.94862116
   0.55638503  0.11635039  0.05137777
   0.44829944  0.55790587  0.94979286
   0.56058184  0.44681349  0.04982240
   0.44239047  0.88876789  0.94575655
   0.55657239  0.77245919  0.05249873
   0.78014502  0.22724912  0.95017641
   0.89123993  0.11496458  0.05020887
   0.77448893  0.55410077  0.95104498
   0.88743254  0.44115621  0.04895554
   0.77655164  0.88349054  0.94909284
   0.88406123  0.77619554  0.05143167
unknown system                          
           1
     8.240545    4.764573    0.000000
    -8.240406    4.764333    0.000000
     0.000000    0.000000   30.000000
   V    Mo   W    S 
   3   3   3  18
Direct configuration=     9
   0.66513521  0.33180540  0.00000003
   1.00221714  0.33190177  0.00017950
   0.66523470  0.66888022 -0.00018003
   0.32589136  0.32364827 -0.00006176
   0.01363385  0.68030119  0.00000035
   0.65698693 -0.00744180  0.00006222
   0.01020379  0.00125154 -0.00004499
   0.32516355 -0.00816543  0.00000056
   0.33458079  0.67686559  0.00004543
   0.10586083  0.22338372  0.94753373
   0.22198273  0.10916764  0.05412375
   0.10939641  0.55054523  0.94851323
   0.21661911  0.44303940  0.05103961
   0.11242031  0.89128475  0.94498287
   0.22461779  0.77908666  0.05501690
   0.44980778  0.22322430  0.94859513
   0.55655855  0.11647600  0.05140428
   0.44862032  0.55803114  0.94962882
   0.56071535  0.44685226  0.04990843
   0.44249965  0.88864964  0.94587761
   0.55671690  0.77252516  0.05246458
   0.78018459  0.22738282  0.95009092
   0.89136595  0.11528694  0.05037210
   0.77428603  0.55393017  0.95091386
   0.88726217  0.44095288  0.04908604
   0.77637431  0.88328466  0.94896130
   0.88387838  0.77606434  0.05148543
unknown system                          
           1
     8.238770    4.765228    0.000000
    -8.238782    4.765250    0.000000
     0.000000    0.000000   30.000000
   V    Mo   W    S 
   3   3   3  18
Direct configuration=    10
   0.66474912  0.33138291  0.00000060
   1.00201273  0.33209247  0.00013566
   0.66543722  0.66865011 -0.00013450
   0.32669676  0.32558717 -0.00004395
   0.01318897  0.67982082 -0.00000020
   0.65895752 -0.00654981  0.00004455
   0.00861610  0.00084482 -0.00003504
   0.32530150 -0.00803475 -0.00000067
   0.33409137  0.67524823  0.00003622
   0.10589724  0.22364720  0.94760253
   0.22187343  0.10939331  0.05392381
   0.10912921  0.55019386  0.94839431
   0.21620500  0.44278158  0.05129973
   0.11239031  0.89130114  0.94511211
   0.22463488  0.77905641  0.05488933
   0.44989805  0.22337552  0.94859348
   0.55670522  0.11656536  0.05140779
   0.44919158  0.55828401  0.94931667
   0.56087964  0.44690508  0.05005230
   0.44272613  0.88854069  0.94607852
   0.55696737  0.77257133  0.05239534
   0.78025914  0.22755726  0.94994530
   0.89162725  0.11587240  0.05068292
   0.77407757  0.55369522  0.95072057
   0.88703531  0.44074100  0.04927711
   0.77612442  0.88288723  0.94870021
   0.88354143  0.77580387  0.05160518
unknown system                          
           1
     8.236470    4.766279    0.000000
    -8.236509    4.766346    0.000000
     0.000000    0.000000   30.000000
   V    Mo   W    S 
   3   3   3  18
Direct configuration=    11
   0.66447892  0.33111131 -0.00000057
   1.00206325  0.33183548  0.00019018
   0.66518824  0.66870106 -0.00019073
   0.32649655  0.32563262 -0.00004166
   0.01402985  0.68067676 -0.00000035
   0.65899550 -0.00676959  0.00004108
   0.00884507  0.00072710 -0.00000721
   0.32471679 -0.00862932 -0.00000353
   0.33399562  0.67549532  0.00000647
   0.10580069  0.22354947  0.94755712
   0.22197064  0.10941403  0.05396258
   0.10921991  0.55040554  0.94841113
   0.21623415  0.44293397  0.05128527
   0.11246060  0.89145029  0.94493703
   0.22478067  0.77913015  0.05507010
   0.44960505  0.22314971  0.94864140
   0.55647552  0.11627743  0.05136462
   0.44902667  0.55830709  0.94937172
   0.56073056  0.44686477  0.05000062
   0.44274837  0.88863611  0.94604255
   0.55686219  0.77247854  0.05242816
   0.78022606  0.22741549  0.94998993
   0.89164850  0.11571038  0.05063692
   0.77439551  0.55383503  0.95087461
   0.88718028  0.44105746  0.04912851
   0.77627729  0.88291869  0.94872431
   0.88376200  0.77589957  0.05157967
unknown system                          
           1
     8.243779    4.772344    0.000000
    -8.243676    4.772167    0.000000
     0.000000    0.000000   30.000000
   V    Mo   W    S 
   3   3   3  18
Direct configuration=    12
   0.66353203  0.33013284  0.00000059
   1.00202226  0.33116852  0.00022243
   0.66455223  0.66863498 -0.00022227
   0.32644587  0.32659633 -0.00002385
   0.01589375  0.68253214  0.00000033
   0.65997757 -0.00675646  0.00002878
   0.00873010  0.00034678 -0.00001959
   0.32353590 -0.00982942  0.00000311
   0.33355631  0.67536681  0.00002194
   0.10562016  0.22347309  0.94752690
   0.22213405  0.10961146  0.05393366
   0.10925617  0.55066309  0.94839997
   0.21607310  0.44312058  0.05138440
   0.11256944  0.89177792  0.94468168
   0.22510422  0.77924917  0.05532508
   0.44902951  0.22278179  0.94872151
   0.55610373  0.11570792  0.05128767
   0.44892415  0.55848492  0.94927566
   0.56053320  0.44686235  0.04996815
   0.44295252  0.88879690  0.94606632
   0.55677969  0.77230938  0.05244416
   0.78024087  0.22722685  0.95001367
   0.89182860  0.11562009  0.05073917
   0.77496842  0.55399887  0.95110411
   0.88735570  0.44162308  0.04889993
   0.77646736  0.88276855  0.94863162
   0.88402756  0.77594591  0.05158474
unknown system                          
           1
     8.242741    4.776401    0.000000
    -8.242630    4.776209    0.000000
     0.000000    0.000000   30.000000
   V    Mo   W    S 
   3   3   3  18
Direct configuration=    13
   0.66155434  0.32811809 -0.00000183
   1.00171845  0.32909507  0.00028103
   0.66253872  0.66828892 -0.00028959
   0.32609151  0.32745900 -0.00001691
   0.02004899  0.68670048 -0.00000576
   0.66084341 -0.00702810  0.00001097
   0.00969786 -0.00003222 -0.00003530
   0.32120156 -0.01220808 -0.00000936
   0.33310834  0.67632615  0.00002199
   0.10533637  0.22330502  0.94743533
   0.22254661  0.10993001  0.05393047
   0.10947552  0.55131607  0.94852616
   0.21589661  0.44354734  0.05140497
   0.11294925  0.89251436  0.94408058
   0.22581749  0.77961813  0.05594559
   0.44787698  0.22203787  0.94887905
   0.55536820  0.11457352  0.05114709
   0.44834258  0.55871099  0.94925315
   0.56005566  0.44688647  0.04984336
   0.44327001  0.88920294  0.94607846
   0.55661511  0.77202593  0.05252195
   0.78027444  0.22675518  0.95013045
   0.89205200  0.11504964  0.05077875
   0.77618552  0.55440718  0.95176920
   0.88778451  0.44283442  0.04823572
   0.77688436  0.88259857  0.94862458
   0.88468006  0.77618149  0.05145981
unknown system                          
           1
     8.243774    4.777202    0.000000
    -8.243671    4.777024    0.000000
     0.000000    0.000000   30.000000
   V    Mo   W    S 
   3   3   3  18
Direct configuration=    14
   0.65957887  0.32610565  0.00000177
   1.00114406  0.32675951  0.00035207
   0.66027322  0.66767480 -0.00035714
   0.32598670  0.32841638  0.00001560
   0.02350402  0.69017250  0.00000165
   0.66181101 -0.00703147 -0.00000957
   0.01060371 -0.00012037 -0.00008769
   0.31943611 -0.01401642  0.00000005
   0.33294008  0.67721125  0.00008876
   0.10518968  0.22320552  0.94735735
   0.22297335  0.11022652  0.05388386
   0.10961160  0.55183321  0.94869181
   0.21568131  0.44382785  0.05134930
   0.11331292  0.89322019  0.94361586
   0.22650293  0.77997559  0.05640413
   0.44697692  0.22149292  0.94898216
   0.55482401  0.11367894  0.05104815
   0.44781114  0.55895368  0.94920918
   0.55970333  0.44688281  0.04975818
   0.44357382  0.88962829  0.94611239
   0.55651086  0.77188124  0.05257970
   0.78028548  0.22641261  0.95020592
   0.89229413  0.11452901  0.05082579
   0.77719687  0.55472240  0.95241037
   0.88811697  0.44383611  0.04758768
   0.77716426  0.88239566  0.94868223
   0.88520711  0.77634008  0.05129034
unknown system                          
           1
     8.241190    4.776592    0.000000
    -8.240918    4.776123    0.000000
     0.000000    0.000000   30.000000
   V    Mo   W    S 
   3   3   3  18
Direct configuration=    15
   0.66053820  0.32708364  0.00000272
   1.00117165  0.32719037  0.00033235
   0.66069625  0.66771803 -0.00033427
   0.32576332  0.32682019  0.00000968
   0.02161760  0.68828593  0.00000332
   0.66021921 -0.00725989 -0.00000162
   0.01130884  0.00060614 -0.00010527
   0.32075649 -0.01268148  0.00000229
   0.33368192  0.67790894  0.00010927
   0.10537816  0.22321811  0.94734669
   0.22288933  0.10997030  0.05399262
   0.10962928  0.55164528  0.94873647
   0.21594091  0.44369809  0.05116382
   0.11321633  0.89290399  0.94384973
   0.22619481  0.77987593  0.05616320
   0.44757508  0.22184007  0.94887016
   0.55516906  0.11426408  0.05115357
   0.44771805  0.55869285  0.94935952
   0.55986459  0.44683777  0.04977213
   0.44331410  0.88954416  0.94600202
   0.55652190  0.77206807  0.05260490
   0.78023877  0.22657198  0.95020247
   0.89203821  0.11443765  0.05066203
   0.77669440  0.55462843  0.95223037
   0.88801395  0.44333112  0.04776091
   0.77704494  0.88266246  0.94885679
   0.88501910  0.77635225  0.05125405
unknown system                          
           1
     8.246853    4.779616    0.000000
    -8.246663    4.779289    0.000000
     0.000000    0.000000   30.000000
   V    Mo   W    S 
   3   3   3  18
Direct configuration=    16
   0.66050428  0.32701105  0.00000404
   1.00136034  0.32765130  0.00033780
   0.66118944  0.66788548 -0.00033341
   0.32595663  0.32788740  0.00000863
   0.02161534  0.68824463  0.00000548
   0.66134237 -0.00695354  0.00000470
   0.01041295  0.00011139 -0.00008540
   0.32043595 -0.01300913  0.00000597
   0.33309198  0.67698609  0.00009585
   0.10527732  0.22325109  0.94740560
   0.22281784  0.11005859  0.05388858
   0.10950916  0.55160910  0.94865326
   0.21576879  0.44364954  0.05130840
   0.11315549  0.89294124  0.94383392
   0.22623646  0.77982143  0.05617578
   0.44740801  0.22176768  0.94893491
   0.55509652  0.11409768  0.05108802
   0.44795397  0.55883130  0.94926066
   0.55987304  0.44686995  0.04978085
   0.44340247  0.88947574  0.94610299
   0.55653921  0.77197800  0.05254819
   0.78029183  0.22659241  0.95019424
   0.89219172  0.11470567  0.05075334
   0.77678256  0.55459830  0.95217839
   0.88799110  0.44340463  0.04780879
   0.77700927  0.88251253  0.94870469
   0.88500039  0.77623492  0.05133563
unknown system                          
           1
     8.244246    4.778649    0.000000
    -8.244121    4.778433    0.000000
     0.000000    0.000000   30.000000
   V    Mo   W    S 
   3   3   3  18
Direct configuration=    17
   0.65970854  0.32619459  0.00000064
   1.00127626  0.32734588  0.00032037
   0.66091968  0.66776567 -0.00033217
   0.32645775  0.32998469  0.00000282
   0.02255561  0.68920736 -0.00000788
   0.66345145 -0.00640978 -0.00001461
   0.00940423 -0.00060961 -0.00009476
   0.31947333 -0.01400496 -0.00002233
   0.33234026  0.67597182  0.00006809
   0.10513387  0.22335533  0.94746423
   0.22285985  0.11031694  0.05368606
   0.10936634  0.55164030  0.94861553
   0.21536342  0.44363900  0.05153228
   0.11326011  0.89319503  0.94373498
   0.22647366  0.77992011  0.05631505
   0.44692069  0.22155267  0.94907174
   0.55487491  0.11362035  0.05097586
   0.44814050  0.55918237  0.94909449
   0.55978034  0.44697172  0.04976523
   0.44365736  0.88950620  0.94633443
   0.55663519  0.77185113  0.05246355
   0.78042992  0.22652811  0.95019746
   0.89253840  0.11490227  0.05095359
   0.77715742  0.55458366  0.95233814
   0.88798954  0.44376474  0.04765508
   0.77699763  0.88212853  0.94851188
   0.88504819  0.77611032  0.05137013
unknown system                          
           1
     8.244293    4.778935    0.000000
    -8.244164    4.778712    0.000000
     0.000000    0.000000   30.000000
   V    Mo   W    S 
   3   3   3  18
Direct configuration=    18
   0.65941811  0.32592307  0.00000740
   1.00078654  0.32619670  0.00033595
   0.65978705  0.66728940 -0.00033628
   0.32631314  0.32899871  0.00002603
   0.02288837  0.68957464  0.00000878
   0.66244336 -0.00657077 -0.00001059
   0.01061108  0.00011850 -0.00011836
   0.31974433 -0.01374270  0.00000774
   0.33308118  0.67717016  0.00012951
   0.10532859  0.22332082  0.94738900
   0.22303439  0.11026898  0.05375397
   0.10953756  0.55173969  0.94879272
   0.21551383  0.44370414  0.05128884
   0.11338940  0.89322850  0.94372726
   0.22650246  0.78004919  0.05628636
   0.44705053  0.22164707  0.94900399
   0.55496961  0.11374271  0.05102974
   0.44774000  0.55906601  0.94919932
   0.55972560  0.44689668  0.04974451
   0.44362449  0.88968437  0.94623689
   0.55661182  0.77203618  0.05252880
   0.78034430  0.22647008  0.95021569
   0.89241941  0.11448384  0.05083535
   0.77712018  0.55461182  0.95252262
   0.88801879  0.44373720  0.04746008
   0.77706312  0.88227001  0.94874255
   0.88514721  0.77629947  0.05119201
unknown system                          
           1
     8.245968    4.779775    0.000000
    -8.246003    4.779835    0.000000
     0.000000    0.000000   30.000000
   V    Mo   W    S 
   3   3   3  18
Direct configuration=    19
   0.65925599  0.32575629  0.00000786
   1.00069373  0.32598227  0.00033644
   0.65958596  0.66719031 -0.00033679
   0.32638008  0.32922552  0.00002912
   0.02305967  0.68974921  0.00000934
   0.66267482 -0.00648211 -0.00001285
   0.01059289  0.00011012 -0.00012291
   0.31964252 -0.01385189  0.00000852
   0.33305551  0.67714462  0.00013478
   0.10533935  0.22333383  0.94738682
   0.22306765  0.11031052  0.05373180
   0.10953449  0.55175526  0.94881016
   0.21546541  0.44370589  0.05129205
   0.11341819  0.89326987  0.94371004
   0.22654099  0.78007644  0.05630332
   0.44699623  0.22163346  0.94901240
   0.55495551  0.11368792  0.05102250
   0.44772153  0.55910666  0.94917894
   0.55970670  0.44689775  0.04974601
   0.44366730  0.88971628  0.94625816
   0.55662400  0.77204814  0.05252819
   0.78035029  0.22645509  0.95021334
   0.89246149  0.11446809  0.05085642
   0.77716881  0.55461255  0.95256740
   0.88802247  0.44378406  0.04741350
   0.77706723  0.88222642  0.94873997
   0.88516565  0.77630189  0.05117536
unknown system                          
           1
     8.255501    4.785286    0.000000
    -8.255555    4.785379    0.000000
     0.000000    0.000000   30.000000
   V    Mo   W    S 
   3   3   3  18
Direct configuration=    20
   0.65911350  0.32565283  0.00000258
   1.00030987  0.32503464  0.00033157
   0.65861646  0.66681593 -0.00034627
   0.32611962  0.32796736  0.00003095
   0.02331970  0.69005014 -0.00000160
   0.66135277 -0.00683190 -0.00003365
   0.01185407  0.00080589 -0.00016353
   0.31993470 -0.01355984 -0.00000837
   0.33383070  0.67842335  0.00014969
   0.10550320  0.22329268  0.94727624
   0.22323119  0.11027171  0.05389199
   0.10969672  0.55185407  0.94893337
   0.21565483  0.44377581  0.05111621
   0.11352629  0.89327070  0.94368020
   0.22653175  0.78016406  0.05635076
   0.44715276  0.22171506  0.94889982
   0.55503959  0.11384093  0.05114245
   0.44737250  0.55894208  0.94925879
   0.55966232  0.44683549  0.04977584
   0.44362113  0.88986917  0.94611179
   0.55660280  0.77219604  0.05264877
   0.78026141  0.22639224  0.95019011
   0.89228296  0.11408617  0.05078587
   0.77715552  0.55470659  0.95267019
   0.88811011  0.44379002  0.04731385
   0.77712614  0.88239647  0.94892651
   0.88523185  0.77645675  0.05106577
unknown system                          
           1
     8.249777    4.782235    0.000000
    -8.249858    4.782373    0.000000
     0.000000    0.000000   30.000000
   V    Mo   W    S 
   3   3   3  18
Direct configuration=    21
   0.65889528  0.32541646 -0.00000062
   1.00044974  0.32557714  0.00031069
   0.65917684  0.66694492 -0.00033685
   0.32672113  0.32987337  0.00001860
   0.02322801  0.68995592 -0.00001244
   0.66327965 -0.00620255 -0.00003822
   0.01040534  0.00004735 -0.00015685
   0.31955631 -0.01394601 -0.00002495
   0.33304643  0.67696948  0.00011773
   0.10536114  0.22339775  0.94739370
   0.22313393  0.11041002  0.05369799
   0.10949659  0.55171532  0.94883683
   0.21532492  0.44368338  0.05133208
   0.11348356  0.89334057  0.94370383
   0.22659901  0.78012800  0.05635256
   0.44692880  0.22162533  0.94903957
   0.55494693  0.11362269  0.05101522
   0.44775449  0.55923493  0.94912479
   0.55971762  0.44693022  0.04975464
   0.44375429  0.88976627  0.94632340
   0.55669968  0.77206430  0.05252866
   0.78038403  0.22646937  0.95020797
   0.89257681  0.11448436  0.05093517
   0.77718028  0.55455255  0.95264757
   0.88796385  0.44379688  0.04734444
   0.77703925  0.88208700  0.94872160
   0.88511055  0.77626944  0.05116281
unknown system                          
           1
     8.250672    4.782947    0.000000
    -8.250785    4.783141    0.000000
     0.000000    0.000000   30.000000
   V    Mo   W    S 
   3   3   3  18
Direct configuration=    22
   0.65851139  0.32505864  0.00000844
   0.99974134  0.32395079  0.00033034
   0.65755306  0.66625031 -0.00033419
   0.32641985  0.32829757  0.00005731
   0.02376310  0.69052450  0.00001547
   0.66165398 -0.00653773 -0.00003794
   0.01218146  0.00115019 -0.00016692
   0.31993096 -0.01358056  0.00001249
   0.33418134  0.67874577  0.00018419
   0.10560171  0.22334578  0.94726137
   0.22336784  0.11036418  0.05383896
   0.10975045  0.55187418  0.94905228
   0.21554972  0.44378893  0.05101676
   0.11365714  0.89340897  0.94364347
   0.22665792  0.78029011  0.05636017
   0.44710733  0.22173260  0.94890228
   0.55505891  0.11379196  0.05113164
   0.44723020  0.55902281  0.94922322
   0.55964795  0.44683101  0.04976658
   0.44372349  0.89000634  0.94614091
   0.55666189  0.77228659  0.05265020
   0.78025134  0.22637684  0.95019482
   0.89235996  0.11393270  0.05081081
   0.77716747  0.55467050  0.95285756
   0.88807915  0.44380586  0.04711898
   0.77714389  0.88229033  0.94901869
   0.88526161  0.77653530  0.05094199
unknown system                          
           1
     8.242557    4.777172    0.000000
    -8.241993    4.776199    0.000000
     0.000000    0.000000   30.000000
   V    Mo   W    S 
   3   3   3  18
Direct configuration=    23
   0.65826154  0.32481522  0.00000671
   0.99949873  0.32351147  0.00032303
   0.65711912  0.66600303 -0.00033228
   0.32655892  0.32849555  0.00006094
   0.02397157  0.69074585  0.00001153
   0.66183214 -0.00640573 -0.00004846
   0.01229340  0.00126074 -0.00018027
   0.31987850 -0.01364144  0.00000628
   0.33429878  0.67885397  0.00018779
   0.10564304  0.22337739  0.94726054
   0.22342685  0.11042059  0.05382153
   0.10976781  0.55187809  0.94909998
   0.21549732  0.44379122  0.05098835
   0.11370833  0.89346822  0.94364250
   0.22671330  0.78033531  0.05636845
   0.44708111  0.22174314  0.94890320
   0.55507032  0.11376517  0.05113498
   0.44718850  0.55905808  0.94919769
   0.55964315  0.44682998  0.04977463
   0.44377626  0.89005906  0.94616291
   0.55669614  0.77232498  0.05265393
   0.78024930  0.22637010  0.95018930
   0.89239194  0.11388699  0.05083866
   0.77717443  0.55465585  0.95292627
   0.88806642  0.44381392  0.04705066
   0.77714690  0.88224086  0.94905102
   0.88526062  0.77655685  0.05090004
unknown system                          
           1
     8.259307    4.788379    0.000000
    -8.259511    4.788731    0.000000
     0.000000    0.000000   30.000000
   V    Mo   W    S 
   3   3   3  18
Direct configuration=    24
   0.66027212  0.32675262 -0.00000802
   1.00138516  0.32635528  0.00035106
   0.66009831  0.66787755 -0.00039211
   0.32489234  0.32540332 -0.00001514
   0.02254323  0.68921517 -0.00003902
   0.65896057 -0.00781571 -0.00003638
   0.01260085  0.00113147 -0.00021576
   0.32068526 -0.01279260 -0.00005574
   0.33401252  0.67917396  0.00013185
   0.10538982  0.22306923  0.94720417
   0.22307019  0.10995642  0.05417537
   0.10973212  0.55189233  0.94879947
   0.21608248  0.44379250  0.05107941
   0.11334662  0.89298870  0.94368072
   0.22626041  0.77999056  0.05640572
   0.44745494  0.22175094  0.94882216
   0.55507375  0.11414899  0.05123836
   0.44716238  0.55855349  0.94951365
   0.55965030  0.44674971  0.04972895
   0.44328597  0.88970490  0.94588067