   27   27  100    1
  0.9710400E+02  0.1002848E-08  0.1002848E-08  0.3000000E-08  0.5000000E-15
  1.000000000000000E-004
  CAR 
 unknown system                          
    159     34    120
 
  0.0000000E+00  0.0000000E+00  0.0000000E+00  0.1562500E-01
    1      -17.838791   1.000000
    2      -16.786890   1.000000
    3      -16.695003   1.000000
    4      -16.604562   1.000000
    5      -16.557491   1.000000
    6      -16.459573   1.000000
    7      -16.421862   1.000000
    8      -16.265201   1.000000
    9      -16.228705   1.000000
   10      -16.134306   1.000000
   11      -16.077347   1.000000
   12      -15.984607   1.000000
   13      -15.897743   1.000000
   14      -15.607779   1.000000
   15      -15.600017   1.000000
   16      -15.470492   1.000000
   17      -15.236800   1.000000
   18      -15.214644   1.000000
   19       -9.394869   1.000000
   20       -9.054899   1.000000
   21       -8.991482   1.000000
   22       -8.841112   1.000000
   23       -8.742525   1.000000
   24       -8.711391   1.000000
   25       -8.692721   1.000000
   26       -8.677312   1.000000
   27       -8.538995   1.000000
   28       -8.507413   1.000000
   29       -8.450457   1.000000
   30       -8.414117   1.000000
   31       -8.250183   1.000000
   32       -8.135764   1.000000
   33       -8.090176   1.000000
   34       -7.984606   1.000000
   35       -7.790257   1.000000
   36       -7.753983   1.000000
   37       -7.624590   1.000000
   38       -7.576680   1.000000
   39       -7.539510   1.000000
   40       -7.342962   1.000000
   41       -7.328707   1.000000
   42       -7.232717   1.000000
   43       -7.098452   1.000000
   44       -6.938339   1.000000
   45       -6.873769   1.000000
   46       -6.785846   1.000000
   47       -6.763915   1.000000
   48       -6.671583   1.000000
   49       -6.599510   1.000000
   50       -6.491602   1.000000
   51       -6.431479   1.000000
   52       -6.278140   1.000000
   53       -6.226465   1.000000
   54       -6.182857   1.000000
   55       -6.151988   1.000000
   56       -6.082647   1.000000
   57       -6.025695   1.000000
   58       -5.933047   1.000000
   59       -5.875382   1.000000
   60       -5.624100   1.000000
   61       -5.594864   1.000000
   62       -5.341922   1.000000
   63       -5.325179   1.000000
   64       -5.053614   1.000000
   65       -5.025012   1.000000
   66       -4.949410   1.000000
   67       -4.877535   1.000000
   68       -4.856362   1.000000
   69       -4.765900   1.000000
   70       -4.720815   1.000000
   71       -4.646576   1.000000
   72       -4.620759   1.000000
   73       -4.424858   1.000000
   74       -4.394340   1.000000
   75       -4.276445   1.000000
   76       -3.987291   1.000000
   77       -3.762919   0.999867
   78       -3.582762   0.991150
   79       -3.468549   0.941118
   80       -3.241828   0.484471
   81       -3.199304   0.367067
   82       -2.894837   0.006342
   83       -2.700744   0.000056
   84       -2.653028   0.000013
   85       -2.598922   0.000002
   86       -2.497501   0.000000
   87       -2.287022   0.000000
   88       -2.274492   0.000000
   89       -2.225664   0.000000
   90       -2.075222   0.000000
   91       -1.724477   0.000000
   92       -1.553964   0.000000
   93       -1.423079   0.000000
   94       -1.244255   0.000000
   95       -1.185072   0.000000
   96       -1.010054   0.000000
   97       -0.893565   0.000000
   98       -0.832822   0.000000
   99       -0.774254   0.000000
  100       -0.636980   0.000000
  101       -0.608842   0.000000
  102       -0.509688   0.000000
  103       -0.427520   0.000000
  104       -0.279810   0.000000
  105       -0.248804   0.000000
  106       -0.138076   0.000000
  107       -0.086469   0.000000
  108        0.026694   0.000000
  109        0.219131   0.000000
  110        0.251675   0.000000
  111        0.352106   0.000000
  112        0.491713   0.000000
  113        0.663368   0.000000
  114        0.743477   0.000000
  115        0.982730   0.000000
  116        1.165463   0.000000
  117        1.220224   0.000000
  118        1.643698   0.000000
  119        1.838243   0.000000
  120        2.164765   0.000000
 
  0.1250000E+00  0.2775558E-16  0.0000000E+00  0.3125000E-01
    1      -17.814353   1.000000
    2      -16.818520   1.000000
    3      -16.773789   1.000000
    4      -16.626853   1.000000
    5      -16.547890   1.000000
    6      -16.447665   1.000000
    7      -16.403079   1.000000
    8      -16.303912   1.000000
    9      -16.232547   1.000000
   10      -16.077766   1.000000
   11      -16.012823   1.000000
   12      -15.985987   1.000000
   13      -15.873032   1.000000
   14      -15.607414   1.000000
   15      -15.592877   1.000000
   16      -15.474642   1.000000
   17      -15.267705   1.000000
   18      -15.209748   1.000000
   19       -9.390147   1.000000
   20       -9.190559   1.000000
   21       -9.079915   1.000000
   22       -8.932451   1.000000
   23       -8.799077   1.000000
   24       -8.728931   1.000000
   25       -8.678080   1.000000
   26       -8.649688   1.000000
   27       -8.551209   1.000000
   28       -8.511671   1.000000
   29       -8.449585   1.000000
   30       -8.295921   1.000000
   31       -8.176349   1.000000
   32       -8.030335   1.000000
   33       -7.984964   1.000000
   34       -7.877581   1.000000
   35       -7.852904   1.000000
   36       -7.735201   1.000000
   37       -7.671802   1.000000
   38       -7.494111   1.000000
   39       -7.448280   1.000000
   40       -7.410205   1.000000
   41       -7.340518   1.000000
   42       -7.223676   1.000000
   43       -7.150728   1.000000
   44       -6.964739   1.000000
   45       -6.867165   1.000000
   46       -6.821855   1.000000
   47       -6.780249   1.000000
   48       -6.666333   1.000000
   49       -6.599046   1.000000
   50       -6.485047   1.000000
   51       -6.429969   1.000000
   52       -6.320815   1.000000
   53       -6.257093   1.000000
   54       -6.162706   1.000000
   55       -6.123681   1.000000
   56       -6.088739   1.000000
   57       -6.039731   1.000000
   58       -5.898156   1.000000
   59       -5.780703   1.000000
   60       -5.588238   1.000000
   61       -5.553005   1.000000
   62       -5.387278   1.000000
   63       -5.325829   1.000000
   64       -5.228778   1.000000
   65       -5.087086   1.000000
   66       -5.042486   1.000000
   67       -4.947868   1.000000
   68       -4.837147   1.000000
   69       -4.781593   1.000000
   70       -4.670084   1.000000
   71       -4.629473   1.000000
   72       -4.517602   1.000000
   73       -4.387340   1.000000
   74       -4.316764   1.000000
   75       -4.257336   1.000000
   76       -3.913504   0.999999
   77       -3.824591   0.999978
   78       -3.668394   0.998546
   79       -3.505390   0.965979
   80       -3.392660   0.847933
   81       -3.020754   0.054559
   82       -2.897634   0.006704
   83       -2.710426   0.000073
   84       -2.615626   0.000004
   85       -2.601124   0.000002
   86       -2.497683   0.000000
   87       -2.287129   0.000000
   88       -2.233054   0.000000
   89       -2.194473   0.000000
   90       -2.079787   0.000000
   91       -1.729192   0.000000
   92       -1.527346   0.000000
   93       -1.427346   0.000000
   94       -1.244670   0.000000
   95       -1.187880   0.000000
   96       -1.007351   0.000000
   97       -0.905827   0.000000
   98       -0.838613   0.000000
   99       -0.796616   0.000000
  100       -0.682064   0.000000
  101       -0.653703   0.000000
  102       -0.583647   0.000000
  103       -0.506496   0.000000
  104       -0.347314   0.000000
  105       -0.292221   0.000000
  106       -0.157614   0.000000
  107       -0.106460   0.000000
  108        0.110004   0.000000
  109        0.199998   0.000000
  110        0.256424   0.000000
  111        0.324027   0.000000
  112        0.472511   0.000000
  113        0.627893   0.000000
  114        0.776852   0.000000
  115        1.028511   0.000000
  116        1.206126   0.000000
  117        1.263052   0.000000
  118        1.688731   0.000000
  119        1.877758   0.000000
  120        2.200167   0.000000
 
  0.2500000E+00  0.5551115E-16  0.0000000E+00  0.3125000E-01
    1      -17.743066   1.000000
    2      -17.007791   1.000000
    3      -16.766423   1.000000
    4      -16.684472   1.000000
    5      -16.596512   1.000000
    6      -16.437443   1.000000
    7      -16.399190   1.000000
    8      -16.257335   1.000000
    9      -16.196124   1.000000
   10      -16.064104   1.000000
   11      -15.982560   1.000000
   12      -15.880356   1.000000
   13      -15.837054   1.000000
   14      -15.595136   1.000000
   15      -15.573016   1.000000
   16      -15.474828   1.000000
   17      -15.324578   1.000000
   18      -15.223189   1.000000
   19       -9.534102   1.000000
   20       -9.306172   1.000000
   21       -9.202242   1.000000
   22       -9.018757   1.000000
   23       -8.942760   1.000000
   24       -8.766784   1.000000
   25       -8.652580   1.000000
   26       -8.606884   1.000000
   27       -8.509335   1.000000
   28       -8.450157   1.000000
   29       -8.379874   1.000000
   30       -8.212873   1.000000
   31       -8.086937   1.000000
   32       -8.019125   1.000000
   33       -7.937517   1.000000
   34       -7.784743   1.000000
   35       -7.760420   1.000000
   36       -7.610032   1.000000
   37       -7.597778   1.000000
   38       -7.536268   1.000000
   39       -7.424891   1.000000
   40       -7.379294   1.000000
   41       -7.287007   1.000000
   42       -7.216248   1.000000
   43       -7.147306   1.000000
   44       -7.007365   1.000000
   45       -6.922535   1.000000
   46       -6.848430   1.000000
   47       -6.744417   1.000000
   48       -6.658938   1.000000
   49       -6.536875   1.000000
   50       -6.478656   1.000000
   51       -6.449692   1.000000
   52       -6.347220   1.000000
   53       -6.283947   1.000000
   54       -6.172405   1.000000
   55       -6.139594   1.000000
   56       -6.082183   1.000000
   57       -5.914395   1.000000
   58       -5.848276   1.000000
   59       -5.710652   1.000000
   60       -5.689886   1.000000
   61       -5.560852   1.000000
   62       -5.512130   1.000000
   63       -5.444822   1.000000
   64       -5.251156   1.000000
   65       -5.172328   1.000000
   66       -5.162457   1.000000
   67       -5.047266   1.000000
   68       -4.856050   1.000000
   69       -4.785945   1.000000
   70       -4.594263   1.000000
   71       -4.507729   1.000000
   72       -4.458655   1.000000
   73       -4.304672   1.000000
   74       -4.245670   1.000000
   75       -4.140203   1.000000
   76       -4.090507   1.000000
   77       -3.923617   0.999999
   78       -3.729818   0.999677
   79       -3.505909   0.966255
   80       -3.396232   0.853798
   81       -2.959293   0.020837
   82       -2.892023   0.005995
   83       -2.701830   0.000057
   84       -2.604137   0.000003
   85       -2.534958   0.000000
   86       -2.494894   0.000000
   87       -2.276329   0.000000
   88       -2.164083   0.000000
   89       -2.125106   0.000000
   90       -2.069308   0.000000
   91       -1.730580   0.000000
   92       -1.467421   0.000000
   93       -1.430170   0.000000
   94       -1.252000   0.000000
   95       -1.203071   0.000000
   96       -1.040984   0.000000
   97       -0.937245   0.000000
   98       -0.914805   0.000000
   99       -0.843792   0.000000
  100       -0.812334   0.000000
  101       -0.722685   0.000000
  102       -0.658290   0.000000
  103       -0.639215   0.000000
  104       -0.453631   0.000000
  105       -0.383279   0.000000
  106       -0.179682   0.000000
  107       -0.113645   0.000000
  108       -0.008713   0.000000
  109        0.085706   0.000000
  110        0.279906   0.000000
  111        0.346973   0.000000
  112        0.455458   0.000000
  113        0.616548   0.000000
  114        0.869856   0.000000
  115        1.134349   0.000000
  116        1.260487   0.000000
  117        1.377235   0.000000
  118        1.814643   0.000000
  119        1.991336   0.000000
  120        2.305098   0.000000
 
  0.3750000E+00  0.0000000E+00  0.0000000E+00  0.3125000E-01
    1      -17.634764   1.000000
    2      -17.204936   1.000000
    3      -16.755160   1.000000
    4      -16.721900   1.000000
    5      -16.647613   1.000000
    6      -16.471166   1.000000
    7      -16.367166   1.000000
    8      -16.206269   1.000000
    9      -16.165679   1.000000
   10      -16.043274   1.000000
   11      -15.924949   1.000000
   12      -15.870024   1.000000
   13      -15.784403   1.000000
   14      -15.608299   1.000000
   15      -15.547472   1.000000
   16      -15.432066   1.000000
   17      -15.370368   1.000000
   18      -15.259419   1.000000
   19       -9.738502   1.000000
   20       -9.383797   1.000000
   21       -9.212146   1.000000
   22       -9.055772   1.000000
   23       -9.012433   1.000000
   24       -8.833677   1.000000
   25       -8.602403   1.000000
   26       -8.555234   1.000000
   27       -8.479807   1.000000
   28       -8.344478   1.000000
   29       -8.321260   1.000000
   30       -8.227459   1.000000
   31       -8.101185   1.000000
   32       -7.967260   1.000000
   33       -7.949122   1.000000
   34       -7.810323   1.000000
   35       -7.753348   1.000000
   36       -7.663341   1.000000
   37       -7.589129   1.000000
   38       -7.492992   1.000000
   39       -7.381598   1.000000
   40       -7.306280   1.000000
   41       -7.204235   1.000000
   42       -7.137515   1.000000
   43       -7.060273   1.000000
   44       -6.995743   1.000000
   45       -6.915154   1.000000
   46       -6.796725   1.000000
   47       -6.674113   1.000000
   48       -6.582404   1.000000
   49       -6.529454   1.000000
   50       -6.501346   1.000000
   51       -6.352648   1.000000
   52       -6.333123   1.000000
   53       -6.269817   1.000000
   54       -6.178964   1.000000
   55       -6.075805   1.000000
   56       -6.049020   1.000000
   57       -6.033224   1.000000
   58       -5.992134   1.000000
   59       -5.849129   1.000000
   60       -5.714784   1.000000
   61       -5.648506   1.000000
   62       -5.561357   1.000000
   63       -5.499880   1.000000
   64       -5.302667   1.000000
   65       -5.196430   1.000000
   66       -5.091717   1.000000
   67       -5.049939   1.000000
   68       -4.859102   1.000000
   69       -4.791078   1.000000
   70       -4.668949   1.000000
   71       -4.499645   1.000000
   72       -4.439018   1.000000
   73       -4.334299   1.000000
   74       -4.250558   1.000000
   75       -4.154529   1.000000
   76       -4.029778   1.000000
   77       -3.928060   0.999999
   78       -3.739130   0.999747
   79       -3.537503   0.979905
   80       -3.258672   0.531948
   81       -2.981728   0.030182
   82       -2.914278   0.009260
   83       -2.674504   0.000026
   84       -2.610589   0.000003
   85       -2.501575   0.000000
   86       -2.449850   0.000000
   87       -2.241292   0.000000
   88       -2.127090   0.000000
   89       -2.082877   0.000000
   90       -2.016444   0.000000
   91       -1.711506   0.000000
   92       -1.458752   0.000000
   93       -1.372156   0.000000
   94       -1.285898   0.000000
   95       -1.238705   0.000000
   96       -1.121877   0.000000
   97       -1.055686   0.000000
   98       -0.935534   0.000000
   99       -0.917551   0.000000
  100       -0.873584   0.000000
  101       -0.803456   0.000000
  102       -0.758362   0.000000
  103       -0.626127   0.000000
  104       -0.517440   0.000000
  105       -0.447142   0.000000
  106       -0.259711   0.000000
  107       -0.210378   0.000000
  108       -0.067631   0.000000
  109       -0.034785   0.000000
  110        0.256230   0.000000
  111        0.347500   0.000000
  112        0.453670   0.000000
  113        0.661537   0.000000
  114        0.965100   0.000000
  115        1.235391   0.000000
  116        1.313451   0.000000
  117        1.468343   0.000000
  118        2.001962   0.000000
  119        2.168422   0.000000
  120        2.472922   0.000000
 
  0.5000000E+00  0.1110223E-15  0.0000000E+00  0.1562500E-01
    1      -17.551759   1.000000
    2      -17.319910   1.000000
    3      -16.757653   1.000000
    4      -16.723054   1.000000
    5      -16.670652   1.000000
    6      -16.484047   1.000000
    7      -16.354272   1.000000
    8      -16.199845   1.000000
    9      -16.154025   1.000000
   10      -16.005325   1.000000
   11      -15.907560   1.000000
   12      -15.892404   1.000000
   13      -15.734882   1.000000
   14      -15.646021   1.000000
   15      -15.531231   1.000000
   16      -15.432703   1.000000
   17      -15.328063   1.000000
   18      -15.309594   1.000000
   19       -9.815389   1.000000
   20       -9.421158   1.000000
   21       -9.216137   1.000000
   22       -9.091255   1.000000
   23       -8.968192   1.000000
   24       -8.865245   1.000000
   25       -8.596451   1.000000
   26       -8.566098   1.000000
   27       -8.469608   1.000000
   28       -8.294933   1.000000
   29       -8.257118   1.000000
   30       -8.184176   1.000000
   31       -8.135071   1.000000
   32       -7.986377   1.000000
   33       -7.957495   1.000000
   34       -7.889816   1.000000
   35       -7.740301   1.000000
   36       -7.686174   1.000000
   37       -7.582140   1.000000
   38       -7.476601   1.000000
   39       -7.419593   1.000000
   40       -7.330569   1.000000
   41       -7.208195   1.000000
   42       -7.024531   1.000000
   43       -7.012387   1.000000
   44       -6.934285   1.000000
   45       -6.760337   1.000000
   46       -6.679101   1.000000
   47       -6.625592   1.000000
   48       -6.588621   1.000000
   49       -6.539866   1.000000
   50       -6.517360   1.000000
   51       -6.427630   1.000000
   52       -6.366680   1.000000
   53       -6.321230   1.000000
   54       -6.238940   1.000000
   55       -6.196073   1.000000
   56       -6.074106   1.000000
   57       -5.986916   1.000000
   58       -5.834732   1.000000
   59       -5.808616   1.000000
   60       -5.721388   1.000000
   61       -5.696708   1.000000
   62       -5.576557   1.000000
   63       -5.534526   1.000000
   64       -5.408351   1.000000
   65       -5.208327   1.000000
   66       -5.059577   1.000000
   67       -5.039971   1.000000
   68       -4.968593   1.000000
   69       -4.833921   1.000000
   70       -4.604394   1.000000
   71       -4.490342   1.000000
   72       -4.461661   1.000000
   73       -4.351984   1.000000
   74       -4.248534   1.000000
   75       -4.209522   1.000000
   76       -3.955506   1.000000
   77       -3.843916   0.999988
   78       -3.760782   0.999859
   79       -3.588861   0.992131
   80       -3.146874   0.238738
   81       -2.998394   0.039180
   82       -2.964706   0.022832
   83       -2.663658   0.000018
   84       -2.611926   0.000004
   85       -2.496156   0.000000
   86       -2.420048   0.000000
   87       -2.218786   0.000000
   88       -2.118900   0.000000
   89       -2.065308   0.000000
   90       -1.997166   0.000000
   91       -1.694942   0.000000
   92       -1.454695   0.000000
   93       -1.333042   0.000000
   94       -1.313658   0.000000
   95       -1.264676   0.000000
   96       -1.174483   0.000000
   97       -1.092707   0.000000
   98       -0.970866   0.000000
   99       -0.939680   0.000000
  100       -0.902129   0.000000
  101       -0.815307   0.000000
  102       -0.780397   0.000000
  103       -0.602074   0.000000
  104       -0.558237   0.000000
  105       -0.469894   0.000000
  106       -0.307206   0.000000
  107       -0.263648   0.000000
  108       -0.114831   0.000000
  109       -0.042000   0.000000
  110        0.247035   0.000000
  111        0.342960   0.000000
  112        0.451832   0.000000
  113        0.684713   0.000000
  114        0.998698   0.000000
  115        1.277001   0.000000
  116        1.336074   0.000000
  117        1.500621   0.000000
  118        2.228780   0.000000
  119        2.244293   0.000000
  120        2.402231   0.000000
 
  0.0000000E+00  0.1250000E+00  0.0000000E+00  0.3125000E-01
    1      -17.813647   1.000000
    2      -16.827559   1.000000
    3      -16.772069   1.000000
    4      -16.631545   1.000000
    5      -16.543771   1.000000
    6      -16.421549   1.000000
    7      -16.392063   1.000000
    8      -16.324750   1.000000
    9      -16.246617   1.000000
   10      -16.087790   1.000000
   11      -16.010944   1.000000
   12      -15.970156   1.000000
   13      -15.874929   1.000000
   14      -15.608177   1.000000
   15      -15.590112   1.000000
   16      -15.478692   1.000000
   17      -15.266190   1.000000
   18      -15.209661   1.000000
   19       -9.384512   1.000000
   20       -9.221368   1.000000
   21       -9.107307   1.000000
   22       -8.931132   1.000000
   23       -8.776388   1.000000
   24       -8.731453   1.000000
   25       -8.651989   1.000000
   26       -8.637434   1.000000
   27       -8.550478   1.000000
   28       -8.437405   1.000000
   29       -8.390783   1.000000
   30       -8.328392   1.000000
   31       -8.285744   1.000000
   32       -8.033910   1.000000
   33       -7.954627   1.000000
   34       -7.943159   1.000000
   35       -7.822302   1.000000
   36       -7.726981   1.000000
   37       -7.688389   1.000000
   38       -7.528397   1.000000
   39       -7.420908   1.000000
   40       -7.400640   1.000000
   41       -7.317333   1.000000
   42       -7.271147   1.000000
   43       -7.122514   1.000000
   44       -6.952924   1.000000
   45       -6.900215   1.000000
   46       -6.807412   1.000000
   47       -6.730164   1.000000
   48       -6.678958   1.000000
   49       -6.608645   1.000000
   50       -6.482862   1.000000
   51       -6.428447   1.000000
   52       -6.306354   1.000000
   53       -6.258833   1.000000
   54       -6.186532   1.000000
   55       -6.146603   1.000000
   56       -6.073630   1.000000
   57       -6.006125   1.000000
   58       -5.920886   1.000000
   59       -5.805805   1.000000
   60       -5.578411   1.000000
   61       -5.551403   1.000000
   62       -5.395630   1.000000
   63       -5.342855   1.000000
   64       -5.222573   1.000000
   65       -5.056580   1.000000
   66       -5.042761   1.000000
   67       -4.896910   1.000000
   68       -4.842421   1.000000
   69       -4.793308   1.000000
   70       -4.662735   1.000000
   71       -4.639261   1.000000
   72       -4.552802   1.000000
   73       -4.437413   1.000000
   74       -4.332779   1.000000
   75       -4.202314   1.000000
   76       -3.912352   0.999999
   77       -3.798156   0.999951
   78       -3.698022   0.999281
   79       -3.495588   0.960406
   80       -3.402119   0.863130
   81       -3.013248   0.048937
   82       -2.895987   0.006488
   83       -2.717570   0.000090
   84       -2.628360   0.000006
   85       -2.585849   0.000001
   86       -2.496504   0.000000
   87       -2.275432   0.000000
   88       -2.244311   0.000000
   89       -2.197839   0.000000
   90       -2.067267   0.000000
   91       -1.728334   0.000000
   92       -1.531899   0.000000
   93       -1.429913   0.000000
   94       -1.243432   0.000000
   95       -1.177316   0.000000
   96       -1.012830   0.000000
   97       -0.910256   0.000000
   98       -0.833187   0.000000
   99       -0.786352   0.000000
  100       -0.692000   0.000000
  101       -0.615659   0.000000
  102       -0.567910   0.000000
  103       -0.461728   0.000000
  104       -0.383796   0.000000
  105       -0.318386   0.000000
  106       -0.251737   0.000000
  107       -0.140359   0.000000
  108        0.120785   0.000000
  109        0.242757   0.000000
  110        0.269038   0.000000
  111        0.349856   0.000000
  112        0.510033   0.000000
  113        0.700988   0.000000
  114        0.779841   0.000000
  115        0.996833   0.000000
  116        1.168734   0.000000
  117        1.217821   0.000000
  118        1.688954   0.000000
  119        1.876939   0.000000
  120        2.200253   0.000000
 
  0.1250000E+00  0.1250000E+00  0.0000000E+00  0.3125000E-01
    1      -17.764205   1.000000
    2      -16.962782   1.000000
    3      -16.757674   1.000000
    4      -16.706465   1.000000
    5      -16.536713   1.000000
    6      -16.431379   1.000000
    7      -16.403203   1.000000
    8      -16.271600   1.000000
    9      -16.208773   1.000000
   10      -16.109943   1.000000
   11      -16.009197   1.000000
   12      -15.876738   1.000000
   13      -15.838620   1.000000
   14      -15.591285   1.000000
   15      -15.565091   1.000000
   16      -15.474618   1.000000
   17      -15.317081   1.000000
   18      -15.224963   1.000000
   19       -9.473966   1.000000
   20       -9.318791   1.000000
   21       -9.224126   1.000000
   22       -8.989158   1.000000
   23       -8.842939   1.000000
   24       -8.718668   1.000000
   25       -8.653286   1.000000
   26       -8.594571   1.000000
   27       -8.519391   1.000000
   28       -8.465921   1.000000
   29       -8.390525   1.000000
   30       -8.285697   1.000000
   31       -8.158585   1.000000
   32       -8.032533   1.000000
   33       -7.967415   1.000000
   34       -7.848855   1.000000
   35       -7.725428   1.000000
   36       -7.631015   1.000000
   37       -7.583785   1.000000
   38       -7.498444   1.000000
   39       -7.450560   1.000000
   40       -7.352422   1.000000
   41       -7.274651   1.000000
   42       -7.251890   1.000000
   43       -7.170978   1.000000
   44       -6.988974   1.000000
   45       -6.940925   1.000000
   46       -6.849585   1.000000
   47       -6.753936   1.000000
   48       -6.698856   1.000000
   49       -6.550042   1.000000
   50       -6.497452   1.000000
   51       -6.398680   1.000000
   52       -6.375607   1.000000
   53       -6.325196   1.000000
   54       -6.179297   1.000000
   55       -6.130560   1.000000
   56       -6.068591   1.000000
   57       -5.921519   1.000000
   58       -5.790967   1.000000
   59       -5.723328   1.000000
   60       -5.681168   1.000000
   61       -5.536201   1.000000
   62       -5.467161   1.000000
   63       -5.320698   1.000000
   64       -5.253408   1.000000
   65       -5.211621   1.000000
   66       -5.163035   1.000000
   67       -5.056787   1.000000
   68       -4.827377   1.000000
   69       -4.789196   1.000000
   70       -4.634935   1.000000
   71       -4.518420   1.000000
   72       -4.509265   1.000000
   73       -4.318078   1.000000
   74       -4.265522   1.000000
   75       -4.153199   1.000000
   76       -3.999114   1.000000
   77       -3.871511   0.999995
   78       -3.689803   0.999122
   79       -3.609545   0.994785
   80       -3.387087   0.838472
   81       -2.969094   0.024565
   82       -2.897711   0.006714
   83       -2.721025   0.000099
   84       -2.596239   0.000002
   85       -2.567696   0.000001
   86       -2.497709   0.000000
   87       -2.311474   0.000000
   88       -2.191194   0.000000
   89       -2.133643   0.000000
   90       -2.059826   0.000000
   91       -1.729536   0.000000
   92       -1.476040   0.000000
   93       -1.437803   0.000000
   94       -1.240421   0.000000
   95       -1.177724   0.000000
   96       -1.030278   0.000000
   97       -0.937922   0.000000
   98       -0.855167   0.000000
   99       -0.829361   0.000000
  100       -0.727788   0.000000
  101       -0.708530   0.000000
  102       -0.628493   0.000000
  103       -0.544986   0.000000
  104       -0.454217   0.000000
  105       -0.403051   0.000000
  106       -0.254367   0.000000
  107       -0.197937   0.000000
  108        0.080814   0.000000
  109        0.169919   0.000000
  110        0.246635   0.000000
  111        0.321384   0.000000
  112        0.521012   0.000000
  113        0.692325   0.000000
  114        0.843925   0.000000
  115        1.081065   0.000000
  116        1.225393   0.000000
  117        1.331399   0.000000
  118        1.775979   0.000000
  119        1.951166   0.000000
  120        2.271060   0.000000
 
  0.2500000E+00  0.1250000E+00  0.0000000E+00  0.3125000E-01
    1      -17.671576   1.000000
    2      -17.128521   1.000000
    3      -16.833318   1.000000
    4      -16.734794   1.000000
    5      -16.534936   1.000000
    6      -16.447032   1.000000
    7      -16.371325   1.000000
    8      -16.219267   1.000000
    9      -16.172389   1.000000
   10      -16.097764   1.000000
   11      -15.976170   1.000000
   12      -15.850872   1.000000
   13      -15.804779   1.000000
   14      -15.573337   1.000000
   15      -15.534285   1.000000
   16      -15.443959   1.000000
   17      -15.365580   1.000000
   18      -15.262273   1.000000
   19       -9.656814   1.000000
   20       -9.465787   1.000000
   21       -9.221405   1.000000
   22       -9.082082   1.000000
   23       -8.861620   1.000000
   24       -8.740208   1.000000
   25       -8.593550   1.000000
   26       -8.559443   1.000000
   27       -8.488623   1.000000
   28       -8.385641   1.000000
   29       -8.347149   1.000000
   30       -8.259974   1.000000
   31       -8.099026   1.000000
   32       -8.048095   1.000000
   33       -7.959237   1.000000
   34       -7.906170   1.000000
   35       -7.770025   1.000000
   36       -7.686511   1.000000
   37       -7.521389   1.000000
   38       -7.387945   1.000000
   39       -7.338672   1.000000
   40       -7.272073   1.000000
   41       -7.223869   1.000000
   42       -7.157161   1.000000
   43       -7.137667   1.000000
   44       -7.011687   1.000000
   45       -6.930033   1.000000
   46       -6.830003   1.000000
   47       -6.720073   1.000000