       N       E                     dE             d eps       ncg     rms          rms(c)
DAV:   1     0.112599592361E+04    0.11260E+04   -0.35975E+04  8160   0.577E+02
DAV:   2    -0.313660206696E+01   -0.11291E+04   -0.10864E+04 11560   0.173E+02
DAV:   3    -0.199975618925E+03   -0.19684E+03   -0.18957E+03 10880   0.822E+01
DAV:   4    -0.209000742343E+03   -0.90251E+01   -0.87829E+01 12360   0.261E+01
DAV:   5    -0.209288921663E+03   -0.28818E+00   -0.28734E+00 11320   0.332E+00    0.275E+01
DAV:   6    -0.236793800909E+03   -0.27505E+02   -0.11059E+02 12640   0.604E+01    0.594E+01
DAV:   7    -0.196671799839E+03    0.40122E+02   -0.17922E+02 13280   0.152E+02    0.203E+01
DAV:   8    -0.190028641871E+03    0.66432E+01   -0.20788E+01 11640   0.134E+01    0.136E+01
DAV:   9    -0.188241295504E+03    0.17873E+01   -0.30910E+00 11960   0.626E+00    0.919E+00
DAV:  10    -0.187056484949E+03    0.11848E+01   -0.18273E+00 13360   0.773E+00    0.300E+00
DAV:  11    -0.186996055942E+03    0.60429E-01   -0.62194E-01 12560   0.238E+00    0.248E+00
DAV:  12    -0.187073841303E+03   -0.77785E-01   -0.59538E-01 12520   0.414E+00    0.454E+00
DAV:  13    -0.186905917248E+03    0.16792E+00   -0.42531E-01 13040   0.363E+00    0.185E+00
DAV:  14    -0.186894017633E+03    0.11900E-01   -0.11954E-01 12840   0.209E+00    0.178E+00
DAV:  15    -0.186870057601E+03    0.23960E-01   -0.58370E-02 12760   0.147E+00    0.735E-01
DAV:  16    -0.186865562842E+03    0.44948E-02   -0.88659E-03 12800   0.372E-01    0.414E-01
DAV:  17    -0.186863603592E+03    0.19593E-02   -0.74638E-03 12760   0.368E-01    0.222E-01
DAV:  18    -0.186862961459E+03    0.64213E-03   -0.17451E-03 11800   0.126E-01    0.131E-01
DAV:  19    -0.186862839161E+03    0.12230E-03   -0.59381E-04  9880   0.998E-02    0.449E-02
DAV:  20    -0.186863686436E+03   -0.84727E-03   -0.76658E-04  9120   0.508E-02    0.375E-02
DAV:  21    -0.186864367553E+03   -0.68112E-03   -0.19175E-04  8160   0.394E-02    0.339E-02
DAV:  22    -0.186865400203E+03   -0.10326E-02   -0.16155E-04  7480   0.461E-02    0.405E-02
DAV:  23    -0.186866547658E+03   -0.11475E-02   -0.13694E-04  7480   0.488E-02    0.162E-02
DAV:  24    -0.186867122934E+03   -0.57528E-03   -0.28897E-05  6720   0.170E-02    0.453E-03
DAV:  25    -0.186867487207E+03   -0.36427E-03   -0.16869E-05  5560   0.963E-03    0.439E-03
DAV:  26    -0.186867730773E+03   -0.24357E-03   -0.93559E-06  6760   0.724E-03    0.157E-03
DAV:  27    -0.186867821548E+03   -0.90776E-04   -0.32716E-06  7200   0.416E-03
   1 F= -.18686782E+03 E0= -.18669571E+03  d E =-.186868E+03
       N       E                     dE             d eps       ncg     rms          rms(c)
DAV:   1    -0.187506851822E+03   -0.63912E+00   -0.27185E+02  8160   0.350E+01    0.467E+00
DAV:   2    -0.189513583992E+03   -0.20067E+01   -0.20435E+01 12240   0.156E+01    0.985E+00
DAV:   3    -0.189363211882E+03    0.15037E+00   -0.50163E+00 12440   0.126E+01    0.649E+00
DAV:   4    -0.188791155043E+03    0.57206E+00   -0.60364E-01 12400   0.458E+00    0.229E+00
DAV:   5    -0.188886853858E+03   -0.95699E-01   -0.45019E-01 11240   0.375E+00    0.525E+00
DAV:   6    -0.188758914958E+03    0.12794E+00   -0.73763E-01 12640   0.411E+00    0.223E+00
DAV:   7    -0.188704653478E+03    0.54261E-01   -0.19666E-01 10560   0.140E+00    0.136E+00
DAV:   8    -0.188695785263E+03    0.88682E-02   -0.90221E-02 12960   0.145E+00    0.149E+00
DAV:   9    -0.188681144764E+03    0.14640E-01   -0.32413E-02 11880   0.105E+00    0.629E-01
DAV:  10    -0.188677472619E+03    0.36721E-02   -0.71897E-03 12520   0.384E-01    0.329E-01
DAV:  11    -0.188676774154E+03    0.69846E-03   -0.37417E-03 12880   0.280E-01    0.128E-01
DAV:  12    -0.188676871490E+03   -0.97336E-04   -0.95332E-04 12000   0.989E-02
   2 F= -.18867687E+03 E0= -.18853555E+03  d E =-.180905E+01
       N       E                     dE             d eps       ncg     rms          rms(c)
DAV:   1    -0.190607444370E+03   -0.19307E+01   -0.31417E+01  9120   0.143E+01    0.446E+00
DAV:   2    -0.190567131754E+03    0.40313E-01   -0.28189E+00 11120   0.953E+00    0.734E+00
DAV:   3    -0.190088062905E+03    0.47907E+00   -0.14092E+00 12320   0.862E+00    0.426E+00
DAV:   4    -0.189880846670E+03    0.20722E+00   -0.76889E-01 12640   0.423E+00    0.265E+00
DAV:   5    -0.189920546184E+03   -0.39700E-01   -0.47610E-01 12240   0.405E+00    0.375E+00
DAV:   6    -0.189775661509E+03    0.14488E+00   -0.21604E-01 12280   0.316E+00    0.652E-01
DAV:   7    -0.189769470408E+03    0.61911E-02   -0.16065E-02 12520   0.503E-01    0.254E-01
DAV:   8    -0.189770503915E+03   -0.10335E-02   -0.49645E-03 11600   0.402E-01    0.406E-01
DAV:   9    -0.189769341878E+03    0.11620E-02   -0.26627E-03 10960   0.333E-01    0.137E-01
DAV:  10    -0.189769618657E+03   -0.27678E-03   -0.90763E-04 10240   0.120E-01    0.129E-01
DAV:  11    -0.189769402367E+03    0.21629E-03   -0.46991E-04  9000   0.749E-02    0.198E-02
DAV:  12    -0.189769424597E+03   -0.22230E-04   -0.68168E-05  6960   0.267E-02
   3 F= -.18976942E+03 E0= -.18964932E+03  d E =-.109255E+01
       N       E                     dE             d eps       ncg     rms          rms(c)
DAV:   1    -0.191314390977E+03   -0.15450E+01   -0.75297E+01  8160   0.198E+01    0.456E+00
DAV:   2    -0.191164830544E+03    0.14956E+00   -0.53459E+00 13160   0.782E+00    0.478E+00
DAV:   3    -0.191269195305E+03   -0.10436E+00   -0.15779E+00 12240   0.905E+00    0.643E+00
DAV:   4    -0.190872955558E+03    0.39624E+00   -0.12240E+00 12960   0.722E+00    0.262E+00
DAV:   5    -0.190786602193E+03    0.86353E-01   -0.31087E-01 12200   0.265E+00    0.174E+00
DAV:   6    -0.190772784500E+03    0.13818E-01   -0.15511E-01 12720   0.253E+00    0.169E+00
DAV:   7    -0.190751229225E+03    0.21555E-01   -0.65684E-02 11760   0.157E+00    0.501E-01
DAV:   8    -0.190748110281E+03    0.31189E-02   -0.91550E-03 11680   0.486E-01    0.329E-01
DAV:   9    -0.190747450863E+03    0.65942E-03   -0.28860E-03 11600   0.369E-01    0.209E-01
DAV:  10    -0.190747576186E+03   -0.12532E-03   -0.14818E-03 11280   0.203E-01    0.138E-01
DAV:  11    -0.190747363610E+03    0.21258E-03   -0.92606E-04 10000   0.110E-01    0.462E-02
DAV:  12    -0.190747358803E+03    0.48066E-05   -0.14138E-04  7280   0.441E-02
   4 F= -.19074736E+03 E0= -.19064234E+03  d E =-.977934E+00
       N       E                     dE             d eps       ncg     rms          rms(c)
DAV:   1    -0.192157703609E+03   -0.14103E+01   -0.16457E+02  8160   0.287E+01    0.576E+00
DAV:   2    -0.191865713353E+03    0.29199E+00   -0.95638E+00 11320   0.819E+00    0.388E+00
DAV:   3    -0.192008030126E+03   -0.14232E+00   -0.20470E+00 12080   0.868E+00    0.739E+00
DAV:   4    -0.191753188019E+03    0.25484E+00   -0.25104E+00 11480   0.108E+01    0.452E+00
DAV:   5    -0.191585716973E+03    0.16747E+00   -0.76673E-01 12280   0.582E+00    0.346E+00
DAV:   6    -0.191436125260E+03    0.14959E+00   -0.28056E-01 12240   0.382E+00    0.123E+00
DAV:   7    -0.191427659750E+03    0.84655E-02   -0.72444E-02 12320   0.143E+00    0.828E-01
DAV:   8    -0.191425887289E+03    0.17725E-02   -0.33826E-02 12040   0.122E+00    0.775E-01
DAV:   9    -0.191419340430E+03    0.65469E-02   -0.10680E-02 12440   0.701E-01    0.186E-01
DAV:  10    -0.191419630496E+03   -0.29007E-03   -0.23700E-03 11240   0.183E-01    0.109E-01
DAV:  11    -0.191419487067E+03    0.14343E-03   -0.63943E-04 11200   0.969E-02    0.556E-02
DAV:  12    -0.191419468065E+03    0.19002E-04   -0.10739E-04  7040   0.464E-02
   5 F= -.19141947E+03 E0= -.19131702E+03  d E =-.672109E+00
       N       E                     dE             d eps       ncg     rms          rms(c)
DAV:   1    -0.191483566865E+03   -0.64080E-01   -0.46046E+00  8160   0.456E+00    0.674E-01
DAV:   2    -0.191546227045E+03   -0.62660E-01   -0.28203E-01 12960   0.300E+00    0.230E+00
DAV:   3    -0.191493069787E+03    0.53157E-01   -0.10863E-01 12400   0.232E+00    0.456E-01
DAV:   4    -0.191495606562E+03   -0.25368E-02   -0.18589E-02 11200   0.883E-01    0.739E-01
DAV:   5    -0.191490368795E+03    0.52378E-02   -0.12217E-02 11280   0.736E-01    0.256E-01
DAV:   6    -0.191490071377E+03    0.29742E-03   -0.35648E-03 10920   0.283E-01    0.209E-01
DAV:   7    -0.191490449508E+03   -0.37813E-03   -0.37207E-03 11480   0.402E-01    0.317E-01
DAV:   8    -0.191489475566E+03    0.97394E-03   -0.18855E-03  9640   0.284E-01    0.477E-02
DAV:   9    -0.191489463128E+03    0.12438E-04   -0.10588E-04  5760   0.446E-02
   6 F= -.19148946E+03 E0= -.19138464E+03  d E =-.699951E-01
       N       E                     dE             d eps       ncg     rms          rms(c)
DAV:   1    -0.191535494546E+03   -0.46019E-01   -0.22568E+00  8160   0.316E+00    0.367E-01
DAV:   2    -0.191549262592E+03   -0.13768E-01   -0.73164E-02 13360   0.118E+00    0.103E+00
DAV:   3    -0.191538626615E+03    0.10636E-01   -0.28915E-02 12200   0.116E+00    0.347E-01
DAV:   4    -0.191538944055E+03   -0.31744E-03   -0.63965E-03 11080   0.494E-01    0.401E-01
DAV:   5    -0.191537404199E+03    0.15399E-02   -0.38533E-03 11040   0.418E-01    0.139E-01
DAV:   6    -0.191537311720E+03    0.92479E-04   -0.91622E-04  9960   0.137E-01
   7 F= -.19153731E+03 E0= -.19143159E+03  d E =-.478486E-01
       N       E                     dE             d eps       ncg     rms          rms(c)
DAV:   1    -0.191594169914E+03   -0.56766E-01   -0.33841E+00  8160   0.387E+00    0.447E-01
DAV:   2    -0.191620537107E+03   -0.26367E-01   -0.11877E-01 13600   0.165E+00    0.150E+00
DAV:   3    -0.191598798134E+03    0.21739E-01   -0.56725E-02 12160   0.154E+00    0.406E-01
DAV:   4    -0.191599478201E+03   -0.68007E-03   -0.10411E-02 11360   0.641E-01    0.479E-01
DAV:   5    -0.191597129758E+03    0.23484E-02   -0.49973E-03 11240   0.477E-01    0.146E-01
DAV:   6    -0.191597162463E+03   -0.32705E-04   -0.13712E-03 10400   0.178E-01    0.148E-01
DAV:   7    -0.191597414037E+03   -0.25157E-03   -0.17441E-03 10280   0.283E-01    0.236E-01
DAV:   8    -0.191596868816E+03    0.54522E-03   -0.89323E-04  8320   0.200E-01    0.277E-02
DAV:   9    -0.191596887779E+03   -0.18963E-04   -0.60374E-05  5640   0.309E-02
   8 F= -.19159689E+03 E0= -.19149066E+03  d E =-.595761E-01
       N       E                     dE             d eps       ncg     rms          rms(c)
DAV:   1    -0.191625135646E+03   -0.28267E-01   -0.76121E-01  8160   0.184E+00    0.217E-01
DAV:   2    -0.191631276976E+03   -0.61413E-02   -0.28892E-02 13480   0.892E-01    0.705E-01
DAV:   3    -0.191626228695E+03    0.50483E-02   -0.11398E-02 11320   0.724E-01    0.177E-01
DAV:   4    -0.191626523978E+03   -0.29528E-03   -0.22888E-03  9760   0.302E-01    0.244E-01
DAV:   5    -0.191625928279E+03    0.59570E-03   -0.12544E-03  9360   0.236E-01    0.630E-02
DAV:   6    -0.191625945735E+03   -0.17455E-04   -0.22793E-04  6560   0.638E-02
   9 F= -.19162595E+03 E0= -.19151972E+03  d E =-.290580E-01
       N       E                     dE             d eps       ncg     rms          rms(c)
DAV:   1    -0.191603533833E+03    0.22394E-01   -0.42178E-01  8160   0.137E+00    0.158E-01
DAV:   2    -0.191606989744E+03   -0.34559E-02   -0.15961E-02 12720   0.634E-01    0.525E-01
DAV:   3    -0.191604073300E+03    0.29164E-02   -0.60373E-03 11560   0.526E-01    0.123E-01
DAV:   4    -0.191604240541E+03   -0.16724E-03   -0.11538E-03  9320   0.215E-01    0.171E-01
DAV:   5    -0.191603930967E+03    0.30957E-03   -0.61567E-04  8640   0.171E-01    0.433E-02
DAV:   6    -0.191603939852E+03   -0.88856E-05   -0.12433E-04  6040   0.534E-02
  10 F= -.19160394E+03 E0= -.19149762E+03  d E =0.220059E-01
       N       E                     dE             d eps       ncg     rms          rms(c)
DAV:   1    -0.191560971982E+03    0.42959E-01   -0.20449E+00  8160   0.309E+00    0.432E-01
DAV:   2    -0.191577031166E+03   -0.16059E-01   -0.94868E-02 11400   0.149E+00    0.115E+00
DAV:   3    -0.191563646875E+03    0.13384E-01   -0.31909E-02 11680   0.122E+00    0.380E-01
DAV:   4    -0.191564117320E+03   -0.47045E-03   -0.88475E-03 11240   0.582E-01    0.447E-01
DAV:   5    -0.191562226087E+03    0.18912E-02   -0.58795E-03 10800   0.521E-01    0.202E-01
DAV:   6    -0.191561891394E+03    0.33469E-03   -0.18780E-03 11800   0.232E-01    0.953E-02
DAV:   7    -0.191561750670E+03    0.14072E-03   -0.67011E-04 11400   0.103E-01    0.558E-02
DAV:   8    -0.191561763199E+03   -0.12529E-04   -0.21936E-04  6880   0.100E-01
  11 F= -.19156176E+03 E0= -.19145555E+03  d E =0.421767E-01
       N       E                     dE             d eps       ncg     rms          rms(c)
DAV:   1    -0.191345449591E+03    0.21630E+00   -0.44095E+01  8160   0.142E+01    0.157E+00
DAV:   2    -0.191572410796E+03   -0.22696E+00   -0.14146E+00 12600   0.524E+00    0.359E+00
DAV:   3    -0.191409296940E+03    0.16311E+00   -0.28173E-01 11760   0.412E+00    0.116E+00
DAV:   4    -0.191410371137E+03   -0.10742E-02   -0.71365E-02 12400   0.167E+00    0.139E+00
DAV:   5    -0.191394300975E+03    0.16070E-01   -0.53918E-02 11400   0.161E+00    0.631E-01
DAV:   6    -0.191392395291E+03    0.19057E-02   -0.16159E-02 11640   0.684E-01    0.410E-01
DAV:   7    -0.191392462889E+03   -0.67598E-04   -0.13323E-02 12320   0.754E-01    0.580E-01
DAV:   8    -0.191389242981E+03    0.32199E-02   -0.60867E-03 11320   0.519E-01    0.935E-02
DAV:   9    -0.191389230202E+03    0.12780E-04   -0.54872E-04 10080   0.980E-02
  12 F= -.19138923E+03 E0= -.19128846E+03  d E =0.172533E+00
       N       E                     dE             d eps       ncg     rms          rms(c)
DAV:   1    -0.191428829237E+03   -0.39586E-01   -0.26011E+00  8160   0.342E+00    0.447E-01
DAV:   2    -0.191452015509E+03   -0.23186E-01   -0.14115E-01 13320   0.178E+00    0.122E+00
DAV:   3    -0.191436580563E+03    0.15435E-01   -0.37023E-02 12320   0.138E+00    0.347E-01
DAV:   4    -0.191436857810E+03   -0.27725E-03   -0.69660E-03 11440   0.536E-01    0.432E-01
DAV:   5    -0.191435198471E+03    0.16593E-02   -0.48331E-03 11400   0.486E-01    0.195E-01
DAV:   6    -0.191434887906E+03    0.31057E-03   -0.15149E-03 11280   0.196E-01    0.923E-02
DAV:   7    -0.191434978854E+03   -0.90948E-04   -0.98771E-04 10840   0.176E-01
  13 F= -.19143498E+03 E0= -.19133247E+03  d E =-.457487E-01
       N       E                     dE             d eps       ncg     rms          rms(c)
DAV:   1    -0.191431280664E+03    0.36072E-02   -0.92931E+00  8160   0.659E+00    0.714E-01
DAV:   2    -0.191462760117E+03   -0.31479E-01   -0.23425E-01 13440   0.202E+00    0.163E+00
DAV:   3    -0.191442780468E+03    0.19980E-01   -0.75620E-02 11960   0.189E+00    0.729E-01
DAV:   4    -0.191438158563E+03    0.46219E-02   -0.12856E-02 12360   0.696E-01    0.372E-01
DAV:   5    -0.191437923378E+03    0.23518E-03   -0.90862E-03 10800   0.644E-01    0.482E-01
DAV:   6    -0.191436833610E+03    0.10898E-02   -0.90092E-03 11000   0.629E-01    0.313E-01
DAV:   7    -0.191436002139E+03    0.83147E-03   -0.31254E-03 11240   0.365E-01    0.191E-01
DAV:   8    -0.191435601921E+03    0.40022E-03   -0.82036E-04  9080   0.213E-01    0.535E-02
DAV:   9    -0.191435578944E+03    0.22977E-04   -0.10811E-04  6760   0.588E-02
  14 F= -.19143558E+03 E0= -.19133396E+03  d E =-.600090E-03
       N       E                     dE             d eps       ncg     rms          rms(c)
DAV:   1    -0.191492349483E+03   -0.56748E-01   -0.56325E+00  8160   0.502E+00    0.601E-01
DAV:   2    -0.191535659871E+03   -0.43310E-01   -0.20994E-01 13600   0.245E+00    0.189E+00
DAV:   3    -0.191501448655E+03    0.34211E-01   -0.81684E-02 12200   0.202E+00    0.522E-01
DAV:   4    -0.191501913856E+03   -0.46520E-03   -0.14793E-02 11440   0.826E-01    0.598E-01
DAV:   5    -0.191498402988E+03    0.35109E-02   -0.84446E-03 11520   0.655E-01    0.240E-01
DAV:   6    -0.191497782710E+03    0.62028E-03   -0.23138E-03 10800   0.224E-01    0.114E-01
DAV:   7    -0.191497756266E+03    0.26444E-04   -0.10572E-03 11040   0.154E-01    0.121E-01
DAV:   8    -0.191497621959E+03    0.13431E-03   -0.47493E-04  8840   0.153E-01    0.669E-02
DAV:   9    -0.191497579121E+03    0.42839E-04   -0.10699E-04  6040   0.669E-02
  15 F= -.19149758E+03 E0= -.19139488E+03  d E =-.620002E-01
       N       E                     dE             d eps       ncg     rms          rms(c)
DAV:   1    -0.191442639779E+03    0.54982E-01   -0.39473E+00  8160   0.422E+00    0.479E-01
DAV:   2    -0.191462928130E+03   -0.20288E-01   -0.12505E-01 13600   0.170E+00    0.117E+00
DAV:   3    -0.191447785472E+03    0.15143E-01   -0.33789E-02 11960   0.136E+00    0.410E-01
DAV:   4    -0.191447977399E+03   -0.19193E-03   -0.92791E-03 11320   0.599E-01    0.454E-01
DAV:   5    -0.191446256473E+03    0.17209E-02   -0.61725E-03 11280   0.560E-01    0.256E-01
DAV:   6    -0.191445581083E+03    0.67539E-03   -0.20403E-03 11160   0.256E-01    0.993E-02
DAV:   7    -0.191445474758E+03    0.10632E-03   -0.52492E-04 10320   0.900E-02    0.437E-02
DAV:   8    -0.191445477921E+03   -0.31628E-05   -0.13251E-04  7520   0.796E-02
  16 F= -.19144548E+03 E0= -.19134305E+03  d E =0.521012E-01
       N       E                     dE             d eps       ncg     rms          rms(c)
DAV:   1    -0.191393094490E+03    0.52380E-01   -0.46343E+00  8160   0.455E+00    0.489E-01
DAV:   2    -0.191415608975E+03   -0.22514E-01   -0.13256E-01 12760   0.161E+00    0.123E+00
DAV:   3    -0.191399650599E+03    0.15958E-01   -0.38410E-02 11760   0.142E+00    0.476E-01
DAV:   4    -0.191399166253E+03    0.48435E-03   -0.92270E-03 11280   0.604E-01    0.417E-01
DAV:   5    -0.191397625667E+03    0.15406E-02   -0.51229E-03 10920   0.526E-01    0.240E-01
DAV:   6    -0.191397100424E+03    0.52524E-03   -0.19002E-03 11360   0.260E-01    0.114E-01
DAV:   7    -0.191397001456E+03    0.98968E-04   -0.64159E-04 10200   0.123E-01
  17 F= -.19139700E+03 E0= -.19129569E+03  d E =0.484765E-01
       N       E                     dE             d eps       ncg     rms          rms(c)
DAV:   1    -0.191400981855E+03   -0.38814E-02   -0.80003E-01  8160   0.190E+00    0.219E-01
DAV:   2    -0.191402951370E+03   -0.19695E-02   -0.25443E-02 11360   0.482E-01    0.275E-01
DAV:   3    -0.191402807707E+03    0.14366E-03   -0.62766E-03 12280   0.506E-01    0.338E-01
DAV:   4    -0.191401793815E+03    0.10139E-02   -0.24360E-03 10800   0.337E-01    0.127E-01
DAV:   5    -0.191401774092E+03    0.19723E-04   -0.84684E-04  9280   0.199E-01
  18 F= -.19140177E+03 E0= -.19130028E+03  d E =-.477264E-02
       N       E                     dE             d eps       ncg     rms          rms(c)
DAV:   1    -0.191439641178E+03   -0.37847E-01   -0.31408E+00  8160   0.376E+00    0.511E-01
DAV:   2    -0.191472087815E+03   -0.32447E-01   -0.13155E-01 13560   0.213E+00    0.171E+00
DAV:   3    -0.191443088847E+03    0.28999E-01   -0.59883E-02 11960   0.176E+00    0.416E-01
DAV:   4    -0.191443467874E+03   -0.37903E-03   -0.10193E-02 11440   0.669E-01    0.481E-01
DAV:   5    -0.191441397920E+03    0.20700E-02   -0.60503E-03 11360   0.543E-01    0.227E-01
DAV:   6    -0.191440734019E+03    0.66390E-03   -0.17878E-03 10600   0.211E-01    0.866E-02
DAV:   7    -0.191440914968E+03   -0.18095E-03   -0.98046E-04 10880   0.189E-01    0.169E-01
DAV:   8    -0.191440625972E+03    0.28900E-03   -0.54926E-04  8840   0.166E-01    0.337E-02
DAV:   9    -0.191440623949E+03    0.20235E-05   -0.41544E-05  6000   0.333E-02
  19 F= -.19144062E+03 E0= -.19133789E+03  d E =-.388499E-01
       N       E                     dE             d eps       ncg     rms          rms(c)
DAV:   1    -0.191468925647E+03   -0.28300E-01   -0.14628E+00  8160   0.258E+00    0.333E-01
DAV:   2    -0.191480964416E+03   -0.12039E-01   -0.60289E-02 13600   0.134E+00    0.988E-01
DAV:   3    -0.191470886987E+03    0.10077E-01   -0.21633E-02 12280   0.106E+00    0.251E-01
DAV:   4    -0.191471431246E+03   -0.54426E-03   -0.44944E-03 11400   0.447E-01    0.363E-01
DAV:   5    -0.191470191948E+03    0.12393E-02   -0.30832E-03 10840   0.389E-01    0.139E-01
DAV:   6    -0.191470007208E+03    0.18474E-03   -0.79553E-04  9760   0.131E-01    0.630E-02
DAV:   7    -0.191469949990E+03    0.57218E-04   -0.24653E-04  7280   0.591E-02
  20 F= -.19146995E+03 E0= -.19136653E+03  d E =-.293260E-01
       N       E                     dE             d eps       ncg     rms          rms(c)
DAV:   1    -0.191471995317E+03   -0.19881E-02   -0.80234E-02  8160   0.603E-01    0.803E-02
DAV:   2    -0.191472660993E+03   -0.66568E-03   -0.30145E-03 13520   0.283E-01    0.249E-01
DAV:   3    -0.191472050199E+03    0.61079E-03   -0.13104E-03 10000   0.255E-01    0.711E-02
DAV:   4    -0.191472033435E+03    0.16764E-04   -0.15280E-04  5760   0.820E-02
  21 F= -.19147203E+03 E0= -.19136864E+03  d E =-.208344E-02
       N       E                     dE             d eps       ncg     rms          rms(c)
DAV:   1    -0.191514142234E+03   -0.42092E-01   -0.34697E+00  8160   0.394E+00    0.463E-01
DAV:   2    -0.191540452925E+03   -0.26311E-01   -0.12595E-01 13480   0.175E+00    0.144E+00
DAV:   3    -0.191519751317E+03    0.20702E-01   -0.48822E-02 12280   0.155E+00    0.397E-01
DAV:   4    -0.191520527082E+03   -0.77577E-03   -0.92974E-03 11480   0.651E-01    0.500E-01
DAV:   5    -0.191517993090E+03    0.25340E-02   -0.50367E-03 11400   0.504E-01    0.151E-01
DAV:   6    -0.191517845838E+03    0.14725E-03   -0.11732E-03 10280   0.151E-01    0.984E-02
DAV:   7    -0.191517896164E+03   -0.50326E-04   -0.81302E-04 11480   0.164E-01
  22 F= -.19151790E+03 E0= -.19141419E+03  d E =-.458627E-01
       N       E                     dE             d eps       ncg     rms          rms(c)
DAV:   1    -0.191491435238E+03    0.26411E-01   -0.16726E+00  8160   0.277E+00    0.350E-01
DAV:   2    -0.191503735661E+03   -0.12300E-01   -0.66543E-02 13520   0.130E+00    0.937E-01
DAV:   3    -0.191493617318E+03    0.10118E-01   -0.18880E-02 12360   0.104E+00    0.218E-01
DAV:   4    -0.191493757755E+03   -0.14044E-03   -0.32687E-03 11080   0.346E-01    0.295E-01
DAV:   5    -0.191493077720E+03    0.68004E-03   -0.25622E-03 10080   0.355E-01    0.166E-01
DAV:   6    -0.191492810880E+03    0.26684E-03   -0.98029E-04  9880   0.170E-01    0.585E-02
DAV:   7    -0.191492758811E+03    0.52069E-04   -0.22033E-04  6920   0.579E-02
  23 F= -.19149276E+03 E0= -.19138948E+03  d E =0.251374E-01
       N       E                     dE             d eps       ncg     rms          rms(c)
DAV:   1    -0.191582578641E+03   -0.89768E-01   -0.18095E+01  8160   0.908E+00    0.113E+00
DAV:   2    -0.191724263503E+03   -0.14168E+00   -0.72430E-01 13240   0.437E+00    0.349E+00
DAV:   3    -0.191613248746E+03    0.11101E+00   -0.28800E-01 12200   0.372E+00    0.962E-01
DAV:   4    -0.191618872545E+03   -0.56238E-02   -0.59364E-02 12280   0.169E+00    0.131E+00
DAV:   5    -0.191600710594E+03    0.18162E-01   -0.35033E-02 12280   0.130E+00    0.370E-01
DAV:   6    -0.191599641425E+03    0.10692E-02   -0.88649E-03 11240   0.404E-01    0.255E-01
DAV:   7    -0.191600151016E+03   -0.50959E-03   -0.63696E-03 12800   0.495E-01    0.412E-01
DAV:   8    -0.191598510567E+03    0.16404E-02   -0.31921E-03 11560   0.399E-01    0.865E-02
DAV:   9    -0.191598433349E+03    0.77218E-04   -0.25999E-04  7000   0.780E-02
  24 F= -.19159843E+03 E0= -.19149513E+03  d E =-.105675E+00
       N       E                     dE             d eps       ncg     rms          rms(c)
DAV:   1    -0.191614875092E+03   -0.16365E-01   -0.10300E+00  8160   0.215E+00    0.242E-01
DAV:   2    -0.191619588917E+03   -0.47138E-02   -0.29831E-02 13600   0.756E-01    0.620E-01
DAV:   3    -0.191616347373E+03    0.32415E-02   -0.11821E-02 11720   0.723E-01    0.273E-01
DAV:   4    -0.191615795170E+03    0.55220E-03   -0.21405E-03 10600   0.264E-01    0.137E-01
DAV:   5    -0.191615746915E+03    0.48255E-04   -0.10507E-03 10440   0.214E-01    0.162E-01
DAV:   6    -0.191615540550E+03    0.20637E-03   -0.67832E-04  8520   0.195E-01    0.805E-02
DAV:   7    -0.191615622699E+03   -0.82150E-04   -0.41730E-04  8400   0.141E-01
  25 F= -.19161562E+03 E0= -.19151252E+03  d E =-.171894E-01
       N       E                     dE             d eps       ncg     rms          rms(c)
DAV:   1    -0.191655965405E+03   -0.40425E-01   -0.29143E+00  8160   0.362E+00    0.395E-01
DAV:   2    -0.191671462867E+03   -0.15497E-01   -0.95997E-02 12360   0.133E+00    0.107E+00
DAV:   3    -0.191661024839E+03    0.10438E-01   -0.31479E-02 12160   0.120E+00    0.375E-01
DAV:   4    -0.191661506331E+03   -0.48149E-03   -0.73556E-03 11560   0.582E-01    0.448E-01
DAV:   5    -0.191659411116E+03    0.20952E-02   -0.40178E-03 11200   0.462E-01    0.133E-01
DAV:   6    -0.191659470284E+03   -0.59168E-04   -0.11660E-03 10320   0.176E-01    0.142E-01
DAV:   7    -0.191659613671E+03   -0.14339E-03   -0.13680E-03 10800   0.264E-01    0.199E-01
DAV:   8    -0.191659202176E+03    0.41149E-03   -0.61507E-04  8520   0.175E-01    0.249E-02
DAV:   9    -0.191659210586E+03   -0.84101E-05   -0.46817E-05  5800   0.275E-02
  26 F= -.19165921E+03 E0= -.19155688E+03  d E =-.435879E-01
       N       E                     dE             d eps       ncg     rms          rms(c)
DAV:   1    -0.191668156731E+03   -0.89546E-02   -0.11548E+00  8160   0.232E+00    0.276E-01
DAV:   2    -0.191671300031E+03   -0.31433E-02   -0.31101E-02 13600   0.674E-01    0.520E-01
DAV:   3    -0.191669760917E+03    0.15391E-02   -0.10617E-02 12240   0.707E-01    0.379E-01
DAV:   4    -0.191668576229E+03    0.11847E-02   -0.33573E-03 11200   0.359E-01    0.155E-01
DAV:   5    -0.191668327065E+03    0.24916E-03   -0.13919E-03 10400   0.230E-01    0.143E-01
DAV:   6    -0.191668243761E+03    0.83304E-04   -0.97296E-04 10080   0.229E-01
  27 F= -.19166824E+03 E0= -.19156599E+03  d E =-.903317E-02
       N       E                     dE             d eps       ncg     rms          rms(c)
DAV:   1    -0.191721980950E+03   -0.53654E-01   -0.46351E+00  8160   0.455E+00    0.487E-01
DAV:   2    -0.191746714637E+03   -0.24734E-01   -0.14666E-01 12520   0.172E+00    0.141E+00
DAV:   3    -0.191729810367E+03    0.16904E-01   -0.54771E-02 11960   0.154E+00    0.499E-01
DAV:   4    -0.191729510027E+03    0.30034E-03   -0.10695E-02 11160   0.695E-01    0.482E-01
DAV:   5    -0.191727152174E+03    0.23579E-02   -0.55978E-03 10760   0.556E-01    0.202E-01
DAV:   6    -0.191726963508E+03    0.18867E-03   -0.18473E-03 11040   0.241E-01    0.167E-01
DAV:   7    -0.191727355892E+03   -0.39238E-03   -0.21098E-03 10920   0.340E-01    0.265E-01
DAV:   8    -0.191726633605E+03    0.72229E-03   -0.10706E-03  9800   0.237E-01    0.333E-02
DAV:   9    -0.191726636991E+03   -0.33859E-05   -0.67110E-05  5760   0.335E-02
  28 F= -.19172664E+03 E0= -.19162515E+03  d E =-.583932E-01
       N       E                     dE             d eps       ncg     rms          rms(c)
DAV:   1    -0.191761611492E+03   -0.34978E-01   -0.19494E+00  8160   0.296E+00    0.338E-01
DAV:   2    -0.191773637322E+03   -0.12026E-01   -0.69731E-02 13480   0.129E+00    0.999E-01
DAV:   3    -0.191764769565E+03    0.88678E-02   -0.24211E-02 12000   0.104E+00    0.316E-01
DAV:   4    -0.191764900843E+03   -0.13128E-03   -0.50936E-03 11040   0.488E-01    0.344E-01
DAV:   5    -0.191763742060E+03    0.11588E-02   -0.30296E-03 10120   0.404E-01    0.155E-01
DAV:   6    -0.191763579619E+03    0.16244E-03   -0.10249E-03 10280   0.175E-01    0.107E-01
DAV:   7    -0.191763797528E+03   -0.21791E-03   -0.97780E-04 10720   0.233E-01    0.187E-01
DAV:   8    -0.191763422181E+03    0.37535E-03   -0.48886E-04  8720   0.164E-01    0.172E-02
DAV:   9    -0.191763434379E+03   -0.12197E-04   -0.32282E-05  5840   0.218E-02
  29 F= -.19176343E+03 E0= -.19166236E+03  d E =-.367974E-01
       N       E                     dE             d eps       ncg     rms          rms(c)
DAV:   1    -0.191849727009E+03   -0.86305E-01   -0.37763E+01  8160   0.130E+01    0.132E+00
DAV:   2    -0.192028182601E+03   -0.17846E+00   -0.11850E+00 12360   0.472E+00    0.395E+00
DAV:   3    -0.191925483480E+03    0.10270E+00   -0.50466E-01 11840   0.418E+00    0.145E+00
DAV:   4    -0.191918998917E+03    0.64846E-02   -0.86406E-02 12280   0.200E+00    0.129E+00
DAV:   5    -0.191900099734E+03    0.18899E-01   -0.43425E-02 11400   0.155E+00    0.577E-01
DAV:   6    -0.191898685135E+03    0.14146E-02   -0.17002E-02 11320   0.705E-01    0.491E-01
DAV:   7    -0.191901035239E+03   -0.23501E-02   -0.16733E-02 12280   0.976E-01    0.718E-01
DAV:   8    -0.191895493657E+03    0.55416E-02   -0.78128E-03 11240   0.657E-01    0.883E-02
DAV:   9    -0.191895434768E+03    0.58890E-04   -0.64228E-04  9920   0.913E-02
  30 F= -.19189543E+03 E0= -.19179528E+03  d E =-.132000E+00
       N       E                     dE             d eps       ncg     rms          rms(c)
DAV:   1    -0.191917852195E+03   -0.22359E-01   -0.15451E+00  8160   0.274E+00    0.479E-01
DAV:   2    -0.191930878855E+03   -0.13027E-01   -0.10590E-01 12320   0.152E+00    0.111E+00
DAV:   3    -0.191920276575E+03    0.10602E-01   -0.34651E-02 12160   0.129E+00    0.433E-01
DAV:   4    -0.191920938587E+03   -0.66201E-03   -0.11740E-02 12200   0.742E-01    0.573E-01
DAV:   5    -0.191917938472E+03    0.30001E-02   -0.88237E-03 11080   0.657E-01    0.249E-01
DAV:   6    -0.191917760207E+03    0.17827E-03   -0.34044E-03 10880   0.334E-01    0.247E-01
DAV:   7    -0.191917328961E+03    0.43125E-03   -0.18959E-03 10800   0.325E-01    0.145E-01
DAV:   8    -0.191917098882E+03    0.23008E-03   -0.46045E-04  8560   0.138E-01    0.342E-02
DAV:   9    -0.191917077292E+03    0.21590E-04   -0.63160E-05  6680   0.342E-02
  31 F= -.19191708E+03 E0= -.19181619E+03  d E =-.216425E-01
       N       E                     dE             d eps       ncg     rms          rms(c)
DAV:   1    -0.191919946538E+03   -0.28477E-02   -0.24790E+01  8160   0.105E+01    0.104E+00
DAV:   2    -0.192020981087E+03   -0.10103E+00   -0.82479E-01 12040   0.352E+00    0.261E+00
DAV:   3    -0.191979875376E+03    0.41106E-01   -0.25834E-01 11920   0.302E+00    0.122E+00
DAV:   4    -0.191972138975E+03    0.77364E-02   -0.52451E-02 12280   0.147E+00    0.944E-01
DAV:   5    -0.191962675706E+03    0.94633E-02   -0.27450E-02 11120   0.119E+00    0.501E-01
DAV:   6    -0.191962669606E+03    0.60997E-05   -0.13442E-02 12360   0.683E-01    0.497E-01
DAV:   7    -0.191962411517E+03    0.25809E-03   -0.11330E-02 11800   0.820E-01    0.478E-01
DAV:   8    -0.191959668484E+03    0.27430E-02   -0.39855E-03 11400   0.454E-01    0.766E-02
DAV:   9    -0.191959614185E+03    0.54299E-04   -0.48392E-04 10040   0.765E-02
  32 F= -.19195961E+03 E0= -.19185729E+03  d E =-.425369E-01
       N       E                     dE             d eps       ncg     rms          rms(c)
DAV:   1    -0.191958527354E+03    0.11411E-02   -0.27928E+00  8160   0.352E+00    0.311E-01
DAV:   2    -0.191963896976E+03   -0.53696E-02   -0.55746E-02 12520   0.850E-01    0.539E-01
DAV:   3    -0.191962161084E+03    0.17359E-02   -0.12696E-02 11080   0.766E-01    0.425E-01
DAV:   4    -0.191961148415E+03    0.10127E-02   -0.57714E-03 11360   0.461E-01    0.270E-01
DAV:   5    -0.191960613414E+03    0.53500E-03   -0.30043E-03 10280   0.382E-01    0.191E-01
DAV:   6    -0.191960355649E+03    0.25777E-03   -0.14317E-03 10440   0.232E-01    0.112E-01
DAV:   7    -0.191960413851E+03   -0.58202E-04   -0.79318E-04 10080   0.202E-01
  33 F= -.19196041E+03 E0= -.19185929E+03  d E =-.799666E-03
       N       E                     dE             d eps       ncg     rms          rms(c)
DAV:   1    -0.191964880774E+03   -0.45251E-02   -0.25760E-01  8160   0.109E+00    0.141E-01
DAV:   2    -0.191966377556E+03   -0.14968E-02   -0.11666E-02 11800   0.458E-01    0.339E-01
DAV:   3    -0.191965428691E+03    0.94887E-03   -0.33261E-03 11320   0.384E-01    0.140E-01
DAV:   4    -0.191965405746E+03    0.22945E-04   -0.94528E-04  8520   0.201E-01
  34 F= -.19196541E+03 E0= -.19186397E+03  d E =-.499189E-02
       N       E                     dE             d eps       ncg     rms          rms(c)
DAV:   1    -0.191970988062E+03   -0.55594E-02   -0.49630E-01  8160   0.151E+00    0.191E-01
DAV:   2    -0.191973180167E+03   -0.21921E-02   -0.21155E-02 12320   0.510E-01    0.366E-01
DAV:   3    -0.191972413803E+03    0.76636E-03   -0.53899E-03 11680   0.485E-01    0.253E-01
DAV:   4    -0.191971931746E+03    0.48206E-03   -0.17045E-03  9720   0.248E-01    0.134E-01
DAV:   5    -0.191971880509E+03    0.51237E-04   -0.89322E-04  9880   0.219E-01
  35 F= -.19197188E+03 E0= -.19187086E+03  d E =-.647476E-02
       N       E                     dE             d eps       ncg     rms          rms(c)
DAV:   1    -0.191972745464E+03   -0.81372E-03   -0.21558E-02  8360   0.351E-01    0.820E-02
DAV:   2    -0.191973816162E+03   -0.10707E-02   -0.25811E-03 12720   0.345E-01    0.315E-01
DAV:   3    -0.191972706391E+03    0.11098E-02   -0.16475E-03 10160   0.313E-01    0.568E-02
DAV:   4    -0.191972713709E+03   -0.73174E-05   -0.12674E-04  5840   0.746E-02
  36 F= -.19197271E+03 E0= -.19187161E+03  d E =-.833199E-03
       N       E                     dE             d eps       ncg     rms          rms(c)
DAV:   1    -0.191976999089E+03   -0.42927E-02   -0.19545E-01  8160   0.955E-01    0.116E-01
DAV:   2    -0.191977362563E+03   -0.36347E-03   -0.66098E-03 11600   0.210E-01    0.752E-02
DAV:   3    -0.191977376475E+03   -0.13912E-04   -0.50710E-04 10880   0.109E-01
  37 F= -.19197738E+03 E0= -.19187691E+03  d E =-.466277E-02
       N       E                     dE             d eps       ncg     rms          rms(c)
DAV:   1    -0.191976066208E+03    0.12964E-02   -0.47646E-02  8160   0.548E-01    0.120E-01
DAV:   2    -0.191977897512E+03   -0.18313E-02   -0.49797E-03 12280   0.493E-01    0.418E-01
DAV:   3    -0.191975936291E+03    0.19612E-02   -0.26828E-03 10040   0.428E-01    0.717E-02
DAV:   4    -0.191976032949E+03   -0.96657E-04   -0.47587E-04  8480   0.145E-01
  38 F= -.19197603E+03 E0= -.19187455E+03  d E =0.134353E-02
       N       E                     dE             d eps       ncg     rms          rms(c)
DAV:   1    -0.191982268532E+03   -0.63322E-02   -0.43459E-01  8160   0.142E+00    0.165E-01
DAV:   2    -0.191983621546E+03   -0.13530E-02   -0.15040E-02 12240   0.416E-01    0.255E-01
DAV:   3    -0.191983445730E+03    0.17582E-03   -0.33163E-03 12240   0.402E-01    0.239E-01
DAV:   4    -0.191983048583E+03    0.39715E-03   -0.15512E-03  9840   0.251E-01    0.139E-01
DAV:   5    -0.191982935806E+03    0.11278E-03   -0.71318E-04  8200   0.189E-01    0.103E-01
DAV:   6    -0.191982887495E+03    0.48311E-04   -0.40672E-04  8960   0.138E-01
  39 F= -.19198289E+03 E0= -.19188241E+03  d E =-.685455E-02
       N       E                     dE             d eps       ncg     rms          rms(c)
DAV:   1    -0.191984357614E+03   -0.14218E-02   -0.22181E-02  8160   0.339E-01    0.968E-02
DAV:   2    -0.191986104933E+03   -0.17473E-02   -0.43428E-03 11560   0.452E-01    0.417E-01
DAV:   3    -0.191984283496E+03    0.18214E-02   -0.28888E-03  9680   0.390E-01    0.639E-02
DAV:   4    -0.191984320332E+03   -0.36836E-04   -0.26378E-04  7560   0.112E-01
  40 F= -.19198432E+03 E0= -.19188418E+03  d E =-.143284E-02
       N       E                     dE             d eps       ncg     rms          rms(c)
DAV:   1    -0.191983220319E+03    0.10632E-02   -0.79768E-02  8160   0.651E-01    0.147E-01
DAV:   2    -0.191983973067E+03   -0.75275E-03   -0.62666E-03 11400   0.414E-01    0.338E-01
DAV:   3    -0.191982973928E+03    0.99914E-03   -0.30841E-03 11040   0.385E-01    0.140E-01
DAV:   4    -0.191983065648E+03   -0.91720E-04   -0.12990E-03  9480   0.240E-01    0.181E-01
DAV:   5    -0.191982784638E+03    0.28101E-03   -0.10938E-03  9440   0.220E-01    0.963E-02
DAV:   6    -0.191982713089E+03    0.71549E-04   -0.34414E-04  6960   0.114E-01
  41 F= -.19198271E+03 E0= -.19188217E+03  d E =0.160724E-02
       N       E                     dE             d eps       ncg     rms          rms(c)
DAV:   1    -0.191994790074E+03   -0.12005E-01   -0.76536E-01  8160   0.195E+00    0.326E-01
DAV:   2    -0.191998766722E+03   -0.39766E-02   -0.36996E-02 11600   0.900E-01    0.672E-01
DAV:   3    -0.191994814516E+03    0.39522E-02   -0.12762E-02 12320   0.841E-01    0.309E-01
DAV:   4    -0.191993987838E+03    0.82668E-03   -0.33582E-03 11040   0.389E-01    0.200E-01
DAV:   5    -0.191993842028E+03    0.14581E-03   -0.23276E-03 11000   0.358E-01    0.212E-01
DAV:   6    -0.191993420010E+03    0.42202E-03   -0.14380E-03 10240   0.262E-01    0.102E-01
DAV:   7    -0.191993459721E+03   -0.39711E-04   -0.66121E-04  8440   0.163E-01
  42 F= -.19199346E+03 E0= -.19189523E+03  d E =-.107466E-01
       N       E                     dE             d eps       ncg     rms          rms(c)
DAV:   1    -0.191996570175E+03   -0.31502E-02   -0.82094E-02  8160   0.630E-01    0.105E-01
DAV:   2    -0.191996988709E+03   -0.41853E-03   -0.39101E-03 11760   0.265E-01    0.203E-01
DAV:   3    -0.191996705701E+03    0.28301E-03   -0.14749E-03 10040   0.284E-01    0.131E-01
DAV:   4    -0.191996564735E+03    0.14097E-03   -0.49748E-04  7920   0.142E-01    0.734E-02
DAV:   5    -0.191996584330E+03   -0.19595E-04   -0.35885E-04  7680   0.126E-01
  43 F= -.19199658E+03 E0= -.19189837E+03  d E =-.312461E-02
       N       E                     dE             d eps       ncg     rms          rms(c)
DAV:   1    -0.192005204819E+03   -0.86401E-02   -0.36327E-01  8160   0.131E+00    0.163E-01
DAV:   2    -0.192006271145E+03   -0.10663E-02   -0.11403E-02 12520   0.415E-01    0.270E-01
DAV:   3    -0.192005865207E+03    0.40594E-03   -0.27279E-03 11960   0.400E-01    0.190E-01
DAV:   4    -0.192005535922E+03    0.32929E-03   -0.80661E-04  8720   0.202E-01    0.996E-02
DAV:   5    -0.192005550779E+03   -0.14857E-04   -0.59422E-04  8920   0.175E-01
  44 F= -.19200555E+03 E0= -.19190864E+03  d E =-.896645E-02
       N       E                     dE             d eps       ncg     rms          rms(c)
DAV:   1    -0.191999659636E+03    0.58763E-02   -0.16820E-01  8160   0.901E-01    0.143E-01
DAV:   2    -0.192002174428E+03   -0.25148E-02   -0.10333E-02 12080   0.534E-01    0.516E-01
DAV:   3    -0.191999696475E+03    0.24780E-02   -0.60010E-03 10720   0.481E-01    0.123E-01
DAV:   4    -0.191999650138E+03    0.46337E-04   -0.72965E-04  8880   0.175E-01
  45 F= -.19199965E+03 E0= -.19190211E+03  d E =0.590064E-02
       N       E                     dE             d eps       ncg     rms          rms(c)
DAV:   1    -0.192011771800E+03   -0.12075E-01   -0.58084E-01  8160   0.167E+00    0.259E-01
DAV:   2    -0.192016933648E+03   -0.51618E-02   -0.29633E-02 11720   0.946E-01    0.680E-01
DAV:   3    -0.192011923615E+03    0.50100E-02   -0.96738E-03 12000   0.743E-01    0.175E-01
DAV:   4    -0.192012369379E+03   -0.44576E-03   -0.24730E-03  9640   0.364E-01    0.291E-01
DAV:   5    -0.192011593694E+03    0.77569E-03   -0.21413E-03  9640   0.339E-01    0.130E-01
DAV:   6    -0.192011695344E+03   -0.10165E-03   -0.11218E-03  9840   0.208E-01    0.175E-01
DAV:   7    -0.192011412959E+03    0.28239E-03   -0.65379E-04  8160   0.185E-01    0.456E-02
DAV:   8    -0.192011404912E+03    0.80470E-05   -0.69494E-05  5680   0.451E-02
  46 F= -.19201140E+03 E0= -.19191575E+03  d E =-.117548E-01
       N       E                     dE             d eps       ncg     rms          rms(c)
DAV:   1    -0.192016764433E+03   -0.53515E-02   -0.86515E-02  8160   0.645E-01    0.860E-02
DAV:   2    -0.192017031597E+03   -0.26716E-03   -0.27382E-03 11960   0.210E-01    0.152E-01
DAV:   3    -0.192016874382E+03    0.15721E-03   -0.80321E-04  9440   0.218E-01    0.998E-02
DAV:   4    -0.192016790349E+03    0.84033E-04   -0.20889E-04  6160   0.107E-01
  47 F= -.19201679E+03 E0= -.19192207E+03  d E =-.538544E-02
       N       E                     dE             d eps       ncg     rms          rms(c)
DAV:   1    -0.192029734665E+03   -0.12860E-01   -0.46537E-01  8160   0.151E+00    0.229E-01
DAV:   2    -0.192033475516E+03   -0.37409E-02   -0.20833E-02 12720   0.694E-01    0.618E-01
DAV:   3    -0.192030097872E+03    0.33776E-02   -0.92344E-03 12280   0.663E-01    0.216E-01
DAV:   4    -0.192029758098E+03    0.33977E-03   -0.15112E-03 10280   0.214E-01    0.135E-01
DAV:   5    -0.192029818528E+03   -0.60430E-04   -0.12049E-03 11400   0.256E-01    0.181E-01
DAV:   6    -0.192029527591E+03    0.29094E-03   -0.71600E-04  8520   0.202E-01    0.625E-02
DAV:   7    -0.192029477444E+03    0.50147E-04   -0.15447E-04  5680   0.691E-02
  48 F= -.19202948E+03 E0= -.19193658E+03  d E =-.126871E-01
       N       E                     dE             d eps       ncg     rms          rms(c)
DAV:   1    -0.192038525442E+03   -0.89979E-02   -0.16696E-01  8160   0.892E-01    0.132E-01
DAV:   2    -0.192039635718E+03   -0.11103E-02   -0.63658E-03 11680   0.422E-01    0.324E-01
DAV:   3    -0.192038545882E+03    0.10898E-02   -0.23480E-03 11720   0.372E-01    0.104E-01
DAV:   4    -0.192038599330E+03   -0.53448E-04   -0.55461E-04  8480   0.178E-01
  49 F= -.19203860E+03 E0= -.19194723E+03  d E =-.912189E-02
       N       E                     dE             d eps       ncg     rms          rms(c)
DAV:   1    -0.192060099874E+03   -0.21554E-01   -0.80179E-01  8160   0.200E+00    0.341E-01
DAV:   2    -0.192066931951E+03   -0.68321E-02   -0.37077E-02 12000   0.102E+00    0.858E-01
DAV:   3    -0.192059824525E+03    0.71074E-02   -0.14894E-02 11920   0.958E-01    0.305E-01
DAV:   4    -0.192059417381E+03    0.40714E-03   -0.41096E-03 11120   0.402E-01    0.249E-01
DAV:   5    -0.192059374774E+03    0.42607E-04   -0.39016E-03 11080   0.430E-01    0.281E-01
DAV:   6    -0.192058608648E+03    0.76613E-03   -0.17885E-03 10240   0.297E-01    0.103E-01
DAV:   7    -0.192058634525E+03   -0.25877E-04   -0.58761E-04  8960   0.194E-01
  50 F= -.19205863E+03 E0= -.19197038E+03  d E =-.200352E-01
       N       E                     dE             d eps       ncg     rms          rms(c)
DAV:   1    -0.192073165415E+03   -0.14557E-01   -0.34242E-01  8160   0.128E+00    0.185E-01
DAV:   2    -0.192074449818E+03   -0.12844E-02   -0.11413E-02 11960   0.459E-01    0.353E-01
DAV:   3    -0.192073497350E+03    0.95247E-03   -0.38729E-03 11760   0.494E-01    0.211E-01
DAV:   4    -0.192073123488E+03    0.37386E-03   -0.10461E-03  9880   0.220E-01    0.109E-01
DAV:   5    -0.192073188772E+03   -0.65284E-04   -0.87059E-04  9360   0.204E-01
  51 F= -.19207319E+03 E0= -.19198669E+03  d E =-.145542E-01
       N       E                     dE             d eps       ncg     rms          rms(c)
DAV:   1    -0.192105923538E+03   -0.32800E-01   -0.16463E+00  8160   0.280E+00    0.398E-01
DAV:   2    -0.192120093712E+03   -0.14170E-01   -0.60716E-02 13120   0.138E+00    0.115E+00
DAV:   3    -0.192106845930E+03    0.13248E-01   -0.21626E-02 11960   0.123E+00    0.254E-01
DAV:   4    -0.192106313388E+03    0.53254E-03   -0.23687E-03 11520   0.278E-01    0.199E-01
DAV:   5    -0.192106582947E+03   -0.26956E-03   -0.29033E-03 11960   0.395E-01    0.275E-01
DAV:   6    -0.192105961318E+03    0.62163E-03   -0.15939E-03 10200   0.292E-01    0.115E-01
DAV:   7    -0.192105862358E+03    0.98960E-04   -0.51636E-04  8960   0.189E-01
  52 F= -.19210586E+03 E0= -.19202265E+03  d E =-.326736E-01
       N       E                     dE             d eps       ncg     rms          rms(c)
DAV:   1    -0.192116816583E+03   -0.10855E-01   -0.16632E-01  8160   0.900E-01    0.142E-01
DAV:   2    -0.192118265157E+03   -0.14486E-02   -0.72722E-03 11920   0.475E-01    0.372E-01
DAV:   3    -0.192116864300E+03    0.14009E-02   -0.25923E-03 11400   0.425E-01    0.114E-01
DAV:   4    -0.192116855049E+03    0.92506E-05   -0.56433E-04  8600   0.175E-01
  53 F= -.19211686E+03 E0= -.19203479E+03  d E =-.109927E-01
       N       E                     dE             d eps       ncg     rms          rms(c)
DAV:   1    -0.192142153804E+03   -0.25290E-01   -0.89511E-01  8160   0.207E+00    0.329E-01
DAV:   2    -0.192150035679E+03   -0.78819E-02   -0.37356E-02 11840   0.106E+00    0.860E-01
DAV:   3    -0.192142387685E+03    0.76480E-02   -0.12659E-02 11960   0.960E-01    0.256E-01
DAV:   4    -0.192142259188E+03    0.12850E-03   -0.30158E-03 11280   0.385E-01    0.231E-01
DAV:   5    -0.192141941108E+03    0.31808E-03   -0.24405E-03 11280   0.387E-01    0.206E-01
DAV:   6    -0.192141540954E+03    0.40015E-03   -0.11172E-03 10640   0.237E-01    0.991E-02
DAV:   7    -0.192141602965E+03   -0.62011E-04   -0.51915E-04  9000   0.196E-01
  54 F= -.19214160E+03 E0= -.19206196E+03  d E =-.247479E-01
       N       E                     dE             d eps       ncg     rms          rms(c)
DAV:   1    -0.192138728728E+03    0.28122E-02   -0.26474E-01  8160   0.117E+00    0.309E-01
DAV:   2    -0.192145807841E+03   -0.70791E-02   -0.25827E-02 11160   0.110E+00    0.948E-01
DAV:   3    -0.192136921821E+03    0.88860E-02   -0.16640E-02 11320   0.970E-01    0.233E-01
DAV:   4    -0.192137149463E+03   -0.22764E-03   -0.31514E-03 11360   0.463E-01    0.305E-01
DAV:   5    -0.192136271383E+03    0.87808E-03   -0.22010E-03 10400   0.389E-01    0.155E-01
DAV:   6    -0.192135912768E+03    0.35861E-03   -0.90375E-04  9840   0.169E-01    0.675E-02
DAV:   7    -0.192135893006E+03    0.19763E-04   -0.18557E-04  7000   0.115E-01
  55 F= -.19213589E+03 E0= -.19205517E+03  d E =0.570996E-02
       N       E                     dE             d eps       ncg     rms          rms(c)
DAV:   1    -0.192176161124E+03   -0.40248E-01   -0.24031E+00  8160   0.336E+00    0.500E-01
DAV:   2    -0.192193921998E+03   -0.17761E-01   -0.96574E-02 12600   0.170E+00    0.122E+00
DAV:   3    -0.192176979951E+03    0.16942E-01   -0.29410E-02 12400   0.143E+00    0.341E-01
DAV:   4    -0.192177698904E+03   -0.71895E-03   -0.67204E-03 10760   0.656E-01    0.450E-01
DAV:   5    -0.192175776809E+03    0.19221E-02   -0.48494E-03 10280   0.619E-01    0.236E-01
DAV:   6    -0.192175127210E+03    0.64960E-03   -0.18059E-03 11520   0.254E-01    0.873E-02
DAV:   7    -0.192175074928E+03    0.52282E-04   -0.46069E-04 10000   0.121E-01
  56 F= -.19217507E+03 E0= -.19209763E+03  d E =-.391819E-01
       N       E                     dE             d eps       ncg     rms          rms(c)
DAV:   1    -0.192223288202E+03   -0.48161E-01   -0.49445E+00  8160   0.483E+00    0.666E-01
DAV:   2    -0.192255983162E+03   -0.32695E-01   -0.18728E-01 12760   0.217E+00    0.158E+00
DAV:   3    -0.192228634598E+03    0.27349E-01   -0.52011E-02 12400   0.194E+00    0.483E-01
DAV:   4    -0.192229246020E+03   -0.61142E-03   -0.10884E-02 10520   0.860E-01    0.557E-01
DAV:   5    -0.192225859598E+03    0.33864E-02   -0.72456E-03 10960   0.777E-01    0.264E-01
DAV:   6    -0.192225299030E+03    0.56057E-03   -0.27027E-03 11840   0.308E-01    0.149E-01
DAV:   7    -0.192225229327E+03    0.69703E-04   -0.12048E-03 10800   0.250E-01    0.179E-01
DAV:   8    -0.192224885128E+03    0.34420E-03   -0.46595E-04  8840   0.189E-01    0.312E-02
DAV:   9    -0.192224886490E+03   -0.13621E-05   -0.51169E-05  6520   0.356E-02
  57 F= -.19222489E+03 E0= -.19215070E+03  d E =-.498116E-01
       N       E                     dE             d eps       ncg     rms          rms(c)
DAV:   1    -0.192268434282E+03   -0.43549E-01   -0.19160E+01  8160   0.953E+00    0.124E+00
DAV:   2    -0.192363558213E+03   -0.95124E-01   -0.73766E-01 13240   0.374E+00    0.240E+00
DAV:   3    -0.192298398868E+03    0.65159E-01   -0.15228E-01 12200   0.330E+00    0.951E-01
DAV:   4    -0.192297421872E+03    0.97700E-03   -0.36728E-02 12200   0.162E+00    0.103E+00
DAV:   5    -0.192286839482E+03    0.10582E-01   -0.24716E-02 11400   0.146E+00    0.512E-01
DAV:   6    -0.192284655067E+03    0.21844E-02   -0.99053E-03 12200   0.605E-01    0.278E-01
DAV:   7    -0.192283704098E+03    0.95097E-03   -0.37184E-03 12080   0.397E-01    0.246E-01
DAV:   8    -0.192283075307E+03    0.62879E-03   -0.11999E-03 10960   0.303E-01    0.702E-02
DAV:   9    -0.192283024038E+03    0.51268E-04   -0.17301E-04  6880   0.764E-02
  58 F= -.19228302E+03 E0= -.19221336E+03  d E =-.581375E-01
       N       E                     dE             d eps       ncg     rms          rms(c)
DAV:   1    -0.192275443057E+03    0.76322E-02   -0.38975E+00  8160   0.429E+00    0.658E-01
DAV:   2    -0.192318359131E+03   -0.42916E-01   -0.15079E-01 12360   0.256E+00    0.199E+00
DAV:   3    -0.192275766896E+03    0.42592E-01   -0.69243E-02 12240   0.230E+00    0.427E-01
DAV:   4    -0.192276680595E+03   -0.91370E-03   -0.10023E-02 12320   0.836E-01    0.541E-01
DAV:   5    -0.192273638173E+03    0.30424E-02   -0.72138E-03 11120   0.752E-01    0.284E-01
DAV:   6    -0.192272730377E+03    0.90780E-03   -0.29207E-03 11680   0.344E-01    0.169E-01
DAV:   7    -0.192272923890E+03   -0.19351E-03   -0.15892E-03 11440   0.361E-01    0.217E-01
DAV:   8    -0.192272341505E+03    0.58238E-03   -0.62850E-04  9000   0.223E-01    0.255E-02
DAV:   9    -0.192272348155E+03   -0.66497E-05   -0.65803E-05  6480   0.305E-02
  59 F= -.19227235E+03 E0= -.19220125E+03  d E =0.106759E-01
       N       E                     dE             d eps       ncg     rms          rms(c)
DAV:   1    -0.192293103122E+03   -0.20762E-01   -0.77940E+00  8160   0.602E+00    0.801E-01
DAV:   2    -0.192334046385E+03   -0.40943E-01   -0.30160E-01 12120   0.248E+00    0.160E+00
DAV:   3    -0.192305323695E+03    0.28723E-01   -0.66105E-02 12320   0.219E+00    0.603E-01
DAV:   4    -0.192305089285E+03    0.23441E-03   -0.14775E-02 11800   0.103E+00    0.652E-01
DAV:   5    -0.192300568928E+03    0.45204E-02   -0.94975E-03 10960   0.910E-01    0.307E-01
DAV:   6    -0.192299914186E+03    0.65474E-03   -0.39450E-03 11720   0.371E-01    0.184E-01
DAV:   7    -0.192299542903E+03    0.37128E-03   -0.16476E-03 11920   0.279E-01    0.170E-01
DAV:   8    -0.192299224922E+03    0.31798E-03   -0.51109E-04 10080   0.202E-01    0.391E-02
DAV:   9    -0.192299212667E+03    0.12255E-04   -0.73022E-05  6440   0.457E-02
  60 F= -.19229921E+03 E0= -.19223085E+03  d E =-.268645E-01
       N       E                     dE             d eps       ncg     rms          rms(c)
DAV:   1    -0.192302689654E+03   -0.34647E-02   -0.73021E-01  8160   0.179E+00    0.231E-01
DAV:   2    -0.192306632908E+03   -0.39433E-02   -0.36673E-02 10320   0.742E-01    0.394E-01
DAV:   3    -0.192305100820E+03    0.15321E-02   -0.50710E-03 12600   0.599E-01    0.193E-01
DAV:   4    -0.192304774402E+03    0.32642E-03   -0.10506E-03 10320   0.269E-01    0.141E-01
DAV:   5    -0.192304639281E+03    0.13512E-03   -0.55677E-04 10120   0.227E-01    0.101E-01
DAV:   6    -0.192304594690E+03    0.44591E-04   -0.41663E-04 10000   0.124E-01
  61 F= -.19230459E+03 E0= -.19223712E+03  d E =-.538202E-02
       N       E                     dE             d eps       ncg     rms          rms(c)
DAV:   1    -0.192306744955E+03   -0.21057E-02   -0.53125E-01  8160   0.154E+00    0.192E-01
DAV:   2    -0.192308668883E+03   -0.19239E-02   -0.25099E-02 10360   0.472E-01    0.202E-01
DAV:   3    -0.192308955489E+03   -0.28661E-03   -0.28793E-03 13400   0.461E-01    0.263E-01
DAV:   4    -0.192308134744E+03    0.82075E-03   -0.10317E-03 10440   0.298E-01    0.799E-02
DAV:   5    -0.192308197209E+03   -0.62466E-04   -0.38782E-04  9320   0.175E-01
  62 F= -.19230820E+03 E0= -.19224141E+03  d E =-.360252E-02
       N       E                     dE             d eps       ncg     rms          rms(c)
DAV:   1    -0.192308086929E+03    0.47814E-04   -0.32753E-02  8240   0.396E-01    0.593E-02
DAV:   2    -0.192308299833E+03   -0.21290E-03   -0.17875E-03 11440   0.162E-01    0.107E-01
DAV:   3    -0.192308175265E+03    0.12457E-03   -0.40314E-04  9280   0.170E-01    0.698E-02
DAV:   4    -0.192308126602E+03    0.48663E-04   -0.11196E-04  6360   0.898E-02
  63 F= -.19230813E+03 E0= -.19224134E+03  d E =0.706071E-04
       N       E                     dE             d eps       ncg     rms          rms(c)
DAV:   1    -0.192309717786E+03   -0.15425E-02   -0.25648E-01  8160   0.108E+00    0.141E-01
DAV:   2    -0.192311071136E+03   -0.13534E-02   -0.12865E-02 11760   0.466E-01    0.241E-01
DAV:   3    -0.192310447575E+03    0.62356E-03   -0.17474E-03 12560   0.363E-01    0.109E-01
DAV:   4    -0.192310339045E+03    0.10853E-03   -0.36409E-04  8880   0.157E-01    0.866E-02
DAV:   5    -0.192310300564E+03    0.38481E-04   -0.24431E-04  8840   0.144E-01
  64 F= -.19231030E+03 E0= -.19224421E+03  d E =-.217396E-02
       N       E                     dE             d eps       ncg     rms          rms(c)
DAV:   1    -0.192310452946E+03   -0.11390E-03   -0.78122E-03  8880   0.211E-01    0.418E-02
DAV:   2    -0.192310521025E+03   -0.68079E-04   -0.59697E-04 11240   0.105E-01
  65 F= -.19231052E+03 E0= -.19224439E+03  d E =-.220461E-03
       N       E                     dE             d eps       ncg     rms          rms(c)
DAV:   1    -0.192310781411E+03   -0.32847E-03   -0.83832E-03  8480   0.206E-01    0.523E-02
DAV:   2    -0.192311033000E+03   -0.25159E-03   -0.77662E-04 11040   0.200E-01    0.153E-01
DAV:   3    -0.192310749118E+03    0.28388E-03   -0.31450E-04  9040   0.173E-01    0.262E-02
DAV:   4    -0.192310769564E+03   -0.20445E-04   -0.50747E-05  6200   0.674E-02
  66 F= -.19231077E+03 E0= -.19224466E+03  d E =-.248539E-03
