<?xml version="1.0" encoding="ISO-8859-1"?>
<modeling>
 <generator>
  <i name="program" type="string">vasp </i>
  <i name="version" type="string">5.4.1  </i>
  <i name="subversion" type="string">05Feb16 (build Jul 05 2020 17:13:04) complex                          parallel </i>
  <i name="platform" type="string">IFC91_ompi </i>
  <i name="date" type="string">2024 04 27 </i>
  <i name="time" type="string">16:19:26 </i>
 </generator>
 <incar>
  <i type="int" name="ISTART">     0</i>
  <i type="string" name="PREC">normal</i>
  <i type="string" name="ALGO"> Normal</i>
  <i type="int" name="ISPIN">     1</i>
  <i type="int" name="ICHARG">     2</i>
  <i type="int" name="IBRION">     1</i>
  <i type="int" name="NSW">   100</i>
  <i type="int" name="ISIF">     3</i>
  <i type="int" name="ISYM">     0</i>
  <i name="SYMPREC">      0.00000001</i>
  <i name="POTIM">      0.50000000</i>
  <i type="logical" name="LREAL"> F  </i>
  <i type="logical" name="LPLANE"> F  </i>
  <i type="int" name="ISMEAR">     0</i>
  <i type="logical" name="LWAVE"> F  </i>
  <i type="logical" name="LCHARG"> F  </i>
  <v type="int" name="KPOINT_BSE">    -1     0     0     0</v>
 </incar>
 <kpoints>
  <generation param="Gamma">
   <v type="int" name="divisions">       8        8        1 </v>
   <v name="usershift">      0.00000000       0.00000000       0.00000000 </v>
   <v name="genvec1">      0.12500000       0.00000000       0.00000000 </v>
   <v name="genvec2">     -0.00000000       0.12500000       0.00000000 </v>
   <v name="genvec3">      0.00000000       0.00000000       1.00000000 </v>
   <v name="shift">      0.00000000       0.00000000       0.00000000 </v>
  </generation>
  <varray name="kpointlist" >
   <v>       0.00000000       0.00000000       0.00000000 </v>
   <v>       0.12500000       0.00000000       0.00000000 </v>
   <v>       0.25000000       0.00000000       0.00000000 </v>
   <v>       0.37500000       0.00000000       0.00000000 </v>
   <v>       0.50000000       0.00000000       0.00000000 </v>
   <v>       0.00000000       0.12500000       0.00000000 </v>
   <v>       0.12500000       0.12500000       0.00000000 </v>
   <v>       0.25000000       0.12500000       0.00000000 </v>
   <v>       0.37500000       0.12500000       0.00000000 </v>
   <v>       0.50000000       0.12500000       0.00000000 </v>
   <v>      -0.37500000       0.12500000       0.00000000 </v>
   <v>      -0.25000000       0.12500000       0.00000000 </v>
   <v>      -0.12500000       0.12500000       0.00000000 </v>
   <v>       0.00000000       0.25000000       0.00000000 </v>
   <v>       0.12500000       0.25000000       0.00000000 </v>
   <v>       0.25000000       0.25000000       0.00000000 </v>
   <v>       0.37500000       0.25000000       0.00000000 </v>
   <v>       0.50000000       0.25000000       0.00000000 </v>
   <v>      -0.37500000       0.25000000       0.00000000 </v>
   <v>      -0.25000000       0.25000000       0.00000000 </v>
   <v>      -0.12500000       0.25000000       0.00000000 </v>
   <v>      -0.00000000       0.37500000       0.00000000 </v>
   <v>       0.12500000       0.37500000       0.00000000 </v>
   <v>       0.25000000       0.37500000       0.00000000 </v>
   <v>       0.37500000       0.37500000       0.00000000 </v>
   <v>       0.50000000       0.37500000       0.00000000 </v>
   <v>      -0.37500000       0.37500000       0.00000000 </v>
   <v>      -0.25000000       0.37500000       0.00000000 </v>
   <v>      -0.12500000       0.37500000       0.00000000 </v>
   <v>       0.00000000       0.50000000       0.00000000 </v>
   <v>       0.12500000       0.50000000       0.00000000 </v>
   <v>       0.25000000       0.50000000       0.00000000 </v>
   <v>       0.37500000       0.50000000       0.00000000 </v>
   <v>       0.50000000       0.50000000       0.00000000 </v>
  </varray>
  <varray name="weights" >
   <v>       0.01562500 </v>
   <v>       0.03125000 </v>
   <v>       0.03125000 </v>
   <v>       0.03125000 </v>
   <v>       0.01562500 </v>
   <v>       0.03125000 </v>
   <v>       0.03125000 </v>
   <v>       0.03125000 </v>
   <v>       0.03125000 </v>
   <v>       0.03125000 </v>
   <v>       0.03125000 </v>
   <v>       0.03125000 </v>
   <v>       0.03125000 </v>
   <v>       0.03125000 </v>
   <v>       0.03125000 </v>
   <v>       0.03125000 </v>
   <v>       0.03125000 </v>
   <v>       0.03125000 </v>
   <v>       0.03125000 </v>
   <v>       0.03125000 </v>
   <v>       0.03125000 </v>
   <v>       0.03125000 </v>
   <v>       0.03125000 </v>
   <v>       0.03125000 </v>
   <v>       0.03125000 </v>
   <v>       0.03125000 </v>
   <v>       0.03125000 </v>
   <v>       0.03125000 </v>
   <v>       0.03125000 </v>
   <v>       0.01562500 </v>
   <v>       0.03125000 </v>
   <v>       0.03125000 </v>
   <v>       0.03125000 </v>
   <v>       0.01562500 </v>
  </varray>
 </kpoints>
 <parameters>
  <separator name="general" >
   <i type="string" name="SYSTEM">unknown system</i>
   <i type="logical" name="LCOMPAT"> F  </i>
  </separator>
  <separator name="electronic" >
   <i type="string" name="PREC">normal</i>
   <i name="ENMAX">    280.00000000</i>
   <i name="ENAUG">    373.43800000</i>
   <i name="EDIFF">      0.00010000</i>
   <i type="int" name="IALGO">    38</i>
   <i type="int" name="IWAVPR">    11</i>
   <i type="int" name="NBANDS">   120</i>
   <i name="NELECT">    159.00000000</i>
   <i type="int" name="TURBO">     0</i>
   <i type="int" name="IRESTART">     0</i>
   <i type="int" name="NREBOOT">     0</i>
   <i type="int" name="NMIN">     0</i>
   <i name="EREF">      0.00000000</i>
   <separator name="electronic smearing" >
    <i type="int" name="ISMEAR">     0</i>
    <i name="SIGMA">      0.20000000</i>
    <i name="KSPACING">      0.50000000</i>
    <i type="logical" name="KGAMMA"> T  </i>
   </separator>
   <separator name="electronic projectors" >
    <i type="logical" name="LREAL"> F  </i>
    <v name="ROPT">      0.00000000      0.00000000      0.00000000      0.00000000</v>
    <i type="int" name="LMAXPAW">  -100</i>
    <i type="int" name="LMAXMIX">     2</i>
    <i type="logical" name="NLSPLINE"> F  </i>
   </separator>
   <separator name="electronic startup" >
    <i type="int" name="ISTART">     0</i>
    <i type="int" name="ICHARG">     2</i>
    <i type="int" name="INIWAV">     1</i>
   </separator>
   <separator name="electronic spin" >
    <i type="int" name="ISPIN">     1</i>
    <i type="logical" name="LNONCOLLINEAR"> F  </i>
    <v name="MAGMOM">      1.00000000      1.00000000      1.00000000      1.00000000      1.00000000      1.00000000      1.00000000      1.00000000      1.00000000      1.00000000      1.00000000      1.00000000      1.00000000      1.00000000      1.00000000      1.00000000      1.00000000      1.00000000      1.00000000      1.00000000
      1.00000000      1.00000000      1.00000000      1.00000000      1.00000000      1.00000000      1.00000000</v>
    <i name="NUPDOWN">     -1.00000000</i>
    <i type="logical" name="LSORBIT"> F  </i>
    <v name="SAXIS">      0.00000000      0.00000000      1.00000000</v>
    <i type="logical" name="LSPIRAL"> F  </i>
    <v name="QSPIRAL">      0.00000000      0.00000000      0.00000000</v>
    <i type="logical" name="LZEROZ"> F  </i>
   </separator>
   <separator name="electronic exchange-correlation" >
    <i type="logical" name="LASPH"> F  </i>
    <i type="logical" name="LMETAGGA"> F  </i>
   </separator>
   <separator name="electronic convergence" >
    <i type="int" name="NELM">    60</i>
    <i type="int" name="NELMDL">    -5</i>
    <i type="int" name="NELMIN">     2</i>
    <i name="ENINI">    280.00000000</i>
    <separator name="electronic convergence detail" >
     <i type="logical" name="LDIAG"> T  </i>
     <i type="logical" name="LSUBROT"> F  </i>
     <i name="WEIMIN">      0.00100000</i>
     <i name="EBREAK">      0.00000021</i>
     <i name="DEPER">      0.30000000</i>
     <i type="int" name="NRMM">     4</i>
     <i name="TIME">      0.40000000</i>
    </separator>
   </separator>
   <separator name="electronic mixer" >
    <i name="AMIX">      0.40000000</i>
    <i name="BMIX">      1.00000000</i>
    <i name="AMIN">      0.10000000</i>
    <i name="AMIX_MAG">      1.60000000</i>
    <i name="BMIX_MAG">      1.00000000</i>
    <separator name="electronic mixer details" >
     <i type="int" name="IMIX">     4</i>
     <i type="logical" name="MIXFIRST"> F  </i>
     <i type="int" name="MAXMIX">   -45</i>
     <i name="WC">    100.00000000</i>
     <i type="int" name="INIMIX">     1</i>
     <i type="int" name="MIXPRE">     1</i>
     <i type="int" name="MREMOVE">     5</i>
    </separator>
   </separator>
   <separator name="electronic dipolcorrection" >
    <i type="logical" name="LDIPOL"> F  </i>
    <i type="logical" name="LMONO"> F  </i>
    <i type="int" name="IDIPOL">     0</i>
    <i name="EPSILON">      1.00000000</i>
    <v name="DIPOL">   -100.00000000   -100.00000000   -100.00000000</v>
    <i name="EFIELD">      0.00000000</i>
   </separator>
  </separator>
  <separator name="grids" >
   <i type="int" name="NGX">    42</i>
   <i type="int" name="NGY">    42</i>
   <i type="int" name="NGZ">   126</i>
   <i type="int" name="NGXF">    84</i>
   <i type="int" name="NGYF">    84</i>
   <i type="int" name="NGZF">   252</i>
   <i type="logical" name="ADDGRID"> F  </i>
  </separator>
  <separator name="ionic" >
   <i type="int" name="NSW">   100</i>
   <i type="int" name="IBRION">     1</i>
   <i type="int" name="ISIF">     3</i>
   <i name="PSTRESS">      0.00000000</i>
   <i name="EDIFFG">      0.00100000</i>
   <i type="int" name="NFREE">     0</i>
   <i name="POTIM">      0.50000000</i>
   <i name="SMASS">     -3.00000000</i>
   <i name="SCALEE">      1.00000000</i>
  </separator>
  <separator name="ionic md" >
   <i name="TEBEG">      0.00010000</i>
   <i name="TEEND">      0.00010000</i>
   <i type="int" name="NBLOCK">     1</i>
   <i type="int" name="KBLOCK">   100</i>
   <i type="int" name="NPACO">   256</i>
   <i name="APACO">     16.00000000</i>
  </separator>
  <separator name="symmetry" >
   <i type="int" name="ISYM">     0</i>
   <i name="SYMPREC">      0.00000001</i>
  </separator>
  <separator name="dos" >
   <i type="logical" name="LORBIT"> F  </i>
   <v name="RWIGS">     -1.00000000     -1.00000000     -1.00000000     -1.00000000</v>
   <i type="int" name="NEDOS">   301</i>
   <i name="EMIN">     10.00000000</i>
   <i name="EMAX">    -10.00000000</i>
   <i name="EFERMI">      0.00000000</i>
  </separator>
  <separator name="writing" >
   <i type="int" name="NWRITE">     2</i>
   <i type="logical" name="LWAVE"> F  </i>
   <i type="logical" name="LCHARG"> F  </i>
   <i type="logical" name="LPARD"> F  </i>
   <i type="logical" name="LVTOT"> F  </i>
   <i type="logical" name="LVHAR"> F  </i>
   <i type="logical" name="LELF"> F  </i>
   <i type="logical" name="LOPTICS"> F  </i>
   <v name="STM">      0.00000000      0.00000000      0.00000000      0.00000000      0.00000000      0.00000000      0.00000000</v>
  </separator>
  <separator name="performance" >
   <i type="int" name="NPAR">    40</i>
   <i type="int" name="NSIM">     4</i>
   <i type="int" name="NBLK">    -1</i>
   <i type="logical" name="LPLANE"> F  </i>
   <i type="logical" name="LSCALAPACK"> T  </i>
   <i type="logical" name="LSCAAWARE"> F  </i>
   <i type="logical" name="LSCALU"> F  </i>
   <i type="logical" name="LASYNC"> F  </i>
   <i type="logical" name="LORBITALREAL"> F  </i>
  </separator>
  <separator name="miscellaneous" >
   <i type="int" name="IDIOT">     3</i>
   <i type="logical" name="LMUSIC"> F  </i>
   <v name="POMASS">     50.94100000     95.94000000    183.85000000     32.06600000</v>
   <v name="DARWINR">      0.00000000      0.00000000      0.00000000      0.00000000</v>
   <v name="DARWINV">      1.00000000      1.00000000      1.00000000      1.00000000</v>
   <i type="logical" name="LCORR"> T  </i>
  </separator>
  <i type="logical" name="GGA_COMPAT"> T  </i>
  <i type="logical" name="LBERRY"> F  </i>
  <i type="int" name="ICORELEVEL">     0</i>
  <i type="logical" name="LDAU"> F  </i>
  <i type="int" name="I_CONSTRAINED_M">     0</i>
  <separator name="electronic exchange-correlation" >
   <i type="string" name="GGA">--</i>
   <i type="int" name="VOSKOWN">     0</i>
   <i type="logical" name="LHFCALC"> F  </i>
   <i type="string" name="PRECFOCK"></i>
   <i type="logical" name="LSYMGRAD"> F  </i>
   <i type="logical" name="LHFONE"> F  </i>
   <i type="logical" name="LRHFCALC"> F  </i>
   <i type="logical" name="LTHOMAS"> F  </i>
   <i type="logical" name="LMODELHF"> F  </i>
   <i name="ENCUT4O">     -1.00000000</i>
   <i type="int" name="EXXOEP">     0</i>
   <i type="int" name="FOURORBIT">     0</i>
   <i name="AEXX">      0.00000000</i>
   <i name="HFALPHA">      0.00000000</i>
   <i name="MCALPHA">      0.00000000</i>
   <i name="ALDAX">      1.00000000</i>
   <i name="AGGAX">      1.00000000</i>
   <i name="ALDAC">      1.00000000</i>
   <i name="AGGAC">      1.00000000</i>
   <i type="int" name="NKREDX">     1</i>
   <i type="int" name="NKREDY">     1</i>
   <i type="int" name="NKREDZ">     1</i>
   <i type="logical" name="SHIFTRED"> F  </i>
   <i type="logical" name="ODDONLY"> F  </i>
   <i type="logical" name="EVENONLY"> F  </i>
   <i type="int" name="LMAXFOCK">     0</i>
   <i type="int" name="NMAXFOCKAE">     0</i>
   <i type="logical" name="LFOCKAEDFT"> F  </i>
   <i name="HFSCREEN">      0.00000000</i>
   <i name="HFSCREENC">      0.00000000</i>
   <i type="int" name="NBANDSGWLOW">     0</i>
  </separator>
  <separator name="vdW DFT" >
   <i type="logical" name="LUSE_VDW"> F  </i>
   <i name="Zab_VDW">     -0.84910000</i>
   <i name="PARAM1">      0.12340000</i>
   <i name="PARAM2">      1.00000000</i>
   <i name="PARAM3">      0.00000000</i>
  </separator>
  <separator name="model GW" >
   <i type="int" name="MODEL_GW">     0</i>
   <i name="MODEL_EPS0">     58.26239943</i>
   <i name="MODEL_ALPHA">      1.00000000</i>
  </separator>
  <separator name="linear response parameters" >
   <i type="logical" name="LEPSILON"> F  </i>
   <i type="logical" name="LRPA"> F  </i>
   <i type="logical" name="LNABLA"> F  </i>
   <i type="logical" name="LVEL"> F  </i>
   <i type="int" name="KINTER">     0</i>
   <i name="CSHIFT">      0.10000000</i>
   <i name="OMEGAMAX">     -1.00000000</i>
   <i name="DEG_THRESHOLD">      0.00200000</i>
  </separator>
  <separator name="orbital magnetization" >
   <i type="logical" name="NUCIND"> F  </i>
   <v name="MAGPOS">      0.00000000      0.00000000      0.00000000</v>
   <i type="logical" name="LNICSALL"> T  </i>
   <i type="logical" name="ORBITALMAG"> F  </i>
   <i type="logical" name="LMAGBLOCH"> F  </i>
   <i type="logical" name="LCHIMAG"> F  </i>
   <i type="logical" name="LGAUGE"> T  </i>
   <i type="int" name="MAGATOM">     0</i>
   <v name="MAGDIPOL">      0.00000000      0.00000000      0.00000000</v>
   <v name="AVECCONST">      0.00000000      0.00000000      0.00000000</v>
  </separator>
  <separator name="response functions" >
   <i type="logical" name="LADDER"> F  </i>
   <i type="logical" name="LFXC"> F  </i>
   <i type="logical" name="LHARTREE"> T  </i>
   <i type="int" name="IBSE">     0</i>
   <v type="int" name="KPOINT">    -1     0     0     0</v>
   <i type="logical" name="LTCTE"> F  </i>
   <i type="logical" name="LTETE"> F  </i>
   <i type="logical" name="LTRIPLET"> F  </i>
   <i type="logical" name="LFXCEPS"> F  </i>
   <i type="logical" name="LFXHEG"> F  </i>
   <i type="int" name="NATURALO">     0</i>
   <i type="logical" name="L2ORDER"> F  </i>
   <i type="logical" name="LUSEW"> F  </i>
   <i name="ENCUTGW">     -2.00000000</i>
   <i name="ENCUTGWSOFT">     -2.00000000</i>
   <i name="ENCUTLF">     -1.00000000</i>
   <i type="int" name="LMAXMP2">    -1</i>
   <i name="SCISSOR">      0.00000000</i>
   <i type="int" name="NOMEGA">     0</i>
   <i type="int" name="NOMEGAR">     0</i>
   <i type="int" name="NBANDSGW">    -1</i>
   <i type="int" name="NBANDSO">    -1</i>
   <i type="int" name="NBANDSV">    -1</i>
   <i type="int" name="NELM">     1</i>
   <i type="int" name="NELMHF">     1</i>
   <i type="int" name="DIM">     3</i>
   <i type="int" name="ANTIRES">     0</i>
   <i name="OMEGAMAX">    -30.00000000</i>
   <i name="OMEGAMIN">    -30.00000000</i>
   <i name="OMEGATL">   -200.00000000</i>
   <i type="int" name="OMEGAGRID">     0</i>
   <i name="CSHIFT">     -0.10000000</i>
   <i type="logical" name="SELFENERGY"> F  </i>
   <i type="logical" name="LSPECTRAL"> F  </i>
   <i type="logical" name="LSPECTRALGW"> F  </i>
   <i type="logical" name="LSINGLES"> F  </i>
   <i type="logical" name="LFERMIGW"> F  </i>
   <i type="logical" name="ODDONLYGW"> F  </i>
   <i type="logical" name="EVENONLYGW"> F  </i>
   <i type="int" name="NKREDLFX">     1</i>
   <i type="int" name="NKREDLFY">     1</i>
   <i type="int" name="NKREDLFZ">     1</i>
   <i type="int" name="MAXMEM">  1800</i>
   <i type="int" name="TELESCOPE">     0</i>
   <i type="int" name="TAUPAR">     1</i>
   <i type="int" name="OMEGAPAR">    -1</i>
   <i name="LAMBDA">      1.00000000</i>
  </separator>
  <separator name="External order field" >
   <i name="OFIELD_KAPPA">      0.00000000</i>
   <v name="OFIELD_K">      0.00000000      0.00000000      0.00000000</v>
   <i name="OFIELD_Q6_NEAR">      0.00000000</i>
   <i name="OFIELD_Q6_FAR">      0.00000000</i>
   <i name="OFIELD_A">      0.00000000</i>
  </separator>
 </parameters>
 <atominfo>
  <atoms>      27 </atoms>
  <types>       4 </types>
  <array name="atoms" >
   <dimension dim="1">ion</dimension>
   <field type="string">element</field>
   <field type="int">atomtype</field>
   <set>
    <rc><c>V </c><c>   1</c></rc>
    <rc><c>V </c><c>   1</c></rc>
    <rc><c>V </c><c>   1</c></rc>
    <rc><c>Mo</c><c>   2</c></rc>
    <rc><c>Mo</c><c>   2</c></rc>
    <rc><c>Mo</c><c>   2</c></rc>
    <rc><c>W </c><c>   3</c></rc>
    <rc><c>W </c><c>   3</c></rc>
    <rc><c>W </c><c>   3</c></rc>
    <rc><c>S </c><c>   4</c></rc>
    <rc><c>S </c><c>   4</c></rc>
    <rc><c>S </c><c>   4</c></rc>
    <rc><c>S </c><c>   4</c></rc>
    <rc><c>S </c><c>   4</c></rc>
    <rc><c>S </c><c>   4</c></rc>
    <rc><c>S </c><c>   4</c></rc>
    <rc><c>S </c><c>   4</c></rc>
    <rc><c>S </c><c>   4</c></rc>
    <rc><c>S </c><c>   4</c></rc>
    <rc><c>S </c><c>   4</c></rc>
    <rc><c>S </c><c>   4</c></rc>
    <rc><c>S </c><c>   4</c></rc>
    <rc><c>S </c><c>   4</c></rc>
    <rc><c>S </c><c>   4</c></rc>
    <rc><c>S </c><c>   4</c></rc>
    <rc><c>S </c><c>   4</c></rc>
    <rc><c>S </c><c>   4</c></rc>
   </set>
  </array>
  <array name="atomtypes" >
   <dimension dim="1">type</dimension>
   <field type="int">atomspertype</field>
   <field type="string">element</field>
   <field>mass</field>
   <field>valence</field>
   <field type="string">pseudopotential</field>
   <set>
    <rc><c>   3</c><c>V </c><c>     50.94100000</c><c>      5.00000000</c><c> PAW_PBE V 08Apr2002                    </c></rc>
    <rc><c>   3</c><c>Mo</c><c>     95.94000000</c><c>      6.00000000</c><c> PAW_PBE Mo 08Apr2002                   </c></rc>
    <rc><c>   3</c><c>W </c><c>    183.85000000</c><c>      6.00000000</c><c> PAW_PBE W 08Apr2002                    </c></rc>
    <rc><c>  18</c><c>S </c><c>     32.06600000</c><c>      6.00000000</c><c>  PAW_PBE S 17Jan2003                   </c></rc>
   </set>
  </array>
 </atominfo>
 <structure name="initialpos" >
  <crystal>
   <varray name="basis" >
    <v>       8.66999996       5.03999989       0.00000000 </v>
    <v>      -8.66999982       5.04000013       0.00000000 </v>
    <v>       0.00000000       0.00000000      30.00000000 </v>
   </varray>
   <i name="volume">   2621.80797419 </i>
   <varray name="rec_basis" >
    <v>       0.05767013       0.09920635       0.00000000 </v>
    <v>      -0.05767013       0.09920635       0.00000000 </v>
    <v>       0.00000000       0.00000000       0.03333333 </v>
   </varray>
  </crystal>
  <varray name="positions" >
   <v>       0.66666669       0.66666669       0.00000000 </v>
   <v>       0.66666669       0.33333334       0.00000000 </v>
   <v>       0.00000000       0.00000000       0.00000000 </v>
   <v>       0.00000000       0.66666669       0.00000000 </v>
   <v>       0.33333334       0.66666669       0.00000000 </v>
   <v>       0.66666669       0.00000000       0.00000000 </v>
   <v>       1.00000000       0.33333334       0.00000000 </v>
   <v>       0.33333334       0.00000000       0.00000000 </v>
   <v>       0.33333334       0.33333334       0.00000000 </v>
   <v>       0.11068511       0.22244981       0.95539999 </v>
   <v>       0.22244981       0.11068511       0.04460000 </v>
   <v>       0.11068511       0.55578315       0.95539999 </v>
   <v>       0.22244981       0.44401845       0.04460000 </v>
   <v>       0.11068511       0.88911647       0.95539999 </v>
   <v>       0.22244981       0.77735180       0.04460000 </v>
   <v>       0.44401845       0.22244981       0.95539999 </v>
   <v>       0.55578315       0.11068511       0.04460000 </v>
   <v>       0.44401845       0.55578315       0.95539999 </v>
   <v>       0.55578315       0.44401845       0.04460000 </v>
   <v>       0.44401845       0.88911647       0.95539999 </v>
   <v>       0.55578315       0.77735180       0.04460000 </v>
   <v>       0.77735180       0.22244981       0.95539999 </v>
   <v>       0.88911647       0.11068511       0.04460000 </v>
   <v>       0.77735180       0.55578315       0.95539999 </v>
   <v>       0.88911647       0.44401845       0.04460000 </v>
   <v>       0.77735180       0.88911647       0.95539999 </v>
   <v>       0.88911647       0.77735180       0.04460000 </v>
  </varray>
 </structure>
 <calculation>
  <scstep>
   <time name="dav">   23.28   23.36</time>
   <time name="total">   23.32   23.41</time>
   <energy>
    <i name="alphaZ">     81.65567618 </i>
    <i name="ewald">  41890.23009656 </i>
    <i name="hartreedc"> -47722.86556143 </i>
    <i name="XCdc">   -242.92861174 </i>
    <i name="pawpsdc">   3467.42045192 </i>
    <i name="pawaedc">  -2871.19716117 </i>
    <i name="eentropy">     -0.54476356 </i>
    <i name="bandstr">   -237.21672742 </i>
    <i name="atom">   6761.44252427 </i>
    <i name="e_fr_energy">   1125.99592361 </i>
    <i name="e_wo_entrp">   1126.54068717 </i>
    <i name="e_0_energy">   1126.26830539 </i>
   </energy>
  </scstep>
  <scstep>
   <time name="dav">   30.92   31.00</time>
   <time name="total">   30.92   31.00</time>
   <energy>
    <i name="e_fr_energy">     -3.13660207 </i>
    <i name="e_wo_entrp">     -2.91937972 </i>
    <i name="e_0_energy">     -3.02799089 </i>
   </energy>
  </scstep>
  <scstep>
   <time name="dav">   29.37   29.44</time>
   <time name="total">   29.37   29.45</time>
   <energy>
    <i name="e_fr_energy">   -199.97561892 </i>
    <i name="e_wo_entrp">   -199.69312052 </i>
    <i name="e_0_energy">   -199.83436972 </i>
   </energy>
  </scstep>
  <scstep>
   <time name="dav">   32.62   32.70</time>
   <time name="total">   32.62   32.71</time>
   <energy>
    <i name="e_fr_energy">   -209.00074234 </i>
    <i name="e_wo_entrp">   -208.68440701 </i>
    <i name="e_0_energy">   -208.84257468 </i>
   </energy>
  </scstep>
  <scstep>
   <time name="dav">   30.23   30.30</time>
   <time name="total">   30.70   30.78</time>
   <energy>
    <i name="e_fr_energy">   -209.28892166 </i>
    <i name="e_wo_entrp">   -208.97499069 </i>
    <i name="e_0_energy">   -209.13195618 </i>
   </energy>
  </scstep>
  <scstep>
   <time name="dav">   33.13   33.21</time>
   <time name="total">   33.63   33.72</time>
   <energy>
    <i name="e_fr_energy">   -236.79380091 </i>
    <i name="e_wo_entrp">   -236.50547419 </i>
    <i name="e_0_energy">   -236.64963755 </i>
   </energy>
  </scstep>
  <scstep>
   <time name="dav">   34.56   34.65</time>
   <time name="total">   35.07   35.17</time>
   <energy>
    <i name="e_fr_energy">   -196.67179984 </i>
    <i name="e_wo_entrp">   -196.34988728 </i>
    <i name="e_0_energy">   -196.51084356 </i>
   </energy>
  </scstep>
  <scstep>
   <time name="dav">   30.98   31.05</time>
   <time name="total">   31.49   31.57</time>
   <energy>
    <i name="e_fr_energy">   -190.02864187 </i>
    <i name="e_wo_entrp">   -189.75521431 </i>
    <i name="e_0_energy">   -189.89192809 </i>
   </energy>
  </scstep>
  <scstep>
   <time name="dav">   31.64   31.72</time>
   <time name="total">   32.17   32.26</time>
   <energy>
    <i name="e_fr_energy">   -188.24129550 </i>
    <i name="e_wo_entrp">   -187.90331473 </i>
    <i name="e_0_energy">   -188.07230512 </i>
   </energy>
  </scstep>
  <scstep>
   <time name="dav">   34.78   34.86</time>
   <time name="total">   35.31   35.41</time>
   <energy>
    <i name="e_fr_energy">   -187.05648495 </i>
    <i name="e_wo_entrp">   -186.71302003 </i>
    <i name="e_0_energy">   -186.88475249 </i>
   </energy>
  </scstep>
  <scstep>
   <time name="dav">   33.00   33.08</time>
   <time name="total">   33.54   33.63</time>
   <energy>
    <i name="e_fr_energy">   -186.99605594 </i>
    <i name="e_wo_entrp">   -186.64489672 </i>
    <i name="e_0_energy">   -186.82047633 </i>
   </energy>
  </scstep>
  <scstep>
   <time name="dav">   32.92   33.00</time>
   <time name="total">   33.46   33.55</time>
   <energy>
    <i name="e_fr_energy">   -187.07384130 </i>
    <i name="e_wo_entrp">   -186.74008330 </i>
    <i name="e_0_energy">   -186.90696230 </i>
   </energy>
  </scstep>
  <scstep>
   <time name="dav">   34.03   34.11</time>
   <time name="total">   34.57   34.66</time>
   <energy>
    <i name="e_fr_energy">   -186.90591725 </i>
    <i name="e_wo_entrp">   -186.56795478 </i>
    <i name="e_0_energy">   -186.73693601 </i>
   </energy>
  </scstep>
  <scstep>
   <time name="dav">   33.60   33.68</time>
   <time name="total">   34.14   34.23</time>
   <energy>
    <i name="e_fr_energy">   -186.89401763 </i>
    <i name="e_wo_entrp">   -186.54991509 </i>
    <i name="e_0_energy">   -186.72196636 </i>
   </energy>
  </scstep>
  <scstep>
   <time name="dav">   33.38   33.46</time>
   <time name="total">   33.92   34.01</time>
   <energy>
    <i name="e_fr_energy">   -186.87005760 </i>
    <i name="e_wo_entrp">   -186.52345679 </i>
    <i name="e_0_energy">   -186.69675719 </i>
   </energy>
  </scstep>
  <scstep>
   <time name="dav">   33.53   33.61</time>
   <time name="total">   34.07   34.16</time>
   <energy>
    <i name="e_fr_energy">   -186.86556284 </i>
    <i name="e_wo_entrp">   -186.51986194 </i>
    <i name="e_0_energy">   -186.69271239 </i>
   </energy>
  </scstep>
  <scstep>
   <time name="dav">   33.34   33.42</time>
   <time name="total">   33.88   33.97</time>
   <energy>
    <i name="e_fr_energy">   -186.86360359 </i>
    <i name="e_wo_entrp">   -186.51960677 </i>
    <i name="e_0_energy">   -186.69160518 </i>
   </energy>
  </scstep>
  <scstep>
   <time name="dav">   31.30   31.37</time>
   <time name="total">   31.84   31.92</time>
   <energy>
    <i name="e_fr_energy">   -186.86296146 </i>
    <i name="e_wo_entrp">   -186.51877514 </i>
    <i name="e_0_energy">   -186.69086830 </i>
   </energy>
  </scstep>
  <scstep>
   <time name="dav">   27.05   27.11</time>
   <time name="total">   27.59   27.66</time>
   <energy>
    <i name="e_fr_energy">   -186.86283916 </i>
    <i name="e_wo_entrp">   -186.51841533 </i>
    <i name="e_0_energy">   -186.69062724 </i>
   </energy>
  </scstep>
  <scstep>
   <time name="dav">   25.44   25.50</time>
   <time name="total">   25.97   26.04</time>
   <energy>
    <i name="e_fr_energy">   -186.86368644 </i>
    <i name="e_wo_entrp">   -186.51944987 </i>
    <i name="e_0_energy">   -186.69156815 </i>
   </energy>
  </scstep>
  <scstep>
   <time name="dav">   23.33   23.39</time>
   <time name="total">   23.87   23.93</time>
   <energy>
    <i name="e_fr_energy">   -186.86436755 </i>
    <i name="e_wo_entrp">   -186.52021204 </i>
    <i name="e_0_energy">   -186.69228980 </i>
   </energy>
  </scstep>
  <scstep>
   <time name="dav">   21.90   21.95</time>
   <time name="total">   22.44   22.50</time>
   <energy>
    <i name="e_fr_energy">   -186.86540020 </i>
    <i name="e_wo_entrp">   -186.52109925 </i>
    <i name="e_0_energy">   -186.69324973 </i>
   </energy>
  </scstep>
  <scstep>
   <time name="dav">   21.86   21.91</time>
   <time name="total">   22.40   22.46</time>
   <energy>
    <i name="e_fr_energy">   -186.86654766 </i>
    <i name="e_wo_entrp">   -186.52238707 </i>
    <i name="e_0_energy">   -186.69446736 </i>
   </energy>
  </scstep>
  <scstep>
   <time name="dav">   20.28   20.33</time>
   <time name="total">   20.82   20.88</time>
   <energy>
    <i name="e_fr_energy">   -186.86712293 </i>
    <i name="e_wo_entrp">   -186.52291429 </i>
    <i name="e_0_energy">   -186.69501861 </i>
   </energy>
  </scstep>
  <scstep>
   <time name="dav">   17.76   17.80</time>
   <time name="total">   18.30   18.35</time>
   <energy>
    <i name="e_fr_energy">   -186.86748721 </i>
    <i name="e_wo_entrp">   -186.52325547 </i>
    <i name="e_0_energy">   -186.69537134 </i>
   </energy>
  </scstep>
  <scstep>
   <time name="dav">   20.39   20.44</time>
   <time name="total">   20.93   20.99</time>
   <energy>
    <i name="e_fr_energy">   -186.86773077 </i>
    <i name="e_wo_entrp">   -186.52351682 </i>
    <i name="e_0_energy">   -186.69562380 </i>
   </energy>
  </scstep>
  <scstep>
   <time name="dav">   21.37   21.42</time>
   <time name="total">   21.40   21.46</time>
   <energy>
    <i name="alphaZ">     81.65567618 </i>
    <i name="ewald">  41890.23009656 </i>
    <i name="hartreedc"> -47832.97524440 </i>
    <i name="XCdc">   -231.60457753 </i>
    <i name="pawpsdc">   4192.11553819 </i>
    <i name="pawaedc">  -3610.12937606 </i>
    <i name="eentropy">     -0.34421910 </i>
    <i name="bandstr">  -1437.25823966 </i>
    <i name="atom">   6761.44252427 </i>
    <i name="e_fr_energy">   -186.86782155 </i>
    <i name="e_wo_entrp">   -186.52360245 </i>
    <i name="e_0_energy">   -186.69571200 </i>
   </energy>
  </scstep>
  <structure>
   <crystal>
    <varray name="basis" >
     <v>       8.66999996       5.03999989       0.00000000 </v>
     <v>      -8.66999982       5.04000013       0.00000000 </v>
     <v>       0.00000000       0.00000000      30.00000000 </v>
    </varray>
    <i name="volume">   2621.80797419 </i>
    <varray name="rec_basis" >
     <v>       0.05767013       0.09920635       0.00000000 </v>
     <v>      -0.05767013       0.09920635       0.00000000 </v>
     <v>       0.00000000       0.00000000       0.03333333 </v>
    </varray>
   </crystal>
   <varray name="positions" >
    <v>       0.66666669       0.66666669       0.00000000 </v>
    <v>       0.66666669       0.33333334       0.00000000 </v>
    <v>       0.00000000       0.00000000       0.00000000 </v>
    <v>       0.00000000       0.66666669       0.00000000 </v>
    <v>       0.33333334       0.66666669       0.00000000 </v>
    <v>       0.66666669       0.00000000       0.00000000 </v>
    <v>       1.00000000       0.33333334       0.00000000 </v>
    <v>       0.33333334       0.00000000       0.00000000 </v>
    <v>       0.33333334       0.33333334       0.00000000 </v>
    <v>       0.11068511       0.22244981       0.95539999 </v>
    <v>       0.22244981       0.11068511       0.04460000 </v>
    <v>       0.11068511       0.55578315       0.95539999 </v>
    <v>       0.22244981       0.44401845       0.04460000 </v>
    <v>       0.11068511       0.88911647       0.95539999 </v>
    <v>       0.22244981       0.77735180       0.04460000 </v>
    <v>       0.44401845       0.22244981       0.95539999 </v>
    <v>       0.55578315       0.11068511       0.04460000 </v>
    <v>       0.44401845       0.55578315       0.95539999 </v>
    <v>       0.55578315       0.44401845       0.04460000 </v>
    <v>       0.44401845       0.88911647       0.95539999 </v>
    <v>       0.55578315       0.77735180       0.04460000 </v>
    <v>       0.77735180       0.22244981       0.95539999 </v>
    <v>       0.88911647       0.11068511       0.04460000 </v>
    <v>       0.77735180       0.55578315       0.95539999 </v>
    <v>       0.88911647       0.44401845       0.04460000 </v>
    <v>       0.77735180       0.88911647       0.95539999 </v>
    <v>       0.88911647       0.77735180       0.04460000 </v>
   </varray>
  </structure>
  <varray name="forces" >
   <v>      -0.13176444       0.16309399      -0.01989574 </v>
   <v>       0.13212057       0.16537395       0.06387333 </v>
   <v>       0.00439093      -0.31236108      -0.07694844 </v>
   <v>       0.17704686       0.10318001      -0.03460228 </v>
   <v>      -0.24596737       0.13372197       0.01877690 </v>
   <v>       0.03332574      -0.30393371       0.01743037 </v>
   <v>      -0.28383394       0.10064692      -0.10360427 </v>
   <v>       0.55141156      -0.31051897       0.13119469 </v>
   <v>      -0.23945794       0.23399411       0.02187656 </v>
   <v>       0.47062931      -0.59503574      -2.19723585 </v>
   <v>      -0.45793115      -0.56002469       2.11608203 </v>
   <v>       0.22879805      -0.15726515      -2.89902135 </v>
   <v>      -0.05213807      -0.10236753       2.89353347 </v>
   <v>      -0.70204742       0.14434721      -2.11799086 </v>
   <v>      -0.21423211       0.17691190       2.93875199 </v>
   <v>       0.45307881       0.57427284      -2.11212618 </v>
   <v>      -0.64137567       0.55909811       2.17056084 </v>
   <v>       0.61075254       0.54021670      -2.15300417 </v>
   <v>       0.25944873       0.50924485       1.43796288 </v>
   <v>      -0.02070480       0.00024780      -2.94117887 </v>
   <v>       0.74214969       0.00000836       2.11156269 </v>
   <v>      -0.63904750       0.16527072      -2.09972039 </v>
   <v>       0.65964022       0.14365175       2.06465783 </v>
   <v>      -0.31664645      -0.66241865      -1.39354970 </v>
   <v>      -0.39226889      -0.72083552       2.19094242 </v>
   <v>       0.90882816       0.01350314      -1.48924753 </v>
   <v>      -0.89420541      -0.00202329       1.46091964 </v>
  </varray>
  <varray name="stress" >
   <v>       7.44398676       0.01325766      -1.61959971 </v>
   <v>       0.01325768       4.31440591      -0.01592588 </v>
   <v>      -1.61959998      -0.01592591      30.30402641 </v>
  </varray>
  <energy>
   <i name="e_fr_energy">   -186.86782155 </i>
   <i name="e_wo_entrp">   -186.69571200 </i>
   <i name="e_0_energy">     -0.34421910 </i>
  </energy>
  <time name="totalsc">  832.25  834.49</time>
 </calculation>
 <calculation>
  <scstep>
   <time name="dav">   23.21   23.27</time>
   <time name="total">   23.76   23.82</time>
   <energy>
    <i name="alphaZ">     78.92071466 </i>
    <i name="ewald">  39379.58961795 </i>
    <i name="hartreedc"> -45337.07175815 </i>
    <i name="XCdc">   -239.06178824 </i>
    <i name="pawpsdc">   4192.09677586 </i>
    <i name="pawaedc">  -3610.11074371 </i>
    <i name="eentropy">     -0.28385268 </i>
    <i name="bandstr">  -1413.02834177 </i>
    <i name="atom">   6761.44252427 </i>
    <i name="e_fr_energy">   -187.50685182 </i>
    <i name="e_wo_entrp">   -187.22299914 </i>
    <i name="e_0_energy">   -187.36492548 </i>
   </energy>
  </scstep>
  <scstep>
   <time name="dav">   32.34   32.42</time>
   <time name="total">   32.88   32.97</time>
   <energy>
    <i name="e_fr_energy">   -189.51358399 </i>
    <i name="e_wo_entrp">   -189.17850001 </i>
    <i name="e_0_energy">   -189.34604200 </i>
   </energy>
  </scstep>
  <scstep>
   <time name="dav">   32.56   32.64</time>
   <time name="total">   33.12   33.20</time>
   <energy>
    <i name="e_fr_energy">   -189.36321188 </i>
    <i name="e_wo_entrp">   -189.08455008 </i>
    <i name="e_0_energy">   -189.22388098 </i>
   </energy>
  </scstep>
  <scstep>
   <time name="dav">   32.57   32.65</time>
   <time name="total">   33.13   33.21</time>
   <energy>
    <i name="e_fr_energy">   -188.79115504 </i>
    <i name="e_wo_entrp">   -188.50754481 </i>
    <i name="e_0_energy">   -188.64934993 </i>
   </energy>
  </scstep>
  <scstep>
   <time name="dav">   29.99   30.06</time>
   <time name="total">   30.54   30.62</time>
   <energy>
    <i name="e_fr_energy">   -188.88685386 </i>
    <i name="e_wo_entrp">   -188.59555626 </i>
    <i name="e_0_energy">   -188.74120506 </i>
   </energy>
  </scstep>
  <scstep>
   <time name="dav">   33.10   33.18</time>
   <time name="total">   33.65   33.74</time>
   <energy>
    <i name="e_fr_energy">   -188.75891496 </i>
    <i name="e_wo_entrp">   -188.47107090 </i>
    <i name="e_0_energy">   -188.61499293 </i>
   </energy>
  </scstep>
  <scstep>
   <time name="dav">   28.55   28.62</time>
   <time name="total">   29.10   29.18</time>
   <energy>
    <i name="e_fr_energy">   -188.70465348 </i>
    <i name="e_wo_entrp">   -188.41965964 </i>
    <i name="e_0_energy">   -188.56215656 </i>
   </energy>
  </scstep>
  <scstep>
   <time name="dav">   33.87   33.95</time>
   <time name="total">   34.42   34.51</time>
   <energy>
    <i name="e_fr_energy">   -188.69578526 </i>
    <i name="e_wo_entrp">   -188.41220899 </i>
    <i name="e_0_energy">   -188.55399713 </i>
   </energy>
  </scstep>
  <scstep>
   <time name="dav">   31.46   31.54</time>
   <time name="total">   32.01   32.10</time>
   <energy>
    <i name="e_fr_energy">   -188.68114476 </i>
    <i name="e_wo_entrp">   -188.39734875 </i>
    <i name="e_0_energy">   -188.53924676 </i>
   </energy>
  </scstep>
  <scstep>
   <time name="dav">   32.89   32.97</time>
   <time name="total">   33.45   33.53</time>
   <energy>
    <i name="e_fr_energy">   -188.67747262 </i>
    <i name="e_wo_entrp">   -188.39385087 </i>
    <i name="e_0_energy">   -188.53566174 </i>
   </energy>
  </scstep>
  <scstep>
   <time name="dav">   33.63   33.71</time>
   <time name="total">   34.18   34.27</time>
   <energy>
    <i name="e_fr_energy">   -188.67677415 </i>
    <i name="e_wo_entrp">   -188.39396328 </i>
    <i name="e_0_energy">   -188.53536872 </i>
   </energy>
  </scstep>
  <scstep>
   <time name="dav">   31.81   31.89</time>
   <time name="total">   31.85   31.94</time>
   <energy>
    <i name="alphaZ">     78.92071466 </i>
    <i name="ewald">  39379.58961795 </i>
    <i name="hartreedc"> -45347.99014794 </i>
    <i name="XCdc">   -237.96992714 </i>
    <i name="pawpsdc">   3952.75924554 </i>
    <i name="pawaedc">  -3367.29759858 </i>
    <i name="eentropy">     -0.28263373 </i>
    <i name="bandstr">  -1407.84866651 </i>
    <i name="atom">   6761.44252427 </i>
    <i name="e_fr_energy">   -188.67687149 </i>
    <i name="e_wo_entrp">   -188.39423776 </i>
    <i name="e_0_energy">   -188.53555462 </i>
   </energy>
  </scstep>
  <structure>
   <crystal>
    <varray name="basis" >
     <v>       8.85889989       5.10391432       0.00000000 </v>
     <v>      -8.85850901       5.10324240       0.00000000 </v>
     <v>       0.00000000       0.00000000      30.00000000 </v>
    </varray>
    <i name="volume">   2712.66553860 </i>
    <varray name="rec_basis" >
     <v>       0.05643795       0.09796831       0.00000000 </v>
     <v>      -0.05644538       0.09797264       0.00000000 </v>
     <v>       0.00000000       0.00000000       0.03333333 </v>
    </varray>
   </crystal>
   <varray name="positions" >
    <v>       0.66708066       0.66781384      -0.00003199 </v>
    <v>       0.66782574       0.33375724       0.00010271 </v>
    <v>      -0.00148274      -0.00150717      -0.00012374 </v>
    <v>       0.00098639       0.66666793      -0.00005564 </v>
    <v>       0.33328901       0.66799100       0.00003019 </v>
    <v>       0.66530478      -0.00154734       0.00002803 </v>
    <v>       0.99969202       0.33460471      -0.00016660 </v>
    <v>       0.33338132      -0.00302025       0.00021097 </v>
    <v>       0.33378702       0.33511944       0.00003518 </v>
    <v>       0.10914665       0.21829262       0.95186664 </v>
    <v>       0.21849551       0.10927888       0.04800285 </v>
    <v>       0.11056900       0.55439393       0.95073811 </v>
    <v>       0.22181482       0.44367358       0.04925306 </v>
    <v>       0.10942274       0.89176052       0.95199407 </v>
    <v>       0.22270048       0.77879452       0.04932577 </v>
    <v>       0.44802745       0.22393773       0.95200350 </v>
    <v>       0.55667457       0.11514535       0.04809045 </v>
    <v>       0.44830313       0.55666941       0.95193777 </v>
    <v>       0.55894221       0.44573386       0.04691237 </v>
    <v>       0.44396204       0.88917526       0.95067031 </v>
    <v>       0.55784797       0.77528706       0.04799558 </v>
    <v>       0.77636485       0.22501872       0.95202345 </v>
    <v>       0.89163920       0.10953740       0.04792015 </v>
    <v>       0.77330051       0.55349379       0.95315904 </v>
    <v>       0.88457521       0.44165991       0.04812323 </v>
    <v>       0.77994493       0.88665259       0.95300515 </v>
    <v>       0.88661896       0.77982994       0.04694929 </v>
   </varray>
  </structure>
  <varray name="forces" >
   <v>      -0.12864329       0.11299457      -0.00459100 </v>
   <v>       0.15057551       0.14137936      -0.07220543 </v>
   <v>      -0.03103278      -0.20990443       0.05502840 </v>
   <v>       0.42497296       0.23932606      -0.08290906 </v>
   <v>      -0.40676753       0.09891895       0.01132708 </v>
   <v>      -0.13346521      -0.38431251       0.08691153 </v>
   <v>      -0.18272254       0.23481985      -0.03612139 </v>
   <v>       0.64450921      -0.34439916       0.02786063 </v>
   <v>      -0.33559736       0.11559145      -0.01368064 </v>
   <v>      -0.06245362       0.05259023       0.10306890 </v>
   <v>       0.05810554       0.06741516      -0.24899462 </v>
   <v>       0.06901830      -0.10179550      -0.18041875 </v>
   <v>       0.05545153      -0.08754157       0.00579758 </v>
   <v>       0.02590440       0.11411585       0.00932341 </v>
   <v>      -0.04386261       0.11193873       0.28597983 </v>
   <v>      -0.05559028      -0.06639252       0.29243669 </v>
   <v>      -0.08568376      -0.05584207       0.01171295 </v>
   <v>       0.07449753      -0.04826520       0.02368558 </v>
   <v>      -0.06167650      -0.06083195      -0.10197736 </v>
   <v>      -0.13486645      -0.00851009      -0.22301853 </v>
   <v>       0.07166650       0.00351803       0.08360902 </v>
   <v>       0.01709148       0.09942106       0.03000134 </v>
   <v>      -0.02657848       0.10511124      -0.14934684 </v>
   <v>      -0.00912549      -0.03307685       0.14790440 </v>
   <v>       0.09406319      -0.06157361       0.05703283 </v>
   <v>       0.04044459      -0.01654034      -0.01797596 </v>
   <v>      -0.02823485      -0.01815471      -0.10044059 </v>
  </varray>
  <varray name="stress" >
   <v>     -19.98938666      -0.00546153       0.07048338 </v>
   <v>      -0.00546139     -19.53806345       0.01016573 </v>
   <v>       0.07048336       0.01016574      -1.74871091 </v>
  </varray>
  <energy>
   <i name="e_fr_energy">   -188.67687149 </i>
   <i name="e_wo_entrp">   -188.53555462 </i>
   <i name="e_0_energy">     -0.28263373 </i>
  </energy>
  <time name="totalsc">  426.62  427.74</time>
 </calculation>
 <calculation>
  <scstep>
   <time name="dav">   25.36   25.42</time>
   <time name="total">   25.90   25.96</time>
   <energy>
    <i name="alphaZ">     82.35577518 </i>
    <i name="ewald">  41308.80486166 </i>
    <i name="hartreedc"> -47307.85479672 </i>
    <i name="XCdc">   -233.83877741 </i>
    <i name="pawpsdc">   3950.50026040 </i>
    <i name="pawaedc">  -3365.01241472 </i>
    <i name="eentropy">     -0.23712956 </i>
    <i name="bandstr">  -1386.76774747 </i>
    <i name="atom">   6761.44252427 </i>
    <i name="e_fr_energy">   -190.60744437 </i>
    <i name="e_wo_entrp">   -190.37031481 </i>
    <i name="e_0_energy">   -190.48887959 </i>
   </energy>
  </scstep>
  <scstep>
   <time name="dav">   29.74   29.81</time>
   <time name="total">   30.27   30.35</time>
   <energy>
    <i name="e_fr_energy">   -190.56713175 </i>
    <i name="e_wo_entrp">   -190.32390928 </i>
    <i name="e_0_energy">   -190.44552052 </i>
   </energy>
  </scstep>
  <scstep>
   <time name="dav">   32.31   32.39</time>
   <time name="total">   32.84   32.93</time>
   <energy>
    <i name="e_fr_energy">   -190.08806291 </i>
    <i name="e_wo_entrp">   -189.83711212 </i>
    <i name="e_0_energy">   -189.96258751 </i>
   </energy>
  </scstep>
  <scstep>
   <time name="dav">   33.08   33.16</time>
   <time name="total">   33.62   33.70</time>
   <energy>
    <i name="e_fr_energy">   -189.88084667 </i>
    <i name="e_wo_entrp">   -189.64184413 </i>
    <i name="e_0_energy">   -189.76134540 </i>
   </energy>
  </scstep>
  <scstep>
   <time name="dav">   32.13   32.20</time>
   <time name="total">   32.66   32.75</time>
   <energy>
    <i name="e_fr_energy">   -189.92054618 </i>
    <i name="e_wo_entrp">   -189.67396514 </i>
    <i name="e_0_energy">   -189.79725566 </i>
   </energy>
  </scstep>
  <scstep>
   <time name="dav">   32.23   32.31</time>
   <time name="total">   32.77   32.86</time>
   <energy>
    <i name="e_fr_energy">   -189.77566151 </i>
    <i name="e_wo_entrp">   -189.53552058 </i>
    <i name="e_0_energy">   -189.65559104 </i>
   </energy>
  </scstep>
  <scstep>
   <time name="dav">   32.81   32.89</time>
   <time name="total">   33.35   33.43</time>
   <energy>
    <i name="e_fr_energy">   -189.76947041 </i>
    <i name="e_wo_entrp">   -189.52933814 </i>
    <i name="e_0_energy">   -189.64940427 </i>
   </energy>
  </scstep>
  <scstep>
   <time name="dav">   30.82   30.89</time>
   <time name="total">   31.35   31.44</time>
   <energy>
    <i name="e_fr_energy">   -189.77050391 </i>
    <i name="e_wo_entrp">   -189.53034005 </i>
    <i name="e_0_energy">   -189.65042198 </i>
   </energy>
  </scstep>
  <scstep>
   <time name="dav">   29.35   29.42</time>
   <time name="total">   29.88   29.96</time>
   <energy>
    <i name="e_fr_energy">   -189.76934188 </i>
    <i name="e_wo_entrp">   -189.52922633 </i>
    <i name="e_0_energy">   -189.64928410 </i>
   </energy>
  </scstep>
  <scstep>
   <time name="dav">   27.84   27.90</time>
   <time name="total">   28.37   28.45</time>
   <energy>
    <i name="e_fr_energy">   -189.76961866 </i>
    <i name="e_wo_entrp">   -189.52938858 </i>
    <i name="e_0_energy">   -189.64950362 </i>
   </energy>
  </scstep>
  <scstep>
   <time name="dav">   25.10   25.16</time>
   <time name="total">   25.64   25.71</time>
   <energy>
    <i name="e_fr_energy">   -189.76940237 </i>
    <i name="e_wo_entrp">   -189.52919062 </i>
    <i name="e_0_energy">   -189.64929649 </i>
   </energy>
  </scstep>
  <scstep>
   <time name="dav">   20.91   20.96</time>
   <time name="total">   20.94   21.00</time>
   <energy>
    <i name="alphaZ">     82.35577518 </i>
    <i name="ewald">  41308.80486166 </i>
    <i name="hartreedc"> -47281.10106862 </i>
    <i name="XCdc">   -235.23626175 </i>
    <i name="pawpsdc">   4039.06925239 </i>
    <i name="pawaedc">  -3454.77943145 </i>
    <i name="eentropy">     -0.24020020 </i>
    <i name="bandstr">  -1410.08487609 </i>
    <i name="atom">   6761.44252427 </i>
    <i name="e_fr_energy">   -189.76942460 </i>
    <i name="e_wo_entrp">   -189.52922440 </i>
    <i name="e_0_energy">   -189.64932450 </i>
   </energy>
  </scstep>
  <structure>
   <crystal>
    <varray name="basis" >
     <v>       8.67001828       4.99751531       0.00000000 </v>
     <v>      -8.66969518       4.99696059       0.00000000 </v>
     <v>       0.00000000       0.00000000      30.00000000 </v>
    </varray>
    <i name="volume">   2599.52022160 </i>
    <varray name="rec_basis" >
     <v>       0.05766788       0.10005341       0.00000000 </v>
     <v>      -0.05767428       0.10005714       0.00000000 </v>
     <v>       0.00000000       0.00000000       0.03333333 </v>
    </varray>
   </crystal>
   <varray name="positions" >
    <v>       0.66714545       0.66812560      -0.00003460 </v>
    <v>       0.66820582       0.33384826       0.00006178 </v>
    <v>      -0.00186225      -0.00182712      -0.00009254 </v>
    <v>       0.00179303       0.66665874      -0.00010264 </v>
    <v>       0.33306340       0.66854629       0.00003662 </v>
    <v>       0.66453637      -0.00205956       0.00007730 </v>
    <v>       0.99990788       0.33517137      -0.00018708 </v>
    <v>       0.33342613      -0.00421278       0.00022677 </v>
    <v>       0.33365750       0.33563420       0.00002742 </v>
    <v>       0.10917433       0.21844019       0.95192507 </v>
    <v>       0.21866360       0.10933543       0.04786169 </v>
    <v>       0.11046564       0.55415807       0.95063583 </v>
    <v>       0.22172219       0.44347449       0.04925634 </v>
    <v>       0.10963774       0.89192579       0.95199936 </v>
    <v>       0.22284488       0.77902314       0.04948789 </v>
    <v>       0.44786347       0.22388047       0.95216928 </v>
    <v>       0.55649929       0.11513456       0.04809709 </v>
    <v>       0.44829422       0.55651747       0.95195120 </v>
    <v>       0.55878166       0.44569171       0.04685456 </v>
    <v>       0.44381841       0.88929054       0.95054389 </v>
    <v>       0.55792262       0.77522412       0.04804298 </v>
    <v>       0.77654690       0.22516797       0.95204046 </v>
    <v>       0.89178882       0.10973805       0.04783549 </v>
    <v>       0.77323665       0.55344744       0.95324288 </v>
    <v>       0.88456290       0.44146702       0.04815556 </v>
    <v>       0.77995619       0.88658620       0.95299496 </v>
    <v>       0.88656161       0.77982679       0.04689235 </v>
   </varray>
  </structure>
  <varray name="forces" >
   <v>      -0.13411385       0.07770253       0.00013373 </v>
   <v>       0.17329567       0.12375528      -0.08500055 </v>
   <v>      -0.04389473      -0.14364034       0.07429157 </v>
   <v>       0.49643735       0.28018744      -0.06576148 </v>
   <v>      -0.45492524       0.06370367       0.00539417 </v>
   <v>      -0.18507117      -0.38696845       0.07945840 </v>
   <v>      -0.13611001       0.27561932      -0.00501305 </v>
   <v>       0.64984325      -0.35057848      -0.00594558 </v>
   <v>      -0.36527550       0.05838470      -0.02091518 </v>
   <v>       0.00561526      -0.08160610      -0.40826798 </v>
   <v>       0.00040985      -0.05317078       0.22549946 </v>
   <v>       0.03573807      -0.02438770      -0.75437321 </v>
   <v>      -0.00095163      -0.02251685       0.56854754 </v>
   <v>      -0.07968351       0.05733580      -0.48394579 </v>
   <v>      -0.00253745       0.02704811       0.87832807 </v>
   <v>       0.01994416       0.03115638      -0.17729821 </v>
   <v>      -0.08919254       0.07234914       0.52139192 </v>
   <v>       0.05423317       0.09711424      -0.47830940 </v>
   <v>       0.01535892       0.08354303       0.35858505 </v>
   <v>      -0.04979256      -0.00811555      -0.79945364 </v>
   <v>       0.15015950      -0.00925590       0.57960494 </v>
   <v>      -0.08398483       0.02037051      -0.46053218 </v>
   <v>       0.07173273       0.04294252       0.32083377 </v>
   <v>      -0.04666446      -0.08180040      -0.28871167 </v>
   <v>      -0.02471444      -0.11040830       0.56134289 </v>
   <v>       0.10742815      -0.01792762      -0.47297583 </v>
   <v>      -0.08328414      -0.02083618       0.33309225 </v>
  </varray>
  <varray name="stress" >
   <v>     -10.15746430       0.00292680       0.07241259 </v>
   <v>       0.00292673      -9.76215637       0.00834087 </v>
   <v>       0.07241263       0.00834088       6.51504054 </v>
  </varray>
  <energy>
   <i name="e_fr_energy">   -189.76942460 </i>
   <i name="e_wo_entrp">   -189.64932450 </i>
   <i name="e_0_energy">     -0.24020020 </i>
  </energy>
  <time name="totalsc">  401.80  402.86</time>
 </calculation>
 <calculation>
  <scstep>
   <time name="dav">   23.24   23.29</time>
   <time name="total">   23.76   23.82</time>
   <energy>
    <i name="alphaZ">     85.79577174 </i>
    <i name="ewald">  42819.73866309 </i>
    <i name="hartreedc"> -48836.15986685 </i>
    <i name="XCdc">   -232.99003025 </i>
    <i name="pawpsdc">   4039.15713867 </i>
    <i name="pawaedc">  -3454.86498531 </i>
    <i name="eentropy">     -0.20399665 </i>
    <i name="bandstr">  -1373.22960969 </i>
    <i name="atom">   6761.44252427 </i>
    <i name="e_fr_energy">   -191.31439098 </i>
    <i name="e_wo_entrp">   -191.11039432 </i>
    <i name="e_0_energy">   -191.21239265 </i>
   </energy>
  </scstep>
  <scstep>
   <time name="dav">   34.26   34.34</time>
   <time name="total">   34.78   34.87</time>
   <energy>
    <i name="e_fr_energy">   -191.16483054 </i>
    <i name="e_wo_entrp">   -190.95539839 </i>
    <i name="e_0_energy">   -191.06011446 </i>
   </energy>
  </scstep>
  <scstep>
   <time name="dav">   32.14   32.22</time>
   <time name="total">   32.66   32.75</time>
   <energy>
    <i name="e_fr_energy">   -191.26919530 </i>
    <i name="e_wo_entrp">   -191.04778660 </i>
    <i name="e_0_energy">   -191.15849095 </i>
   </energy>
  </scstep>
  <scstep>
   <time name="dav">   33.80   33.88</time>
   <time name="total">   34.32   34.42</time>
   <energy>
    <i name="e_fr_energy">   -190.87295556 </i>
    <i name="e_wo_entrp">   -190.66563227 </i>
    <i name="e_0_energy">   -190.76929391 </i>
   </energy>
  </scstep>
  <scstep>
   <time name="dav">   32.02   32.10</time>
   <time name="total">   32.54   32.63</time>
   <energy>
    <i name="e_fr_energy">   -190.78660219 </i>
    <i name="e_wo_entrp">   -190.57590963 </i>
    <i name="e_0_energy">   -190.68125591 </i>
   </energy>
  </scstep>
  <scstep>
   <time name="dav">   33.23   33.31</time>
   <time name="total">   33.75   33.84</time>
   <energy>
    <i name="e_fr_energy">   -190.77278450 </i>
    <i name="e_wo_entrp">   -190.56190139 </i>
    <i name="e_0_energy">   -190.66734295 </i>
   </energy>
  </scstep>
  <scstep>
   <time name="dav">   31.10   31.18</time>
   <time name="total">   31.63   31.71</time>
   <energy>
    <i name="e_fr_energy">   -190.75122922 </i>
    <i name="e_wo_entrp">   -190.54115678 </i>
    <i name="e_0_energy">   -190.64619300 </i>
   </energy>
  </scstep>
  <scstep>
   <time name="dav">   30.94   31.01</time>
   <time name="total">   31.46   31.55</time>
   <energy>
    <i name="e_fr_energy">   -190.74811028 </i>
    <i name="e_wo_entrp">   -190.53804738 </i>
    <i name="e_0_energy">   -190.64307883 </i>
   </energy>
  </scstep>
  <scstep>
   <time name="dav">   30.78   30.85</time>
   <time name="total">   31.30   31.39</time>
   <energy>
    <i name="e_fr_energy">   -190.74745086 </i>
    <i name="e_wo_entrp">   -190.53744320 </i>
    <i name="e_0_energy">   -190.64244703 </i>
   </energy>
  </scstep>
  <scstep>
   <time name="dav">   30.08   30.15</time>
   <time name="total">   30.61   30.69</time>
   <energy>
    <i name="e_fr_energy">   -190.74757619 </i>
    <i name="e_wo_entrp">   -190.53729389 </i>
    <i name="e_0_energy">   -190.64243504 </i>
   </energy>
  </scstep>
  <scstep>
   <time name="dav">   27.25   27.32</time>
   <time name="total">   27.78   27.85</time>
   <energy>
    <i name="e_fr_energy">   -190.74736361 </i>
    <i name="e_wo_entrp">   -190.53733962 </i>
    <i name="e_0_energy">   -190.64235162 </i>
   </energy>
  </scstep>
  <scstep>
   <time name="dav">   21.57   21.62</time>
   <time name="total">   21.60   21.66</time>
   <energy>
    <i name="alphaZ">     85.79577174 </i>
    <i name="ewald">  42819.73866309 </i>
    <i name="hartreedc"> -48807.84311883 </i>
    <i name="XCdc">   -234.30452303 </i>
    <i name="pawpsdc">   4063.19568389 </i>
    <i name="pawaedc">  -3479.07613289 </i>
    <i name="eentropy">     -0.21004530 </i>
    <i name="bandstr">  -1399.48618174 </i>
    <i name="atom">   6761.44252427 </i>
    <i name="e_fr_energy">   -190.74735880 </i>
    <i name="e_wo_entrp">   -190.53731350 </i>
    <i name="e_0_energy">   -190.64233615 </i>
   </energy>
  </scstep>
  <structure>
   <crystal>
    <varray name="basis" >
     <v>       8.48880029       4.89982930       0.00000000 </v>
     <v>      -8.48824052       4.89886309       0.00000000 </v>
     <v>       0.00000000       0.00000000      30.00000000 </v>
    </varray>
    <i name="volume">   2495.29200082 </i>
    <varray name="rec_basis" >
     <v>       0.05889727       0.10205107       0.00000000 </v>
     <v>      -0.05890889       0.10205780       0.00000000 </v>
     <v>       0.00000000       0.00000000       0.03333333 </v>
    </varray>
   </crystal>
   <varray name="positions" >
    <v>       0.66705284       0.66901570      -0.00003035 </v>
    <v>       0.66959338       0.33392147      -0.00012460 </v>
    <v>      -0.00277335      -0.00238508       0.00007715 </v>
    <v>       0.00553796       0.66662032      -0.00022409 </v>
    <v>       0.33166600       0.67056658       0.00004277 </v>
    <v>       0.66136895      -0.00374550       0.00023519 </v>
    <v>       1.00130813       0.33742041      -0.00017127 </v>
    <v>       0.33356883      -0.00877143       0.00018605 </v>
    <v>       0.33252200       0.33721728      -0.00002187 </v>
    <v>       0.10844940       0.21748085       0.95065148 </v>
    <v>       0.21795228       0.10878547       0.04872669 </v>
    <v>       0.11058593       0.55411545       0.94859450 </v>
    <v>       0.22165836       0.44357818       0.05090432 </v>
    <v>       0.10941830       0.89258172       0.95058461 </v>
    <v>       0.22285389       0.77893273       0.05180078 </v>
    <v>       0.44847895       0.22413699       0.95140788 </v>
    <v>       0.55694210       0.11623056       0.04960301 </v>
    <v>       0.44942763       0.55731757       0.95054076 </v>
    <v>       0.55982613       0.44640603       0.04798280 </v>
    <v>       0.44371026       0.88929913       0.94840734 </v>
    <v>       0.55848632       0.77448142       0.04965765 </v>
    <v>       0.77603214       0.22554674       0.95067639 </v>
    <v>       0.89230233       0.10945426       0.04889382 </v>
    <v>       0.77238291       0.55303711       0.95227915 </v>
    <v>       0.88349342       0.44091406       0.04973950 </v>
    <v>       0.78032335       0.88598789       0.95163506 </v>
    <v>       0.88604601       0.78006855       0.04794518 </v>
   </varray>
  </structure>
  <varray name="forces" >
   <v>      -0.11331546       0.03204628       0.00646098 </v>
   <v>       0.19581478       0.13858427      -0.08089152 </v>
   <v>      -0.07164731      -0.07576658       0.08056638 </v>
   <v>       0.52908513       0.27903540      -0.00501468 </v>
   <v>      -0.46836754       0.00602709      -0.00595673 </v>
   <v>      -0.20639100      -0.39657066       0.04087058 </v>
   <v>      -0.10083092       0.33640198       0.02918393 </v>
   <v>       0.65239243      -0.35454551      -0.02650346 </v>
   <v>      -0.43473907       0.05168348      -0.03604507 </v>
   <v>      -0.02977020      -0.06029763      -0.31142174 </v>
   <v>       0.06118857      -0.00618645       0.06971451 </v>
   <v>       0.03140094       0.03647536      -0.59443530 </v>
   <v>      -0.07996085       0.05150648       0.41405780 </v>
   <v>       0.03883678       0.01260478      -0.31024745 </v>
   <v>       0.02186610      -0.01609011       0.69767180 </v>
   <v>       0.02120682      -0.05650960       0.00676105 </v>
   <v>      -0.04028114      -0.01368494       0.38032574 </v>
   <v>      -0.05374287       0.07193827      -0.31059694 </v>
   <v>      -0.01758506       0.05101677       0.23344705 </v>
   <v>       0.03912936      -0.02554319      -0.61121447 </v>
   <v>       0.01884510      -0.03762485       0.40093331 </v>
   <v>       0.01674970      -0.01307335      -0.26212305 </v>
   <v>      -0.04929597      -0.01847456       0.15176083 </v>
   <v>       0.01991786       0.05770150      -0.19342948 </v>
   <v>      -0.02710467       0.00959235       0.37845010 </v>
   <v>      -0.00253341      -0.03470807      -0.35885430 </v>
   <v>       0.04913192      -0.02553851       0.21653012 </v>
  </varray>
  <varray name="stress" >
   <v>      -5.70866281      -0.00126619      -0.14247282 </v>
   <v>      -0.00126635      -5.93476048      -0.00013828 </v>
   <v>      -0.14247295      -0.00013830       4.43494989 </v>
  </varray>
  <energy>
   <i name="e_fr_energy">   -190.74735880 </i>
   <i name="e_wo_entrp">   -190.64233615 </i>
   <i name="e_0_energy">     -0.21004530 </i>
  </energy>
  <time name="totalsc">  410.66  411.74</time>
 </calculation>
 <calculation>
  <scstep>
   <time name="dav">   23.26   23.31</time>
   <time name="total">   23.77   23.83</time>
   <energy>
    <i name="alphaZ">     90.21325503 </i>
    <i name="ewald">  44690.49622027 </i>
    <i name="hartreedc"> -50734.23369788 </i>
    <i name="XCdc">   -231.76708154 </i>
    <i name="pawpsdc">   4063.17658507 </i>
    <i name="pawaedc">  -3479.05184001 </i>
    <i name="eentropy">     -0.19634459 </i>
    <i name="bandstr">  -1352.23732422 </i>
    <i name="atom">   6761.44252427 </i>
    <i name="e_fr_energy">   -192.15770361 </i>
    <i name="e_wo_entrp">   -191.96135902 </i>
    <i name="e_0_energy">   -192.05953131 </i>
   </energy>
  </scstep>
  <scstep>
   <time name="dav">   30.13   30.20</time>
   <time name="total">   30.64   30.72</time>
   <energy>
    <i name="e_fr_energy">   -191.86571335 </i>
    <i name="e_wo_entrp">   -191.66269870 </i>
    <i name="e_0_energy">   -191.76420603 </i>
   </energy>
  </scstep>
  <scstep>
   <time name="dav">   31.75   31.83</time>
   <time name="total">   32.26   32.35</time>
   <energy>
    <i name="e_fr_energy">   -192.00803013 </i>
    <i name="e_wo_entrp">   -191.80450889 </i>
    <i name="e_0_energy">   -191.90626951 </i>
   </energy>
  </scstep>
  <scstep>
   <time name="dav">   30.49   30.57</time>
   <time name="total">   31.01   31.09</time>
   <energy>
    <i name="e_fr_energy">   -191.75318802 </i>
    <i name="e_wo_entrp">   -191.55310685 </i>
    <i name="e_0_energy">   -191.65314743 </i>
   </energy>
  </scstep>
  <scstep>
   <time name="dav">   32.18   32.25</time>
   <time name="total">   32.68   32.77</time>
   <energy>
    <i name="e_fr_energy">   -191.58571697 </i>
    <i name="e_wo_entrp">   -191.38205023 </i>
    <i name="e_0_energy">   -191.48388360 </i>
   </energy>
  </scstep>
  <scstep>
   <time name="dav">   32.13   32.21</time>
   <time name="total">   32.65   32.73</time>
   <energy>
    <i name="e_fr_energy">   -191.43612526 </i>
    <i name="e_wo_entrp">   -191.23051853 </i>
    <i name="e_0_energy">   -191.33332190 </i>
   </energy>
  </scstep>
  <scstep>
   <time name="dav">   32.31   32.39</time>
   <time name="total">   32.83   32.91</time>
   <energy>
    <i name="e_fr_energy">   -191.42765975 </i>
    <i name="e_wo_entrp">   -191.22377338 </i>
    <i name="e_0_energy">   -191.32571656 </i>
   </energy>
  </scstep>
  <scstep>
   <time name="dav">   31.76   31.84</time>
   <time name="total">   32.27   32.36</time>
   <energy>
    <i name="e_fr_energy">   -191.42588729 </i>
    <i name="e_wo_entrp">   -191.22120476 </i>
    <i name="e_0_energy">   -191.32354602 </i>
   </energy>
  </scstep>
  <scstep>
   <time name="dav">   32.57   32.65</time>
   <time name="total">   33.08   33.17</time>
   <energy>
    <i name="e_fr_energy">   -191.41934043 </i>
    <i name="e_wo_entrp">   -191.21464748 </i>
    <i name="e_0_energy">   -191.31699395 </i>
   </energy>
  </scstep>
  <scstep>
   <time name="dav">   30.01   30.08</time>
   <time name="total">   30.53   30.61</time>
   <energy>
    <i name="e_fr_energy">   -191.41963050 </i>
    <i name="e_wo_entrp">   -191.21467047 </i>
    <i name="e_0_energy">   -191.31715048 </i>
   </energy>
  </scstep>
  <scstep>
   <time name="dav">   29.88   29.95</time>
   <time name="total">   30.39   30.47</time>
   <energy>
    <i name="e_fr_energy">   -191.41948707 </i>
    <i name="e_wo_entrp">   -191.21467074 </i>
    <i name="e_0_energy">   -191.31707890 </i>
   </energy>
  </scstep>
  <scstep>
   <time name="dav">   21.04   21.09</time>
   <time name="total">   21.08   21.14</time>
   <energy>
    <i name="alphaZ">     90.21325503 </i>
    <i name="ewald">  44690.49622027 </i>
    <i name="hartreedc"> -50699.92296684 </i>
    <i name="XCdc">   -233.31607939 </i>
    <i name="pawpsdc">   4087.59534797 </i>
    <i name="pawaedc">  -3503.59913624 </i>
    <i name="eentropy">     -0.20489790 </i>
    <i name="bandstr">  -1384.12373523 </i>
    <i name="atom">   6761.44252427 </i>
    <i name="e_fr_energy">   -191.41946807 </i>
    <i name="e_wo_entrp">   -191.21457016 </i>
    <i name="e_0_energy">   -191.31701911 </i>
   </energy>
  </scstep>
  <structure>
   <crystal>
    <varray name="basis" >
     <v>       8.28333153       4.77561174       0.00000000 </v>
     <v>      -8.28267827       4.77448422       0.00000000 </v>
     <v>       0.00000000       0.00000000      30.00000000 </v>
    </varray>
    <i name="volume">   2373.10473802 </i>
    <varray name="rec_basis" >
     <v>       0.06035744       0.10470686       0.00000000 </v>
     <v>      -0.06037169       0.10471512       0.00000000 </v>
     <v>       0.00000000       0.00000000       0.03333333 </v>
    </varray>
   </crystal>
   <varray name="positions" >
    <v>       0.66658832       0.67021706      -0.00000321 </v>
    <v>       0.67262726       0.33414462      -0.00046332 </v>
    <v>      -0.00413017      -0.00273574       0.00041537 </v>
    <v>       0.01292815       0.66632874      -0.00025972 </v>
    <v>       0.32834490       0.67402549       0.00001915 </v>
    <v>       0.65497266      -0.00708338       0.00041216 </v>
    <v>       1.00478813       0.34224485      -0.00004217 </v>
    <v>       0.33383390      -0.01777733       0.00005780 </v>
    <v>       0.32993732       0.34076726      -0.00016529 </v>
    <v>       0.10722289       0.21638408       0.94885326 </v>
    <v>       0.21773309       0.10800485       0.04955198 </v>
    <v>       0.11132754       0.55451323       0.94556786 </v>
    <v>       0.22177049       0.44486053       0.05319454 </v>
    <v>       0.10947220       0.89266009       0.94876788 </v>
    <v>       0.22268409       0.77836263       0.05526997 </v>
    <v>       0.44848344       0.22359321       0.95087856 </v>
    <v>       0.55694585       0.11691103       0.05169914 </v>
    <v>       0.45045925       0.55897253       0.94871729 </v>
    <v>       0.56095549       0.44746735       0.04943412 </v>
    <v>       0.44375950       0.88868177       0.94529601 </v>
    <v>       0.55842303       0.77364021       0.05184297 </v>
    <v>       0.77555551       0.22535909       0.94904199 </v>
    <v>       0.89192698       0.10922210       0.05005065 </v>
    <v>       0.77273704       0.55335998       0.95102739 </v>
    <v>       0.88288611       0.44107949       0.05184511 </v>
    <v>       0.78011829       0.88538715       0.94969264 </v>
    <v>       0.88586319       0.77962357       0.04929779 </v>
   </varray>
  </structure>
  <varray name="forces" >
   <v>      -0.07180105       0.00492944       0.02508440 </v>
   <v>       0.24567992       0.19377480      -0.02532838 </v>
   <v>      -0.10404774      -0.04139634       0.01717732 </v>
   <v>       0.24384120       0.01779009       0.04627474 </v>
   <v>       0.01662308      -0.09376936      -0.02744663 </v>
   <v>      -0.08721098      -0.30025777      -0.02064594 </v>
   <v>      -0.02736445       0.37844469      -0.04352518 </v>
   <v>       0.25919348      -0.13382333       0.03973648 </v>
   <v>      -0.53449829       0.05928804      -0.05565797 </v>
   <v>      -0.09964003      -0.02544499      -0.07895076 </v>
   <v>       0.17907894       0.08445059      -0.22857783 </v>
   <v>       0.03921821       0.06309030      -0.26234678 </v>
   <v>      -0.13943117       0.11106860       0.24341202 </v>
   <v>       0.17443464      -0.00288875       0.01095748 </v>
   <v>       0.03890073      -0.03432004       0.31172790 </v>
   <v>      -0.01160898      -0.20655295       0.32242987 </v>
   <v>      -0.01540840      -0.12341389       0.07640022 </v>
   <v>      -0.16392785       0.01799009      -0.07859988 </v>
   <v>      -0.04068047      -0.02198877      -0.06178415 </v>
   <v>       0.10478697      -0.06840235      -0.30208236 </v>
   <v>      -0.13774112      -0.08739821       0.07394622 </v>
   <v>       0.13877028      -0.00105948       0.06164967 </v>
   <v>      -0.21584507      -0.06124510      -0.11399848 </v>
   <v>       0.10333136       0.20882577       0.03956152 </v>
   <v>       0.02444351       0.10278687       0.12712669 </v>
   <v>      -0.09454173      -0.02502518      -0.04016239 </v>
   <v>       0.17544502      -0.01545278      -0.05637782 </v>
  </varray>
  <varray name="stress" >
   <v>       0.61994100       0.08975746      -0.35370323 </v>
   <v>       0.08975754       0.12549259      -0.01749611 </v>
   <v>      -0.35370328      -0.01749608      -0.32020495 </v>
  </varray>
  <energy>
   <i name="e_fr_energy">   -191.41946807 </i>
   <i name="e_wo_entrp">   -191.31701911 </i>
   <i name="e_0_energy">     -0.20489790 </i>
  </energy>
  <time name="totalsc">  407.23  408.31</time>
 </calculation>
 <calculation>
  <scstep>
   <time name="dav">   23.24   23.29</time>
   <time name="total">   23.75   23.81</time>
   <energy>
    <i name="alphaZ">     89.93892204 </i>
    <i name="ewald">  44549.42284836 </i>
    <i name="hartreedc"> -50556.50033376 </i>
    <i name="XCdc">   -233.57400442 </i>
    <i name="pawpsdc">   4087.52270160 </i>
    <i name="pawaedc">  -3503.52207020 </i>
    <i name="eentropy">     -0.20888360 </i>
    <i name="bandstr">  -1386.00527115 </i>
    <i name="atom">   6761.44252427 </i>
    <i name="e_fr_energy">   -191.48356687 </i>
    <i name="e_wo_entrp">   -191.27468326 </i>
    <i name="e_0_energy">   -191.37912506 </i>
   </energy>
  </scstep>
  <scstep>
   <time name="dav">   33.82   33.90</time>
   <time name="total">   34.34   34.43</time>
   <energy>
    <i name="e_fr_energy">   -191.54622704 </i>
    <i name="e_wo_entrp">   -191.33283936 </i>
    <i name="e_0_energy">   -191.43953320 </i>
   </energy>
  </scstep>
  <scstep>
   <time name="dav">   32.47   32.55</time>
   <time name="total">   32.98   33.07</time>
   <energy>
    <i name="e_fr_energy">   -191.49306979 </i>
    <i name="e_wo_entrp">   -191.28350216 </i>
    <i name="e_0_energy">   -191.38828597 </i>
   </energy>
  </scstep>
  <scstep>
   <time name="dav">   29.88   29.95</time>
   <time name="total">   30.40   30.48</time>
   <energy>
    <i name="e_fr_energy">   -191.49560656 </i>
    <i name="e_wo_entrp">   -191.28635781 </i>
    <i name="e_0_energy">   -191.39098219 </i>
   </energy>
  </scstep>
  <scstep>
   <time name="dav">   30.04   30.11</time>
   <time name="total">   30.55   30.63</time>
   <energy>
    <i name="e_fr_energy">   -191.49036879 </i>
    <i name="e_wo_entrp">   -191.28043126 </i>
    <i name="e_0_energy">   -191.38540003 </i>
   </energy>
  </scstep>
  <scstep>
   <time name="dav">   29.26   29.33</time>
   <time name="total">   29.78   29.86</time>
   <energy>
    <i name="e_fr_energy">   -191.49007138 </i>
    <i name="e_wo_entrp">   -191.28027609 </i>
    <i name="e_0_energy">   -191.38517374 </i>
   </energy>
  </scstep>
  <scstep>
   <time name="dav">   30.49   30.56</time>
   <time name="total">   31.00   31.08</time>
   <energy>
    <i name="e_fr_energy">   -191.49044951 </i>
    <i name="e_wo_entrp">   -191.28092201 </i>
    <i name="e_0_energy">   -191.38568576 </i>
   </energy>
  </scstep>
  <scstep>
   <time name="dav">   26.48   26.54</time>
   <time name="total">   27.00   27.07</time>
   <energy>
    <i name="e_fr_energy">   -191.48947557 </i>
    <i name="e_wo_entrp">   -191.27973022 </i>
    <i name="e_0_energy">   -191.38460289 </i>
   </energy>
  </scstep>
  <scstep>
   <time name="dav">   18.20   18.24</time>
   <time name="total">   18.24   18.29</time>
   <energy>
    <i name="alphaZ">     89.93892204 </i>
    <i name="ewald">  44549.42284836 </i>
    <i name="hartreedc"> -50559.56704673 </i>
    <i name="XCdc">   -233.46252776 </i>
    <i name="pawpsdc">   4083.14075662 </i>
    <i name="pawaedc">  -3499.08119949 </i>
    <i name="eentropy">     -0.20965366 </i>
    <i name="bandstr">  -1383.11408678 </i>
    <i name="atom">   6761.44252427 </i>
    <i name="e_fr_energy">   -191.48946313 </i>
    <i name="e_wo_entrp">   -191.27980947 </i>
    <i name="e_0_energy">   -191.38463630 </i>
   </energy>
  </scstep>
  <structure>
   <crystal>
    <varray name="basis" >
     <v>       8.30189734       4.78189552       0.00000000 </v>
     <v>      -8.29913987       4.77711931       0.00000000 </v>
     <v>       0.00000000       0.00000000      30.00000000 </v>
    </varray>
    <i name="volume">   2380.34321613 </i>
    <varray name="rec_basis" >
     <v>       0.06020711       0.10459592       0.00000000 </v>
     <v>      -0.06026730       0.10463068       0.00000000 </v>
     <v>       0.00000000       0.00000000       0.03333333 </v>
    </varray>
   </crystal>
   <varray name="positions" >
    <v>       0.66643745       0.67038539       0.00003320 </v>
    <v>       0.67408157       0.33438318      -0.00048691 </v>
    <v>      -0.00455340      -0.00263582       0.00042675 </v>
    <v>       0.01336279       0.66576219      -0.00018853 </v>
    <v>       0.32808774       0.67339503      -0.00002099 </v>
    <v>       0.65358892      -0.00812383       0.00037359 </v>
    <v>       1.00634908       0.34390135      -0.00011300 </v>
    <v>       0.33389644      -0.01873824       0.00012319 </v>
    <v>       0.32887711       0.34235426      -0.00024277 </v>
    <v>       0.10689110       0.21659543       0.94882422 </v>
    <v>       0.21864087       0.10795605       0.04916065 </v>
    <v>       0.11169817       0.55468253       0.94531734 </v>
    <v>       0.22190899       0.44570612       0.05344739 </v>
    <v>       0.10993976       0.89216468       0.94887489 </v>
    <v>       0.22263863       0.77812514       0.05557543 </v>
    <v>       0.44746502       0.22266709       0.95139855 </v>
    <v>       0.55631077       0.11632869       0.05171150 </v>
    <v>       0.45004229       0.55942286       0.94869060 </v>
    <v>       0.56067794       0.44742198       0.04926763 </v>
    <v>       0.44371749       0.88810191       0.94498995 </v>
    <v>       0.55763370       0.77364405       0.05184780 </v>
    <v>       0.77595843       0.22498292       0.94921769 </v>
    <v>       0.89106350       0.10953875       0.04981718 </v>
    <v>       0.77399865       0.55405557       0.95115130 </v>
    <v>       0.88347561       0.44149392       0.05193258 </v>
    <v>       0.77974606       0.88555588       0.94972636 </v>
    <v>       0.88627976       0.77908737       0.04914431 </v>
   </varray>
  </structure>
  <varray name="forces" >
   <v>      -0.07118206       0.02276912       0.04451251 </v>
   <v>       0.27739772       0.24416801      -0.03375388 </v>
   <v>      -0.07711098      -0.06249861       0.04591516 </v>
   <v>       0.27635105       0.02113898       0.02577134 </v>
   <v>      -0.02587898      -0.08114821      -0.00121228 </v>
   <v>      -0.12219996      -0.38411888      -0.00687517 </v>
   <v>      -0.03872292       0.43556978      -0.01157337 </v>
   <v>       0.40655910      -0.19087525      -0.00995660 </v>
   <v>      -0.60378102       0.06009527      -0.03641145 </v>
   <v>      -0.08024051      -0.01446140      -0.07643715 </v>
   <v>       0.09586044       0.07453100      -0.23701744 </v>
   <v>       0.01392300       0.04320265      -0.22459298 </v>
   <v>      -0.09617847       0.05637428       0.24589348 </v>
   <v>       0.10223905      -0.00548908       0.03627657 </v>
   <v>       0.04910479      -0.02562577       0.20394364 </v>
   <v>      -0.05404301      -0.12100260       0.35142997 </v>
   <v>      -0.00272862      -0.06536820       0.04891585 </v>
   <v>      -0.08813127       0.02944439      -0.11827188 </v>
   <v>      -0.03549702      -0.03318329      -0.10591165 </v>
   <v>       0.04225921      -0.06477066      -0.19924634 </v>
   <v>      -0.07365390      -0.05914834       0.06728615 </v>
   <v>       0.11130988       0.00913604       0.07025519 </v>
   <v>      -0.16180165      -0.03141255      -0.15694663 </v>
   <v>       0.06254214       0.12349060       0.05663041 </v>
   <v>       0.03990448       0.04829506       0.12697821 </v>
   <v>      -0.05344525      -0.01966746      -0.02911558 </v>
   <v>       0.10714475      -0.00944490      -0.07648608 </v>
  </varray>
  <varray name="stress" >
   <v>      -0.27509206       0.05978238      -0.14409328 </v>
   <v>       0.05978225      -0.31038028      -0.03691239 </v>
   <v>      -0.14409326      -0.03691248      -0.95583275 </v>
  </varray>
  <energy>
   <i name="e_fr_energy">   -191.48946313 </i>
   <i name="e_wo_entrp">   -191.38463630 </i>
   <i name="e_0_energy">     -0.20965366 </i>
  </energy>
  <time name="totalsc">  302.26  303.06</time>
 </calculation>
 <calculation>
  <scstep>
   <time name="dav">   23.27   23.32</time>
   <time name="total">   23.78   23.84</time>
   <energy>
    <i name="alphaZ">     90.03662572 </i>
    <i name="ewald">  44590.48484957 </i>
    <i name="hartreedc"> -50601.77708739 </i>
    <i name="XCdc">   -233.40986389 </i>
    <i name="pawpsdc">   4082.84535869 </i>
    <i name="pawaedc">  -3498.78243001 </i>
    <i name="eentropy">     -0.21076193 </i>
    <i name="bandstr">  -1382.16470959 </i>
    <i name="atom">   6761.44252427 </i>
    <i name="e_fr_energy">   -191.53549455 </i>
    <i name="e_wo_entrp">   -191.32473262 </i>
    <i name="e_0_energy">   -191.43011358 </i>
   </energy>
  </scstep>
  <scstep>
   <time name="dav">   34.74   34.83</time>
   <time name="total">   35.26   35.35</time>
   <energy>
    <i name="e_fr_energy">   -191.54926259 </i>
    <i name="e_wo_entrp">   -191.33563865 </i>
    <i name="e_0_energy">   -191.44245062 </i>
   </energy>
  </scstep>
  <scstep>
   <time name="dav">   32.08   32.15</time>
   <time name="total">   32.59   32.68</time>
   <energy>
    <i name="e_fr_energy">   -191.53862661 </i>
    <i name="e_wo_entrp">   -191.32761148 </i>
    <i name="e_0_energy">   -191.43311905 </i>
   </energy>
  </scstep>
  <scstep>
   <time name="dav">   29.58   29.65</time>
   <time name="total">   30.09   30.17</time>
   <energy>
    <i name="e_fr_energy">   -191.53894405 </i>
    <i name="e_wo_entrp">   -191.32805750 </i>
    <i name="e_0_energy">   -191.43350078 </i>
   </energy>
  </scstep>
  <scstep>
   <time name="dav">   29.57   29.64</time>
   <time name="total">   30.08   30.17</time>
   <energy>
    <i name="e_fr_energy">   -191.53740420 </i>
    <i name="e_wo_entrp">   -191.32595338 </i>
    <i name="e_0_energy">   -191.43167879 </i>
   </energy>
  </scstep>
  <scstep>
   <time name="dav">   27.17   27.23</time>
   <time name="total">   27.20   27.28</time>
   <energy>
    <i name="alphaZ">     90.03662572 </i>
    <i name="ewald">  44590.48484957 </i>
    <i name="hartreedc"> -50601.29730810 </i>
    <i name="XCdc">   -233.43258818 </i>
    <i name="pawpsdc">   4083.36273323 </i>
    <i name="pawaedc">  -3499.30659356 </i>
    <i name="eentropy">     -0.21143408 </i>
    <i name="bandstr">  -1382.61612059 </i>
    <i name="atom">   6761.44252427 </i>
    <i name="e_fr_energy">   -191.53731172 </i>
    <i name="e_wo_entrp">   -191.32587764 </i>
    <i name="e_0_energy">   -191.43159468 </i>
   </energy>
  </scstep>
  <structure>
   <crystal>
    <varray name="basis" >
     <v>       8.29814124       4.77979292       0.00000000 </v>
     <v>      -8.29458599       4.77363158       0.00000000 </v>
[...]
      <set comment="kpoint 31">
       <r>  -17.5457    1.0000 </r>
       <r>  -17.3067    1.0000 </r>
       <r>  -16.9130    1.0000 </r>
       <r>  -16.7114    1.0000 </r>
       <r>  -16.4926    1.0000 </r>
       <r>  -16.4709    1.0000 </r>
       <r>  -16.3432    1.0000 </r>
       <r>  -16.2210    1.0000 </r>
       <r>  -16.1855    1.0000 </r>
       <r>  -16.0727    1.0000 </r>
       <r>  -15.8945    1.0000 </r>
       <r>  -15.8206    1.0000 </r>
       <r>  -15.7638    1.0000 </r>
       <r>  -15.6636    1.0000 </r>
       <r>  -15.5546    1.0000 </r>
       <r>  -15.4315    1.0000 </r>
       <r>  -15.3545    1.0000 </r>
       <r>  -15.2550    1.0000 </r>
       <r>   -9.8126    1.0000 </r>
       <r>   -9.5289    1.0000 </r>
       <r>   -9.3323    1.0000 </r>
       <r>   -9.0130    1.0000 </r>
       <r>   -8.8206    1.0000 </r>
       <r>   -8.7011    1.0000 </r>
       <r>   -8.6358    1.0000 </r>
       <r>   -8.5765    1.0000 </r>
       <r>   -8.4328    1.0000 </r>
       <r>   -8.3065    1.0000 </r>
       <r>   -8.2542    1.0000 </r>
       <r>   -8.1898    1.0000 </r>
       <r>   -8.1114    1.0000 </r>
       <r>   -8.0579    1.0000 </r>
       <r>   -7.9452    1.0000 </r>
       <r>   -7.9075    1.0000 </r>
       <r>   -7.8528    1.0000 </r>
       <r>   -7.7903    1.0000 </r>
       <r>   -7.5817    1.0000 </r>
       <r>   -7.4541    1.0000 </r>
       <r>   -7.3790    1.0000 </r>
       <r>   -7.2703    1.0000 </r>
       <r>   -7.1487    1.0000 </r>
       <r>   -7.1118    1.0000 </r>
       <r>   -6.9778    1.0000 </r>
       <r>   -6.8910    1.0000 </r>
       <r>   -6.8329    1.0000 </r>
       <r>   -6.7473    1.0000 </r>
       <r>   -6.7042    1.0000 </r>
       <r>   -6.5707    1.0000 </r>
       <r>   -6.5254    1.0000 </r>
       <r>   -6.4796    1.0000 </r>
       <r>   -6.4079    1.0000 </r>
       <r>   -6.3278    1.0000 </r>
       <r>   -6.2706    1.0000 </r>
       <r>   -6.2455    1.0000 </r>
       <r>   -6.0897    1.0000 </r>
       <r>   -6.0261    1.0000 </r>
       <r>   -6.0079    1.0000 </r>
       <r>   -5.9460    1.0000 </r>
       <r>   -5.8656    1.0000 </r>
       <r>   -5.7183    1.0000 </r>
       <r>   -5.6567    1.0000 </r>
       <r>   -5.5641    1.0000 </r>
       <r>   -5.4834    1.0000 </r>
       <r>   -5.3696    1.0000 </r>
       <r>   -5.2612    1.0000 </r>
       <r>   -5.2256    1.0000 </r>
       <r>   -4.9716    1.0000 </r>
       <r>   -4.8709    1.0000 </r>
       <r>   -4.7717    1.0000 </r>
       <r>   -4.7106    1.0000 </r>
       <r>   -4.5713    1.0000 </r>
       <r>   -4.4612    1.0000 </r>
       <r>   -4.3893    1.0000 </r>
       <r>   -4.2643    1.0000 </r>
       <r>   -4.1718    1.0000 </r>
       <r>   -4.0453    1.0000 </r>
       <r>   -3.8490    1.0000 </r>
       <r>   -3.7071    0.9994 </r>
       <r>   -3.5233    0.9745 </r>
       <r>   -3.2494    0.5060 </r>
       <r>   -2.9237    0.0111 </r>
       <r>   -2.7972    0.0007 </r>
       <r>   -2.7386    0.0002 </r>
       <r>   -2.6351    0.0000 </r>
       <r>   -2.5256    0.0000 </r>
       <r>   -2.4090    0.0000 </r>
       <r>   -2.2033    0.0000 </r>
       <r>   -2.1057    0.0000 </r>
       <r>   -2.0426    0.0000 </r>
       <r>   -1.9367    0.0000 </r>
       <r>   -1.7293    0.0000 </r>
       <r>   -1.4971    0.0000 </r>
       <r>   -1.3836    0.0000 </r>
       <r>   -1.3105    0.0000 </r>
       <r>   -1.2095    0.0000 </r>
       <r>   -1.1547    0.0000 </r>
       <r>   -1.0412    0.0000 </r>
       <r>   -0.9744    0.0000 </r>
       <r>   -0.9146    0.0000 </r>
       <r>   -0.8751    0.0000 </r>
       <r>   -0.7716    0.0000 </r>
       <r>   -0.7246    0.0000 </r>
       <r>   -0.6630    0.0000 </r>
       <r>   -0.6111    0.0000 </r>
       <r>   -0.4975    0.0000 </r>
       <r>   -0.4458    0.0000 </r>
       <r>   -0.3316    0.0000 </r>
       <r>   -0.0384    0.0000 </r>
       <r>    0.1181    0.0000 </r>
       <r>    0.2450    0.0000 </r>
       <r>    0.3947    0.0000 </r>
       <r>    0.6078    0.0000 </r>
       <r>    0.8481    0.0000 </r>
       <r>    0.9921    0.0000 </r>
       <r>    1.1028    0.0000 </r>
       <r>    1.1898    0.0000 </r>
       <r>    1.3219    0.0000 </r>
       <r>    2.1382    0.0000 </r>
       <r>    2.3037    0.0000 </r>
       <r>    2.4070    0.0000 </r>
      </set>
      <set comment="kpoint 32">
       <r>  -17.5733    1.0000 </r>
       <r>  -17.2115    1.0000 </r>
       <r>  -17.0297    1.0000 </r>
       <r>  -16.7207    1.0000 </r>
       <r>  -16.4634    1.0000 </r>
       <r>  -16.3823    1.0000 </r>
       <r>  -16.3197    1.0000 </r>
       <r>  -16.2723    1.0000 </r>
       <r>  -16.1628    1.0000 </r>
       <r>  -16.0591    1.0000 </r>
       <r>  -15.9447    1.0000 </r>
       <r>  -15.8489    1.0000 </r>
       <r>  -15.7652    1.0000 </r>
       <r>  -15.6527    1.0000 </r>
       <r>  -15.5643    1.0000 </r>
       <r>  -15.4822    1.0000 </r>
       <r>  -15.3349    1.0000 </r>
       <r>  -15.2152    1.0000 </r>
       <r>   -9.7433    1.0000 </r>
       <r>   -9.5805    1.0000 </r>
       <r>   -9.4211    1.0000 </r>
       <r>   -9.0620    1.0000 </r>
       <r>   -8.7261    1.0000 </r>
       <r>   -8.6284    1.0000 </r>
       <r>   -8.5328    1.0000 </r>
       <r>   -8.4747    1.0000 </r>
       <r>   -8.4326    1.0000 </r>
       <r>   -8.3595    1.0000 </r>
       <r>   -8.3151    1.0000 </r>
       <r>   -8.2284    1.0000 </r>
       <r>   -8.1386    1.0000 </r>
       <r>   -8.1046    1.0000 </r>
       <r>   -8.0112    1.0000 </r>
       <r>   -7.9063    1.0000 </r>
       <r>   -7.8313    1.0000 </r>
       <r>   -7.7783    1.0000 </r>
       <r>   -7.6220    1.0000 </r>
       <r>   -7.4191    1.0000 </r>
       <r>   -7.3768    1.0000 </r>
       <r>   -7.2524    1.0000 </r>
       <r>   -7.1826    1.0000 </r>
       <r>   -7.1164    1.0000 </r>
       <r>   -7.0419    1.0000 </r>
       <r>   -6.8670    1.0000 </r>
       <r>   -6.8388    1.0000 </r>
       <r>   -6.7128    1.0000 </r>
       <r>   -6.6609    1.0000 </r>
       <r>   -6.5940    1.0000 </r>
       <r>   -6.4958    1.0000 </r>
       <r>   -6.4558    1.0000 </r>
       <r>   -6.3905    1.0000 </r>
       <r>   -6.3430    1.0000 </r>
       <r>   -6.2940    1.0000 </r>
       <r>   -6.2312    1.0000 </r>
       <r>   -6.1169    1.0000 </r>
       <r>   -6.0157    1.0000 </r>
       <r>   -5.9491    1.0000 </r>
       <r>   -5.8973    1.0000 </r>
       <r>   -5.8617    1.0000 </r>
       <r>   -5.6898    1.0000 </r>
       <r>   -5.6341    1.0000 </r>
       <r>   -5.6024    1.0000 </r>
       <r>   -5.5090    1.0000 </r>
       <r>   -5.4124    1.0000 </r>
       <r>   -5.3440    1.0000 </r>
       <r>   -5.2012    1.0000 </r>
       <r>   -5.1370    1.0000 </r>
       <r>   -4.8562    1.0000 </r>
       <r>   -4.7382    1.0000 </r>
       <r>   -4.6537    1.0000 </r>
       <r>   -4.5250    1.0000 </r>
       <r>   -4.4955    1.0000 </r>
       <r>   -4.4016    1.0000 </r>
       <r>   -4.2616    1.0000 </r>
       <r>   -4.1787    1.0000 </r>
       <r>   -4.0580    1.0000 </r>
       <r>   -3.9123    1.0000 </r>
       <r>   -3.6718    0.9987 </r>
       <r>   -3.5072    0.9669 </r>
       <r>   -3.2018    0.3737 </r>
       <r>   -2.9121    0.0089 </r>
       <r>   -2.7915    0.0006 </r>
       <r>   -2.7011    0.0001 </r>
       <r>   -2.5973    0.0000 </r>
       <r>   -2.4963    0.0000 </r>
       <r>   -2.4148    0.0000 </r>
       <r>   -2.1443    0.0000 </r>
       <r>   -2.0941    0.0000 </r>
       <r>   -2.0191    0.0000 </r>
       <r>   -1.9627    0.0000 </r>
       <r>   -1.7162    0.0000 </r>
       <r>   -1.5239    0.0000 </r>
       <r>   -1.4309    0.0000 </r>
       <r>   -1.3727    0.0000 </r>
       <r>   -1.2515    0.0000 </r>
       <r>   -1.1606    0.0000 </r>
       <r>   -1.0538    0.0000 </r>
       <r>   -0.9777    0.0000 </r>
       <r>   -0.9382    0.0000 </r>
       <r>   -0.8855    0.0000 </r>
       <r>   -0.8022    0.0000 </r>
       <r>   -0.7189    0.0000 </r>
       <r>   -0.6679    0.0000 </r>
       <r>   -0.5921    0.0000 </r>
       <r>   -0.4828    0.0000 </r>
       <r>   -0.3802    0.0000 </r>
       <r>   -0.2281    0.0000 </r>
       <r>   -0.0343    0.0000 </r>
       <r>    0.1401    0.0000 </r>
       <r>    0.2642    0.0000 </r>
       <r>    0.3830    0.0000 </r>
       <r>    0.5493    0.0000 </r>
       <r>    0.7951    0.0000 </r>
       <r>    0.9470    0.0000 </r>
       <r>    1.0755    0.0000 </r>
       <r>    1.2097    0.0000 </r>
       <r>    1.2732    0.0000 </r>
       <r>    2.0981    0.0000 </r>
       <r>    2.2758    0.0000 </r>
       <r>    2.5683    0.0000 </r>
      </set>
      <set comment="kpoint 33">
       <r>  -17.5751    1.0000 </r>
       <r>  -17.2583    1.0000 </r>
       <r>  -16.9272    1.0000 </r>
       <r>  -16.7276    1.0000 </r>
       <r>  -16.4993    1.0000 </r>
       <r>  -16.4415    1.0000 </r>
       <r>  -16.3574    1.0000 </r>
       <r>  -16.2596    1.0000 </r>
       <r>  -16.0883    1.0000 </r>
       <r>  -16.0000    1.0000 </r>
       <r>  -15.9575    1.0000 </r>
       <r>  -15.8686    1.0000 </r>
       <r>  -15.7582    1.0000 </r>
       <r>  -15.6460    1.0000 </r>
       <r>  -15.5867    1.0000 </r>
       <r>  -15.5480    1.0000 </r>
       <r>  -15.2917    1.0000 </r>
       <r>  -15.2144    1.0000 </r>
       <r>   -9.7798    1.0000 </r>
       <r>   -9.4622    1.0000 </r>
       <r>   -9.3668    1.0000 </r>
       <r>   -9.0998    1.0000 </r>
       <r>   -8.9161    1.0000 </r>
       <r>   -8.7119    1.0000 </r>
       <r>   -8.5009    1.0000 </r>
       <r>   -8.4857    1.0000 </r>
       <r>   -8.4110    1.0000 </r>
       <r>   -8.3371    1.0000 </r>
       <r>   -8.2769    1.0000 </r>
       <r>   -8.2200    1.0000 </r>
       <r>   -8.1372    1.0000 </r>
       <r>   -8.1046    1.0000 </r>
       <r>   -8.0341    1.0000 </r>
       <r>   -7.9047    1.0000 </r>
       <r>   -7.7598    1.0000 </r>
       <r>   -7.6871    1.0000 </r>
       <r>   -7.6447    1.0000 </r>
       <r>   -7.4195    1.0000 </r>
       <r>   -7.3427    1.0000 </r>
       <r>   -7.2168    1.0000 </r>
       <r>   -7.1748    1.0000 </r>
       <r>   -7.1217    1.0000 </r>
       <r>   -7.0636    1.0000 </r>
       <r>   -6.8456    1.0000 </r>
       <r>   -6.8122    1.0000 </r>
       <r>   -6.7748    1.0000 </r>
       <r>   -6.6419    1.0000 </r>
       <r>   -6.5851    1.0000 </r>
       <r>   -6.5018    1.0000 </r>
       <r>   -6.4745    1.0000 </r>
       <r>   -6.4100    1.0000 </r>
       <r>   -6.3808    1.0000 </r>
       <r>   -6.2562    1.0000 </r>
       <r>   -6.2166    1.0000 </r>
       <r>   -6.1199    1.0000 </r>
       <r>   -6.0602    1.0000 </r>
       <r>   -5.9750    1.0000 </r>
       <r>   -5.9231    1.0000 </r>
       <r>   -5.8756    1.0000 </r>
       <r>   -5.7609    1.0000 </r>
       <r>   -5.6720    1.0000 </r>
       <r>   -5.6063    1.0000 </r>
       <r>   -5.5102    1.0000 </r>
       <r>   -5.4197    1.0000 </r>
       <r>   -5.2967    1.0000 </r>
       <r>   -5.2424    1.0000 </r>
       <r>   -5.0693    1.0000 </r>
       <r>   -4.8136    1.0000 </r>
       <r>   -4.7941    1.0000 </r>
       <r>   -4.6232    1.0000 </r>
       <r>   -4.5817    1.0000 </r>
       <r>   -4.4766    1.0000 </r>
       <r>   -4.3275    1.0000 </r>
       <r>   -4.2259    1.0000 </r>
       <r>   -4.1594    1.0000 </r>
       <r>   -4.0701    1.0000 </r>
       <r>   -3.9728    1.0000 </r>
       <r>   -3.7019    0.9993 </r>
       <r>   -3.5298    0.9771 </r>
       <r>   -3.1132    0.1715 </r>
       <r>   -2.9863    0.0324 </r>
       <r>   -2.7324    0.0001 </r>
       <r>   -2.6880    0.0000 </r>
       <r>   -2.5618    0.0000 </r>
       <r>   -2.4832    0.0000 </r>
       <r>   -2.3776    0.0000 </r>
       <r>   -2.1082    0.0000 </r>
       <r>   -2.0717    0.0000 </r>
       <r>   -1.9988    0.0000 </r>
       <r>   -1.9163    0.0000 </r>
       <r>   -1.7117    0.0000 </r>
       <r>   -1.5799    0.0000 </r>
       <r>   -1.4937    0.0000 </r>
       <r>   -1.3920    0.0000 </r>
       <r>   -1.2994    0.0000 </r>
       <r>   -1.1679    0.0000 </r>
       <r>   -1.0617    0.0000 </r>
       <r>   -1.0400    0.0000 </r>
       <r>   -0.9480    0.0000 </r>
       <r>   -0.9036    0.0000 </r>
       <r>   -0.8247    0.0000 </r>
       <r>   -0.7286    0.0000 </r>
       <r>   -0.6473    0.0000 </r>
       <r>   -0.5751    0.0000 </r>
       <r>   -0.4171    0.0000 </r>
       <r>   -0.3371    0.0000 </r>
       <r>   -0.2112    0.0000 </r>
       <r>   -0.0158    0.0000 </r>
       <r>    0.1202    0.0000 </r>
       <r>    0.2748    0.0000 </r>
       <r>    0.3891    0.0000 </r>
       <r>    0.5080    0.0000 </r>
       <r>    0.7670    0.0000 </r>
       <r>    0.9396    0.0000 </r>
       <r>    1.0408    0.0000 </r>
       <r>    1.1762    0.0000 </r>
       <r>    1.3463    0.0000 </r>
       <r>    2.1151    0.0000 </r>
       <r>    2.3109    0.0000 </r>
       <r>    2.3769    0.0000 </r>
      </set>
      <set comment="kpoint 34">
       <r>  -17.5692    1.0000 </r>
       <r>  -17.2998    1.0000 </r>
       <r>  -16.7893    1.0000 </r>
       <r>  -16.7307    1.0000 </r>
       <r>  -16.6403    1.0000 </r>
       <r>  -16.4424    1.0000 </r>
       <r>  -16.3522    1.0000 </r>
       <r>  -16.2646    1.0000 </r>
       <r>  -16.0553    1.0000 </r>
       <r>  -16.0082    1.0000 </r>
       <r>  -15.9188    1.0000 </r>
       <r>  -15.8652    1.0000 </r>
       <r>  -15.7206    1.0000 </r>
       <r>  -15.6661    1.0000 </r>
       <r>  -15.6317    1.0000 </r>
       <r>  -15.5607    1.0000 </r>
       <r>  -15.2485    1.0000 </r>
       <r>  -15.2434    1.0000 </r>
       <r>   -9.8084    1.0000 </r>
       <r>   -9.3668    1.0000 </r>
       <r>   -9.2120    1.0000 </r>
       <r>   -9.1507    1.0000 </r>
       <r>   -9.0924    1.0000 </r>
       <r>   -8.8291    1.0000 </r>
       <r>   -8.5142    1.0000 </r>
       <r>   -8.4768    1.0000 </r>
       <r>   -8.3886    1.0000 </r>
       <r>   -8.3415    1.0000 </r>
       <r>   -8.2632    1.0000 </r>
       <r>   -8.2002    1.0000 </r>
       <r>   -8.1357    1.0000 </r>
       <r>   -8.0925    1.0000 </r>
       <r>   -7.9617    1.0000 </r>
       <r>   -7.9359    1.0000 </r>
       <r>   -7.8160    1.0000 </r>
       <r>   -7.7059    1.0000 </r>
       <r>   -7.4790    1.0000 </r>
       <r>   -7.3772    1.0000 </r>
       <r>   -7.3354    1.0000 </r>
       <r>   -7.2142    1.0000 </r>
       <r>   -7.1579    1.0000 </r>
       <r>   -7.0716    1.0000 </r>
       <r>   -7.0510    1.0000 </r>
       <r>   -7.0142    1.0000 </r>
       <r>   -6.7972    1.0000 </r>
       <r>   -6.7499    1.0000 </r>
       <r>   -6.6274    1.0000 </r>
       <r>   -6.5791    1.0000 </r>
       <r>   -6.5348    1.0000 </r>
       <r>   -6.4874    1.0000 </r>
       <r>   -6.4278    1.0000 </r>
       <r>   -6.3734    1.0000 </r>
       <r>   -6.2537    1.0000 </r>
       <r>   -6.2110    1.0000 </r>
       <r>   -6.1710    1.0000 </r>
       <r>   -6.0763    1.0000 </r>
       <r>   -6.0082    1.0000 </r>
       <r>   -5.8700    1.0000 </r>
       <r>   -5.8363    1.0000 </r>
       <r>   -5.7951    1.0000 </r>
       <r>   -5.7425    1.0000 </r>
       <r>   -5.6618    1.0000 </r>
       <r>   -5.5260    1.0000 </r>
       <r>   -5.4126    1.0000 </r>
       <r>   -5.2510    1.0000 </r>
       <r>   -5.2345    1.0000 </r>
       <r>   -4.9567    1.0000 </r>
       <r>   -4.8760    1.0000 </r>
       <r>   -4.7749    1.0000 </r>
       <r>   -4.6818    1.0000 </r>
       <r>   -4.5433    1.0000 </r>
       <r>   -4.4744    1.0000 </r>
       <r>   -4.3202    1.0000 </r>
       <r>   -4.2215    1.0000 </r>
       <r>   -4.1354    1.0000 </r>
       <r>   -4.0209    1.0000 </r>
       <r>   -3.9973    1.0000 </r>
       <r>   -3.7450    0.9998 </r>
       <r>   -3.5483    0.9833 </r>
       <r>   -3.0938    0.1388 </r>
       <r>   -3.0072    0.0448 </r>
       <r>   -2.7083    0.0001 </r>
       <r>   -2.6848    0.0000 </r>
       <r>   -2.5514    0.0000 </r>
       <r>   -2.4839    0.0000 </r>
       <r>   -2.3503    0.0000 </r>
       <r>   -2.1001    0.0000 </r>
       <r>   -2.0453    0.0000 </r>
       <r>   -2.0006    0.0000 </r>
       <r>   -1.8725    0.0000 </r>
       <r>   -1.7133    0.0000 </r>
       <r>   -1.6266    0.0000 </r>
       <r>   -1.5058    0.0000 </r>
       <r>   -1.3910    0.0000 </r>
       <r>   -1.3200    0.0000 </r>
       <r>   -1.1813    0.0000 </r>
       <r>   -1.0733    0.0000 </r>
       <r>   -1.0610    0.0000 </r>
       <r>   -0.9482    0.0000 </r>
       <r>   -0.9190    0.0000 </r>
       <r>   -0.8323    0.0000 </r>
       <r>   -0.7315    0.0000 </r>
       <r>   -0.6390    0.0000 </r>
       <r>   -0.5676    0.0000 </r>
       <r>   -0.3742    0.0000 </r>
       <r>   -0.3256    0.0000 </r>
       <r>   -0.2414    0.0000 </r>
       <r>    0.0165    0.0000 </r>
       <r>    0.0945    0.0000 </r>
       <r>    0.2636    0.0000 </r>
       <r>    0.4141    0.0000 </r>
       <r>    0.4829    0.0000 </r>
       <r>    0.7575    0.0000 </r>
       <r>    0.9642    0.0000 </r>
       <r>    1.0117    0.0000 </r>
       <r>    1.1811    0.0000 </r>
       <r>    1.3838    0.0000 </r>
       <r>    2.1573    0.0000 </r>
       <r>    2.2665    0.0000 </r>
       <r>    2.4004    0.0000 </r>
      </set>
     </set>
    </set>
   </array>
  </eigenvalues>
  <separator name="orbital magnetization" >
   <v name="MAGDIPOLOUT">      0.00000000      0.00000000      0.00000000</v>
  </separator>
 </calculation>
 <structure name="finalpos" >
  <crystal>
   <varray name="basis" >
    <v>       8.35110723       4.79822381       0.00000000 </v>
    <v>      -8.34894661       4.79471913       0.00000000 </v>
    <v>       0.00000000       0.00000000      30.00000000 </v>
   </varray>
   <i name="volume">   2403.03984099 </i>
   <varray name="rec_basis" >
    <v>       0.05985817       0.10422982       0.00000000 </v>
    <v>      -0.05990193       0.10425679       0.00000000 </v>
    <v>       0.00000000       0.00000000       0.03333333 </v>
   </varray>
  </crystal>
  <varray name="positions" >
   <v>       0.65237423       0.68288223      -0.00102415 </v>
   <v>       0.69375030       0.32412638       0.00176750 </v>
   <v>      -0.02374881       0.01538453      -0.00252385 </v>
   <v>       0.02054904       0.65105373       0.00160309 </v>
   <v>       0.33022692       0.66888502      -0.00013121 </v>
   <v>       0.64524807      -0.02031309       0.00005111 </v>
   <v>       1.01865605       0.35484287      -0.00020417 </v>
   <v>       0.34111723      -0.02786934       0.00130689 </v>
   <v>       0.32000990       0.35477453      -0.00093894 </v>
   <v>       0.10784382       0.22277921       0.94561427 </v>
   <v>       0.21558390       0.10652033       0.04285529 </v>
   <v>       0.11675890       0.55568250       0.94344371 </v>
   <v>       0.22156839       0.44897770       0.05627872 </v>
   <v>       0.10771413       0.89042694       0.95437041 </v>
   <v>       0.22447680       0.77545578       0.05753878 </v>
   <v>       0.44845364       0.22417464       0.95799651 </v>
   <v>       0.55599741       0.11191383       0.05362008 </v>
   <v>       0.45051390       0.56016410       0.94566349 </v>
   <v>       0.56003180       0.44673059       0.04441720 </v>
   <v>       0.44239217       0.88381524       0.94351976 </v>
   <v>       0.55463806       0.77326067       0.05418338 </v>
   <v>       0.78126163       0.22077974       0.94972466 </v>
   <v>       0.88486221       0.11342167       0.04974279 </v>
   <v>       0.77582532       0.55356869       0.95672329 </v>
   <v>       0.88941896       0.44076692       0.05553273 </v>
   <v>       0.77367208       0.88520952       0.94622449 </v>
   <v>       0.88901839       0.78079953       0.04264406 </v>
  </varray>
 </structure>
</modeling>
