unknown system                          
           1
     8.858900    5.103914    0.000000
    -8.858509    5.103242    0.000000
     0.000000    0.000000   30.000000
   V    Mo   W    S 
   3   3   3  18
Direct configuration=     1
   0.66666669  0.66666669  0.00000000
   0.66666669  0.33333334  0.00000000
   0.00000000  0.00000000  0.00000000
   0.00000000  0.66666669  0.00000000
   0.33333334  0.66666669  0.00000000
   0.66666669  0.00000000  0.00000000
   1.00000000  0.33333334  0.00000000
   0.33333334  0.00000000  0.00000000
   0.33333334  0.33333334  0.00000000
   0.11068511  0.22244981  0.95539999
   0.22244981  0.11068511  0.04460000
   0.11068511  0.55578315  0.95539999
   0.22244981  0.44401845  0.04460000
   0.11068511  0.88911647  0.95539999
   0.22244981  0.77735180  0.04460000
   0.44401845  0.22244981  0.95539999
   0.55578315  0.11068511  0.04460000
   0.44401845  0.55578315  0.95539999
   0.55578315  0.44401845  0.04460000
   0.44401845  0.88911647  0.95539999
   0.55578315  0.77735180  0.04460000
   0.77735180  0.22244981  0.95539999
   0.88911647  0.11068511  0.04460000
   0.77735180  0.55578315  0.95539999
   0.88911647  0.44401845  0.04460000
   0.77735180  0.88911647  0.95539999
   0.88911647  0.77735180  0.04460000
unknown system                          
           1
     8.670018    4.997515    0.000000
    -8.669695    4.996961    0.000000
     0.000000    0.000000   30.000000
   V    Mo   W    S 
   3   3   3  18
Direct configuration=     2
   0.66708066  0.66781384 -0.00003199
   0.66782574  0.33375724  0.00010271
  -0.00148274 -0.00150717 -0.00012374
   0.00098639  0.66666793 -0.00005564
   0.33328901  0.66799100  0.00003019
   0.66530478 -0.00154734  0.00002803
   0.99969202  0.33460471 -0.00016660
   0.33338132 -0.00302025  0.00021097
   0.33378702  0.33511944  0.00003518
   0.10914665  0.21829262  0.95186664
   0.21849551  0.10927888  0.04800285
   0.11056900  0.55439393  0.95073811
   0.22181482  0.44367358  0.04925306
   0.10942274  0.89176052  0.95199407
   0.22270048  0.77879452  0.04932577
   0.44802745  0.22393773  0.95200350
   0.55667457  0.11514535  0.04809045
   0.44830313  0.55666941  0.95193777
   0.55894221  0.44573386  0.04691237
   0.44396204  0.88917526  0.95067031
   0.55784797  0.77528706  0.04799558
   0.77636485  0.22501872  0.95202345
   0.89163920  0.10953740  0.04792015
   0.77330051  0.55349379  0.95315904
   0.88457521  0.44165991  0.04812323
   0.77994493  0.88665259  0.95300515
   0.88661896  0.77982994  0.04694929
unknown system                          
           1
     8.488800    4.899829    0.000000
    -8.488241    4.898863    0.000000
     0.000000    0.000000   30.000000
   V    Mo   W    S 
   3   3   3  18
Direct configuration=     3
   0.66714545  0.66812560 -0.00003460
   0.66820582  0.33384826  0.00006178
  -0.00186225 -0.00182712 -0.00009254
   0.00179303  0.66665874 -0.00010264
   0.33306340  0.66854629  0.00003662
   0.66453637 -0.00205956  0.00007730
   0.99990788  0.33517137 -0.00018708
   0.33342613 -0.00421278  0.00022677
   0.33365750  0.33563420  0.00002742
   0.10917433  0.21844019  0.95192507
   0.21866360  0.10933543  0.04786169
   0.11046564  0.55415807  0.95063583
   0.22172219  0.44347449  0.04925634
   0.10963774  0.89192579  0.95199936
   0.22284488  0.77902314  0.04948789
   0.44786347  0.22388047  0.95216928
   0.55649929  0.11513456  0.04809709
   0.44829422  0.55651747  0.95195120
   0.55878166  0.44569171  0.04685456
   0.44381841  0.88929054  0.95054389
   0.55792262  0.77522412  0.04804298
   0.77654690  0.22516797  0.95204046
   0.89178882  0.10973805  0.04783549
   0.77323665  0.55344744  0.95324288
   0.88456290  0.44146702  0.04815556
   0.77995619  0.88658620  0.95299496
   0.88656161  0.77982679  0.04689235
unknown system                          
           1
     8.283332    4.775612    0.000000
    -8.282678    4.774484    0.000000
     0.000000    0.000000   30.000000
   V    Mo   W    S 
   3   3   3  18
Direct configuration=     4
   0.66705284  0.66901570 -0.00003035
   0.66959338  0.33392147 -0.00012460
  -0.00277335 -0.00238508  0.00007715
   0.00553796  0.66662032 -0.00022409
   0.33166600  0.67056658  0.00004277
   0.66136895 -0.00374550  0.00023519
   1.00130813  0.33742041 -0.00017127
   0.33356883 -0.00877143  0.00018605
   0.33252200  0.33721728 -0.00002187
   0.10844940  0.21748085  0.95065148
   0.21795228  0.10878547  0.04872669
   0.11058593  0.55411545  0.94859450
   0.22165836  0.44357818  0.05090432
   0.10941830  0.89258172  0.95058461
   0.22285389  0.77893273  0.05180078
   0.44847895  0.22413699  0.95140788
   0.55694210  0.11623056  0.04960301
   0.44942763  0.55731757  0.95054076
   0.55982613  0.44640603  0.04798280
   0.44371026  0.88929913  0.94840734
   0.55848632  0.77448142  0.04965765
   0.77603214  0.22554674  0.95067639
   0.89230233  0.10945426  0.04889382
   0.77238291  0.55303711  0.95227915
   0.88349342  0.44091406  0.04973950
   0.78032335  0.88598789  0.95163506
   0.88604601  0.78006855  0.04794518
unknown system                          
           1
     8.301897    4.781896    0.000000
    -8.299140    4.777119    0.000000
     0.000000    0.000000   30.000000
   V    Mo   W    S 
   3   3   3  18
Direct configuration=     5
   0.66658832  0.67021706 -0.00000321
   0.67262726  0.33414462 -0.00046332
  -0.00413017 -0.00273574  0.00041537
   0.01292815  0.66632874 -0.00025972
   0.32834490  0.67402549  0.00001915
   0.65497266 -0.00708338  0.00041216
   1.00478813  0.34224485 -0.00004217
   0.33383390 -0.01777733  0.00005780
   0.32993732  0.34076726 -0.00016529
   0.10722289  0.21638408  0.94885326
   0.21773309  0.10800485  0.04955198
   0.11132754  0.55451323  0.94556786
   0.22177049  0.44486053  0.05319454
   0.10947220  0.89266009  0.94876788
   0.22268409  0.77836263  0.05526997
   0.44848344  0.22359321  0.95087856
   0.55694585  0.11691103  0.05169914
   0.45045925  0.55897253  0.94871729
   0.56095549  0.44746735  0.04943412
   0.44375950  0.88868177  0.94529601
   0.55842303  0.77364021  0.05184297
   0.77555551  0.22535909  0.94904199
   0.89192698  0.10922210  0.05005065
   0.77273704  0.55335998  0.95102739
   0.88288611  0.44107949  0.05184511
   0.78011829  0.88538715  0.94969264
   0.88586319  0.77962357  0.04929779
unknown system                          
           1
     8.298141    4.779793    0.000000
    -8.294586    4.773632    0.000000
     0.000000    0.000000   30.000000
   V    Mo   W    S 
   3   3   3  18
Direct configuration=     6
   0.66643745  0.67038539  0.00003320
   0.67408157  0.33438318 -0.00048691
  -0.00455340 -0.00263582  0.00042675
   0.01336279  0.66576219 -0.00018853
   0.32808774  0.67339503 -0.00002099
   0.65358892 -0.00812383  0.00037359
   1.00634908  0.34390135 -0.00011300
   0.33389644 -0.01873824  0.00012319
   0.32887711  0.34235426 -0.00024277
   0.10689110  0.21659543  0.94882422
   0.21864087  0.10795605  0.04916065
   0.11169817  0.55468253  0.94531734
   0.22190899  0.44570612  0.05344739
   0.10993976  0.89216468  0.94887489
   0.22263863  0.77812514  0.05557543
   0.44746502  0.22266709  0.95139855
   0.55631077  0.11632869  0.05171150
   0.45004229  0.55942286  0.94869060
   0.56067794  0.44742198  0.04926763
   0.44371749  0.88810191  0.94498995
   0.55763370  0.77364405  0.05184780
   0.77595843  0.22498292  0.94921769
   0.89106350  0.10953875  0.04981718
   0.77399865  0.55405557  0.95115130
   0.88347561  0.44149392  0.05193258
   0.77974606  0.88555588  0.94972636
   0.88627976  0.77908737  0.04914431
unknown system                          
           1
     8.297782    4.779468    0.000000
    -8.293192    4.771510    0.000000
     0.000000    0.000000   30.000000
   V    Mo   W    S 
   3   3   3  18
Direct configuration=     7
   0.66638221  0.67056392  0.00006974
   0.67515978  0.33460107 -0.00051881
  -0.00484626 -0.00268272  0.00046804
   0.01392018  0.66540187 -0.00016709
   0.32779852  0.67326173 -0.00002313
   0.65234104 -0.00897234  0.00036971
   1.00746002  0.34514280 -0.00012195
   0.33400885 -0.01993767  0.00011484
   0.32810200  0.34345152 -0.00027526
   0.10671416  0.21666000  0.94873454
   0.21897631  0.10799062  0.04897925
   0.11184431  0.55478071  0.94508820
   0.22191640  0.44602093  0.05368378
   0.11008047  0.89199600  0.94887733
   0.22264089  0.77797610  0.05579538
   0.44706824  0.22241816  0.95167748
   0.55613399  0.11617061  0.05178302
   0.44999820  0.55965785  0.94856714
   0.56055838  0.44740578  0.04920326
   0.44361707  0.88785862  0.94477849
   0.55736468  0.77358928  0.05193498
   0.77613981  0.22483588  0.94925093
   0.89073086  0.10969369  0.04970722
   0.77442429  0.55429107  0.95117851
   0.88365364  0.44156700  0.05206806
   0.77961156  0.88557778  0.94967418
   0.88641484  0.77889420  0.04910206
unknown system                          
           1
     8.299397    4.779666    0.000000
    -8.294343    4.770902    0.000000
     0.000000    0.000000   30.000000
   V    Mo   W    S 
   3   3   3  18
Direct configuration=     8
   0.66633444  0.67080801  0.00011621
   0.67662946  0.33492058 -0.00055601
  -0.00523141 -0.00278179  0.00052070
   0.01437389  0.66490191 -0.00013936
   0.32758506  0.67296837 -0.00002893
   0.65080173 -0.01008190  0.00036491
   1.00888315  0.34669583 -0.00013745
   0.33416732 -0.02126844  0.00011359
   0.32709194  0.34486133 -0.00032550
   0.10652856  0.21679609  0.94867202
   0.21942606  0.10808804  0.04869528
   0.11200894  0.55489547  0.94487093
   0.22189606  0.44638007  0.05394978
   0.11025470  0.89178824  0.94894022
   0.22264107  0.77778978  0.05597999
   0.44654651  0.22215005  0.95209240
   0.55590659  0.11594033  0.05180739
   0.44994365  0.55990317  0.94845004
   0.56034032  0.44733717  0.04906017
   0.44347885  0.88754139  0.94458429
   0.55703951  0.77354290  0.05199061
   0.77641372  0.22463060  0.94935277
   0.89029662  0.10991662  0.04950382
   0.77493660  0.55457285  0.95125729
   0.88389783  0.44163737  0.05219569
   0.77944218  0.88561363  0.94966771
   0.88658111  0.77866678  0.04900131
unknown system                          
           1
     8.298441    4.779664    0.000000
    -8.293633    4.771329    0.000000
     0.000000    0.000000   30.000000
   V    Mo   W    S 
   3   3   3  18
Direct configuration=     9
   0.66631830  0.67095945  0.00013314
   0.67738145  0.33508258 -0.00057814
  -0.00543778 -0.00286196  0.00055055
   0.01452682  0.66466203 -0.00012791
   0.32756011  0.67283559 -0.00003789
   0.65006996 -0.01063556  0.00036851
   1.00954668  0.34740840 -0.00014622
   0.33424831 -0.02183942  0.00012300
   0.32659583  0.34552551 -0.00036120
   0.10644453  0.21685537  0.94862805
   0.21961939  0.10813808  0.04857131
   0.11208606  0.55494694  0.94474366
   0.22186965  0.44654259  0.05410858
   0.11032257  0.89171136  0.94894976
   0.22262497  0.77769638  0.05609507
   0.44632195  0.22205400  0.95228169
   0.55580782  0.11584094  0.05183382
   0.44995619  0.56001498  0.94837510
   0.56024188  0.44730836  0.04900618
   0.44342916  0.88737817  0.94445718
   0.55691887  0.77351932  0.05204232
   0.77653986  0.22451896  0.94938470
   0.89009035  0.11001321  0.04941442
   0.77513499  0.55468614  0.95127881
   0.88399132  0.44166154  0.05228353
   0.77936824  0.88561601  0.94964963
   0.88663698  0.77857546  0.04897221
unknown system                          
           1
     8.287887    4.776747    0.000000
    -8.282729    4.767801    0.000000
     0.000000    0.000000   30.000000
   V    Mo   W    S 
   3   3   3  18
Direct configuration=    10
   0.66633369  0.67081931  0.00011930
   0.67670985  0.33492440 -0.00056512
  -0.00526785 -0.00274166  0.00052660
   0.01448664  0.66485992 -0.00013328
   0.32750718  0.67290517 -0.00003407
   0.65063262 -0.01018885  0.00036853
   1.00909248  0.34685735 -0.00014475
   0.33419876 -0.02143470  0.00011826
   0.32696465  0.34506926 -0.00033643
   0.10649827  0.21678236  0.94864859
   0.21947603  0.10808037  0.04868248
   0.11203032  0.55489893  0.94481567
   0.22190660  0.44643643  0.05400283
   0.11026628  0.89174986  0.94892648
   0.22264443  0.77778201  0.05604036
   0.44647304  0.22207194  0.95211149
   0.55587334  0.11591864  0.05183175
   0.44993091  0.55994068  0.94843044
   0.56034761  0.44735881  0.04907053
   0.44348013  0.88749974  0.94453151
   0.55699998  0.77354266  0.05200587
   0.77642560  0.22461474  0.94934836
   0.89024574  0.10992821  0.04950240
   0.77501460  0.55463304  0.95125471
   0.88392236  0.44166091  0.05222545
   0.77942105  0.88561222  0.94965506
   0.88660012  0.77863269  0.04899691
unknown system                          
           1
     8.271431    4.772788    0.000000
    -8.267902    4.766674    0.000000
     0.000000    0.000000   30.000000
   V    Mo   W    S 
   3   3   3  18
Direct configuration=    11
   0.66635423  0.67010641  0.00010072
   0.67448563  0.33448653 -0.00054871
  -0.00490386 -0.00192201  0.00047105
   0.01509683  0.66521083 -0.00011262
   0.32649054  0.67235510 -0.00002993
   0.65169648 -0.00929774  0.00034917
   1.00901145  0.34605117 -0.00014753
   0.33415783 -0.02087666  0.00011380
   0.32774182  0.34470351 -0.00025589
   0.10657591  0.21639227  0.94863407
   0.21936165  0.10798037  0.04893649
   0.11190764  0.55473651  0.94486899
   0.22207435  0.44635812  0.05383485
   0.11015800  0.89169613  0.94886841
   0.22280257  0.77806050  0.05601217
   0.44646809  0.22179836  0.95166675
   0.55598306  0.11620179  0.05189438
   0.44982335  0.55990960  0.94857534
   0.56065814  0.44754586  0.04928865
   0.44356362  0.88766757  0.94464465
   0.55707180  0.77351849  0.05187063
   0.77615445  0.22499991  0.94927014
   0.89064704  0.10980399  0.04979208
   0.77489948  0.55478723  0.95121459
   0.88378406  0.44165152  0.05202720
   0.77958443  0.88562653  0.94966822
   0.88656586  0.77866257  0.04899222
unknown system                          
           1
     8.283532    4.771513    0.000000
    -8.279406    4.764371    0.000000
     0.000000    0.000000   30.000000
   V    Mo   W    S 
   3   3   3  18
Direct configuration=    12
   0.66682817  0.66796954  0.00000800
   0.66548598  0.33219116 -0.00051560
  -0.00347586  0.00074026  0.00028160
   0.01595728  0.66732520 -0.00011212
   0.32445851  0.67221274 -0.00003482
   0.65744537 -0.00442675  0.00032932
   1.00567460  0.34046994 -0.00017112
   0.33419816 -0.01695930  0.00006058
   0.33169209  0.34063153  0.00001993
   0.10721637  0.21539474  0.94866039
   0.21835985  0.10753948  0.05003159
   0.11123606  0.55397197  0.94527073
   0.22260282  0.44566309  0.05305102
   0.10970674  0.89175145  0.94865811
   0.22319322  0.77899984  0.05575714
   0.44714751  0.22138194  0.94978640
   0.55656856  0.11711989  0.05202673
   0.44934948  0.55941484  0.94906869
   0.56171398  0.44817403  0.05017931
   0.44403744  0.88850050  0.94529027
   0.55758260  0.77366469  0.05142081
   0.77500673  0.22632361  0.94896621
   0.89219278  0.10906762  0.05089024
   0.77418099  0.55472714  0.95098692
   0.88317592  0.44157746  0.05128310
   0.78022107  0.88569682  0.94968384
   0.88645803  0.77909103  0.04912264
unknown system                          
           1
     8.287234    4.774689    0.000000
    -8.282219    4.766009    0.000000
     0.000000    0.000000   30.000000
   V    Mo   W    S 
   3   3   3  18
Direct configuration=    13
   0.66695090  0.66866340  0.00004571
   0.66545163  0.33171280 -0.00052629
  -0.00499546  0.00051341  0.00045197
   0.01683541  0.66740977 -0.00013733
   0.32446295  0.67284105 -0.00003471
   0.65691415 -0.00490733  0.00035283
   1.00666793  0.34147442 -0.00006825
   0.33460524 -0.01802414  0.00013222
   0.33143929  0.34089797 -0.00003875
   0.10732852  0.21600803  0.94851628
   0.21884024  0.10776583  0.04953516
   0.11126695  0.55382740  0.94502312
   0.22252042  0.44600227  0.05326110
   0.11017608  0.89174145  0.94882439
   0.22322094  0.77876781  0.05599853
   0.44650720  0.22146928  0.95030195
   0.55640435  0.11675049  0.05204423
   0.44919430  0.55953976  0.94896327
   0.56114782  0.44789117  0.04999519
   0.44408427  0.88790758  0.94508861
   0.55713594  0.77370593  0.05142989
   0.77538592  0.22591672  0.94910876
   0.89150942  0.10935151  0.05058507
   0.77489983  0.55468979  0.95115232
   0.88341852  0.44146302  0.05129832
   0.78004249  0.88584594  0.94969787
   0.88679920  0.77898914  0.04899845
unknown system                          
           1
     8.298488    4.779376    0.000000
    -8.290086    4.764818    0.000000
     0.000000    0.000000   30.000000
   V    Mo   W    S 
   3   3   3  18
Direct configuration=    14
   0.66755454  0.66823128 -0.00000185
   0.65973229  0.32947828 -0.00053212
  -0.00656877  0.00252094  0.00035567
   0.01904751  0.66837935 -0.00017862
   0.32241758  0.67276912 -0.00009483
   0.65900093 -0.00315171  0.00025422
   1.00703943  0.33997978 -0.00014735
   0.33569317 -0.01738389  0.00015078
   0.33298259  0.33992560  0.00006867
   0.10758164  0.21589128  0.94842039
   0.21881584  0.10753109  0.04952743
   0.11095127  0.55321782  0.94494740
   0.22296167  0.44612491  0.05313916
   0.11050205  0.89181925  0.94900961
   0.22354370  0.77905769  0.05625269
   0.44581915  0.22081309  0.94971714
   0.55660454  0.11686248  0.05227725
   0.44880426  0.55958940  0.94911992
   0.56125791  0.44805517  0.05037199
   0.44439826  0.88771793  0.94516988
   0.55679888  0.77369709  0.05122174
   0.77518735  0.22635460  0.94919431
   0.89162897  0.10937206  0.05105423
   0.77546905  0.55480059  0.95130686
   0.88339249  0.44135712  0.05084433
   0.78033682  0.88612236  0.94965571
   0.88726134  0.77908178  0.04889528
unknown system                          
           1
     8.290170    4.775080    0.000000
    -8.283963    4.764331    0.000000
     0.000000    0.000000   30.000000
   V    Mo   W    S 
   3   3   3  18
Direct configuration=    15
   0.66783666  0.66885321  0.00004799
   0.65971119  0.32895698 -0.00052181
  -0.00857647  0.00266789  0.00040499
   0.02008153  0.66786536 -0.00011741
   0.32189722  0.67244103 -0.00009421
   0.65753064 -0.00450633  0.00026856
   1.00929989  0.34190484 -0.00011972
   0.33672647 -0.01871349  0.00024531
   0.33223191  0.34164047  0.00001725
   0.10748573  0.21618712  0.94831375
   0.21911687  0.10750183  0.04896718
   0.11110133  0.55317022  0.94466614
   0.22302710  0.44654300  0.05340957
   0.11091436  0.89193237  0.94927426
   0.22364143  0.77891857  0.05645779
   0.44505904  0.22046820  0.95013831
   0.55656854  0.11657573  0.05234797
   0.44884915  0.55981682  0.94904703
   0.56096295  0.44791575  0.05018511
   0.44435507  0.88717840  0.94491054
   0.55643442  0.77359392  0.05120763
   0.77554814  0.22619148  0.94944588
   0.89108732  0.10984532  0.05088352
   0.77599537  0.55479450  0.95158839
   0.88360927  0.44131851  0.05078381
   0.78018835  0.88615918  0.94955509
   0.88753101  0.77899358  0.04868695
unknown system                          
           1
     8.287265    4.773037    0.000000
    -8.283159    4.765938    0.000000
     0.000000    0.000000   30.000000
   V    Mo   W    S 
   3   3   3  18
Direct configuration=    16
   0.66737815  0.66848383  0.00001781
   0.66080295  0.32972656 -0.00046865
  -0.00676873  0.00221875  0.00040874
   0.01929083  0.66833580 -0.00012771
   0.32250165  0.67305163 -0.00005584
   0.65869549 -0.00333229  0.00030579
   1.00720961  0.34053897 -0.00006062
   0.33548841 -0.01818644  0.00018823
   0.33255482  0.34007179  0.00003442
   0.10753532  0.21604808  0.94838639
   0.21896844  0.10761598  0.04943520
   0.11101742  0.55324178  0.94485936
   0.22288493  0.44619061  0.05314519
   0.11056866  0.89182229  0.94897169
   0.22348866  0.77896246  0.05630429
   0.44568729  0.22087414  0.94992916
   0.55652848  0.11674245  0.05223321
   0.44874627  0.55960101  0.94911798
   0.56109587  0.44792243  0.05024891
   0.44440205  0.88762504  0.94506936
   0.55670012  0.77376067  0.05122088
   0.77529830  0.22618058  0.94916494
   0.89140237  0.10941658  0.05090755
   0.77568232  0.55477498  0.95134345
   0.88343421  0.44136239  0.05087810
   0.78029199  0.88616687  0.94967454
   0.88732860  0.77899754  0.04886753
unknown system                          
           1
     8.283647    4.770856    0.000000
    -8.278833    4.762526    0.000000
     0.000000    0.000000   30.000000
   V    Mo   W    S 
   3   3   3  18
Direct configuration=    17
   0.66679607  0.66786213 -0.00000548
   0.66172910  0.33045171 -0.00045761
  -0.00490674  0.00189414  0.00040702
   0.01880552  0.66890841 -0.00018609
   0.32282653  0.67367440 -0.00007721
   0.66019219 -0.00171368  0.00030967
   1.00480994  0.33902869 -0.00006021
   0.33414327 -0.01767276  0.00007394
   0.33311058  0.33836912  0.00002406
   0.10753498  0.21586834  0.94845303
   0.21882792  0.10763819  0.04995552
   0.11094415  0.55325781  0.94504942
   0.22279323  0.44589995  0.05286554
   0.11028634  0.89163641  0.94865129
   0.22335127  0.77902340  0.05628609
   0.44629509  0.22110156  0.94971104
   0.55645240  0.11691620  0.05214086
   0.44856466  0.55945539  0.94926422
   0.56128795  0.44796287  0.05032878
   0.44451616  0.88807357  0.94525020
   0.55691445  0.77390960  0.05117320
   0.77500308  0.22631201  0.94885593
   0.89174703  0.10901993  0.05103699
   0.77548210  0.55482044  0.95118339
   0.88320818  0.44145009  0.05096789
   0.78040038  0.88617545  0.94979328
   0.88709860  0.77889112  0.04900515
unknown system                          
           1
     8.293629    4.776262    0.000000
    -8.287291    4.765287    0.000000
     0.000000    0.000000   30.000000
   V    Mo   W    S 
   3   3   3  18
Direct configuration=    18
   0.66660153  0.66790552  0.00002778
   0.66255213  0.33047761 -0.00044363
  -0.00492740  0.00210644  0.00043768
   0.01966066  0.66902311 -0.00015489
   0.32246668  0.67402123 -0.00003844
   0.66057035 -0.00114200  0.00031301
   1.00427519  0.33900015 -0.00004943
   0.33359897 -0.01847273  0.00013365
   0.33278627  0.33806821  0.00002627
   0.10735560  0.21586381  0.94851798
   0.21887454  0.10750710  0.04985337
   0.11101413  0.55322933  0.94498011
   0.22277953  0.44595697  0.05273411
   0.11037425  0.89156053  0.94864258
   0.22336726  0.77897695  0.05638288
   0.44615452  0.22086589  0.94987002
   0.55626295  0.11679843  0.05208028
   0.44832328  0.55952648  0.94934735
   0.56112829  0.44774855  0.05023594
   0.44463236  0.88806986  0.94521791
   0.55672133  0.77397906  0.05105743
   0.77505490  0.22641247  0.94878486
   0.89173887  0.10911670  0.05101079
   0.77586570  0.55494906  0.95132402
   0.88326503  0.44157391  0.05097635
   0.78048857  0.88631619  0.94985128
   0.88722896  0.77877561  0.04888066
unknown system                          
           1
     8.300942    4.779786    0.000000
    -8.293557    4.766994    0.000000
     0.000000    0.000000   30.000000
   V    Mo   W    S 
   3   3   3  18
Direct configuration=    19
   0.66699381  0.66828797  0.00004149
   0.66186222  0.32993552 -0.00048737
  -0.00643947  0.00231979  0.00042076
   0.01995921  0.66849256 -0.00016007
   0.32222301  0.67344221 -0.00009013
   0.65930998 -0.00242683  0.00027476
   1.00617284  0.34029048 -0.00010360
   0.33476981 -0.01879964  0.00015333
   0.33246527  0.33959710 -0.00000021
   0.10732374  0.21600545  0.94843753
   0.21899914  0.10745435  0.04947177
   0.11109522  0.55321783  0.94482684
   0.22286715  0.44623739  0.05302296
   0.11062827  0.89167281  0.94889777
   0.22346414  0.77890139  0.05650037
   0.44567819  0.22062896  0.95006634
   0.55633638  0.11667306  0.05219431
   0.44850112  0.55969598  0.94923348
   0.56102686  0.44777007  0.05017787
   0.44453752  0.88769377  0.94507496
   0.55654777  0.77382059  0.05111614
   0.77527841  0.22632977  0.94902740
   0.89142863  0.10945739  0.05096485
   0.77603494  0.55493210  0.95147972
   0.88341480  0.44151271  0.05094692
   0.78036677  0.88627380  0.94973466
   0.88736871  0.77879784  0.04877707
unknown system                          
           1
     8.299611    4.779101    0.000000
    -8.292376    4.766571    0.000000
     0.000000    0.000000   30.000000
   V    Mo   W    S 
   3   3   3  18
Direct configuration=    20
   0.66708249  0.66852609  0.00007486
   0.66195850  0.32959794 -0.00050542
  -0.00748811  0.00261410  0.00042222
   0.02051621  0.66811540 -0.00014474
   0.32192476  0.67318569 -0.00011882
   0.65872178 -0.00290804  0.00025065
   1.00703427  0.34110102 -0.00012947
   0.33532698 -0.01942754  0.00017896
   0.33212107  0.34058591 -0.00001936
   0.10719363  0.21609157  0.94839811
   0.21908614  0.10733909  0.04918428
   0.11120690  0.55320013  0.94467367
   0.22288177  0.44642780  0.05315793
   0.11083222  0.89167753  0.94906311
   0.22353680  0.77880539  0.05664919
   0.44530149  0.22032926  0.95028904
   0.55629074  0.11652875  0.05224997
   0.44851661  0.55985117  0.94918801
   0.56088365  0.44768053  0.05008404
   0.44453571  0.88746033  0.94496765
   0.55634909  0.77375396  0.05109878
   0.77542682  0.22632460  0.94910992
   0.89122110  0.10973819  0.05094414
   0.77636202  0.55502113  0.95165479
   0.88355863  0.44156588  0.05096362
   0.78031593  0.88629977  0.94967513
   0.88751723  0.77872880  0.04863963
unknown system                          
           1
     8.304080    4.780925    0.000000
    -8.295012    4.765213    0.000000
     0.000000    0.000000   30.000000
   V    Mo   W    S 
   3   3   3  18
Direct configuration=    21
   0.66720809  0.66859366  0.00006787
   0.66161165  0.32955598 -0.00050517
  -0.00757256  0.00253568  0.00042451
   0.02041204  0.66812476 -0.00014065
   0.32193242  0.67309915 -0.00010882
   0.65850190 -0.00320730  0.00025791
   1.00741550  0.34123871 -0.00012145
   0.33549673 -0.01930551  0.00018345
   0.33212480  0.34068089 -0.00001118
   0.10725480  0.21610715  0.94838752
   0.21910068  0.10738394  0.04917939
   0.11118652  0.55320826  0.94468368
   0.22291405  0.44644038  0.05318761
   0.11084303  0.89172164  0.94907176
   0.22353613  0.77883341  0.05660758
   0.44528684  0.22037162  0.95024677
   0.55632231  0.11653279  0.05225819
   0.44856977  0.55984669  0.94917510
   0.56090524  0.44773483  0.05010658
   0.44450155  0.88743496  0.94496348
   0.55636779  0.77372105  0.05111734
   0.77544546  0.22628887  0.94916226
   0.89121170  0.10972820  0.05092344
   0.77628378  0.55498642  0.95162585
   0.88356311  0.44152609  0.05093130
   0.78029326  0.88627027  0.94966048
   0.88749788  0.77876185  0.04866511
unknown system                          
           1
     8.297015    4.778231    0.000000
    -8.288741    4.763894    0.000000
     0.000000    0.000000   30.000000
   V    Mo   W    S 
   3   3   3  18
Direct configuration=    22
   0.66719848  0.66886795  0.00013651
   0.66212879  0.32909284 -0.00052922
  -0.00908128  0.00315245  0.00042639
   0.02124710  0.66744499 -0.00009446
   0.32149089  0.67263986 -0.00011894
   0.65777442 -0.00374008  0.00023495
   1.00845692  0.34232734 -0.00015891
   0.33624397 -0.02035205  0.00027312
   0.33152698  0.34229504 -0.00002551
   0.10706482  0.21628573  0.94835421
   0.21924490  0.10725992  0.04869123
   0.11133782  0.55316727  0.94448168
   0.22285874  0.44663814  0.05334984
   0.11112115  0.89167306  0.94936747
   0.22368561  0.77867000  0.05674230
   0.44471389  0.21995384  0.95063978
   0.55625258  0.11627213  0.05231952
   0.44861832  0.56001767  0.94908066
   0.56063268  0.44757945  0.04992728
   0.44452895  0.88711274  0.94481812
   0.55613124  0.77368876  0.05106725
   0.77565155  0.22626496  0.94925607
   0.89088717  0.11016291  0.05088441
   0.77677635  0.55514396  0.95190054
   0.88381844  0.44162358  0.05097971
   0.78018134  0.88630723  0.94958602
   0.88772261  0.77866473  0.04840988
unknown system                          
           1
     8.319400    4.787610    0.000000
    -8.308923    4.769454    0.000000
     0.000000    0.000000   30.000000
   V    Mo   W    S 
   3   3   3  18
Direct configuration=    23
   0.66762275  0.66888421  0.00006977
   0.66087637  0.32924354 -0.00052076
  -0.00833918  0.00258808  0.00043755
   0.02063594  0.66800393 -0.00012847
   0.32166126  0.67280820 -0.00009023
   0.65780161 -0.00396997  0.00026135
   1.00865570  0.34193119 -0.00013227
   0.33609934 -0.01944079  0.00022903
   0.33190793  0.34126496 -0.00000464
   0.10723176  0.21612688  0.94837711
   0.21914054  0.10735813  0.04898739
   0.11120295  0.55321529  0.94462394
   0.22300472  0.44661148  0.05329435
   0.11096536  0.89179525  0.94919030
   0.22359042  0.77886621  0.05660004
   0.44507188  0.22026697  0.95030521
   0.55634311  0.11646503  0.05227463
   0.44862899  0.55992772  0.94915184
   0.56089206  0.44775346  0.05008252
   0.44444199  0.88724098  0.94489129
   0.55625663  0.77364644  0.05112576
   0.77557387  0.22625020  0.94934637
   0.89109873  0.10985900  0.05084236
   0.77634334  0.55494837  0.95170019
   0.88364626  0.44148741  0.05084279
   0.78028242  0.88627145  0.94962357
   0.88757771  0.77881083  0.04861891
unknown system                          
           1
     8.317525    4.786904    0.000000
    -8.306271    4.767400    0.000000
     0.000000    0.000000   30.000000
   V    Mo   W    S 
   3   3   3  18
Direct configuration=    24
   0.66698146  0.66921855  0.00022727
   0.66322187  0.32844310 -0.00060356
  -0.01161647  0.00396387  0.00039308
   0.02191488  0.66596011 -0.00004317
   0.32134234  0.67166345 -0.00020298
   0.65634589 -0.00494787  0.00017275
   1.01004191  0.34407744 -0.00025350
   0.33782637 -0.02153298  0.00038696
   0.33081970  0.34544527 -0.00007941
   0.10691906  0.21669803  0.94824550
   0.21954453  0.10715764  0.04790611
   0.11157138  0.55309477  0.94416988
   0.22267294  0.44693423  0.05375832
   0.11149705  0.89164600  0.94986590
   0.22390919  0.77831427  0.05697610
   0.44384334  0.21946961  0.95127891
   0.55626746  0.11593651  0.05248688
   0.44891867  0.56033992  0.94879919
   0.56024430  0.44745467  0.04968006
   0.44452048  0.88654215  0.94457690