   27   27  100    1
  0.9710400E+02  0.1002848E-08  0.1002848E-08  0.3000000E-08  0.5000000E-15
  1.000000000000000E-004
  CAR 
 unknown system                          
    159     34    120
 
  0.0000000E+00  0.0000000E+00  0.0000000E+00  0.1562500E-01
    1      -17.812745   1.000000
    2      -16.740052   1.000000
    3      -16.651850   1.000000
    4      -16.603823   1.000000
    5      -16.514467   1.000000
    6      -16.462310   1.000000
    7      -16.425454   1.000000
    8      -16.322192   1.000000
    9      -16.169536   1.000000
   10      -16.110852   1.000000
   11      -16.051857   1.000000
   12      -15.925646   1.000000
   13      -15.893763   1.000000
   14      -15.708024   1.000000
   15      -15.516930   1.000000
   16      -15.499503   1.000000
   17      -15.355293   1.000000
   18      -15.322340   1.000000
   19       -9.329137   1.000000
   20       -9.020035   1.000000
   21       -8.956965   1.000000
   22       -8.843156   1.000000
   23       -8.755450   1.000000
   24       -8.696588   1.000000
   25       -8.636768   1.000000
   26       -8.619824   1.000000
   27       -8.475287   1.000000
   28       -8.430666   1.000000
   29       -8.415603   1.000000
   30       -8.291713   1.000000
   31       -8.239571   1.000000
   32       -8.185565   1.000000
   33       -8.168088   1.000000
   34       -7.976510   1.000000
   35       -7.873170   1.000000
   36       -7.810700   1.000000
   37       -7.674929   1.000000
   38       -7.515421   1.000000
   39       -7.459602   1.000000
   40       -7.439420   1.000000
   41       -7.346130   1.000000
   42       -7.199631   1.000000
   43       -7.135440   1.000000
   44       -6.900551   1.000000
   45       -6.845882   1.000000
   46       -6.784068   1.000000
   47       -6.740507   1.000000
   48       -6.697799   1.000000
   49       -6.566948   1.000000
   50       -6.494647   1.000000
   51       -6.457817   1.000000
   52       -6.376535   1.000000
   53       -6.323630   1.000000
   54       -6.274857   1.000000
   55       -6.154136   1.000000
   56       -6.089227   1.000000
   57       -5.995642   1.000000
   58       -5.926751   1.000000
   59       -5.762030   1.000000
   60       -5.591446   1.000000
   61       -5.488901   1.000000
   62       -5.474321   1.000000
   63       -5.200351   1.000000
   64       -5.125645   1.000000
   65       -5.056738   1.000000
   66       -5.027793   1.000000
   67       -4.931157   1.000000
   68       -4.791288   1.000000
   69       -4.756598   1.000000
   70       -4.724000   1.000000
   71       -4.627177   1.000000
   72       -4.584695   1.000000
   73       -4.550189   1.000000
   74       -4.322607   1.000000
   75       -4.168912   1.000000
   76       -4.039746   0.999999
   77       -3.756614   0.997867
   78       -3.632382   0.976111
   79       -3.530351   0.895780
   80       -3.396419   0.622033
   81       -3.269346   0.278362
   82       -2.831662   0.000115
   83       -2.734004   0.000006
   84       -2.608918   0.000000
   85       -2.458642   0.000000
   86       -2.375154   0.000000
   87       -2.286279   0.000000
   88       -2.186718   0.000000
   89       -2.162320   0.000000
   90       -2.064433   0.000000
   91       -1.772074   0.000000
   92       -1.485293   0.000000
   93       -1.401868   0.000000
   94       -1.345162   0.000000
   95       -1.186732   0.000000
   96       -1.119618   0.000000
   97       -1.054030   0.000000
   98       -0.874473   0.000000
   99       -0.762364   0.000000
  100       -0.674302   0.000000
  101       -0.596460   0.000000
  102       -0.505224   0.000000
  103       -0.439536   0.000000
  104       -0.400148   0.000000
  105       -0.283102   0.000000
  106       -0.110353   0.000000
  107       -0.021655   0.000000
  108        0.001410   0.000000
  109        0.139224   0.000000
  110        0.330977   0.000000
  111        0.364950   0.000000
  112        0.473826   0.000000
  113        0.558087   0.000000
  114        0.776255   0.000000
  115        0.844237   0.000000
  116        1.110906   0.000000
  117        1.386051   0.000000
  118        1.643378   0.000000
  119        1.834242   0.000000
  120        2.150162   0.000000
 
  0.1250000E+00  0.2775558E-16  0.0000000E+00  0.3125000E-01
    1      -17.787636   1.000000
    2      -16.796291   1.000000
    3      -16.729475   1.000000
    4      -16.599902   1.000000
    5      -16.528943   1.000000
    6      -16.462725   1.000000
    7      -16.398309   1.000000
    8      -16.294923   1.000000
    9      -16.177837   1.000000
   10      -16.087018   1.000000
   11      -16.001113   1.000000
   12      -15.921914   1.000000
   13      -15.850019   1.000000
   14      -15.716658   1.000000
   15      -15.539052   1.000000
   16      -15.487813   1.000000
   17      -15.357412   1.000000
   18      -15.338212   1.000000
   19       -9.321163   1.000000
   20       -9.164034   1.000000
   21       -9.053443   1.000000
   22       -8.938016   1.000000
   23       -8.787562   1.000000
   24       -8.702641   1.000000
   25       -8.659842   1.000000
   26       -8.566706   1.000000
   27       -8.507260   1.000000
   28       -8.426888   1.000000
   29       -8.353755   1.000000
   30       -8.278181   1.000000
   31       -8.212859   1.000000
   32       -8.048751   1.000000
   33       -8.007573   1.000000
   34       -7.958469   1.000000
   35       -7.840836   1.000000
   36       -7.760016   1.000000
   37       -7.653096   1.000000
   38       -7.515015   1.000000
   39       -7.493652   1.000000
   40       -7.382309   1.000000
   41       -7.353759   1.000000
   42       -7.213619   1.000000
   43       -7.144411   1.000000
   44       -6.945658   1.000000
   45       -6.902026   1.000000
   46       -6.850701   1.000000
   47       -6.751686   1.000000
   48       -6.640273   1.000000
   49       -6.595681   1.000000
   50       -6.491131   1.000000
   51       -6.401645   1.000000
   52       -6.367760   1.000000
   53       -6.304787   1.000000
   54       -6.230278   1.000000
   55       -6.161516   1.000000
   56       -6.091979   1.000000
   57       -6.003052   1.000000
   58       -5.912762   1.000000
   59       -5.725771   1.000000
   60       -5.590351   1.000000
   61       -5.548293   1.000000
   62       -5.450064   1.000000
   63       -5.334482   1.000000
   64       -5.190615   1.000000
   65       -5.081153   1.000000
   66       -5.040682   1.000000
   67       -4.937562   1.000000
   68       -4.866650   1.000000
   69       -4.750348   1.000000
   70       -4.677683   1.000000
   71       -4.625240   1.000000
   72       -4.534525   1.000000
   73       -4.461969   1.000000
   74       -4.305926   1.000000
   75       -4.143606   1.000000
   76       -3.996326   0.999997
   77       -3.812012   0.999422
   78       -3.699379   0.992918
   79       -3.608888   0.965100
   80       -3.427773   0.702820
   81       -3.129464   0.057417
   82       -2.834701   0.000126
   83       -2.719189   0.000004
   84       -2.601675   0.000000
   85       -2.473137   0.000000
   86       -2.352725   0.000000
   87       -2.262586   0.000000
   88       -2.202430   0.000000
   89       -2.120913   0.000000
   90       -2.036100   0.000000
   91       -1.792475   0.000000
   92       -1.491779   0.000000
   93       -1.402164   0.000000
   94       -1.332588   0.000000
   95       -1.203459   0.000000
   96       -1.116246   0.000000
   97       -1.039748   0.000000
   98       -0.878491   0.000000
   99       -0.785744   0.000000
  100       -0.746233   0.000000
  101       -0.650253   0.000000
  102       -0.570731   0.000000
  103       -0.496409   0.000000
  104       -0.340582   0.000000
  105       -0.292614   0.000000
  106       -0.205913   0.000000
  107       -0.085195   0.000000
  108        0.043279   0.000000
  109        0.161301   0.000000
  110        0.224538   0.000000
  111        0.363155   0.000000
  112        0.463374   0.000000
  113        0.710732   0.000000
  114        0.778239   0.000000
  115        0.867571   0.000000
  116        1.140470   0.000000
  117        1.360419   0.000000
  118        1.687952   0.000000
  119        1.872654   0.000000
  120        2.185270   0.000000
 
  0.2500000E+00  0.5551115E-16  0.0000000E+00  0.3125000E-01
    1      -17.713620   1.000000
    2      -16.999477   1.000000
    3      -16.723463   1.000000
    4      -16.660122   1.000000
    5      -16.593724   1.000000
    6      -16.426144   1.000000
    7      -16.355076   1.000000
    8      -16.250082   1.000000
    9      -16.181297   1.000000
   10      -16.041953   1.000000
   11      -15.948075   1.000000
   12      -15.855135   1.000000
   13      -15.781467   1.000000
   14      -15.720386   1.000000
   15      -15.571201   1.000000
   16      -15.489485   1.000000
   17      -15.380396   1.000000
   18      -15.356367   1.000000
   19       -9.492028   1.000000
   20       -9.267437   1.000000
   21       -9.176377   1.000000
   22       -9.025942   1.000000
   23       -8.855219   1.000000
   24       -8.771289   1.000000
   25       -8.663080   1.000000
   26       -8.564081   1.000000
   27       -8.483270   1.000000
   28       -8.375079   1.000000
   29       -8.284896   1.000000
   30       -8.185552   1.000000
   31       -8.083372   1.000000
   32       -8.022975   1.000000
   33       -7.969409   1.000000
   34       -7.846649   1.000000
   35       -7.779438   1.000000
   36       -7.653325   1.000000
   37       -7.560141   1.000000
   38       -7.524933   1.000000
   39       -7.445924   1.000000
   40       -7.349035   1.000000
   41       -7.295043   1.000000
   42       -7.233735   1.000000
   43       -7.138811   1.000000
   44       -7.014504   1.000000
   45       -6.917721   1.000000
   46       -6.853752   1.000000
   47       -6.734425   1.000000
   48       -6.673768   1.000000
   49       -6.584729   1.000000
   50       -6.477263   1.000000
   51       -6.389893   1.000000
   52       -6.312057   1.000000
   53       -6.254588   1.000000
   54       -6.216670   1.000000
   55       -6.117815   1.000000
   56       -6.085284   1.000000
   57       -5.996922   1.000000
   58       -5.895675   1.000000
   59       -5.719708   1.000000
   60       -5.690038   1.000000
   61       -5.613810   1.000000
   62       -5.554998   1.000000
   63       -5.476019   1.000000
   64       -5.318321   1.000000
   65       -5.155665   1.000000
   66       -5.102085   1.000000
   67       -4.954727   1.000000
   68       -4.839839   1.000000
   69       -4.764315   1.000000
   70       -4.622144   1.000000
   71       -4.563122   1.000000
   72       -4.434581   1.000000
   73       -4.352735   1.000000
   74       -4.289082   1.000000
   75       -4.179910   1.000000
   76       -4.038426   0.999999
   77       -3.949646   0.999988
   78       -3.754850   0.997782
   79       -3.572549   0.940176
   80       -3.396226   0.621514
   81       -3.002766   0.006704
   82       -2.842340   0.000155
   83       -2.677471   0.000001
   84       -2.611123   0.000000
   85       -2.467986   0.000000
   86       -2.340275   0.000000
   87       -2.252682   0.000000
   88       -2.164916   0.000000
   89       -2.015658   0.000000
   90       -1.988741   0.000000
   91       -1.824229   0.000000
   92       -1.522349   0.000000
   93       -1.407338   0.000000
   94       -1.312046   0.000000
   95       -1.206075   0.000000
   96       -1.135573   0.000000
   97       -1.021828   0.000000
   98       -0.941018   0.000000
   99       -0.894917   0.000000
  100       -0.791588   0.000000
  101       -0.739840   0.000000
  102       -0.649980   0.000000
  103       -0.578384   0.000000
  104       -0.431894   0.000000
  105       -0.329670   0.000000
  106       -0.271249   0.000000
  107       -0.155565   0.000000
  108       -0.056035   0.000000
  109        0.096935   0.000000
  110        0.208092   0.000000
  111        0.391199   0.000000
  112        0.487622   0.000000
  113        0.739569   0.000000
  114        0.835124   0.000000
  115        1.013059   0.000000
  116        1.217517   0.000000
  117        1.329405   0.000000
  118        1.810720   0.000000
  119        1.982944   0.000000
  120        2.289347   0.000000
 
  0.3750000E+00  0.0000000E+00  0.0000000E+00  0.3125000E-01
    1      -17.596290   1.000000
    2      -17.209867   1.000000
    3      -16.715319   1.000000
    4      -16.701483   1.000000
    5      -16.641404   1.000000
    6      -16.425439   1.000000
    7      -16.318355   1.000000
    8      -16.242604   1.000000
    9      -16.131139   1.000000
   10      -16.032825   1.000000
   11      -15.869262   1.000000
   12      -15.802255   1.000000
   13      -15.782372   1.000000
   14      -15.675468   1.000000
   15      -15.588093   1.000000
   16      -15.515282   1.000000
   17      -15.424937   1.000000
   18      -15.346528   1.000000
   19       -9.702600   1.000000
   20       -9.330664   1.000000
   21       -9.242321   1.000000
   22       -9.012101   1.000000
   23       -8.911753   1.000000
   24       -8.835552   1.000000
   25       -8.648636   1.000000
   26       -8.515011   1.000000
   27       -8.447207   1.000000
   28       -8.299889   1.000000
   29       -8.275351   1.000000
   30       -8.191196   1.000000
   31       -8.055693   1.000000
   32       -8.024888   1.000000
   33       -7.882631   1.000000
   34       -7.860076   1.000000
   35       -7.744578   1.000000
   36       -7.703383   1.000000
   37       -7.573534   1.000000
   38       -7.483309   1.000000
   39       -7.362592   1.000000
   40       -7.303048   1.000000
   41       -7.258077   1.000000
   42       -7.150144   1.000000
   43       -7.041461   1.000000
   44       -6.993695   1.000000
   45       -6.894762   1.000000
   46       -6.752711   1.000000
   47       -6.691047   1.000000
   48       -6.614037   1.000000
   49       -6.531055   1.000000
   50       -6.501403   1.000000
   51       -6.354395   1.000000
   52       -6.311428   1.000000
   53       -6.259179   1.000000
   54       -6.166976   1.000000
   55       -6.138787   1.000000
   56       -6.097154   1.000000
   57       -5.963857   1.000000
   58       -5.911907   1.000000
   59       -5.841986   1.000000
   60       -5.783781   1.000000
   61       -5.722363   1.000000
   62       -5.683822   1.000000
   63       -5.563428   1.000000
   64       -5.349632   1.000000
   65       -5.216697   1.000000
   66       -5.113932   1.000000
   67       -4.982129   1.000000
   68       -4.846828   1.000000
   69       -4.738753   1.000000
   70       -4.683287   1.000000
   71       -4.525356   1.000000
   72       -4.431660   1.000000
   73       -4.358840   1.000000
   74       -4.252536   1.000000
   75       -4.214417   1.000000
   76       -4.055039   1.000000
   77       -3.914486   0.999965
   78       -3.737468   0.996760
   79       -3.562271   0.931039
   80       -3.322718   0.416709
   81       -2.926832   0.001308
   82       -2.849841   0.000190
   83       -2.662766   0.000001
   84       -2.613487   0.000000
   85       -2.454705   0.000000
   86       -2.352356   0.000000
   87       -2.233207   0.000000
   88       -2.105612   0.000000
   89       -1.973954   0.000000
   90       -1.905876   0.000000
   91       -1.811406   0.000000
   92       -1.585181   0.000000
   93       -1.403937   0.000000
   94       -1.287280   0.000000
   95       -1.226751   0.000000
   96       -1.169850   0.000000
   97       -1.064881   0.000000
   98       -1.030310   0.000000
   99       -0.916700   0.000000
  100       -0.830376   0.000000
  101       -0.773147   0.000000
  102       -0.710181   0.000000
  103       -0.674415   0.000000
  104       -0.498018   0.000000
  105       -0.410510   0.000000
  106       -0.351991   0.000000
  107       -0.214294   0.000000
  108       -0.151097   0.000000
  109        0.048145   0.000000
  110        0.210128   0.000000
  111        0.394837   0.000000
  112        0.480258   0.000000
  113        0.779914   0.000000
  114        0.883289   0.000000
  115        1.125907   0.000000
  116        1.255669   0.000000
  117        1.378021   0.000000
  118        1.993752   0.000000
  119        2.155998   0.000000
  120        2.459555   0.000000
 
  0.5000000E+00  0.1110223E-15  0.0000000E+00  0.1562500E-01
    1      -17.486367   1.000000
    2      -17.352865   1.000000
    3      -16.719501   1.000000
    4      -16.707767   1.000000
    5      -16.657982   1.000000
    6      -16.427999   1.000000
    7      -16.310929   1.000000
    8      -16.240117   1.000000
    9      -16.089572   1.000000
   10      -16.046302   1.000000
   11      -15.829476   1.000000
   12      -15.802341   1.000000
   13      -15.747590   1.000000
   14      -15.689852   1.000000
   15      -15.594205   1.000000
   16      -15.513508   1.000000
   17      -15.452467   1.000000
   18      -15.338074   1.000000
   19       -9.779553   1.000000
   20       -9.363684   1.000000
   21       -9.271357   1.000000
   22       -8.992748   1.000000
   23       -8.897616   1.000000
   24       -8.864687   1.000000
   25       -8.638408   1.000000
   26       -8.549833   1.000000
   27       -8.400045   1.000000
   28       -8.323023   1.000000
   29       -8.206006   1.000000
   30       -8.145331   1.000000
   31       -8.106431   1.000000
   32       -8.026902   1.000000
   33       -7.876043   1.000000
   34       -7.860584   1.000000
   35       -7.797151   1.000000
   36       -7.674547   1.000000
   37       -7.603802   1.000000
   38       -7.511926   1.000000
   39       -7.386214   1.000000
   40       -7.296690   1.000000
   41       -7.160990   1.000000
   42       -7.085057   1.000000
   43       -7.013457   1.000000
   44       -6.905431   1.000000
   45       -6.780777   1.000000
   46       -6.698328   1.000000
   47       -6.641981   1.000000
   48       -6.630302   1.000000
   49       -6.544846   1.000000
   50       -6.526450   1.000000
   51       -6.416092   1.000000
   52       -6.389150   1.000000
   53       -6.247907   1.000000
   54       -6.157896   1.000000
   55       -6.114018   1.000000
   56       -6.071034   1.000000
   57       -5.962294   1.000000
   58       -5.896048   1.000000
   59       -5.867715   1.000000
   60       -5.814180   1.000000
   61       -5.742175   1.000000
   62       -5.688625   1.000000
   63       -5.568437   1.000000
   64       -5.394339   1.000000
   65       -5.326690   1.000000
   66       -5.105095   1.000000
   67       -5.065457   1.000000
   68       -4.951052   1.000000
   69       -4.702097   1.000000
   70       -4.578094   1.000000
   71       -4.524803   1.000000
   72       -4.448421   1.000000
   73       -4.384239   1.000000
   74       -4.248319   1.000000
   75       -4.242808   1.000000
   76       -3.987850   0.999996
   77       -3.884168   0.999915
   78       -3.750169   0.997540
   79       -3.562408   0.931168
   80       -3.283085   0.311866
   81       -2.892790   0.000576
   82       -2.860571   0.000252
   83       -2.672874   0.000001
   84       -2.604291   0.000000
   85       -2.449900   0.000000
   86       -2.355336   0.000000
   87       -2.223615   0.000000
   88       -2.088498   0.000000
   89       -1.954321   0.000000
   90       -1.874388   0.000000
   91       -1.784379   0.000000
   92       -1.631046   0.000000
   93       -1.387285   0.000000
   94       -1.286004   0.000000
   95       -1.243502   0.000000
   96       -1.177237   0.000000
   97       -1.130049   0.000000
   98       -1.045252   0.000000
   99       -0.900105   0.000000
  100       -0.825050   0.000000
  101       -0.791216   0.000000
  102       -0.745757   0.000000
  103       -0.713081   0.000000
  104       -0.526538   0.000000
  105       -0.459541   0.000000
  106       -0.373340   0.000000
  107       -0.238190   0.000000
  108       -0.187592   0.000000
  109        0.028812   0.000000
  110        0.211587   0.000000
  111        0.387319   0.000000
  112        0.478299   0.000000
  113        0.801602   0.000000
  114        0.901080   0.000000
  115        1.157791   0.000000
  116        1.263554   0.000000
  117        1.416163   0.000000
  118        2.209793   0.000000
  119        2.245757   0.000000
  120        2.374294   0.000000
 
  0.0000000E+00  0.1250000E+00  0.0000000E+00  0.3125000E-01
    1      -17.788074   1.000000
    2      -16.791490   1.000000
    3      -16.723622   1.000000
    4      -16.639546   1.000000
    5      -16.519272   1.000000
    6      -16.445905   1.000000
    7      -16.369013   1.000000
    8      -16.308389   1.000000
    9      -16.190847   1.000000
   10      -16.073341   1.000000
   11      -16.004594   1.000000
   12      -15.912048   1.000000
   13      -15.869642   1.000000
   14      -15.722083   1.000000
   15      -15.535371   1.000000
   16      -15.497691   1.000000
   17      -15.355659   1.000000
   18      -15.329156   1.000000
   19       -9.331777   1.000000
   20       -9.151751   1.000000
   21       -9.053418   1.000000
   22       -8.928326   1.000000
   23       -8.803764   1.000000
   24       -8.727092   1.000000
   25       -8.667175   1.000000
   26       -8.549007   1.000000
   27       -8.492612   1.000000
   28       -8.418738   1.000000
   29       -8.338350   1.000000
   30       -8.217691   1.000000
   31       -8.192598   1.000000
   32       -8.133656   1.000000
   33       -8.031855   1.000000
   34       -7.958264   1.000000
   35       -7.810914   1.000000
   36       -7.753656   1.000000
   37       -7.635312   1.000000
   38       -7.552044   1.000000
   39       -7.497167   1.000000
   40       -7.470285   1.000000
   41       -7.314903   1.000000
   42       -7.193838   1.000000
   43       -7.129123   1.000000
   44       -6.993001   1.000000
   45       -6.887812   1.000000
   46       -6.813478   1.000000
   47       -6.672245   1.000000
   48       -6.618082   1.000000
   49       -6.568946   1.000000
   50       -6.520305   1.000000
   51       -6.458082   1.000000
   52       -6.371821   1.000000
   53       -6.320355   1.000000
   54       -6.270406   1.000000
   55       -6.155549   1.000000
   56       -6.090885   1.000000
   57       -6.005190   1.000000
   58       -5.892132   1.000000
   59       -5.752726   1.000000
   60       -5.583523   1.000000
   61       -5.564351   1.000000
   62       -5.469699   1.000000
   63       -5.303047   1.000000
   64       -5.264635   1.000000
   65       -5.054795   1.000000
   66       -4.970546   1.000000
   67       -4.904232   1.000000
   68       -4.884537   1.000000
   69       -4.723441   1.000000
   70       -4.677981   1.000000
   71       -4.617188   1.000000
   72       -4.548606   1.000000
   73       -4.496149   1.000000
   74       -4.266112   1.000000
   75       -4.133714   1.000000
   76       -4.083696   1.000000
   77       -3.820662   0.999535
   78       -3.711786   0.994470
   79       -3.574112   0.941478
   80       -3.330865   0.439312
   81       -3.249047   0.232313
   82       -2.802310   0.000050
   83       -2.699371   0.000002
   84       -2.597976   0.000000
   85       -2.456971   0.000000
   86       -2.364646   0.000000
   87       -2.256701   0.000000
   88       -2.170043   0.000000
   89       -2.141872   0.000000
   90       -2.050921   0.000000
   91       -1.771142   0.000000
   92       -1.503667   0.000000
   93       -1.410884   0.000000
   94       -1.333741   0.000000
   95       -1.190746   0.000000
   96       -1.121670   0.000000
   97       -1.055359   0.000000
   98       -0.887701   0.000000
   99       -0.811516   0.000000
  100       -0.758635   0.000000
  101       -0.618386   0.000000
  102       -0.575897   0.000000
  103       -0.495902   0.000000
  104       -0.442476   0.000000
  105       -0.273108   0.000000
  106       -0.117227   0.000000
  107       -0.034467   0.000000
  108        0.005185   0.000000
  109        0.109524   0.000000
  110        0.286396   0.000000
  111        0.360406   0.000000
  112        0.466219   0.000000
  113        0.712111   0.000000
  114        0.787119   0.000000
  115        0.866396   0.000000
  116        1.118058   0.000000
  117        1.351982   0.000000
  118        1.685184   0.000000
  119        1.874517   0.000000
  120        2.184966   0.000000
 
  0.1250000E+00  0.1250000E+00  0.0000000E+00  0.3125000E-01
    1      -17.737938   1.000000
    2      -16.929269   1.000000
    3      -16.759044   1.000000
    4      -16.699490   1.000000
    5      -16.468728   1.000000
    6      -16.408951   1.000000
    7      -16.386787   1.000000
    8      -16.269778   1.000000
    9      -16.215314   1.000000
   10      -16.019110   1.000000
   11      -15.977391   1.000000
   12      -15.881043   1.000000
   13      -15.801295   1.000000
   14      -15.735784   1.000000
   15      -15.554469   1.000000
   16      -15.503433   1.000000
   17      -15.367176   1.000000
   18      -15.341480   1.000000
   19       -9.399769   1.000000
   20       -9.256157   1.000000
   21       -9.215952   1.000000
   22       -9.018325   1.000000
   23       -8.802766   1.000000
   24       -8.745113   1.000000
   25       -8.647961   1.000000
   26       -8.543686   1.000000
   27       -8.460030   1.000000
   28       -8.394423   1.000000
   29       -8.284734   1.000000
   30       -8.238385   1.000000
   31       -8.132980   1.000000
   32       -8.043979   1.000000
   33       -7.924296   1.000000
   34       -7.900800   1.000000
   35       -7.805220   1.000000
   36       -7.686460   1.000000
   37       -7.609689   1.000000
   38       -7.496191   1.000000
   39       -7.448961   1.000000
   40       -7.395431   1.000000
   41       -7.335368   1.000000
   42       -7.212576   1.000000
   43       -7.133147   1.000000
   44       -7.036297   1.000000
   45       -6.922058   1.000000
   46       -6.813316   1.000000
   47       -6.700600   1.000000
   48       -6.681358   1.000000
   49       -6.557540   1.000000
   50       -6.470473   1.000000
   51       -6.409889   1.000000
   52       -6.342355   1.000000
   53       -6.290316   1.000000
   54       -6.216340   1.000000
   55       -6.149636   1.000000
   56       -6.124645   1.000000
   57       -5.968667   1.000000
   58       -5.895190   1.000000
   59       -5.707165   1.000000
   60       -5.683119   1.000000
   61       -5.623045   1.000000
   62       -5.527390   1.000000
   63       -5.439038   1.000000
   64       -5.270717   1.000000
   65       -5.158656   1.000000
   66       -5.039287   1.000000
   67       -4.925553   1.000000
   68       -4.829743   1.000000
   69       -4.772623   1.000000
   70       -4.616720   1.000000
   71       -4.553214   1.000000
   72       -4.472165   1.000000
   73       -4.396021   1.000000
   74       -4.271538   1.000000
   75       -4.174206   1.000000
   76       -4.101778   1.000000
   77       -3.882431   0.999911
   78       -3.786496   0.998926
   79       -3.594368   0.956416
   80       -3.348128   0.487777
   81       -3.124192   0.053252
   82       -2.790350   0.000035
   83       -2.666534   0.000001
   84       -2.574424   0.000000
   85       -2.479954   0.000000
   86       -2.340688   0.000000
   87       -2.210834   0.000000
   88       -2.180956   0.000000
   89       -2.071522   0.000000
   90       -1.997398   0.000000
   91       -1.778082   0.000000
   92       -1.530339   0.000000
   93       -1.431898   0.000000
   94       -1.305751   0.000000
   95       -1.221804   0.000000
   96       -1.141829   0.000000
   97       -1.042107   0.000000
   98       -0.927761   0.000000
   99       -0.894132   0.000000
  100       -0.787590   0.000000
  101       -0.683488   0.000000
  102       -0.638313   0.000000
  103       -0.532673   0.000000
  104       -0.407756   0.000000
  105       -0.325757   0.000000
  106       -0.254816   0.000000
  107       -0.116712   0.000000
  108       -0.036837   0.000000
  109        0.123434   0.000000
  110        0.246356   0.000000
  111        0.396169   0.000000
  112        0.476458   0.000000
  113        0.739602   0.000000
  114        0.845622   0.000000
  115        0.970227   0.000000
  116        1.149436   0.000000
  117        1.297369   0.000000
  118        1.767104   0.000000
  119        1.950456   0.000000
  120        2.253962   0.000000
 
  0.2500000E+00  0.1250000E+00  0.0000000E+00  0.3125000E-01
    1      -17.641396   1.000000
    2      -17.110605   1.000000
    3      -16.855623   1.000000
    4      -16.689086   1.000000
    5      -16.460205   1.000000
    6      -16.424866   1.000000
    7      -16.337329   1.000000
    8      -16.252547   1.000000
    9      -16.194210   1.000000
   10      -15.993810   1.000000
   11      -15.918082   1.000000
   12      -15.831949   1.000000
   13      -15.793150   1.000000
   14      -15.681322   1.000000
   15      -15.585464   1.000000
   16      -15.522325   1.000000
   17      -15.393857   1.000000
   18      -15.342184   1.000000
   19       -9.609814   1.000000
   20       -9.368172   1.000000
   21       -9.282949   1.000000
   22       -9.065651   1.000000
   23       -8.799551   1.000000
   24       -8.739377   1.000000
   25       -8.591060   1.000000
   26       -8.518075   1.000000
   27       -8.447163   1.000000
   28       -8.387429   1.000000
   29       -8.238853   1.000000
   30       -8.192142   1.000000
   31       -8.116439   1.000000
   32       -8.029765   1.000000
   33       -7.980640   1.000000
   34       -7.876636   1.000000
   35       -7.787768   1.000000
   36       -7.601742   1.000000
   37       -7.539250   1.000000
   38       -7.490668   1.000000
   39       -7.398249   1.000000
   40       -7.326971   1.000000
   41       -7.242087   1.000000
   42       -7.158017   1.000000
   43       -7.114142   1.000000
   44       -7.034940   1.000000
   45       -6.856482   1.000000
   46       -6.817185   1.000000
   47       -6.718176   1.000000