       N       E                     dE             d eps       ncg     rms          rms(c)
DAV:   1     0.112388903227E+04    0.11239E+04   -0.35870E+04  8160   0.577E+02
DAV:   2    -0.473397541548E+01   -0.11286E+04   -0.10904E+04 11040   0.173E+02
DAV:   3    -0.199868614517E+03   -0.19513E+03   -0.18721E+03 10960   0.817E+01
DAV:   4    -0.209009489195E+03   -0.91409E+01   -0.88230E+01 12200   0.257E+01
DAV:   5    -0.209328228615E+03   -0.31874E+00   -0.31780E+00 11600   0.351E+00    0.275E+01
DAV:   6    -0.237159660481E+03   -0.27831E+02   -0.10981E+02 12600   0.604E+01    0.596E+01
DAV:   7    -0.196424582780E+03    0.40735E+02   -0.17753E+02 13360   0.152E+02    0.199E+01
DAV:   8    -0.189414941713E+03    0.70096E+01   -0.17538E+01 12080   0.127E+01    0.126E+01
DAV:   9    -0.188166900110E+03    0.12480E+01   -0.31268E+00 12920   0.633E+00    0.914E+00
DAV:  10    -0.187005889091E+03    0.11610E+01   -0.20691E+00 13400   0.742E+00    0.276E+00
DAV:  11    -0.186968938320E+03    0.36951E-01   -0.59654E-01 13280   0.250E+00    0.274E+00
DAV:  12    -0.187097988978E+03   -0.12905E+00   -0.87827E-01 12240   0.492E+00    0.482E+00
DAV:  13    -0.186883052575E+03    0.21494E+00   -0.49742E-01 12600   0.397E+00    0.209E+00
DAV:  14    -0.186858243285E+03    0.24809E-01   -0.12397E-01 13280   0.204E+00    0.164E+00
DAV:  15    -0.186839868665E+03    0.18375E-01   -0.66706E-02 12000   0.158E+00    0.875E-01
DAV:  16    -0.186832343738E+03    0.75249E-02   -0.11756E-02 12080   0.469E-01    0.451E-01
DAV:  17    -0.186830256972E+03    0.20868E-02   -0.79023E-03 12640   0.442E-01    0.224E-01
DAV:  18    -0.186829998938E+03    0.25803E-03   -0.22208E-03 11720   0.146E-01    0.167E-01
DAV:  19    -0.186829650037E+03    0.34890E-03   -0.96530E-04 11040   0.115E-01    0.489E-02
DAV:  20    -0.186830377658E+03   -0.72762E-03   -0.66731E-04  9320   0.580E-02    0.504E-02
DAV:  21    -0.186830972632E+03   -0.59497E-03   -0.27251E-04  8120   0.457E-02    0.457E-02
DAV:  22    -0.186832134714E+03   -0.11621E-02   -0.22864E-04  7520   0.644E-02    0.413E-02
DAV:  23    -0.186833369886E+03   -0.12352E-02   -0.15124E-04  7560   0.460E-02    0.118E-02
DAV:  24    -0.186833955677E+03   -0.58579E-03   -0.30896E-05  6520   0.144E-02    0.925E-03
DAV:  25    -0.186834317444E+03   -0.36177E-03   -0.16585E-05  5840   0.137E-02    0.555E-03
DAV:  26    -0.186834544379E+03   -0.22693E-03   -0.87679E-06  6720   0.744E-03    0.173E-03
DAV:  27    -0.186834647814E+03   -0.10343E-03   -0.39051E-06  7200   0.477E-03    0.171E-03
DAV:  28    -0.186834694315E+03   -0.46501E-04   -0.21365E-06  7360   0.379E-03
   1 F= -.18683469E+03 E0= -.18666215E+03  d E =-.186835E+03
       N       E                     dE             d eps       ncg     rms          rms(c)
DAV:   1    -0.187459288088E+03   -0.62464E+00   -0.27084E+02  8160   0.349E+01    0.462E+00
DAV:   2    -0.189360359189E+03   -0.19011E+01   -0.20169E+01 12280   0.153E+01    0.877E+00
DAV:   3    -0.189321689126E+03    0.38670E-01   -0.38994E+00 12440   0.120E+01    0.666E+00
DAV:   4    -0.188732051742E+03    0.58964E+00   -0.62894E-01 12520   0.461E+00    0.185E+00
DAV:   5    -0.188734235502E+03   -0.21838E-02   -0.29391E-01 10560   0.159E+00    0.234E+00
DAV:   6    -0.188690864000E+03    0.43372E-01   -0.34889E-01 11920   0.242E+00    0.233E+00
DAV:   7    -0.188675921170E+03    0.14943E-01   -0.20288E-01 12600   0.265E+00    0.218E+00
DAV:   8    -0.188640213374E+03    0.35708E-01   -0.91878E-02 12600   0.163E+00    0.648E-01
DAV:   9    -0.188634229777E+03    0.59836E-02   -0.11627E-02 10520   0.386E-01    0.212E-01
DAV:  10    -0.188634622297E+03   -0.39252E-03   -0.37227E-03 12520   0.271E-01    0.296E-01
DAV:  11    -0.188634278179E+03    0.34412E-03   -0.32395E-03 13200   0.331E-01    0.251E-01
DAV:  12    -0.188633805560E+03    0.47262E-03   -0.13420E-03 11840   0.183E-01    0.822E-02
DAV:  13    -0.188633848005E+03   -0.42446E-04   -0.20240E-04  7280   0.601E-02
   2 F= -.18863385E+03 E0= -.18849167E+03  d E =-.179915E+01
       N       E                     dE             d eps       ncg     rms          rms(c)
DAV:   1    -0.190545455113E+03   -0.19116E+01   -0.30740E+01  9240   0.141E+01    0.445E+00
DAV:   2    -0.190541960812E+03    0.34943E-02   -0.28284E+00 11400   0.970E+00    0.747E+00
DAV:   3    -0.190020510919E+03    0.52145E+00   -0.13356E+00 12320   0.863E+00    0.411E+00
DAV:   4    -0.189817837420E+03    0.20267E+00   -0.69369E-01 12880   0.402E+00    0.247E+00
DAV:   5    -0.189737548376E+03    0.80289E-01   -0.29871E-01 11360   0.198E+00    0.124E+00
DAV:   6    -0.189721347866E+03    0.16201E-01   -0.67009E-02 11920   0.142E+00    0.869E-01
DAV:   7    -0.189715274882E+03    0.60730E-02   -0.15691E-02 12360   0.718E-01    0.220E-01
DAV:   8    -0.189715183833E+03    0.91049E-04   -0.22891E-03 11080   0.175E-01    0.153E-01
DAV:   9    -0.189715236791E+03   -0.52958E-04   -0.99576E-04 10480   0.127E-01
   3 F= -.18971524E+03 E0= -.18959533E+03  d E =-.108139E+01
       N       E                     dE             d eps       ncg     rms          rms(c)
DAV:   1    -0.191297676692E+03   -0.15825E+01   -0.72354E+01  8160   0.195E+01    0.469E+00
DAV:   2    -0.191178586074E+03    0.11909E+00   -0.55269E+00 13400   0.849E+00    0.530E+00
DAV:   3    -0.191211220942E+03   -0.32635E-01   -0.16460E+00 12080   0.932E+00    0.675E+00
DAV:   4    -0.190876756255E+03    0.33446E+00   -0.17023E+00 11840   0.791E+00    0.361E+00
DAV:   5    -0.190848142390E+03    0.28614E-01   -0.62062E-01 12080   0.541E+00    0.351E+00
DAV:   6    -0.190690882820E+03    0.15726E+00   -0.24113E-01 12240   0.333E+00    0.875E-01
DAV:   7    -0.190684816191E+03    0.60666E-02   -0.41054E-02 11880   0.850E-01    0.487E-01
DAV:   8    -0.190683226786E+03    0.15894E-02   -0.11150E-02 11680   0.619E-01    0.499E-01
DAV:   9    -0.190681113198E+03    0.21136E-02   -0.39198E-03 11600   0.450E-01    0.155E-01
DAV:  10    -0.190681426353E+03   -0.31315E-03   -0.12109E-03 10360   0.140E-01    0.128E-01
DAV:  11    -0.190681233318E+03    0.19304E-03   -0.84632E-04 10480   0.108E-01    0.462E-02
DAV:  12    -0.190681239496E+03   -0.61787E-05   -0.15717E-04  7400   0.453E-02
   4 F= -.19068124E+03 E0= -.19058010E+03  d E =-.966003E+00
       N       E                     dE             d eps       ncg     rms          rms(c)
DAV:   1    -0.192027413884E+03   -0.13462E+01   -0.14702E+02  8160   0.271E+01    0.560E+00
DAV:   2    -0.191823923288E+03    0.20349E+00   -0.92348E+00 12040   0.858E+00    0.444E+00
DAV:   3    -0.192203379416E+03   -0.37946E+00   -0.23337E+00 12200   0.106E+01    0.903E+00
DAV:   4    -0.191550197484E+03    0.65318E+00   -0.22578E+00 12160   0.108E+01    0.344E+00
DAV:   5    -0.191378876210E+03    0.17132E+00   -0.46158E-01 12160   0.331E+00    0.161E+00
DAV:   6    -0.191370736389E+03    0.81398E-02   -0.19244E-01 12680   0.285E+00    0.183E+00
DAV:   7    -0.191345192961E+03    0.25543E-01   -0.10171E-01 11920   0.212E+00    0.678E-01
DAV:   8    -0.191337961243E+03    0.72317E-02   -0.11616E-02 11680   0.563E-01    0.221E-01
DAV:   9    -0.191338646434E+03   -0.68519E-03   -0.32690E-03 12800   0.397E-01    0.319E-01
DAV:  10    -0.191338147628E+03    0.49881E-03   -0.30458E-03 11560   0.338E-01    0.119E-01
DAV:  11    -0.191337966626E+03    0.18100E-03   -0.79073E-04 10640   0.120E-01    0.554E-02
DAV:  12    -0.191337938711E+03    0.27915E-04   -0.13089E-04  7200   0.444E-02
   5 F= -.19133794E+03 E0= -.19124359E+03  d E =-.656699E+00
       N       E                     dE             d eps       ncg     rms          rms(c)
DAV:   1    -0.191429709695E+03   -0.91743E-01   -0.86150E+00  8160   0.621E+00    0.747E-01
DAV:   2    -0.191486198586E+03   -0.56489E-01   -0.32578E-01 12960   0.244E+00    0.209E+00
DAV:   3    -0.191446704216E+03    0.39494E-01   -0.13527E-01 12040   0.238E+00    0.755E-01
DAV:   4    -0.191446029622E+03    0.67459E-03   -0.23062E-02 11720   0.102E+00    0.751E-01
DAV:   5    -0.191440280530E+03    0.57491E-02   -0.11588E-02 11480   0.832E-01    0.282E-01
DAV:   6    -0.191439593530E+03    0.68700E-03   -0.33287E-03 11040   0.287E-01    0.156E-01
DAV:   7    -0.191439298439E+03    0.29509E-03   -0.17087E-03 10440   0.158E-01    0.880E-02
DAV:   8    -0.191439262268E+03    0.36171E-04   -0.50571E-04  9800   0.143E-01
   6 F= -.19143926E+03 E0= -.19134370E+03  d E =-.101324E+00
       N       E                     dE             d eps       ncg     rms          rms(c)
DAV:   1    -0.191468149595E+03   -0.28851E-01   -0.69407E-01  8160   0.177E+00    0.227E-01
DAV:   2    -0.191473721959E+03   -0.55724E-02   -0.27845E-02 13440   0.874E-01    0.677E-01
DAV:   3    -0.191469033106E+03    0.46889E-02   -0.10685E-02 11920   0.714E-01    0.175E-01
DAV:   4    -0.191469387321E+03   -0.35422E-03   -0.20654E-03 10360   0.320E-01    0.260E-01
DAV:   5    -0.191468713629E+03    0.67369E-03   -0.12165E-03  9920   0.265E-01    0.760E-02
DAV:   6    -0.191468709322E+03    0.43069E-05   -0.30218E-04  7360   0.844E-02
   7 F= -.19146871E+03 E0= -.19137305E+03  d E =-.294471E-01
       N       E                     dE             d eps       ncg     rms          rms(c)
DAV:   1    -0.191393014599E+03    0.75699E-01   -0.50254E+00  8160   0.475E+00    0.557E-01
DAV:   2    -0.191424848234E+03   -0.31834E-01   -0.17742E-01 13440   0.204E+00    0.154E+00
DAV:   3    -0.191400082591E+03    0.24766E-01   -0.56252E-02 12440   0.172E+00    0.456E-01
DAV:   4    -0.191400698209E+03   -0.61562E-03   -0.10706E-02 10440   0.720E-01    0.551E-01
DAV:   5    -0.191397604613E+03    0.30936E-02   -0.67315E-03 11040   0.624E-01    0.224E-01
DAV:   6    -0.191397603653E+03    0.95991E-06   -0.28749E-03 11800   0.324E-01    0.225E-01
DAV:   7    -0.191397685430E+03   -0.81778E-04   -0.28676E-03 11720   0.377E-01    0.251E-01
DAV:   8    -0.191396974857E+03    0.71057E-03   -0.11468E-03  9720   0.222E-01    0.314E-02
DAV:   9    -0.191396988180E+03   -0.13323E-04   -0.72526E-05  6360   0.318E-02
   8 F= -.19139699E+03 E0= -.19130175E+03  d E =0.717211E-01
       N       E                     dE             d eps       ncg     rms          rms(c)
DAV:   1    -0.191418220454E+03   -0.21246E-01   -0.12933E+00  8160   0.248E+00    0.378E-01
DAV:   2    -0.191420702226E+03   -0.24818E-02   -0.57022E-02 11360   0.728E-01    0.456E-01
DAV:   3    -0.191421890015E+03   -0.11878E-02   -0.20402E-02 11840   0.912E-01    0.634E-01
DAV:   4    -0.191417875010E+03    0.40150E-02   -0.76437E-03 11360   0.585E-01    0.205E-01
DAV:   5    -0.191418147587E+03   -0.27258E-03   -0.29112E-03 10360   0.414E-01    0.291E-01
DAV:   6    -0.191417243845E+03    0.90374E-03   -0.19960E-03 10040   0.316E-01    0.773E-02
DAV:   7    -0.191417202784E+03    0.41062E-04   -0.42801E-04  8800   0.990E-02
   9 F= -.19141720E+03 E0= -.19132184E+03  d E =-.202146E-01
       N       E                     dE             d eps       ncg     rms          rms(c)
DAV:   1    -0.191489814469E+03   -0.72571E-01   -0.46504E+00  8160   0.463E+00    0.613E-01
DAV:   2    -0.191521649127E+03   -0.31835E-01   -0.17401E-01 13600   0.218E+00    0.172E+00
DAV:   3    -0.191493375265E+03    0.28274E-01   -0.72934E-02 12280   0.186E+00    0.497E-01
DAV:   4    -0.191495356390E+03   -0.19811E-02   -0.16996E-02 12240   0.898E-01    0.722E-01
DAV:   5    -0.191490266232E+03    0.50902E-02   -0.10879E-02 11840   0.776E-01    0.271E-01
DAV:   6    -0.191489781888E+03    0.48434E-03   -0.36786E-03 11200   0.334E-01    0.201E-01
DAV:   7    -0.191489895905E+03   -0.11402E-03   -0.27368E-03 11880   0.375E-01    0.249E-01
DAV:   8    -0.191489228665E+03    0.66724E-03   -0.11728E-03  9440   0.241E-01    0.443E-02
DAV:   9    -0.191489209858E+03    0.18807E-04   -0.84824E-05  5720   0.414E-02
  10 F= -.19148921E+03 E0= -.19139346E+03  d E =-.720071E-01
       N       E                     dE             d eps       ncg     rms          rms(c)
DAV:   1    -0.191549856868E+03   -0.60628E-01   -0.32096E+00  8160   0.381E+00    0.474E-01
DAV:   2    -0.191577970913E+03   -0.28114E-01   -0.12838E-01 13560   0.196E+00    0.159E+00
DAV:   3    -0.191554254537E+03    0.23716E-01   -0.57686E-02 12160   0.159E+00    0.404E-01
DAV:   4    -0.191554939067E+03   -0.68453E-03   -0.90804E-03 11240   0.681E-01    0.496E-01
DAV:   5    -0.191552364112E+03    0.25750E-02   -0.46226E-03 11240   0.511E-01    0.161E-01
DAV:   6    -0.191552238755E+03    0.12536E-03   -0.16103E-03 10640   0.169E-01    0.115E-01
DAV:   7    -0.191552129687E+03    0.10907E-03   -0.85801E-04 10880   0.162E-01    0.119E-01
DAV:   8    -0.191551989849E+03    0.13984E-03   -0.35504E-04  8720   0.139E-01    0.414E-02
DAV:   9    -0.191551975351E+03    0.14498E-04   -0.47865E-05  6080   0.421E-02
  11 F= -.19155198E+03 E0= -.19145695E+03  d E =-.627655E-01
       N       E                     dE             d eps       ncg     rms          rms(c)
DAV:   1    -0.191518083034E+03    0.33907E-01   -0.86793E-01  8160   0.198E+00    0.249E-01
DAV:   2    -0.191525889583E+03   -0.78065E-02   -0.37695E-02 13360   0.104E+00    0.775E-01
DAV:   3    -0.191519327965E+03    0.65616E-02   -0.12400E-02 11560   0.795E-01    0.180E-01
DAV:   4    -0.191519650690E+03   -0.32272E-03   -0.22192E-03 10280   0.323E-01    0.258E-01
DAV:   5    -0.191518970162E+03    0.68053E-03   -0.12445E-03  9600   0.271E-01    0.836E-02
DAV:   6    -0.191518953365E+03    0.16798E-04   -0.37659E-04  8160   0.969E-02
  12 F= -.19151895E+03 E0= -.19142352E+03  d E =0.330220E-01
       N       E                     dE             d eps       ncg     rms          rms(c)
DAV:   1    -0.191464483077E+03    0.54487E-01   -0.27425E+00  8160   0.353E+00    0.430E-01
DAV:   2    -0.191485937971E+03   -0.21455E-01   -0.11054E-01 13560   0.160E+00    0.124E+00
DAV:   3    -0.191468821120E+03    0.17117E-01   -0.33879E-02 11920   0.133E+00    0.329E-01
DAV:   4    -0.191469474030E+03   -0.65291E-03   -0.63673E-03 11400   0.529E-01    0.424E-01
DAV:   5    -0.191467649035E+03    0.18250E-02   -0.34308E-03 11240   0.451E-01    0.142E-01
DAV:   6    -0.191467573185E+03    0.75850E-04   -0.11153E-03 10360   0.173E-01    0.103E-01
DAV:   7    -0.191467719920E+03   -0.14673E-03   -0.10330E-03 10640   0.218E-01    0.173E-01
DAV:   8    -0.191467396921E+03    0.32300E-03   -0.49341E-04  8760   0.167E-01    0.234E-02
DAV:   9    -0.191467407748E+03   -0.10828E-04   -0.39117E-05  6280   0.270E-02
  13 F= -.19146741E+03 E0= -.19137177E+03  d E =0.515456E-01
       N       E                     dE             d eps       ncg     rms          rms(c)
DAV:   1    -0.191554302954E+03   -0.86906E-01   -0.66902E+00  8160   0.548E+00    0.588E-01
DAV:   2    -0.191590952112E+03   -0.36649E-01   -0.21414E-01 13440   0.210E+00    0.170E+00
DAV:   3    -0.191565276109E+03    0.25676E-01   -0.77187E-02 12000   0.183E+00    0.558E-01
DAV:   4    -0.191565928947E+03   -0.65284E-03   -0.13945E-02 11160   0.840E-01    0.630E-01
DAV:   5    -0.191561666913E+03    0.42620E-02   -0.72338E-03 11160   0.675E-01    0.213E-01
DAV:   6    -0.191561615278E+03    0.51635E-04   -0.27261E-03 11720   0.246E-01    0.171E-01
DAV:   7    -0.191561438676E+03    0.17660E-03   -0.17760E-03 11160   0.256E-01    0.185E-01
DAV:   8    -0.191561088965E+03    0.34971E-03   -0.70473E-04  8760   0.199E-01    0.431E-02
DAV:   9    -0.191561081082E+03    0.78825E-05   -0.73629E-05  5920   0.449E-02
  14 F= -.19156108E+03 E0= -.19146688E+03  d E =-.936733E-01
       N       E                     dE             d eps       ncg     rms          rms(c)
DAV:   1    -0.191526310309E+03    0.34779E-01   -0.85182E-01  8160   0.197E+00    0.231E-01
DAV:   2    -0.191531047016E+03   -0.47367E-02   -0.28741E-02 13520   0.821E-01    0.604E-01
DAV:   3    -0.191527228153E+03    0.38189E-02   -0.85214E-03 11280   0.656E-01    0.189E-01
DAV:   4    -0.191527441043E+03   -0.21289E-03   -0.21348E-03 10200   0.312E-01    0.248E-01
DAV:   5    -0.191526836080E+03    0.60496E-03   -0.13101E-03  9520   0.282E-01    0.101E-01
DAV:   6    -0.191526770492E+03    0.65588E-04   -0.46126E-04  9200   0.113E-01
  15 F= -.19152677E+03 E0= -.19143190E+03  d E =0.343106E-01
       N       E                     dE             d eps       ncg     rms          rms(c)
DAV:   1    -0.191604767562E+03   -0.77931E-01   -0.48179E+00  8160   0.471E+00    0.607E-01
DAV:   2    -0.191643360969E+03   -0.38593E-01   -0.19509E-01 13560   0.232E+00    0.190E+00
DAV:   3    -0.191610732934E+03    0.32628E-01   -0.81036E-02 12160   0.192E+00    0.514E-01
DAV:   4    -0.191612102370E+03   -0.13694E-02   -0.15167E-02 11400   0.906E-01    0.673E-01
DAV:   5    -0.191607331713E+03    0.47707E-02   -0.87495E-03 11440   0.724E-01    0.239E-01
DAV:   6    -0.191607054811E+03    0.27690E-03   -0.34741E-03 10640   0.294E-01    0.195E-01
DAV:   7    -0.191607117291E+03   -0.62480E-04   -0.26369E-03 11760   0.366E-01    0.244E-01
DAV:   8    -0.191606466754E+03    0.65054E-03   -0.11049E-03  9640   0.246E-01    0.422E-02
DAV:   9    -0.191606450444E+03    0.16310E-04   -0.78067E-05  5640   0.410E-02
  16 F= -.19160645E+03 E0= -.19151298E+03  d E =-.796800E-01
       N       E                     dE             d eps       ncg     rms          rms(c)
DAV:   1    -0.191664157980E+03   -0.57691E-01   -0.24590E+00  8160   0.333E+00    0.338E-01
DAV:   2    -0.191674303917E+03   -0.10146E-01   -0.69658E-02 12360   0.106E+00    0.870E-01
DAV:   3    -0.191668048487E+03    0.62554E-02   -0.19984E-02 11840   0.969E-01    0.339E-01
DAV:   4    -0.191667570205E+03    0.47828E-03   -0.35784E-03 11360   0.391E-01    0.270E-01
DAV:   5    -0.191666835819E+03    0.73439E-03   -0.19045E-03 10680   0.356E-01    0.155E-01
DAV:   6    -0.191666792795E+03    0.43025E-04   -0.11861E-03 11200   0.207E-01    0.116E-01
DAV:   7    -0.191666630024E+03    0.16277E-03   -0.58173E-04 10200   0.133E-01    0.788E-02
DAV:   8    -0.191666573343E+03    0.56681E-04   -0.15868E-04  6200   0.997E-02
  17 F= -.19166657E+03 E0= -.19157533E+03  d E =-.601229E-01
       N       E                     dE             d eps       ncg     rms          rms(c)
DAV:   1    -0.191736213531E+03   -0.69584E-01   -0.36222E+00  8160   0.406E+00    0.424E-01
DAV:   2    -0.191752817204E+03   -0.16604E-01   -0.10879E-01 12280   0.141E+00    0.114E+00
DAV:   3    -0.191742006773E+03    0.10810E-01   -0.30580E-02 11840   0.124E+00    0.397E-01
DAV:   4    -0.191741487059E+03    0.51971E-03   -0.53029E-03 11480   0.504E-01    0.350E-01
DAV:   5    -0.191740215552E+03    0.12715E-02   -0.29781E-03 11160   0.457E-01    0.188E-01
DAV:   6    -0.191740115448E+03    0.10010E-03   -0.17604E-03 11800   0.248E-01    0.137E-01
DAV:   7    -0.191739984047E+03    0.13140E-03   -0.10132E-03 10200   0.202E-01    0.133E-01
DAV:   8    -0.191739796112E+03    0.18794E-03   -0.36873E-04  8560   0.148E-01    0.308E-02
DAV:   9    -0.191739793246E+03    0.28658E-05   -0.40959E-05  6160   0.338E-02
  18 F= -.19173979E+03 E0= -.19165172E+03  d E =-.732199E-01
       N       E                     dE             d eps       ncg     rms          rms(c)
DAV:   1    -0.191795058838E+03   -0.55263E-01   -0.20893E+00  8160   0.312E+00    0.372E-01
DAV:   2    -0.191805411394E+03   -0.10353E-01   -0.72785E-02 12360   0.120E+00    0.930E-01
DAV:   3    -0.191798147034E+03    0.72644E-02   -0.19320E-02 11880   0.103E+00    0.336E-01
DAV:   4    -0.191797793910E+03    0.35312E-03   -0.42294E-03 11520   0.475E-01    0.321E-01
DAV:   5    -0.191796793544E+03    0.10004E-02   -0.26847E-03 10520   0.436E-01    0.185E-01
DAV:   6    -0.191796603984E+03    0.18956E-03   -0.15284E-03  9920   0.232E-01    0.123E-01
DAV:   7    -0.191796532469E+03    0.71515E-04   -0.89136E-04  9920   0.205E-01
  19 F= -.19179653E+03 E0= -.19171092E+03  d E =-.567392E-01
       N       E                     dE             d eps       ncg     rms          rms(c)
DAV:   1    -0.191942681794E+03   -0.14608E+00   -0.22414E+01  8160   0.102E+01    0.104E+00
DAV:   2    -0.192022163744E+03   -0.79482E-01   -0.67786E-01 11800   0.309E+00    0.228E+00
DAV:   3    -0.191987801270E+03    0.34362E-01   -0.14187E-01 12280   0.288E+00    0.109E+00
DAV:   4    -0.191974474273E+03    0.13327E-01   -0.23714E-02 12320   0.101E+00    0.490E-01
DAV:   5    -0.191973074584E+03    0.13997E-02   -0.13276E-02 12360   0.837E-01    0.531E-01
DAV:   6    -0.191972535099E+03    0.53948E-03   -0.12282E-02 12400   0.882E-01    0.435E-01
DAV:   7    -0.191969983230E+03    0.25519E-02   -0.51749E-03 11480   0.463E-01    0.177E-01
DAV:   8    -0.191969755663E+03    0.22757E-03   -0.12737E-03 10440   0.258E-01    0.102E-01
DAV:   9    -0.191969645170E+03    0.11049E-03   -0.30718E-04  8760   0.117E-01    0.448E-02
DAV:  10    -0.191969603942E+03    0.41228E-04   -0.15102E-04  6240   0.478E-02
  20 F= -.19196960E+03 E0= -.19189047E+03  d E =-.173071E+00
       N       E                     dE             d eps       ncg     rms          rms(c)
DAV:   1    -0.192052524702E+03   -0.82880E-01   -0.68020E+00  8160   0.567E+00    0.695E-01
DAV:   2    -0.192074079834E+03   -0.21555E-01   -0.24879E-01 12000   0.180E+00    0.114E+00
DAV:   3    -0.192067496077E+03    0.65838E-02   -0.44193E-02 12240   0.177E+00    0.815E-01
DAV:   4    -0.192059540541E+03    0.79555E-02   -0.12319E-02 12320   0.846E-01    0.326E-01
DAV:   5    -0.192060391310E+03   -0.85077E-03   -0.77684E-03 10720   0.691E-01    0.493E-01
DAV:   6    -0.192058309821E+03    0.20815E-02   -0.68654E-03 11640   0.622E-01    0.205E-01
DAV:   7    -0.192057875879E+03    0.43394E-03   -0.19809E-03 11040   0.284E-01    0.135E-01
DAV:   8    -0.192057665753E+03    0.21013E-03   -0.51020E-04  9520   0.180E-01    0.539E-02
DAV:   9    -0.192057625949E+03    0.39804E-04   -0.92841E-05  6120   0.651E-02
  21 F= -.19205763E+03 E0= -.19197925E+03  d E =-.880220E-01
       N       E                     dE             d eps       ncg     rms          rms(c)
DAV:   1    -0.192157343591E+03   -0.99678E-01   -0.36501E+01  8160   0.130E+01    0.134E+00
DAV:   2    -0.192255011703E+03   -0.97668E-01   -0.11648E+00 11640   0.335E+00    0.176E+00
DAV:   3    -0.192252378951E+03    0.26328E-02   -0.14818E-01 12280   0.331E+00    0.176E+00
DAV:   4    -0.192215078339E+03    0.37301E-01   -0.44777E-02 12360   0.180E+00    0.486E-01
DAV:   5    -0.192216016318E+03   -0.93798E-03   -0.21948E-02 12000   0.983E-01    0.659E-01
DAV:   6    -0.192214517734E+03    0.14986E-02   -0.22344E-02 12720   0.115E+00    0.552E-01
DAV:   7    -0.192210509466E+03    0.40083E-02   -0.84555E-03 11520   0.627E-01    0.181E-01
DAV:   8    -0.192210267573E+03    0.24189E-03   -0.13592E-03 10440   0.268E-01    0.102E-01
DAV:   9    -0.192210140341E+03    0.12723E-03   -0.43233E-04 10320   0.117E-01    0.473E-02
DAV:  10    -0.192210086333E+03    0.54008E-04   -0.15788E-04  7080   0.483E-02
  22 F= -.19221009E+03 E0= -.19213001E+03  d E =-.152460E+00
       N       E                     dE             d eps       ncg     rms          rms(c)
DAV:   1    -0.192225317785E+03   -0.15177E-01   -0.85018E-01  8160   0.200E+00    0.289E-01
DAV:   2    -0.192227863355E+03   -0.25456E-02   -0.37479E-02 10640   0.729E-01    0.426E-01
DAV:   3    -0.192227079412E+03    0.78394E-03   -0.83058E-03 12400   0.730E-01    0.361E-01
DAV:   4    -0.192225536762E+03    0.15426E-02   -0.24728E-03 11760   0.389E-01    0.123E-01
DAV:   5    -0.192225732834E+03   -0.19607E-03   -0.13251E-03 10920   0.287E-01    0.199E-01
DAV:   6    -0.192225271652E+03    0.46118E-03   -0.10055E-03 10760   0.255E-01    0.594E-02
DAV:   7    -0.192225245360E+03    0.26292E-04   -0.14922E-04  6240   0.915E-02
  23 F= -.19222525E+03 E0= -.19214423E+03  d E =-.151590E-01
       N       E                     dE             d eps       ncg     rms          rms(c)
DAV:   1    -0.192250595993E+03   -0.25324E-01   -0.16659E+00  8160   0.274E+00    0.318E-01
DAV:   2    -0.192257453895E+03   -0.68579E-02   -0.60166E-02 11000   0.980E-01    0.587E-01
DAV:   3    -0.192253942543E+03    0.35114E-02   -0.13413E-02 12520   0.867E-01    0.280E-01
DAV:   4    -0.192253315835E+03    0.62671E-03   -0.26790E-03 11600   0.367E-01    0.197E-01
DAV:   5    -0.192253077940E+03    0.23790E-03   -0.14782E-03 10360   0.331E-01    0.155E-01
DAV:   6    -0.192252940109E+03    0.13783E-03   -0.74500E-04 11120   0.184E-01    0.851E-02
DAV:   7    -0.192252864926E+03    0.75183E-04   -0.29245E-04  8840   0.127E-01
  24 F= -.19225286E+03 E0= -.19217080E+03  d E =-.276196E-01
       N       E                     dE             d eps       ncg     rms          rms(c)
DAV:   1    -0.192271209556E+03   -0.18269E-01   -0.88556E-01  8160   0.203E+00    0.273E-01
DAV:   2    -0.192273607284E+03   -0.23977E-02   -0.35556E-02 11080   0.621E-01    0.363E-01
DAV:   3    -0.192273331077E+03    0.27621E-03   -0.93763E-03 12440   0.695E-01    0.350E-01
DAV:   4    -0.192271824423E+03    0.15067E-02   -0.24952E-03 11400   0.366E-01    0.940E-02
DAV:   5    -0.192271930738E+03   -0.10631E-03   -0.10040E-03 10280   0.214E-01    0.146E-01
DAV:   6    -0.192271757783E+03    0.17295E-03   -0.60784E-04  9960   0.220E-01    0.885E-02
DAV:   7    -0.192271670700E+03    0.87083E-04   -0.18687E-04  7440   0.111E-01
  25 F= -.19227167E+03 E0= -.19218848E+03  d E =-.188058E-01
       N       E                     dE             d eps       ncg     rms          rms(c)
DAV:   1    -0.192294740652E+03   -0.22983E-01   -0.22561E+00  8160   0.318E+00    0.373E-01
DAV:   2    -0.192304168510E+03   -0.94279E-02   -0.83688E-02 10800   0.116E+00    0.697E-01
DAV:   3    -0.192299334859E+03    0.48337E-02   -0.20630E-02 12600   0.103E+00    0.334E-01
DAV:   4    -0.192298409986E+03    0.92487E-03   -0.36191E-03 11600   0.435E-01    0.220E-01
DAV:   5    -0.192298062676E+03    0.34731E-03   -0.19080E-03 11000   0.380E-01    0.175E-01
DAV:   6    -0.192297924052E+03    0.13862E-03   -0.10216E-03 10720   0.227E-01    0.109E-01
DAV:   7    -0.192297748171E+03    0.17588E-03   -0.40556E-04  9520   0.131E-01    0.661E-02
DAV:   8    -0.192297708744E+03    0.39427E-04   -0.99577E-05  6720   0.899E-02
  26 F= -.19229771E+03 E0= -.19221352E+03  d E =-.260380E-01
       N       E                     dE             d eps       ncg     rms          rms(c)
DAV:   1    -0.192309436670E+03   -0.11688E-01   -0.60213E-01  8160   0.169E+00    0.250E-01
DAV:   2    -0.192311064543E+03   -0.16279E-02   -0.27448E-02 10280   0.581E-01    0.334E-01
DAV:   3    -0.192310788829E+03    0.27571E-03   -0.68345E-03 12280   0.630E-01    0.307E-01
DAV:   4    -0.192309535348E+03    0.12535E-02   -0.20992E-03 11080   0.339E-01    0.827E-02
DAV:   5    -0.192309678223E+03   -0.14288E-03   -0.87587E-04 10040   0.214E-01    0.150E-01
DAV:   6    -0.192309415339E+03    0.26288E-03   -0.59345E-04  9520   0.197E-01    0.430E-02
DAV:   7    -0.192309409519E+03    0.58197E-05   -0.82493E-05  6080   0.738E-02
  27 F= -.19230941E+03 E0= -.19222424E+03  d E =-.117008E-01
       N       E                     dE             d eps       ncg     rms          rms(c)
DAV:   1    -0.192318553195E+03   -0.91379E-02   -0.50931E-01  8160   0.151E+00    0.199E-01
DAV:   2    -0.192321642895E+03   -0.30897E-02   -0.23311E-02 10200   0.742E-01    0.434E-01
DAV:   3    -0.192319505996E+03    0.21369E-02   -0.61436E-03 12360   0.577E-01    0.142E-01
DAV:   4    -0.192319412633E+03    0.93363E-04   -0.96972E-04  9200   0.224E-01
  28 F= -.19231941E+03 E0= -.19223409E+03  d E =-.100031E-01
       N       E                     dE             d eps       ncg     rms          rms(c)
DAV:   1    -0.192327510790E+03   -0.80048E-02   -0.47977E-01  8160   0.148E+00    0.208E-01
DAV:   2    -0.192330281865E+03   -0.27711E-02   -0.19509E-02 11760   0.601E-01    0.439E-01
DAV:   3    -0.192328236326E+03    0.20455E-02   -0.53789E-03 12160   0.586E-01    0.169E-01
DAV:   4    -0.192328012458E+03    0.22387E-03   -0.96592E-04  9960   0.200E-01    0.106E-01
DAV:   5    -0.192327957654E+03    0.54804E-04   -0.65550E-04  9920   0.191E-01
  29 F= -.19232796E+03 E0= -.19224205E+03  d E =-.854502E-02
       N       E                     dE             d eps       ncg     rms          rms(c)
DAV:   1    -0.192334914470E+03   -0.69020E-02   -0.44485E-01  8160   0.142E+00    0.219E-01
DAV:   2    -0.192337273592E+03   -0.23591E-02   -0.20319E-02 11040   0.675E-01    0.431E-01
DAV:   3    -0.192335411773E+03    0.18618E-02   -0.56895E-03 11880   0.608E-01    0.183E-01
DAV:   4    -0.192335083690E+03    0.32808E-03   -0.14262E-03 10000   0.242E-01    0.118E-01
DAV:   5    -0.192334989048E+03    0.94642E-04   -0.10211E-03 10600   0.215E-01    0.111E-01
DAV:   6    -0.192334879258E+03    0.10979E-03   -0.49378E-04  9320   0.163E-01    0.578E-02
DAV:   7    -0.192334826258E+03    0.52999E-04   -0.12334E-04  5800   0.643E-02
  30 F= -.19233483E+03 E0= -.19224855E+03  d E =-.686860E-02
       N       E                     dE             d eps       ncg     rms          rms(c)
DAV:   1    -0.192344296507E+03   -0.94172E-02   -0.25042E+00  8160   0.333E+00    0.394E-01
DAV:   2    -0.192357333439E+03   -0.13037E-01   -0.10055E-01 10960   0.132E+00    0.850E-01
DAV:   3    -0.192349791879E+03    0.75416E-02   -0.25654E-02 12680   0.118E+00    0.310E-01
DAV:   4    -0.192348688974E+03    0.11029E-02   -0.24528E-03 11480   0.348E-01    0.171E-01
DAV:   5    -0.192348709030E+03   -0.20056E-04   -0.16569E-03 11440   0.353E-01    0.182E-01
DAV:   6    -0.192348374155E+03    0.33487E-03   -0.92418E-04 10880   0.208E-01    0.615E-02
DAV:   7    -0.192348289058E+03    0.85098E-04   -0.17659E-04  6400   0.532E-02
  31 F= -.19234829E+03 E0= -.19226173E+03  d E =-.134628E-01
       N       E                     dE             d eps       ncg     rms          rms(c)
DAV:   1    -0.192352498187E+03   -0.41240E-02   -0.19240E+00  8160   0.291E+00    0.315E-01
DAV:   2    -0.192359005594E+03   -0.65074E-02   -0.74478E-02 12000   0.886E-01    0.411E-01
DAV:   3    -0.192358323981E+03    0.68161E-03   -0.11953E-02 12160   0.779E-01    0.366E-01
DAV:   4    -0.192356800322E+03    0.15237E-02   -0.31434E-03 11600   0.427E-01    0.143E-01
DAV:   5    -0.192356772507E+03    0.27815E-04   -0.13139E-03 10280   0.278E-01    0.153E-01
DAV:   6    -0.192356698559E+03    0.73949E-04   -0.94865E-04 10960   0.239E-01
  32 F= -.19235670E+03 E0= -.19227045E+03  d E =-.840950E-02
       N       E                     dE             d eps       ncg     rms          rms(c)
DAV:   1    -0.192357827336E+03   -0.10548E-02   -0.89836E-02  8160   0.642E-01    0.934E-02
DAV:   2    -0.192358079799E+03   -0.25246E-03   -0.39953E-03 12280   0.249E-01    0.119E-01
DAV:   3    -0.192358012157E+03    0.67642E-04   -0.65754E-04 10400   0.221E-01
  33 F= -.19235801E+03 E0= -.19227240E+03  d E =-.131360E-02
       N       E                     dE             d eps       ncg     rms          rms(c)
DAV:   1    -0.192359153697E+03   -0.10739E-02   -0.10041E-01  8160   0.676E-01    0.787E-02
DAV:   2    -0.192359334531E+03   -0.18083E-03   -0.27721E-03 12240   0.150E-01    0.735E-02
DAV:   3    -0.192359354030E+03   -0.19499E-04   -0.45924E-04 10080   0.161E-01
  34 F= -.19235935E+03 E0= -.19227415E+03  d E =-.134187E-02
       N       E                     dE             d eps       ncg     rms          rms(c)
DAV:   1    -0.192360094647E+03   -0.76012E-03   -0.32131E-02  8160   0.401E-01    0.773E-02
DAV:   2    -0.192360260421E+03   -0.16577E-03   -0.16600E-03 12600   0.175E-01    0.126E-01
DAV:   3    -0.192360082243E+03    0.17818E-03   -0.67000E-04  8960   0.195E-01    0.782E-02
DAV:   4    -0.192360039156E+03    0.43087E-04   -0.21997E-04  7120   0.111E-01
  35 F= -.19236004E+03 E0= -.19227514E+03  d E =-.685126E-03
       N       E                     dE             d eps       ncg     rms          rms(c)
DAV:   1    -0.192361456613E+03   -0.13744E-02   -0.16319E-01  8160   0.856E-01    0.978E-02
DAV:   2    -0.192361865590E+03   -0.40898E-03   -0.55593E-03 11880   0.214E-01    0.101E-01
DAV:   3    -0.192361884845E+03   -0.19255E-04   -0.72688E-04 11200   0.212E-01
  36 F= -.19236188E+03 E0= -.19227770E+03  d E =-.184569E-02
       N       E                     dE             d eps       ncg     rms          rms(c)
DAV:   1    -0.192361990934E+03   -0.12534E-03   -0.70256E-03  8160   0.224E-01    0.539E-02
DAV:   2    -0.192362077490E+03   -0.86556E-04   -0.50804E-04  9280   0.125E-01
  37 F= -.19236208E+03 E0= -.19227777E+03  d E =-.192645E-03
       N       E                     dE             d eps       ncg     rms          rms(c)
DAV:   1    -0.192362892965E+03   -0.90203E-03   -0.85217E-02  8160   0.630E-01    0.815E-02
DAV:   2    -0.192363214434E+03   -0.32147E-03   -0.27556E-03 12600   0.211E-01    0.139E-01
DAV:   3    -0.192363039720E+03    0.17471E-03   -0.57657E-04 10240   0.210E-01    0.763E-02
DAV:   4    -0.192362988870E+03    0.50850E-04   -0.10393E-04  5960   0.885E-02
  38 F= -.19236299E+03 E0= -.19227923E+03  d E =-.911380E-03
       N       E                     dE             d eps       ncg     rms          rms(c)
DAV:   1    -0.192363758704E+03   -0.71898E-03   -0.50706E-02  8160   0.485E-01    0.700E-02
DAV:   2    -0.192364135489E+03   -0.37678E-03   -0.22202E-03 13520   0.222E-01    0.156E-01
DAV:   3    -0.192363834597E+03    0.30089E-03   -0.56361E-04  9480   0.206E-01    0.516E-02
DAV:   4    -0.192363835104E+03   -0.50685E-06   -0.93180E-05  5760   0.753E-02
  39 F= -.19236384E+03 E0= -.19228040E+03  d E =-.846234E-03
       N       E                     dE             d eps       ncg     rms          rms(c)
DAV:   1    -0.192364534717E+03   -0.70012E-03   -0.46331E-02  8160   0.460E-01    0.653E-02
DAV:   2    -0.192364767069E+03   -0.23235E-03   -0.17021E-03 13000   0.186E-01    0.124E-01
DAV:   3    -0.192364584903E+03    0.18217E-03   -0.43028E-04  9200   0.177E-01    0.548E-02
DAV:   4    -0.192364571254E+03    0.13649E-04   -0.10695E-04  5880   0.799E-02
  40 F= -.19236457E+03 E0= -.19228144E+03  d E =-.736150E-03
