unknown system                          
           1
     8.851325    5.104660    0.000000
    -8.853755    5.108841    0.000000
     0.000000    0.000000   30.000000
   V    Mo   W    S 
   3   3   3  18
Direct configuration=     1
   0.00000000  0.66666669  0.00000000
   0.66666669  0.00000000  0.00000000
   0.33333334  0.66666669  0.00000000
   0.33333334  0.00000000  0.00000000
   1.00000000  0.33333334  0.00000000
   0.66666669  0.33333334  0.00000000
   0.00000000  0.00000000  0.00000000
   0.33333334  0.33333334  0.00000000
   0.66666669  0.66666669  0.00000000
   0.11068511  0.22244981  0.95539999
   0.22244981  0.11068511  0.04460000
   0.11068511  0.55578315  0.95539999
   0.22244981  0.44401845  0.04460000
   0.11068511  0.88911647  0.95539999
   0.22244981  0.77735180  0.04460000
   0.44401845  0.22244981  0.95539999
   0.55578315  0.11068511  0.04460000
   0.44401845  0.55578315  0.95539999
   0.55578315  0.44401845  0.04460000
   0.44401845  0.88911647  0.95539999
   0.55578315  0.77735180  0.04460000
   0.77735180  0.22244981  0.95539999
   0.88911647  0.11068511  0.04460000
   0.77735180  0.55578315  0.95539999
   0.88911647  0.44401845  0.04460000
   0.77735180  0.88911647  0.95539999
   0.88911647  0.77735180  0.04460000
unknown system                          
           1
     8.663941    4.998820    0.000000
    -8.666127    5.002581    0.000000
     0.000000    0.000000   30.000000
   V    Mo   W    S 
   3   3   3  18
Direct configuration=     2
   0.00039831  0.66540021 -0.00017115
   0.66619072  0.00200470  0.00014973
   0.33224623  0.66721080  0.00002717
   0.33465972  0.00097847 -0.00004277
   0.99856666  0.33345720  0.00001831
   0.66683289  0.33194691 -0.00016970
   0.00134845  0.00130806  0.00016001
   0.33326305  0.33191500  0.00004644
   0.66656397  0.66546307  0.00004984
   0.11156272  0.22187318  0.95073315
   0.22161214  0.11148729  0.04933639
   0.11289772  0.55997859  0.95306083
   0.22477958  0.44834076  0.04800598
   0.10829361  0.88458880  0.95195652
   0.22018263  0.77327873  0.04687834
   0.44401577  0.22271645  0.95071381
   0.55789945  0.10845893  0.04805682
   0.44233681  0.55741104  0.95198977
   0.55490822  0.44479294  0.04922638
   0.44648041  0.88661979  0.95305056
   0.55380487  0.77949340  0.04694150
   0.77547575  0.21774562  0.95189562
   0.88461426  0.10820396  0.04809617
   0.78179933  0.55818028  0.95188586
   0.89102875  0.44880632  0.04806037
   0.77566408  0.89076017  0.95206212
   0.89078836  0.77579377  0.04798186
unknown system                          
           1
     8.481853    4.896669    0.000000
    -8.483510    4.899515    0.000000
     0.000000    0.000000   30.000000
   V    Mo   W    S 
   3   3   3  18
Direct configuration=     3
   0.00035546  0.66497054 -0.00018748
   0.66615369  0.00265227  0.00016047
   0.33198473  0.66729182  0.00007065
   0.33498619  0.00184674 -0.00008173
   0.99811070  0.33323205  0.00005976
   0.66666555  0.33162019 -0.00018378
   0.00208077  0.00203130  0.00012165
   0.33318793  0.33118916  0.00004806
   0.66646433  0.66490236  0.00004136
   0.11166885  0.22177334  0.95073640
   0.22150815  0.11159355  0.04942445
   0.11294235  0.56007263  0.95304164
   0.22496315  0.44833739  0.04792637
   0.10809508  0.88460546  0.95201689
   0.22013879  0.77321383  0.04683102
   0.44391817  0.22287065  0.95061422
   0.55797674  0.10838590  0.04815774
   0.44242388  0.55732931  0.95206260
   0.55481874  0.44487593  0.04923265
   0.44651966  0.88658603  0.95309705
   0.55391274  0.77939988  0.04682225
   0.77537441  0.21758531  0.95180503
   0.88458575  0.10798657  0.04810092
   0.78180076  0.55836553  0.95187783
   0.89111475  0.44895638  0.04808403
   0.77573228  0.89066287  0.95220731
   0.89073086  0.77587745  0.04791254
unknown system                          
           1
     8.273200    4.776007    0.000000
    -8.279383    4.786693    0.000000
     0.000000    0.000000   30.000000
   V    Mo   W    S 
   3   3   3  18
Direct configuration=     4
  -0.00027275  0.66336626 -0.00016559
   0.66635894  0.00517811  0.00012912
   0.33123235  0.66730912  0.00022298
   0.33589044  0.00598157 -0.00018334
   0.99651588  0.33183626  0.00019966
   0.66557922  0.33056867 -0.00016050
   0.00540550  0.00527396 -0.00006661
   0.33277323  0.32790688  0.00005397
   0.66595034  0.66252915 -0.00000632
   0.11171549  0.22196036  0.94910078
   0.22159032  0.11157457  0.05147953
   0.11350817  0.56101832  0.95162394
   0.22561408  0.44937504  0.04903413
   0.10752116  0.88361371  0.95078817
   0.21972653  0.77250856  0.04793654
   0.44401876  0.22308869  0.94856779
   0.55856027  0.10777055  0.04999470
   0.44189808  0.55764588  0.95086798
   0.55482684  0.44469806  0.05089521
   0.44704853  0.88612881  0.95197652
   0.55357546  0.77987663  0.04771625
   0.77465023  0.21618744  0.95000474
   0.88330785  0.10717324  0.04960868
   0.78293362  0.55887115  0.95033545
   0.89170178  0.45020408  0.04960249
   0.77525214  0.89101566  0.95133899
   0.89133201  0.77555371  0.04910463
unknown system                          
           1
     8.258761    4.765803    0.000000
    -8.271769    4.788308    0.000000
     0.000000    0.000000   30.000000
   V    Mo   W    S 
   3   3   3  18
Direct configuration=     5
  -0.00245742  0.65968495  0.00003140
   0.66673309  0.00984102 -0.00008419
   0.33018715  0.66745661  0.00041580
   0.33714765  0.01419360 -0.00022856
   0.99332000  0.32925388  0.00033416
   0.66341169  0.32925742 -0.00004520
   0.01294638  0.01222576 -0.00029114
   0.33220022  0.32109530  0.00004280
   0.66446186  0.65712686 -0.00011599
   0.11195683  0.22304772  0.94684896
   0.22195978  0.11142023  0.05459540
   0.11377182  0.56141887  0.94965199
   0.22594256  0.44989612  0.05033008
   0.10772942  0.88288832  0.94923176
   0.21964909  0.77282038  0.04928595
   0.44483319  0.22349771  0.94550760
   0.55888145  0.10749729  0.05250914
   0.44090515  0.55734874  0.94943754
   0.55472742  0.44370766  0.05313820
   0.44731846  0.88632824  0.95051278
   0.55331706  0.78053468  0.04889113
   0.77379690  0.21501910  0.94758202
   0.88196036  0.10633381  0.05169166
   0.78425841  0.55842580  0.94816959
   0.89190081  0.45094865  0.05158505
   0.77500724  0.89145561  0.95065515
   0.89234787  0.77549010  0.05031681
unknown system                          
           1
     8.261319    4.767464    0.000000
    -8.274636    4.790505    0.000000
     0.000000    0.000000   30.000000
   V    Mo   W    S 
   3   3   3  18
Direct configuration=     6
  -0.00402164  0.65723563  0.00006090
   0.66654901  0.01166249 -0.00008997
   0.33024170  0.66808876  0.00051847
   0.33737638  0.01614575 -0.00019786
   0.99208751  0.32853936  0.00030036
   0.66326627  0.32963359 -0.00010712
   0.01597256  0.01501433 -0.00022544
   0.33261581  0.31962138 -0.00008291
   0.66290451  0.65385226 -0.00020146
   0.11254260  0.22405838  0.94654005
   0.22214485  0.11150602  0.05529024
   0.11337476  0.56090199  0.94955018
   0.22567886  0.44888532  0.05015885
   0.10855914  0.88363820  0.94930794
   0.21992069  0.77390544  0.04916783
   0.44541625  0.22384678  0.94496019
   0.55849602  0.10780101  0.05277797
   0.44045553  0.55631626  0.94944427
   0.55426670  0.44294980  0.05353365
   0.44694176  0.88717278  0.95048299
   0.55369067  0.78060226  0.04875630
   0.77363983  0.21532661  0.94729649
   0.88216902  0.10620643  0.05183144
   0.78421509  0.55769720  0.94788104
   0.89142728  0.45018458  0.05183698
   0.77572702  0.89142534  0.95117059
   0.89255629  0.77599650  0.05003790
unknown system                          
           1
     8.257320    4.765121    0.000000
    -8.267578    4.782862    0.000000
     0.000000    0.000000   30.000000
   V    Mo   W    S 
   3   3   3  18
Direct configuration=     7
  -0.00446681  0.65648202  0.00007061
   0.66639773  0.01217887 -0.00008701
   0.33032200  0.66839974  0.00057096
   0.33752438  0.01660858 -0.00019451
   0.99169632  0.32834193  0.00029648
   0.66334433  0.32980831 -0.00011330
   0.01680684  0.01584335 -0.00021786
   0.33281952  0.31933735 -0.00008258
   0.66230205  0.65275220 -0.00021238
   0.11268609  0.22427778  0.94651957
   0.22223934  0.11161099  0.05538561
   0.11328610  0.56078912  0.94957127
   0.22563152  0.44866648  0.05004593
   0.10869957  0.88379348  0.94939024
   0.21993463  0.77411012  0.04908793
   0.44555711  0.22390150  0.94488846
   0.55845123  0.10790328  0.05279859
   0.44034924  0.55609251  0.94945393
   0.55416294  0.44278100  0.05359937
   0.44687762  0.88735046  0.95051241
   0.55382517  0.78061518  0.04866184
   0.77359098  0.21537699  0.94726328
   0.88221967  0.10618534  0.05181532
   0.78419275  0.55755171  0.94782408
   0.89132205  0.44999275  0.05186839
   0.77589139  0.89135420  0.95138545
   0.89255071  0.77610922  0.04989779
unknown system                          
           1
     8.242316    4.755739    0.000000
    -8.256204    4.779767    0.000000
     0.000000    0.000000   30.000000
   V    Mo   W    S 
   3   3   3  18
Direct configuration=     8
  -0.00318975  0.65875201  0.00008484
   0.66720827  0.01145573 -0.00009311
   0.33020211  0.66730153  0.00041795
   0.33742095  0.01604991 -0.00018723
   0.99255779  0.32826052  0.00031935
   0.66245418  0.32854087 -0.00005663
   0.01488437  0.01398968 -0.00024263
   0.33199977  0.31952769 -0.00000842
   0.66398499  0.65586883 -0.00007353
   0.11226165  0.22371933  0.94643139
   0.22197248  0.11138888  0.05529991
   0.11342145  0.56087005  0.94940000
   0.22567184  0.44892771  0.05042416
   0.10861714  0.88367039  0.94905492
   0.22022631  0.77401437  0.04933664
   0.44529643  0.22379957  0.94488491
   0.55852058  0.10767988  0.05274099
   0.44049023  0.55635334  0.94937472
   0.55435528  0.44318316  0.05339427
   0.44696687  0.88716682  0.95046058
   0.55349851  0.78073511  0.04894225
   0.77351730  0.21516962  0.94731366
   0.88203110  0.10619814  0.05193310
   0.78415961  0.55763528  0.94788572
   0.89128868  0.45017050  0.05184397
   0.77563105  0.89177988  0.95073035
   0.89276527  0.77600562  0.05038778
unknown system                          
           1
     8.254683    4.763129    0.000000
    -8.269355    4.788516    0.000000
     0.000000    0.000000   30.000000
   V    Mo   W    S 
   3   3   3  18
Direct configuration=     9
  -0.00344110  0.65835367  0.00009750
   0.66762818  0.01209192 -0.00012778
   0.32990963  0.66675222  0.00041430
   0.33732640  0.01709177 -0.00021188
   0.99257679  0.32798084  0.00031394
   0.66194000  0.32830721 -0.00015422
   0.01571723  0.01468127 -0.00026463
   0.33167709  0.31876705 -0.00011904
   0.66416201  0.65562986 -0.00016956
   0.11244651  0.22393523  0.94634388
   0.22192368  0.11138013  0.05555451
   0.11314122  0.56057731  0.94946059
   0.22546448  0.44836584  0.05038894
   0.10904319  0.88417988  0.94909563
   0.22054075  0.77450551  0.04919265
   0.44537525  0.22398956  0.94470514
   0.55825737  0.10771117  0.05288664
   0.44048652  0.55587340  0.94948127
   0.55408752  0.44292895  0.05344802
   0.44673912  0.88759817  0.95057332
   0.55362495  0.78080650  0.04887607
   0.77342062  0.21535200  0.94721880
   0.88213012  0.10607315  0.05202900
   0.78402093  0.55735265  0.94799022
   0.89099404  0.44975255  0.05177021
   0.77603684  0.89187662  0.95086811
   0.89298512  0.77630003  0.05033827
unknown system                          
           1
     8.259569    4.765605    0.000000
    -8.275904    4.793872    0.000000
     0.000000    0.000000   30.000000
   V    Mo   W    S 
   3   3   3  18
Direct configuration=    10
  -0.00464422  0.65623048  0.00011697
   0.66691809  0.01308867 -0.00010304
   0.33010382  0.66780988  0.00057090
   0.33765928  0.01789866 -0.00018807
   0.99157971  0.32779016  0.00030078
   0.66255914  0.32918358 -0.00013885
   0.01770139  0.01666129 -0.00021613
   0.33243767  0.31838165 -0.00010580
   0.66243981  0.65255569 -0.00019803
   0.11279055  0.22447839  0.94630937
   0.22220467  0.11164790  0.05572448
   0.11303535  0.56047601  0.94950294
   0.22544795  0.44811472  0.05010151
   0.10914646  0.88426200  0.94931364
   0.22031723  0.77469417  0.04902770
   0.44568542  0.22407111  0.94456897
   0.55824244  0.10794789  0.05295069
   0.44023949  0.55557928  0.94945074
   0.55392343  0.44256543  0.05366768
   0.44667114  0.88779968  0.95057809
   0.55392771  0.78076600  0.04864999
   0.77341304  0.21544384  0.94711042
   0.88223584  0.10605469  0.05197224
   0.78411508  0.55719199  0.94777889
   0.89095147  0.44954413  0.05188958
   0.77626774  0.89155837  0.95141519
   0.89284476  0.77641880  0.04994905
unknown system                          
           1
     8.258274    4.764911    0.000000
    -8.272978    4.790350    0.000000
     0.000000    0.000000   30.000000
   V    Mo   W    S 
   3   3   3  18
Direct configuration=    11
  -0.00559513  0.65453265  0.00015128
   0.66662643  0.01424580 -0.00009117
   0.33010676  0.66824768  0.00068707
   0.33804235  0.01909714 -0.00016696
   0.99082546  0.32742734  0.00028516
   0.66265745  0.32952738 -0.00014573
   0.01946325  0.01843941 -0.00017362
   0.33285305  0.31776672 -0.00012034
   0.66123214  0.65019440 -0.00021719
   0.11308626  0.22493626  0.94620829
   0.22238333  0.11186448  0.05597346
   0.11286478  0.56029000  0.94951586
   0.22536714  0.44772464  0.04991516
   0.10937393  0.88450250  0.94945955
   0.22029588  0.77503794  0.04886232
   0.44594849  0.22421873  0.94435384
   0.55815324  0.10812741  0.05305439
   0.44004514  0.55519240  0.94943314
   0.55370117  0.44222041  0.05384803
   0.44655563  0.88810990  0.95063523
   0.55420039  0.78080518  0.04845988
   0.77334210  0.21552613  0.94697858
   0.88231328  0.10597314  0.05198737
   0.78416563  0.55696124  0.94761794
   0.89076547  0.44920985  0.05197079
   0.77657901  0.89140736  0.95184611
   0.89286185  0.77662836  0.04967146
unknown system                          
           1
     8.258531    4.764711    0.000000
    -8.270712    4.785773    0.000000
     0.000000    0.000000   30.000000
   V    Mo   W    S 
   3   3   3  18
Direct configuration=    12
  -0.00511840  0.65544382  0.00014256
   0.66672291  0.01352432 -0.00008992
   0.33021242  0.66820993  0.00062517
   0.33771564  0.01831646 -0.00017037
   0.99119195  0.32762868  0.00029553
   0.66272721  0.32953549 -0.00012129
   0.01867273  0.01756712 -0.00019533
   0.33266047  0.31808242 -0.00009300
   0.66173485  0.65127316 -0.00017882
   0.11290837  0.22468055  0.94627202
   0.22227901  0.11173367  0.05582082
   0.11296707  0.56040582  0.94951182
   0.22542809  0.44795797  0.05001011
   0.10922909  0.88432275  0.94936194
   0.22029157  0.77483093  0.04896429
   0.44579479  0.22409445  0.94448301
   0.55821179  0.10804567  0.05297373
   0.44012256  0.55540973  0.94943553
   0.55385199  0.44244997  0.05374314
   0.44660704  0.88791188  0.95057488
   0.55402896  0.78076526  0.04857892
   0.77338514  0.21547748  0.94705524
   0.88228394  0.10602430  0.05196763
   0.78415194  0.55709642  0.94768418
   0.89090344  0.44944684  0.05193229
   0.77642482  0.89148454  0.95159198
   0.89282507  0.77649484  0.04982382
unknown system                          
           1
     8.256632    4.764463    0.000000
    -8.272194    4.791388    0.000000
     0.000000    0.000000   30.000000
   V    Mo   W    S 
   3   3   3  18
Direct configuration=    13
  -0.00455136  0.65703372  0.00011985
   0.66669143  0.01182960 -0.00012098
   0.33080231  0.66893154  0.00048087
   0.33669196  0.01664640 -0.00023498
   0.99158380  0.32805322  0.00032153
   0.66323366  0.33026106 -0.00013044
   0.01763811  0.01594927 -0.00030322
   0.33246325  0.31847470 -0.00010962
   0.66246086  0.65275842 -0.00019940
   0.11274427  0.22438333  0.94637588
   0.22211813  0.11144455  0.05569037
   0.11312227  0.56070162  0.94954991
   0.22560697  0.44838048  0.05014159
   0.10891715  0.88389480  0.94913043
   0.22020136  0.77439969  0.04918743
   0.44556002  0.22380501  0.94476135
   0.55829971  0.10796640  0.05279745
   0.44015333  0.55566609  0.94947461
   0.55400579  0.44267054  0.05370199
   0.44661619  0.88756468  0.95038682
   0.55369546  0.78065477  0.04886390
   0.77335990  0.21546087  0.94721961
   0.88228950  0.10600667  0.05191869
   0.78418394  0.55739470  0.94781132
   0.89124054  0.45003210  0.05189812
   0.77636283  0.89156022  0.95117604
   0.89272307  0.77628998  0.05009078
unknown system                          
           1
     8.254148    4.762668    0.000000
    -8.268764    4.787952    0.000000
     0.000000    0.000000   30.000000
   V    Mo   W    S 
   3   3   3  18
Direct configuration=    14
  -0.00587093  0.65468853  0.00016271
   0.66608806  0.01339055 -0.00009372
   0.33105904  0.67010631  0.00070413
   0.33714439  0.01805828 -0.00016383
   0.99025383  0.32747403  0.00033167
   0.66358444  0.33080628 -0.00009231
   0.02010397  0.01838670 -0.00021636
   0.33317385  0.31765591 -0.00005395
   0.66058828  0.64936659 -0.00023500
   0.11320745  0.22509921  0.94629790
   0.22242750  0.11176047  0.05594291
   0.11289377  0.56046569  0.94961551
   0.22552683  0.44791463  0.04973347
   0.10918599  0.88423325  0.94935388
   0.22009890  0.77479973  0.04894667
   0.44599777  0.22400938  0.94448113
   0.55820965  0.10819992  0.05286452
   0.43989941  0.55513509  0.94948388
   0.55367973  0.44216180  0.05393881
   0.44653110  0.88800802  0.95044721
   0.55413274  0.78063316  0.04854094
   0.77328174  0.21555436  0.94707327
   0.88241617  0.10587596  0.05183896
   0.78422662  0.55714593  0.94755906
   0.89102149  0.44953166  0.05202283
   0.77674981  0.89118788  0.95189431
   0.89260285  0.77656514  0.04962132
unknown system                          
           1
     8.264002    4.768260    0.000000
    -8.281153    4.797936    0.000000
     0.000000    0.000000   30.000000
   V    Mo   W    S 
   3   3   3  18
Direct configuration=    15
  -0.00536846  0.65552482  0.00017304
   0.66638970  0.01291212 -0.00008529
   0.33086711  0.66948620  0.00064458
   0.33696321  0.01768303 -0.00014218
   0.99082348  0.32766329  0.00034476
   0.66335473  0.33053379 -0.00006969
   0.01930455  0.01759940 -0.00021212
   0.33282123  0.31786261 -0.00002991
   0.66128453  0.65061198 -0.00018244
   0.11302829  0.22484636  0.94630463
   0.22230720  0.11167103  0.05582603
   0.11293658  0.56050990  0.94958897
   0.22552880  0.44801635  0.04987495
   0.10912322  0.88416118  0.94927162
   0.22019322  0.77470423  0.04899153
   0.44584672  0.22396588  0.94453600
   0.55821323  0.10812748  0.05281327
   0.44001809  0.55529835  0.94948085
   0.55377050  0.44235513  0.05381316
   0.44653467  0.88789373  0.95045454
   0.55397663  0.78062555  0.04862417
   0.77331484  0.21553814  0.94712318
   0.88240237  0.10593065  0.05185452
   0.78421064  0.55722024  0.94763777
   0.89105877  0.44964989  0.05194936
   0.77664600  0.89132926  0.95164094
   0.89266462  0.77649384  0.04977365
unknown system                          
           1
     8.262020    4.768001    0.000000
    -8.280869    4.800625    0.000000
     0.000000    0.000000   30.000000
   V    Mo   W    S 
   3   3   3  18
Direct configuration=    16
  -0.00657518  0.65346647  0.00013044
   0.66587713  0.01424116 -0.00013244
   0.33101775  0.67027469  0.00074565
   0.33757726  0.01893617 -0.00024759
   0.98973758  0.32722722  0.00026725
   0.66363215  0.33100536 -0.00019670
   0.02112594  0.01955131 -0.00025892
   0.33355401  0.31741685 -0.00017838
   0.65975847  0.64773013 -0.00033342
   0.11344229  0.22539634  0.94625856
   0.22256469  0.11191542  0.05620338
   0.11280689  0.56036282  0.94962106
   0.22548929  0.44768466  0.04963989
   0.10933026  0.88441354  0.94949154
   0.22004508  0.77502064  0.04886219
   0.44618446  0.22413419  0.94438985
   0.55818781  0.10831154  0.05300157
   0.43979041  0.55489271  0.94948049
   0.55352096  0.44188024  0.05414198
   0.44648580  0.88821617  0.95051580
   0.55435964  0.78068833  0.04841679
   0.77321625  0.21559118  0.94700388
   0.88242352  0.10580064  0.05188615
   0.78424691  0.55699612  0.94747612
   0.89087553  0.44928129  0.05213368
   0.77691739  0.89105804  0.95223707
   0.89262218  0.77672123  0.04944403
unknown system                          
           1
     8.262165    4.768916    0.000000
    -8.283271    4.805458    0.000000
     0.000000    0.000000   30.000000
   V    Mo   W    S 
   3   3   3  18
Direct configuration=    17
  -0.00740740  0.65195210  0.00014384
   0.66533933  0.01514286 -0.00010599
   0.33122698  0.67119549  0.00088980
   0.33800256  0.01964806 -0.00020132
   0.98880674  0.32696316  0.00029054
   0.66397487  0.33134336 -0.00016238
   0.02244536  0.02091420 -0.00019240
   0.33415464  0.31707963 -0.00013014
   0.65860570  0.64565053 -0.00037315
   0.11372907  0.22582967  0.94623763
   0.22278227  0.11210229  0.05628194
   0.11274429  0.56027248  0.94965952
   0.22546465  0.44750443  0.04936731
   0.10943007  0.88454036  0.94966206
   0.21988243  0.77517050  0.04874027
   0.44646183  0.22424139  0.94426373
   0.55818247  0.10844322  0.05305444
   0.43960270  0.55465126  0.94947138
   0.55339235  0.44156851  0.05427515
   0.44650418  0.88840367  0.95051127
   0.55462785  0.78068410  0.04823150
   0.77319075  0.21562277  0.94689970
   0.88246479  0.10576237  0.05182418
   0.78425872  0.55685665  0.94733680
   0.89080550  0.44905256  0.05220534
   0.77703979  0.89080929  0.95267925
   0.89250194  0.77680955  0.04913963
unknown system                          
           1
     8.267470    4.772737    0.000000
    -8.290348    4.812354    0.000000
     0.000000    0.000000   30.000000
   V    Mo   W    S 
   3   3   3  18
Direct configuration=    18
  -0.00844755  0.65006277  0.00014447
   0.66465686  0.01625899 -0.00008154
   0.33144432  0.67224114  0.00105947
   0.33862495  0.02056600 -0.00016286
   0.98768289  0.32665784  0.00030097
   0.66433474  0.33169910 -0.00014163
   0.02397013  0.02254880 -0.00012223
   0.33493177  0.31672828 -0.00009859
   0.65724908  0.64316607 -0.00044113
   0.11409802  0.22637345  0.94621259
   0.22306268  0.11234490  0.05640599
   0.11267369  0.56015514  0.94969830
   0.22543441  0.44727448  0.04904374
   0.10955603  0.88469995  0.94988917
   0.21966756  0.77536537  0.04859381
   0.44682041  0.22439789  0.94410824
   0.55818614  0.10861445  0.05314644
   0.43936429  0.55434476  0.94945706
   0.55322743  0.44115205  0.05445794
   0.44653876  0.88865112  0.95051423
   0.55497567  0.78069530  0.04799957
   0.77315254  0.21566433  0.94676760
   0.88249870  0.10571555  0.05176514
   0.78427067  0.55665868  0.94716641
   0.89069229  0.44874700  0.05231151
   0.77717435  0.89050409  0.95323980
   0.89237365  0.77692697  0.04876543
unknown system                          
           1
     8.269588    4.776607    0.000000
    -8.297538    4.825032    0.000000
     0.000000    0.000000   30.000000
   V    Mo   W    S 
   3   3   3  18
Direct configuration=    19
  -0.00924443  0.64864249  0.00009990
   0.66403820  0.01699893 -0.00009090
   0.33171763  0.67326650  0.00116997
   0.33916440  0.02112402 -0.00019391
   0.98670996  0.32642766  0.00026722
   0.66464662  0.33193895 -0.00017814
   0.02494538  0.02365105 -0.00011873
   0.33563576  0.31655510 -0.00013999
   0.65629659  0.64143819 -0.00054962
   0.11440550  0.22680683  0.94622560
   0.22331091  0.11250985  0.05656152
   0.11264618  0.56007991  0.94973109
   0.22543097  0.44714308  0.04878831
   0.10963841  0.88478927  0.95007582
   0.21943658  0.77549739  0.04853095
   0.44710822  0.22450434  0.94402551
   0.55820294  0.10873746  0.05327037
   0.43914745  0.55410798  0.94945654
   0.55311019  0.44078911  0.05465383
   0.44660024  0.88883373  0.95048902
   0.55526133  0.78073013  0.04784778
   0.77312507  0.21568916  0.94666828
   0.88247684  0.10566802  0.05174421
   0.78427907  0.55648520  0.94704214
   0.89061511  0.44853178  0.05244836
   0.77723387  0.89026228  0.95367948
   0.89227548  0.77700604  0.04849529
unknown system                          
           1
     8.284201    4.786957    0.000000
    -8.312509    4.836021    0.000000
     0.000000    0.000000   30.000000
   V    Mo   W    S 
   3   3   3  18
Direct configuration=    20
  -0.01201966  0.64369132 -0.00003262
   0.66183550  0.01906290 -0.00006596
   0.33256778  0.67686572  0.00160375
   0.34093015  0.02298578 -0.00017505
   0.98346823  0.32594998  0.00022883
   0.66564069  0.33280791 -0.00017136
   0.02812088  0.02718489  0.00002462
   0.33808695  0.31584987 -0.00011347
   0.65352415  0.63607431 -0.00083714
   0.11543310  0.22827152  0.94630600
   0.22419490  0.11311114  0.05687014
   0.11253984  0.55980789  0.94986801
   0.22540764  0.44671345  0.04779816
   0.10985932  0.88498954  0.95076573
   0.21853230  0.77589488  0.04827818
   0.44813449  0.22487141  0.94373224
   0.55818703  0.10923029  0.05363256
   0.43840976  0.55332076  0.94948209
   0.55277907  0.43959075  0.05513430
   0.44679370  0.88944416  0.95036428
   0.55620291  0.78076047  0.04729512
   0.77309769  0.21587254  0.94630820
   0.88249720  0.10563875  0.05159583
   0.78431376  0.55583058  0.94664761
   0.89034355  0.44782418  0.05280677
   0.77737829  0.88937510  0.95515664
   0.89195524  0.77719438  0.04749645
unknown system                          
           1
     8.290847    4.796734    0.000000
    -8.319611    4.846650    0.000000
     0.000000    0.000000   30.000000
   V    Mo   W    S 
   3   3   3  18
Direct configuration=    21
  -0.01353191  0.64120304 -0.00018932
   0.66046480  0.01983304 -0.00006615
   0.33350983  0.67964095  0.00184641
   0.34233711  0.02369048 -0.00014494
   0.98129368  0.32549066  0.00016082
   0.66586178  0.33269683 -0.00014948
   0.02918417  0.02859789  0.00011864
   0.33975691  0.31583841 -0.00008625
   0.65253165  0.63403812 -0.00101061
   0.11607338  0.22918582  0.94641347
   0.22482434  0.11344016  0.05705672
   0.11263177  0.55963659  0.94992436
   0.22548648  0.44665071  0.04710137
   0.10981450  0.88480732  0.95118636
   0.21775952  0.77611210  0.04824665
   0.44887447  0.22505715  0.94354950
   0.55819654  0.10953258  0.05386434
   0.43788569  0.55284863  0.94952109
   0.55272470  0.43893047  0.05538548
   0.44699850  0.88980608  0.95021082
   0.55677836  0.78086872  0.04702609
   0.77296267  0.21583943  0.94610589
   0.88233392  0.10570353  0.05151713
   0.78429921  0.55530749  0.94638491
   0.89003586  0.44734497  0.05312024
   0.77726687  0.88891761  0.95595822
   0.89185966  0.77719568  0.04694814
unknown system                          
           1
     8.302069    4.805449    0.000000
    -8.325618    4.846373    0.000000
     0.000000    0.000000   30.000000
   V    Mo   W    S 
   3   3   3  18
Direct configuration=    22
  -0.01707941  0.63523354 -0.00054178
   0.65745222  0.02150619 -0.00004721
   0.33574997  0.68628966  0.00243297
   0.34526165  0.02542416 -0.00005424
   0.97630334  0.32443823  0.00006403
   0.66646973  0.33272344 -0.00009570
   0.03216981  0.03223301  0.00035184
   0.34348608  0.31544352  0.00001392
   0.65011165  0.62896714 -0.00140319
   0.11749200  0.23110737  0.94677625
   0.22619175  0.11419818  0.05729366
   0.11276004  0.55920774  0.95016569
   0.22561324  0.44651094  0.04536008
   0.10975776  0.88452495  0.95227505
   0.21604681  0.77660506  0.04808360
   0.45041568  0.22539233  0.94323002
   0.55815160  0.11020386  0.05436409
   0.43688761  0.55186829  0.94970525
   0.55269283  0.43758066  0.05583193
   0.44743188  0.89068766  0.94986874
   0.55805131  0.78106476  0.04637829
   0.77260430  0.21576072  0.94565685
   0.88202397  0.10587739  0.05127629
   0.78409376  0.55402395  0.94589915
   0.88932873  0.44622094  0.05366531
   0.77711728  0.88795867  0.95781100
   0.89162888  0.77716212  0.04563802
unknown system                          
           1
     8.301641    4.807473    0.000000
    -8.323627    4.845715    0.000000
     0.000000    0.000000   30.000000
   V    Mo   W    S 
   3   3   3  18
Direct configuration=    23
  -0.01717325  0.63531480 -0.00063991
   0.65762461  0.02091241 -0.00005685
   0.33644082  0.68746118  0.00243016
   0.34528069  0.02502539 -0.00000778
   0.97621963  0.32414861  0.00003378
   0.66610605  0.33230694 -0.00008209
   0.03177236  0.03182450  0.00041203
   0.34357172  0.31577360  0.00005607
   0.65087901  0.62983078 -0.00137355
   0.11759880  0.23123261  0.94687904
   0.22637306  0.11423499  0.05725542
   0.11290848  0.55912155  0.95024079
   0.22565132  0.44684500  0.04502730
   0.10948727  0.88412324  0.95243372
   0.21567875  0.77670980  0.04817375
   0.45051578  0.22519809  0.94322105
   0.55805263  0.11024291  0.05444947
   0.43687330  0.55195681  0.94975458
   0.55295736  0.43771230  0.05578482
   0.44743542  0.89077682  0.94973163
   0.55811662  0.78113100  0.04644186
   0.77229785  0.21552075  0.94557896
   0.88180664  0.10592421  0.05130405
   0.78391713  0.55372345  0.94586711
   0.88905372  0.44606575  0.05370121
   0.77701551  0.88814464  0.95778030
   0.89175321  0.77695232  0.04560300
unknown system                          
           1
     8.308052    4.812966    0.000000
    -8.328450    4.848481    0.000000
     0.000000    0.000000   30.000000
   V    Mo   W    S 
   3   3   3  18
Direct configuration=    24
  -0.01783270  0.63424361 -0.00076050
   0.65724033  0.02089699 -0.00003744
   0.33742671  0.68965780  0.00250627
   0.34583819  0.02509429  0.00005317
   0.97505882  0.32359320 -0.00001660
   0.66595049  0.33206329 -0.00007493
   0.03211575  0.03235167  0.00050896
   0.34434164  0.31578113  0.00005154
   0.65081312  0.62932884 -0.00145382
   0.11786763  0.23150992  0.94703256
   0.22665297  0.11439417  0.05724851
   0.11302419  0.55900029  0.95036493
   0.22572157  0.44716067  0.04449127
   0.10925403  0.88377953  0.95273416
   0.21518281  0.77681489  0.04818582
   0.45068301  0.22508274  0.94323046
   0.55797628  0.11027918  0.05452405
   0.43691024  0.55203195  0.94988322
   0.55316797  0.43767618  0.05579796
   0.44749772  0.89098823  0.94958968