   27   27  100    1
  0.9710400E+02  0.1002848E-08  0.1002848E-08  0.3000000E-08  0.5000000E-15
  1.000000000000000E-004
  CAR 
 unknown system                          
    159     34    120
 
  0.0000000E+00  0.0000000E+00  0.0000000E+00  0.1562500E-01
    1      -17.822801   1.000000
    2      -16.756397   1.000000
    3      -16.628448   1.000000
    4      -16.619045   1.000000
    5      -16.493698   1.000000
    6      -16.478030   1.000000
    7      -16.400766   1.000000
    8      -16.313056   1.000000
    9      -16.190021   1.000000
   10      -16.144990   1.000000
   11      -16.076572   1.000000
   12      -15.942505   1.000000
   13      -15.915907   1.000000
   14      -15.758242   1.000000
   15      -15.553056   1.000000
   16      -15.475151   1.000000
   17      -15.334131   1.000000
   18      -15.197621   1.000000
   19       -9.349051   1.000000
   20       -8.958767   1.000000
   21       -8.912675   1.000000
   22       -8.887229   1.000000
   23       -8.772590   1.000000
   24       -8.742680   1.000000
   25       -8.637442   1.000000
   26       -8.581102   1.000000
   27       -8.472106   1.000000
   28       -8.439097   1.000000
   29       -8.402094   1.000000
   30       -8.366276   1.000000
   31       -8.275137   1.000000
   32       -8.229722   1.000000
   33       -8.183954   1.000000
   34       -8.132175   1.000000
   35       -7.850441   1.000000
   36       -7.765211   1.000000
   37       -7.679889   1.000000
   38       -7.550519   1.000000
   39       -7.470506   1.000000
   40       -7.415730   1.000000
   41       -7.339278   1.000000
   42       -7.195135   1.000000
   43       -7.129008   1.000000
   44       -7.010697   1.000000
   45       -6.826435   1.000000
   46       -6.755749   1.000000
   47       -6.744874   1.000000
   48       -6.647063   1.000000
   49       -6.606552   1.000000
   50       -6.467877   1.000000
   51       -6.432439   1.000000
   52       -6.375363   1.000000
   53       -6.267648   1.000000
   54       -6.182896   1.000000
   55       -6.141553   1.000000
   56       -6.104298   1.000000
   57       -5.980217   1.000000
   58       -5.903926   1.000000
   59       -5.849861   1.000000
   60       -5.629978   1.000000
   61       -5.481918   1.000000
   62       -5.398139   1.000000
   63       -5.228705   1.000000
   64       -5.179688   1.000000
   65       -5.046972   1.000000
   66       -4.998751   1.000000
   67       -4.947850   1.000000
   68       -4.914363   1.000000
   69       -4.769326   1.000000
   70       -4.715756   1.000000
   71       -4.632646   1.000000
   72       -4.595609   1.000000
   73       -4.418479   1.000000
   74       -4.316366   1.000000
   75       -4.217602   1.000000
   76       -3.951461   0.999996
   77       -3.773216   0.999384
   78       -3.561463   0.958565
   79       -3.453704   0.834550
   80       -3.369657   0.647284
   81       -3.264245   0.356671
   82       -2.890156   0.001295
   83       -2.750169   0.000031
   84       -2.662539   0.000002
   85       -2.585694   0.000000
   86       -2.444646   0.000000
   87       -2.367210   0.000000
   88       -2.284601   0.000000
   89       -2.178106   0.000000
   90       -1.903912   0.000000
   91       -1.774600   0.000000
   92       -1.503009   0.000000
   93       -1.362318   0.000000
   94       -1.288774   0.000000
   95       -1.163767   0.000000
   96       -0.994821   0.000000
   97       -0.988434   0.000000
   98       -0.940325   0.000000
   99       -0.852517   0.000000
  100       -0.687098   0.000000
  101       -0.616925   0.000000
  102       -0.536583   0.000000
  103       -0.470014   0.000000
  104       -0.299346   0.000000
  105       -0.150617   0.000000
  106       -0.112923   0.000000
  107       -0.069715   0.000000
  108       -0.003286   0.000000
  109        0.115822   0.000000
  110        0.162946   0.000000
  111        0.431113   0.000000
  112        0.538742   0.000000
  113        0.581674   0.000000
  114        0.735561   0.000000
  115        0.927114   0.000000
  116        0.984237   0.000000
  117        1.305664   0.000000
  118        1.638513   0.000000
  119        1.835913   0.000000
  120        2.154909   0.000000
 
  0.1250000E+00  0.2775558E-16  0.0000000E+00  0.3125000E-01
    1      -17.797667   1.000000
    2      -16.819747   1.000000
    3      -16.697588   1.000000
    4      -16.614648   1.000000
    5      -16.554355   1.000000
    6      -16.395662   1.000000
    7      -16.365192   1.000000
    8      -16.313516   1.000000
    9      -16.259251   1.000000
   10      -16.082203   1.000000
   11      -16.014454   1.000000
   12      -15.953820   1.000000
   13      -15.883567   1.000000
   14      -15.749197   1.000000
   15      -15.560524   1.000000
   16      -15.475774   1.000000
   17      -15.346958   1.000000
   18      -15.204485   1.000000
   19       -9.358357   1.000000
   20       -9.154894   1.000000
   21       -9.024932   1.000000
   22       -8.951484   1.000000
   23       -8.769121   1.000000
   24       -8.740134   1.000000
   25       -8.648553   1.000000
   26       -8.545655   1.000000
   27       -8.506309   1.000000
   28       -8.429966   1.000000
   29       -8.361824   1.000000
   30       -8.312313   1.000000
   31       -8.242148   1.000000
   32       -8.131476   1.000000
   33       -8.066738   1.000000
   34       -7.965398   1.000000
   35       -7.872713   1.000000
   36       -7.735604   1.000000
   37       -7.659177   1.000000
   38       -7.604024   1.000000
   39       -7.463753   1.000000
   40       -7.402363   1.000000
   41       -7.296082   1.000000
   42       -7.232978   1.000000
   43       -7.122117   1.000000
   44       -7.004096   1.000000
   45       -6.911141   1.000000
   46       -6.769771   1.000000
   47       -6.729509   1.000000
   48       -6.640663   1.000000
   49       -6.600126   1.000000
   50       -6.457450   1.000000
   51       -6.410661   1.000000
   52       -6.370241   1.000000
   53       -6.300385   1.000000
   54       -6.217669   1.000000
   55       -6.156966   1.000000
   56       -6.071795   1.000000
   57       -5.991790   1.000000
   58       -5.899893   1.000000
   59       -5.798496   1.000000
   60       -5.559744   1.000000
   61       -5.463301   1.000000
   62       -5.437648   1.000000
   63       -5.313979   1.000000
   64       -5.211542   1.000000
   65       -5.181419   1.000000
   66       -5.049525   1.000000
   67       -4.970321   1.000000
   68       -4.882127   1.000000
   69       -4.816474   1.000000
   70       -4.658530   1.000000
   71       -4.622199   1.000000
   72       -4.501096   1.000000
   73       -4.450699   1.000000
   74       -4.226831   1.000000
   75       -4.175398   1.000000
   76       -3.899800   0.999982
   77       -3.793311   0.999629
   78       -3.674882   0.994398
   79       -3.609919   0.981095
   80       -3.378595   0.670466
   81       -3.107642   0.070143
   82       -2.887994   0.001231
   83       -2.721247   0.000013
   84       -2.669123   0.000002
   85       -2.584911   0.000000
   86       -2.418300   0.000000
   87       -2.356679   0.000000
   88       -2.274762   0.000000
   89       -2.172600   0.000000
   90       -1.891362   0.000000
   91       -1.771133   0.000000
   92       -1.484987   0.000000
   93       -1.388635   0.000000
   94       -1.264902   0.000000
   95       -1.155690   0.000000
   96       -1.009515   0.000000
   97       -0.982175   0.000000
   98       -0.947137   0.000000
   99       -0.846420   0.000000
  100       -0.746269   0.000000
  101       -0.675402   0.000000
  102       -0.597481   0.000000
  103       -0.520925   0.000000
  104       -0.377062   0.000000
  105       -0.275144   0.000000
  106       -0.174756   0.000000
  107       -0.065194   0.000000
  108        0.039830   0.000000
  109        0.140352   0.000000
  110        0.194184   0.000000
  111        0.449410   0.000000
  112        0.591680   0.000000
  113        0.637047   0.000000
  114        0.738771   0.000000
  115        0.938458   0.000000
  116        0.992587   0.000000
  117        1.272088   0.000000
  118        1.681497   0.000000
  119        1.874348   0.000000
  120        2.189995   0.000000
 
  0.2500000E+00  0.5551115E-16  0.0000000E+00  0.3125000E-01
    1      -17.723534   1.000000
    2      -17.012360   1.000000
    3      -16.706204   1.000000
    4      -16.650403   1.000000
    5      -16.614695   1.000000
    6      -16.396718   1.000000
    7      -16.322138   1.000000
    8      -16.284818   1.000000
    9      -16.207611   1.000000
   10      -16.087867   1.000000
   11      -15.961970   1.000000
   12      -15.880844   1.000000
   13      -15.844470   1.000000
   14      -15.718580   1.000000
   15      -15.572194   1.000000
   16      -15.475193   1.000000
   17      -15.373654   1.000000
   18      -15.226450   1.000000
   19       -9.554589   1.000000
   20       -9.250581   1.000000
   21       -9.163639   1.000000
   22       -9.048391   1.000000
   23       -8.854348   1.000000
   24       -8.746378   1.000000
   25       -8.639277   1.000000
   26       -8.571440   1.000000
   27       -8.490606   1.000000
   28       -8.398903   1.000000
   29       -8.278871   1.000000
   30       -8.232881   1.000000
   31       -8.147650   1.000000
   32       -8.071225   1.000000
   33       -7.973695   1.000000
   34       -7.871005   1.000000
   35       -7.726698   1.000000
   36       -7.678320   1.000000
   37       -7.597468   1.000000
   38       -7.508786   1.000000
   39       -7.461093   1.000000
   40       -7.415278   1.000000
   41       -7.306095   1.000000
   42       -7.166805   1.000000
   43       -7.085290   1.000000
   44       -7.053530   1.000000
   45       -6.896537   1.000000
   46       -6.808171   1.000000
   47       -6.765440   1.000000
   48       -6.681792   1.000000
   49       -6.542921   1.000000
   50       -6.492523   1.000000
   51       -6.390965   1.000000
   52       -6.321986   1.000000
   53       -6.294077   1.000000
   54       -6.226723   1.000000
   55       -6.169498   1.000000
   56       -6.046999   1.000000
   57       -5.944481   1.000000
   58       -5.895081   1.000000
   59       -5.734966   1.000000
   60       -5.669871   1.000000
   61       -5.613409   1.000000
   62       -5.530673   1.000000
   63       -5.413428   1.000000
   64       -5.301945   1.000000
   65       -5.197001   1.000000
   66       -5.130860   1.000000
   67       -4.993649   1.000000
   68       -4.886055   1.000000
   69       -4.790963   1.000000
   70       -4.642067   1.000000
   71       -4.504306   1.000000
   72       -4.478811   1.000000
   73       -4.328556   1.000000
   74       -4.207504   1.000000
   75       -4.131101   1.000000
   76       -3.984060   0.999999
   77       -3.902708   0.999983
   78       -3.737936   0.998569
   79       -3.620917   0.984407
   80       -3.373778   0.658047
   81       -2.980220   0.008757
   82       -2.884554   0.001136
   83       -2.688504   0.000005
   84       -2.659686   0.000002
   85       -2.572516   0.000000
   86       -2.390294   0.000000
   87       -2.319859   0.000000
   88       -2.262751   0.000000
   89       -2.120132   0.000000
   90       -1.869675   0.000000
   91       -1.744640   0.000000
   92       -1.480631   0.000000
   93       -1.394210   0.000000
   94       -1.232279   0.000000
   95       -1.158814   0.000000
   96       -1.069757   0.000000
   97       -1.001939   0.000000
   98       -0.943677   0.000000
   99       -0.893148   0.000000
  100       -0.844901   0.000000
  101       -0.778338   0.000000
  102       -0.718273   0.000000
  103       -0.622711   0.000000
  104       -0.493853   0.000000
  105       -0.354421   0.000000
  106       -0.336194   0.000000
  107       -0.127504   0.000000
  108       -0.032731   0.000000
  109        0.212094   0.000000
  110        0.268345   0.000000
  111        0.475218   0.000000
  112        0.608173   0.000000
  113        0.687723   0.000000
  114        0.802377   0.000000
  115        0.965443   0.000000
  116        1.068628   0.000000
  117        1.252793   0.000000
  118        1.803119   0.000000
  119        1.985403   0.000000
  120        2.294254   0.000000
 
  0.3750000E+00  0.0000000E+00  0.0000000E+00  0.3125000E-01
    1      -17.605743   1.000000
    2      -17.222064   1.000000
    3      -16.707290   1.000000
    4      -16.680383   1.000000
    5      -16.648633   1.000000
    6      -16.441137   1.000000
    7      -16.276290   1.000000
    8      -16.245187   1.000000
    9      -16.175096   1.000000
   10      -16.066052   1.000000
   11      -15.913728   1.000000
   12      -15.857513   1.000000
   13      -15.814569   1.000000
   14      -15.687087   1.000000
   15      -15.593446   1.000000
   16      -15.448031   1.000000
   17      -15.384133   1.000000
   18      -15.263668   1.000000
   19       -9.763033   1.000000
   20       -9.354703   1.000000
   21       -9.211724   1.000000
   22       -9.002785   1.000000
   23       -8.921420   1.000000
   24       -8.799117   1.000000
   25       -8.622730   1.000000
   26       -8.547384   1.000000
   27       -8.498729   1.000000
   28       -8.344484   1.000000
   29       -8.275787   1.000000
   30       -8.209747   1.000000
   31       -8.127372   1.000000
   32       -8.032526   1.000000
   33       -7.933062   1.000000
   34       -7.795677   1.000000
   35       -7.733363   1.000000
   36       -7.681642   1.000000
   37       -7.618260   1.000000
   38       -7.501121   1.000000
   39       -7.345777   1.000000
   40       -7.293888   1.000000
   41       -7.162582   1.000000
   42       -7.122054   1.000000
   43       -7.053780   1.000000
   44       -6.989668   1.000000
   45       -6.882040   1.000000
   46       -6.815843   1.000000
   47       -6.738238   1.000000
   48       -6.655455   1.000000
   49       -6.558675   1.000000
   50       -6.434423   1.000000
   51       -6.375049   1.000000
   52       -6.316664   1.000000
   53       -6.241676   1.000000
   54       -6.200593   1.000000
   55       -6.146012   1.000000
   56       -6.034994   1.000000
   57       -6.010073   1.000000
   58       -5.940787   1.000000
   59       -5.914234   1.000000
   60       -5.804970   1.000000
   61       -5.667447   1.000000
   62       -5.630933   1.000000
   63       -5.527203   1.000000
   64       -5.295728   1.000000
   65       -5.233952   1.000000
   66       -5.085210   1.000000
   67       -4.987305   1.000000
   68       -4.867681   1.000000
   69       -4.747687   1.000000
   70       -4.714568   1.000000
   71       -4.541037   1.000000
   72       -4.463273   1.000000
   73       -4.347150   1.000000
   74       -4.207617   1.000000
   75       -4.124694   1.000000
   76       -4.024325   1.000000
   77       -3.862683   0.999944
   78       -3.718187   0.997762
   79       -3.535712   0.939691
   80       -3.403698   0.731946
   81       -2.912514   0.002155
   82       -2.864144   0.000695
   83       -2.700123   0.000007
   84       -2.661086   0.000002
   85       -2.529559   0.000000
   86       -2.381629   0.000000
   87       -2.280516   0.000000
   88       -2.236196   0.000000
   89       -2.051178   0.000000
   90       -1.841945   0.000000
   91       -1.697561   0.000000
   92       -1.516358   0.000000
   93       -1.374261   0.000000
   94       -1.239918   0.000000
   95       -1.216615   0.000000
   96       -1.118879   0.000000
   97       -1.070282   0.000000
   98       -0.995424   0.000000
   99       -0.920630   0.000000
  100       -0.892550   0.000000
  101       -0.821359   0.000000
  102       -0.794051   0.000000
  103       -0.699915   0.000000
  104       -0.574330   0.000000
  105       -0.515461   0.000000
  106       -0.359384   0.000000
  107       -0.202891   0.000000
  108       -0.068445   0.000000
  109        0.189284   0.000000
  110        0.303169   0.000000
  111        0.479556   0.000000
  112        0.567641   0.000000
  113        0.714220   0.000000
  114        0.879579   0.000000
  115        0.983953   0.000000
  116        1.167569   0.000000
  117        1.307199   0.000000
  118        1.987196   0.000000
  119        2.159855   0.000000
  120        2.465060   0.000000
 
  0.5000000E+00  0.1110223E-15  0.0000000E+00  0.1562500E-01
    1      -17.493606   1.000000
    2      -17.367113   1.000000
    3      -16.705891   1.000000
    4      -16.699405   1.000000
    5      -16.652203   1.000000
    6      -16.457829   1.000000
    7      -16.253861   1.000000
    8      -16.231908   1.000000
    9      -16.186097   1.000000
   10      -16.030273   1.000000
   11      -15.882990   1.000000
   12      -15.880082   1.000000
   13      -15.790000   1.000000
   14      -15.678745   1.000000
   15      -15.618169   1.000000
   16      -15.430905   1.000000
   17      -15.362016   1.000000
   18      -15.296476   1.000000
   19       -9.839733   1.000000
   20       -9.396619   1.000000
   21       -9.242754   1.000000
   22       -8.958059   1.000000
   23       -8.888960   1.000000
   24       -8.834217   1.000000
   25       -8.678818   1.000000
   26       -8.548202   1.000000
   27       -8.483715   1.000000
   28       -8.357516   1.000000
   29       -8.252542   1.000000
   30       -8.151579   1.000000
   31       -8.114675   1.000000
   32       -8.020285   1.000000
   33       -7.904218   1.000000
   34       -7.858646   1.000000
   35       -7.769456   1.000000
   36       -7.679178   1.000000
   37       -7.620708   1.000000
   38       -7.512383   1.000000
   39       -7.312348   1.000000
   40       -7.287123   1.000000
   41       -7.107183   1.000000
   42       -7.067070   1.000000
   43       -6.978446   1.000000
   44       -6.900374   1.000000
   45       -6.887583   1.000000
   46       -6.751852   1.000000
   47       -6.655660   1.000000
   48       -6.596517   1.000000
   49       -6.535950   1.000000
   50       -6.488537   1.000000
   51       -6.405552   1.000000
   52       -6.380915   1.000000
   53       -6.305426   1.000000
   54       -6.208092   1.000000
   55       -6.186067   1.000000
   56       -6.096779   1.000000
   57       -6.019783   1.000000
   58       -5.937572   1.000000
   59       -5.907424   1.000000
   60       -5.789602   1.000000
   61       -5.689034   1.000000
   62       -5.556467   1.000000
   63       -5.514276   1.000000
   64       -5.436367   1.000000
   65       -5.286562   1.000000
   66       -5.063979   1.000000
   67       -4.994052   1.000000
   68       -4.931352   1.000000
   69       -4.813132   1.000000
   70       -4.648937   1.000000
   71       -4.539743   1.000000
   72       -4.456116   1.000000
   73       -4.334040   1.000000
   74       -4.281398   1.000000
   75       -4.108516   1.000000
   76       -3.981968   0.999999
   77       -3.818463   0.999809
   78       -3.693138   0.996155
   79       -3.536301   0.940187
   80       -3.406613   0.738693
   81       -2.886802   0.001198
   82       -2.846039   0.000443
   83       -2.727635   0.000016
   84       -2.658419   0.000002
   85       -2.510729   0.000000
   86       -2.372996   0.000000
   87       -2.265674   0.000000
   88       -2.221468   0.000000
   89       -2.021708   0.000000
   90       -1.825788   0.000000
   91       -1.671822   0.000000
   92       -1.533291   0.000000
   93       -1.372778   0.000000
   94       -1.292109   0.000000
   95       -1.240072   0.000000
   96       -1.119328   0.000000
   97       -1.083494   0.000000
   98       -1.039552   0.000000
   99       -0.933984   0.000000
  100       -0.909889   0.000000
  101       -0.832315   0.000000
  102       -0.797776   0.000000
  103       -0.712851   0.000000
  104       -0.633880   0.000000
  105       -0.573767   0.000000
  106       -0.357017   0.000000
  107       -0.226833   0.000000
  108       -0.087123   0.000000
  109        0.167211   0.000000
  110        0.312140   0.000000
  111        0.467579   0.000000
  112        0.558050   0.000000
  113        0.725480   0.000000
  114        0.899505   0.000000
  115        0.995704   0.000000
  116        1.208278   0.000000
  117        1.341780   0.000000
  118        2.205320   0.000000
  119        2.242493   0.000000
  120        2.369261   0.000000
 
  0.0000000E+00  0.1250000E+00  0.0000000E+00  0.3125000E-01
    1      -17.799153   1.000000
    2      -16.795859   1.000000
    3      -16.694143   1.000000
    4      -16.636354   1.000000
    5      -16.558855   1.000000
    6      -16.461232   1.000000
    7      -16.348059   1.000000
    8      -16.285436   1.000000
    9      -16.178885   1.000000
   10      -16.128794   1.000000
   11      -16.036646   1.000000
   12      -15.929491   1.000000
   13      -15.892581   1.000000
   14      -15.749121   1.000000
   15      -15.570300   1.000000
   16      -15.487260   1.000000
   17      -15.336067   1.000000
   18      -15.201250   1.000000
   19       -9.348220   1.000000
   20       -9.100860   1.000000
   21       -9.016190   1.000000
   22       -8.951773   1.000000
   23       -8.852521   1.000000
   24       -8.782950   1.000000
   25       -8.632972   1.000000
   26       -8.581223   1.000000
   27       -8.461218   1.000000
   28       -8.445255   1.000000
   29       -8.361511   1.000000
   30       -8.289409   1.000000
   31       -8.197651   1.000000
   32       -8.114864   1.000000
   33       -8.085043   1.000000
   34       -8.020548   1.000000
   35       -7.807159   1.000000
   36       -7.734597   1.000000
   37       -7.657367   1.000000
   38       -7.567022   1.000000
   39       -7.524247   1.000000
   40       -7.438786   1.000000
   41       -7.291367   1.000000
   42       -7.198839   1.000000
   43       -7.126094   1.000000
   44       -7.042406   1.000000
   45       -6.898351   1.000000
   46       -6.772079   1.000000
   47       -6.721798   1.000000
   48       -6.663115   1.000000
   49       -6.525941   1.000000
   50       -6.457503   1.000000
   51       -6.425588   1.000000
   52       -6.366454   1.000000
   53       -6.314357   1.000000
   54       -6.214642   1.000000
   55       -6.127177   1.000000
   56       -6.087911   1.000000
   57       -6.014908   1.000000
   58       -5.890964   1.000000
   59       -5.807173   1.000000
   60       -5.605274   1.000000
   61       -5.462060   1.000000
   62       -5.430338   1.000000
   63       -5.347383   1.000000
   64       -5.260041   1.000000
   65       -5.119786   1.000000
   66       -5.035583   1.000000
   67       -4.912824   1.000000
   68       -4.868246   1.000000
   69       -4.839561   1.000000
   70       -4.694398   1.000000
   71       -4.588223   1.000000
   72       -4.532373   1.000000
   73       -4.440911   1.000000
   74       -4.199911   1.000000
   75       -4.155952   1.000000
   76       -4.002028   0.999999
   77       -3.779985   0.999480
   78       -3.669141   0.993714
   79       -3.572060   0.964791
   80       -3.297062   0.446177
   81       -3.199879   0.205393
   82       -2.868594   0.000775
   83       -2.722819   0.000014
   84       -2.656397   0.000002
   85       -2.559949   0.000000
   86       -2.457017   0.000000
   87       -2.334629   0.000000
   88       -2.266756   0.000000
   89       -2.150141   0.000000
   90       -1.920365   0.000000
   91       -1.751992   0.000000
   92       -1.509358   0.000000
   93       -1.372427   0.000000
   94       -1.283908   0.000000
   95       -1.152335   0.000000
   96       -1.015727   0.000000
   97       -0.990367   0.000000
   98       -0.946697   0.000000
   99       -0.843732   0.000000
  100       -0.776105   0.000000
  101       -0.684840   0.000000
  102       -0.627293   0.000000
  103       -0.544200   0.000000
  104       -0.315314   0.000000
  105       -0.216000   0.000000
  106       -0.121104   0.000000
  107       -0.068039   0.000000
  108        0.019259   0.000000
  109        0.095191   0.000000
  110        0.204660   0.000000
  111        0.409362   0.000000
  112        0.524879   0.000000
  113        0.634973   0.000000
  114        0.723931   0.000000
  115        0.937644   0.000000
  116        1.033744   0.000000
  117        1.316259   0.000000
  118        1.681019   0.000000
  119        1.875292   0.000000
  120        2.189630   0.000000
 
  0.1250000E+00  0.1250000E+00  0.0000000E+00  0.3125000E-01
    1      -17.751177   1.000000
    2      -16.900703   1.000000
    3      -16.794043   1.000000
    4      -16.679705   1.000000
    5      -16.510305   1.000000
    6      -16.418877   1.000000
    7      -16.326190   1.000000
    8      -16.262593   1.000000
    9      -16.245730   1.000000
   10      -16.053206   1.000000
   11      -15.967042   1.000000
   12      -15.940945   1.000000
   13      -15.846465   1.000000
   14      -15.725220   1.000000
   15      -15.594501   1.000000
   16      -15.494079   1.000000
   17      -15.352015   1.000000
   18      -15.206927   1.000000
   19       -9.425352   1.000000
   20       -9.270181   1.000000
   21       -9.173245   1.000000
   22       -9.061421   1.000000
   23       -8.814550   1.000000
   24       -8.759605   1.000000
   25       -8.634374   1.000000
   26       -8.535781   1.000000
   27       -8.450637   1.000000
   28       -8.397595   1.000000
   29       -8.286768   1.000000
   30       -8.265816   1.000000
   31       -8.163514   1.000000
   32       -8.077406   1.000000
   33       -7.986800   1.000000
   34       -7.908331   1.000000
   35       -7.779227   1.000000
   36       -7.752054   1.000000
   37       -7.590866   1.000000
   38       -7.533091   1.000000
   39       -7.496817   1.000000
   40       -7.386147   1.000000
   41       -7.298882   1.000000
   42       -7.241969   1.000000
   43       -7.069447   1.000000
   44       -7.016425   1.000000
   45       -6.941302   1.000000
   46       -6.795446   1.000000
   47       -6.721705   1.000000
   48       -6.681171   1.000000
   49       -6.514532   1.000000
   50       -6.434233   1.000000
   51       -6.414550   1.000000
   52       -6.330413   1.000000
   53       -6.310142   1.000000
   54       -6.228611   1.000000
   55       -6.169132   1.000000
   56       -6.100780   1.000000
   57       -6.016804   1.000000
   58       -5.881010   1.000000
   59       -5.775985   1.000000
   60       -5.624498   1.000000
   61       -5.575686   1.000000
   62       -5.441336   1.000000
   63       -5.387527   1.000000
   64       -5.305162   1.000000
   65       -5.219867   1.000000
   66       -5.093096   1.000000
   67       -4.989344   1.000000
   68       -4.905005   1.000000
   69       -4.758062   1.000000
   70       -4.634092   1.000000
   71       -4.560321   1.000000
   72       -4.466805   1.000000
   73       -4.400754   1.000000
   74       -4.170019   1.000000
   75       -4.121242   1.000000
   76       -3.990672   0.999999
   77       -3.870114   0.999955
   78       -3.705243   0.997029
   79       -3.635222   0.987959
   80       -3.357635   0.615235
   81       -3.058845   0.034397
   82       -2.839360   0.000373
   83       -2.680800   0.000004
   84       -2.654549   0.000001
   85       -2.566441   0.000000
   86       -2.408144   0.000000
   87       -2.323850   0.000000
   88       -2.232175   0.000000
   89       -2.135578   0.000000
   90       -1.906780   0.000000
   91       -1.728924   0.000000
   92       -1.487526   0.000000
   93       -1.408638   0.000000
   94       -1.265773   0.000000
   95       -1.149479   0.000000
   96       -1.050455   0.000000
   97       -1.009090   0.000000
   98       -0.954845   0.000000
   99       -0.881122   0.000000
  100       -0.845618   0.000000
  101       -0.774790   0.000000
  102       -0.711952   0.000000
  103       -0.615882   0.000000
  104       -0.414038   0.000000
  105       -0.301381   0.000000
  106       -0.199709   0.000000
  107       -0.126326   0.000000
  108        0.023543   0.000000
  109        0.134690   0.000000
  110        0.277831   0.000000
  111        0.414488   0.000000
  112        0.539663   0.000000
  113        0.650135   0.000000
  114        0.772361   0.000000
  115        0.963292   0.000000
  116        1.093925   0.000000
  117        1.275065   0.000000
  118        1.761575   0.000000
  119        1.950023   0.000000
  120        2.258734   0.000000
 
  0.2500000E+00  0.1250000E+00  0.0000000E+00  0.3125000E-01
    1      -17.656938   1.000000
    2      -17.096069   1.000000
    3      -16.873150   1.000000
    4      -16.673948   1.000000
    5      -16.499997   1.000000
    6      -16.384005   1.000000
    7      -16.319669   1.000000
    8      -16.264878   1.000000
    9      -16.197391   1.000000
   10      -16.067930   1.000000
   11      -15.949068   1.000000
   12      -15.848293   1.000000
   13      -15.816301   1.000000
   14      -15.681395   1.000000
   15      -15.629752   1.000000
   16      -15.479628   1.000000
   17      -15.375905   1.000000
   18      -15.225801   1.000000
   19       -9.649745   1.000000
   20       -9.390562   1.000000
   21       -9.272517   1.000000
   22       -9.060364   1.000000
   23       -8.844048   1.000000
   24       -8.706694   1.000000
   25       -8.583858   1.000000
   26       -8.510794   1.000000
   27       -8.453708   1.000000
   28       -8.374647   1.000000
   29       -8.265731   1.000000
   30       -8.204805   1.000000
   31       -8.151010   1.000000
   32       -8.060661   1.000000
   33       -8.016498   1.000000
   34       -7.902360   1.000000
   35       -7.788579   1.000000
   36       -7.591623   1.000000
   37       -7.573574   1.000000
   38       -7.474073   1.000000
   39       -7.401851   1.000000
   40       -7.371021   1.000000
   41       -7.234854   1.000000
   42       -7.140365   1.000000
   43       -7.057723   1.000000
   44       -7.015043   1.000000
   45       -6.849209   1.000000
   46       -6.819600   1.000000
   47       -6.757182   1.000000