       N       E                     dE             d eps       ncg     rms          rms(c)
DAV:   1     0.112358789402E+04    0.11236E+04   -0.35870E+04  8160   0.577E+02
DAV:   2    -0.408863368163E+01   -0.11277E+04   -0.10865E+04 11320   0.173E+02
DAV:   3    -0.200124090463E+03   -0.19604E+03   -0.18860E+03 10960   0.818E+01
DAV:   4    -0.208990855105E+03   -0.88668E+01   -0.85961E+01 11920   0.256E+01
DAV:   5    -0.209322593873E+03   -0.33174E+00   -0.33081E+00 11440   0.373E+00    0.275E+01
DAV:   6    -0.236770941944E+03   -0.27448E+02   -0.10593E+02 12720   0.604E+01    0.594E+01
DAV:   7    -0.196505224328E+03    0.40266E+02   -0.17648E+02 13240   0.152E+02    0.200E+01
DAV:   8    -0.189378440219E+03    0.71268E+01   -0.17386E+01 12040   0.127E+01    0.125E+01
DAV:   9    -0.188120305899E+03    0.12581E+01   -0.30207E+00 13280   0.651E+00    0.898E+00
DAV:  10    -0.187010030918E+03    0.11103E+01   -0.21613E+00 13480   0.713E+00    0.283E+00
DAV:  11    -0.186971755211E+03    0.38276E-01   -0.61755E-01 13320   0.260E+00    0.278E+00
DAV:  12    -0.187103452122E+03   -0.13170E+00   -0.85409E-01 12480   0.499E+00    0.510E+00
DAV:  13    -0.186888124069E+03    0.21533E+00   -0.57870E-01 12840   0.414E+00    0.218E+00
DAV:  14    -0.186863909359E+03    0.24215E-01   -0.14048E-01 13280   0.217E+00    0.179E+00
DAV:  15    -0.186839939945E+03    0.23969E-01   -0.75927E-02 12560   0.165E+00    0.819E-01
DAV:  16    -0.186833137336E+03    0.68026E-02   -0.11100E-02 12080   0.414E-01    0.462E-01
DAV:  17    -0.186831430946E+03    0.17064E-02   -0.79707E-03 12920   0.395E-01    0.239E-01
DAV:  18    -0.186830653769E+03    0.77718E-03   -0.29229E-03 12120   0.166E-01    0.201E-01
DAV:  19    -0.186830267641E+03    0.38613E-03   -0.10781E-03 11200   0.159E-01    0.471E-02
DAV:  20    -0.186831051844E+03   -0.78420E-03   -0.75143E-04  9080   0.602E-02    0.501E-02
DAV:  21    -0.186831661477E+03   -0.60963E-03   -0.21932E-04  8160   0.404E-02    0.402E-02
DAV:  22    -0.186832762847E+03   -0.11014E-02   -0.18036E-04  7440   0.517E-02    0.354E-02
DAV:  23    -0.186833991333E+03   -0.12285E-02   -0.13620E-04  7440   0.428E-02    0.123E-02
DAV:  24    -0.186834585508E+03   -0.59418E-03   -0.30505E-05  6760   0.142E-02    0.610E-03
DAV:  25    -0.186834941006E+03   -0.35550E-03   -0.15215E-05  5480   0.975E-03    0.471E-03
DAV:  26    -0.186835185246E+03   -0.24424E-03   -0.94669E-06  6800   0.742E-03    0.143E-03
DAV:  27    -0.186835283306E+03   -0.98060E-04   -0.36165E-06  7200   0.449E-03
   1 F= -.18683528E+03 E0= -.18666299E+03  d E =-.186835E+03
       N       E                     dE             d eps       ncg     rms          rms(c)
DAV:   1    -0.187450457271E+03   -0.61527E+00   -0.27134E+02  8160   0.350E+01    0.460E+00
DAV:   2    -0.189254778589E+03   -0.18043E+01   -0.20036E+01 12240   0.149E+01    0.793E+00
DAV:   3    -0.189356903153E+03   -0.10212E+00   -0.35842E+00 12480   0.116E+01    0.695E+00
DAV:   4    -0.188720788479E+03    0.63611E+00   -0.63890E-01 12760   0.490E+00    0.183E+00
DAV:   5    -0.188727973226E+03   -0.71847E-02   -0.30592E-01 10880   0.147E+00    0.234E+00
DAV:   6    -0.188649664295E+03    0.78309E-01   -0.29876E-01 11240   0.154E+00    0.118E+00
DAV:   7    -0.188657306111E+03   -0.76418E-02   -0.11984E-01 12320   0.182E+00    0.189E+00
DAV:   8    -0.188630077874E+03    0.27228E-01   -0.58982E-02 13320   0.142E+00    0.556E-01
DAV:   9    -0.188626685179E+03    0.33927E-02   -0.80155E-03 11640   0.377E-01    0.262E-01
DAV:  10    -0.188627779488E+03   -0.10943E-02   -0.51059E-03 13480   0.411E-01    0.463E-01
DAV:  11    -0.188626155870E+03    0.16236E-02   -0.38470E-03 12840   0.344E-01    0.125E-01
DAV:  12    -0.188626097004E+03    0.58866E-04   -0.96029E-04 11960   0.104E-01
   2 F= -.18862610E+03 E0= -.18848418E+03  d E =-.179081E+01
       N       E                     dE             d eps       ncg     rms          rms(c)
DAV:   1    -0.190541619536E+03   -0.19155E+01   -0.30738E+01  9280   0.141E+01    0.447E+00
DAV:   2    -0.190560938873E+03   -0.19319E-01   -0.28718E+00 11440   0.989E+00    0.762E+00
DAV:   3    -0.190007422724E+03    0.55352E+00   -0.13309E+00 12360   0.870E+00    0.407E+00
DAV:   4    -0.189807612214E+03    0.19981E+00   -0.67376E-01 12720   0.396E+00    0.249E+00
DAV:   5    -0.189731438323E+03    0.76174E-01   -0.30643E-01 11360   0.212E+00    0.148E+00
DAV:   6    -0.189711343519E+03    0.20095E-01   -0.81768E-02 11960   0.167E+00    0.924E-01
DAV:   7    -0.189703500192E+03    0.78433E-02   -0.16711E-02 12640   0.721E-01    0.193E-01
DAV:   8    -0.189703540827E+03   -0.40635E-04   -0.24951E-03 11080   0.170E-01    0.145E-01
DAV:   9    -0.189703797504E+03   -0.25668E-03   -0.11293E-03 10800   0.174E-01    0.183E-01
DAV:  10    -0.189704111005E+03   -0.31350E-03   -0.15253E-03 10600   0.271E-01    0.231E-01
DAV:  11    -0.189703575540E+03    0.53547E-03   -0.82801E-04  9680   0.177E-01    0.268E-02
DAV:  12    -0.189703600104E+03   -0.24564E-04   -0.81297E-05  6160   0.340E-02
   3 F= -.18970360E+03 E0= -.18958424E+03  d E =-.107750E+01
       N       E                     dE             d eps       ncg     rms          rms(c)
DAV:   1    -0.191208768126E+03   -0.15052E+01   -0.66292E+01  8160   0.187E+01    0.457E+00
DAV:   2    -0.191158235007E+03    0.50533E-01   -0.53347E+00 13520   0.881E+00    0.563E+00
DAV:   3    -0.191074556249E+03    0.83679E-01   -0.15369E+00 12040   0.918E+00    0.580E+00
DAV:   4    -0.190757814862E+03    0.31674E+00   -0.10804E+00 13080   0.642E+00    0.277E+00
DAV:   5    -0.190743144664E+03    0.14670E-01   -0.41470E-01 12200   0.411E+00    0.303E+00
DAV:   6    -0.190639191885E+03    0.10395E+00   -0.19016E-01 12240   0.314E+00    0.966E-01
DAV:   7    -0.190632854442E+03    0.63374E-02   -0.36211E-02 12520   0.102E+00    0.529E-01
DAV:   8    -0.190631619667E+03    0.12348E-02   -0.12824E-02 11480   0.753E-01    0.567E-01
DAV:   9    -0.190628571841E+03    0.30478E-02   -0.47896E-03 11640   0.499E-01    0.138E-01
DAV:  10    -0.190628933111E+03   -0.36127E-03   -0.12069E-03 10120   0.124E-01    0.124E-01
DAV:  11    -0.190628736838E+03    0.19627E-03   -0.76341E-04 10800   0.106E-01    0.457E-02
DAV:  12    -0.190628740573E+03   -0.37348E-05   -0.11298E-04  7120   0.431E-02
   4 F= -.19062874E+03 E0= -.19052891E+03  d E =-.925140E+00
       N       E                     dE             d eps       ncg     rms          rms(c)
DAV:   1    -0.192079917729E+03   -0.14512E+01   -0.14266E+02  8160   0.270E+01    0.591E+00
DAV:   2    -0.191884264453E+03    0.19565E+00   -0.99515E+00 12600   0.984E+00    0.529E+00
DAV:   3    -0.192169025190E+03   -0.28476E+00   -0.24622E+00 10920   0.114E+01    0.942E+00
DAV:   4    -0.191531385172E+03    0.63764E+00   -0.29803E+00 12120   0.118E+01    0.412E+00
DAV:   5    -0.191455403060E+03    0.75982E-01   -0.86023E-01 12240   0.624E+00    0.372E+00
DAV:   6    -0.191265111995E+03    0.19029E+00   -0.29159E-01 12280   0.401E+00    0.988E-01
DAV:   7    -0.191258436613E+03    0.66754E-02   -0.54266E-02 12160   0.113E+00    0.545E-01
DAV:   8    -0.191253442738E+03    0.49939E-02   -0.10785E-02 10560   0.490E-01    0.259E-01
DAV:   9    -0.191254407693E+03   -0.96496E-03   -0.43203E-03 12640   0.478E-01    0.373E-01
DAV:  10    -0.191253490673E+03    0.91702E-03   -0.33614E-03 11240   0.387E-01    0.108E-01
DAV:  11    -0.191253393321E+03    0.97352E-04   -0.70887E-04 10400   0.106E-01
   5 F= -.19125339E+03 E0= -.19116125E+03  d E =-.624653E+00
       N       E                     dE             d eps       ncg     rms          rms(c)
DAV:   1    -0.191313810215E+03   -0.60320E-01   -0.53273E+00  8160   0.488E+00    0.637E-01
DAV:   2    -0.191370398883E+03   -0.56589E-01   -0.23450E-01 13440   0.258E+00    0.220E+00
DAV:   3    -0.191323499477E+03    0.46899E-01   -0.11147E-01 11800   0.232E+00    0.527E-01
DAV:   4    -0.191323172575E+03    0.32690E-03   -0.13279E-02 11440   0.782E-01    0.536E-01
DAV:   5    -0.191320287878E+03    0.28847E-02   -0.64569E-03 11360   0.612E-01    0.220E-01
DAV:   6    -0.191319799544E+03    0.48833E-03   -0.17916E-03 11120   0.226E-01    0.121E-01
DAV:   7    -0.191320151132E+03   -0.35159E-03   -0.16846E-03 11640   0.273E-01    0.219E-01
DAV:   8    -0.191319665182E+03    0.48595E-03   -0.10248E-03  9560   0.246E-01    0.641E-02
DAV:   9    -0.191319627517E+03    0.37665E-04   -0.10808E-04  6160   0.625E-02
   6 F= -.19131963E+03 E0= -.19122420E+03  d E =-.662342E-01
       N       E                     dE             d eps       ncg     rms          rms(c)
DAV:   1    -0.191360337483E+03   -0.40672E-01   -0.22502E+00  8160   0.317E+00    0.406E-01
DAV:   2    -0.191382457400E+03   -0.22120E-01   -0.90957E-02 13600   0.167E+00    0.137E+00
DAV:   3    -0.191363539567E+03    0.18918E-01   -0.42102E-02 11880   0.144E+00    0.324E-01
DAV:   4    -0.191363675323E+03   -0.13576E-03   -0.54937E-03 11320   0.505E-01    0.357E-01
DAV:   5    -0.191362417732E+03    0.12576E-02   -0.27871E-03 11200   0.398E-01    0.139E-01
DAV:   6    -0.191362240547E+03    0.17719E-03   -0.76710E-04 10560   0.143E-01    0.772E-02
DAV:   7    -0.191362343796E+03   -0.10325E-03   -0.58598E-04  9640   0.154E-01    0.122E-01
DAV:   8    -0.191362194601E+03    0.14920E-03   -0.34706E-04  8520   0.145E-01    0.415E-02
DAV:   9    -0.191362182289E+03    0.12311E-04   -0.47225E-05  6400   0.434E-02
   7 F= -.19136218E+03 E0= -.19126482E+03  d E =-.425548E-01
       N       E                     dE             d eps       ncg     rms          rms(c)
DAV:   1    -0.191313704943E+03    0.48490E-01   -0.28316E+00  8160   0.357E+00    0.444E-01
DAV:   2    -0.191335146692E+03   -0.21442E-01   -0.10287E-01 13600   0.171E+00    0.125E+00
DAV:   3    -0.191316826063E+03    0.18321E-01   -0.33046E-02 11960   0.139E+00    0.319E-01
DAV:   4    -0.191317055722E+03   -0.22966E-03   -0.60110E-03 11160   0.495E-01    0.374E-01
DAV:   5    -0.191315778694E+03    0.12770E-02   -0.36159E-03 11280   0.450E-01    0.190E-01
DAV:   6    -0.191315419285E+03    0.35941E-03   -0.12473E-03 10440   0.205E-01    0.856E-02
DAV:   7    -0.191315381006E+03    0.38279E-04   -0.52766E-04 10240   0.104E-01
   8 F= -.19131538E+03 E0= -.19122024E+03  d E =0.468013E-01
       N       E                     dE             d eps       ncg     rms          rms(c)
DAV:   1    -0.191239891876E+03    0.75527E-01   -0.85988E+00  8160   0.622E+00    0.695E-01
DAV:   2    -0.191279275725E+03   -0.39384E-01   -0.25729E-01 13600   0.210E+00    0.152E+00
DAV:   3    -0.191252752470E+03    0.26523E-01   -0.69900E-02 12200   0.196E+00    0.698E-01
DAV:   4    -0.191250296651E+03    0.24558E-02   -0.18131E-02 12640   0.836E-01    0.504E-01
DAV:   5    -0.191248174844E+03    0.21218E-02   -0.86052E-03 11760   0.669E-01    0.381E-01
DAV:   6    -0.191246923480E+03    0.12514E-02   -0.43678E-03 11400   0.465E-01    0.192E-01
DAV:   7    -0.191246837592E+03    0.85888E-04   -0.18599E-03 11920   0.251E-01    0.159E-01
DAV:   8    -0.191246593055E+03    0.24454E-03   -0.83962E-04  9760   0.219E-01    0.100E-01
DAV:   9    -0.191246482357E+03    0.11070E-03   -0.21315E-04  7240   0.107E-01    0.234E-02
DAV:  10    -0.191246485740E+03   -0.33832E-05   -0.62653E-05  7480   0.318E-02
   9 F= -.19124649E+03 E0= -.19115521E+03  d E =0.688953E-01
       N       E                     dE             d eps       ncg     rms          rms(c)
DAV:   1    -0.191290184278E+03   -0.43702E-01   -0.35185E+00  8160   0.397E+00    0.485E-01
DAV:   2    -0.191317434642E+03   -0.27250E-01   -0.13021E-01 13520   0.166E+00    0.151E+00
DAV:   3    -0.191295798462E+03    0.21636E-01   -0.58266E-02 12120   0.166E+00    0.454E-01
DAV:   4    -0.191294788935E+03    0.10095E-02   -0.74284E-03 11080   0.537E-01    0.372E-01
DAV:   5    -0.191293468411E+03    0.13205E-02   -0.35212E-03 11120   0.455E-01    0.195E-01
DAV:   6    -0.191293179344E+03    0.28907E-03   -0.15365E-03 10520   0.234E-01    0.128E-01
DAV:   7    -0.191293295198E+03   -0.11585E-03   -0.12054E-03 10720   0.235E-01    0.172E-01
DAV:   8    -0.191292998955E+03    0.29624E-03   -0.63958E-04  8880   0.196E-01    0.527E-02
DAV:   9    -0.191292974702E+03    0.24253E-04   -0.74831E-05  6320   0.510E-02
  10 F= -.19129297E+03 E0= -.19119849E+03  d E =-.464890E-01
       N       E                     dE             d eps       ncg     rms          rms(c)
DAV:   1    -0.191316068495E+03   -0.23070E-01   -0.80875E-01  8160   0.192E+00    0.280E-01
DAV:   2    -0.191325422132E+03   -0.93536E-02   -0.38252E-02 13600   0.115E+00    0.909E-01
DAV:   3    -0.191316714385E+03    0.87077E-02   -0.17272E-02 11760   0.955E-01    0.196E-01
DAV:   4    -0.191316948597E+03   -0.23421E-03   -0.26103E-03 11360   0.349E-01    0.261E-01
DAV:   5    -0.191316304418E+03    0.64418E-03   -0.16182E-03 10080   0.300E-01    0.115E-01
DAV:   6    -0.191316158811E+03    0.14561E-03   -0.48562E-04  9040   0.122E-01    0.558E-02
DAV:   7    -0.191316208971E+03   -0.50160E-04   -0.32887E-04  7920   0.126E-01
  11 F= -.19131621E+03 E0= -.19121998E+03  d E =-.232343E-01
       N       E                     dE             d eps       ncg     rms          rms(c)
DAV:   1    -0.191373811028E+03   -0.57652E-01   -0.54926E+00  8160   0.497E+00    0.644E-01
DAV:   2    -0.191429125153E+03   -0.55314E-01   -0.22644E-01 13600   0.262E+00    0.226E+00
DAV:   3    -0.191381510278E+03    0.47615E-01   -0.11990E-01 12120   0.233E+00    0.540E-01
DAV:   4    -0.191381462084E+03    0.48194E-04   -0.14593E-02 11640   0.827E-01    0.575E-01
DAV:   5    -0.191378189406E+03    0.32727E-02   -0.75466E-03 11520   0.648E-01    0.238E-01
DAV:   6    -0.191377604534E+03    0.58487E-03   -0.23593E-03 10680   0.265E-01    0.145E-01
DAV:   7    -0.191378130167E+03   -0.52563E-03   -0.22907E-03 11920   0.343E-01    0.267E-01
DAV:   8    -0.191377351666E+03    0.77850E-03   -0.12676E-03 10200   0.269E-01    0.481E-02
DAV:   9    -0.191377332272E+03    0.19394E-04   -0.90549E-05  6120   0.483E-02
  12 F= -.19137733E+03 E0= -.19127750E+03  d E =-.611233E-01
       N       E                     dE             d eps       ncg     rms          rms(c)
DAV:   1    -0.191306100059E+03    0.71252E-01   -0.66912E+00  8160   0.549E+00    0.691E-01
DAV:   2    -0.191359598265E+03   -0.53498E-01   -0.24882E-01 13600   0.267E+00    0.196E+00
DAV:   3    -0.191313503140E+03    0.46095E-01   -0.80970E-02 12280   0.218E+00    0.499E-01
DAV:   4    -0.191313892771E+03   -0.38963E-03   -0.14461E-02 11400   0.773E-01    0.574E-01
DAV:   5    -0.191310863446E+03    0.30293E-02   -0.85577E-03 11400   0.688E-01    0.285E-01
DAV:   6    -0.191309988782E+03    0.87466E-03   -0.27872E-03 12120   0.304E-01    0.125E-01
DAV:   7    -0.191309927974E+03    0.60808E-04   -0.11798E-03 11040   0.164E-01    0.110E-01
DAV:   8    -0.191309816792E+03    0.11118E-03   -0.49914E-04  9240   0.164E-01    0.858E-02
DAV:   9    -0.191309740088E+03    0.76704E-04   -0.14753E-04  6240   0.939E-02
  13 F= -.19130974E+03 E0= -.19121385E+03  d E =0.675922E-01
       N       E                     dE             d eps       ncg     rms          rms(c)
DAV:   1    -0.191233811729E+03    0.76005E-01   -0.87338E+00  8160   0.628E+00    0.725E-01
DAV:   2    -0.191282502304E+03   -0.48691E-01   -0.27929E-01 13600   0.234E+00    0.177E+00
DAV:   3    -0.191246487017E+03    0.36015E-01   -0.86338E-02 12320   0.217E+00    0.695E-01
DAV:   4    -0.191244082982E+03    0.24040E-02   -0.18974E-02 12360   0.847E-01    0.528E-01
DAV:   5    -0.191241777796E+03    0.23052E-02   -0.88924E-03 11840   0.691E-01    0.370E-01
DAV:   6    -0.191240434067E+03    0.13437E-02   -0.40809E-03 11200   0.440E-01    0.177E-01
DAV:   7    -0.191240528526E+03   -0.94460E-04   -0.20740E-03 11840   0.266E-01    0.189E-01
DAV:   8    -0.191240181048E+03    0.34748E-03   -0.11120E-03 10240   0.252E-01    0.111E-01
DAV:   9    -0.191240037834E+03    0.14321E-03   -0.27133E-04  8240   0.113E-01    0.243E-02
DAV:  10    -0.191240041309E+03   -0.34753E-05   -0.57935E-05  7200   0.308E-02
  14 F= -.19124004E+03 E0= -.19114884E+03  d E =0.696988E-01
       N       E                     dE             d eps       ncg     rms          rms(c)
DAV:   1    -0.191282611123E+03   -0.42573E-01   -0.36639E+00  8160   0.404E+00    0.492E-01
DAV:   2    -0.191312794020E+03   -0.30183E-01   -0.13308E-01 13520   0.180E+00    0.159E+00
DAV:   3    -0.191287871564E+03    0.24922E-01   -0.62082E-02 12280   0.174E+00    0.434E-01
DAV:   4    -0.191287334810E+03    0.53675E-03   -0.78699E-03 11400   0.567E-01    0.402E-01
DAV:   5    -0.191285806332E+03    0.15285E-02   -0.38715E-03 11400   0.471E-01    0.192E-01
DAV:   6    -0.191285483518E+03    0.32281E-03   -0.13856E-03 10360   0.223E-01    0.123E-01
DAV:   7    -0.191285768143E+03   -0.28462E-03   -0.13433E-03 10600   0.266E-01    0.204E-01
DAV:   8    -0.191285323928E+03    0.44422E-03   -0.74665E-04  8920   0.212E-01    0.426E-02
DAV:   9    -0.191285313841E+03    0.10087E-04   -0.67764E-05  6160   0.420E-02
  15 F= -.19128531E+03 E0= -.19119051E+03  d E =-.452725E-01
       N       E                     dE             d eps       ncg     rms          rms(c)
DAV:   1    -0.191302356128E+03   -0.17032E-01   -0.49971E-01  8160   0.151E+00    0.220E-01
DAV:   2    -0.191308453470E+03   -0.60973E-02   -0.24228E-02 13600   0.918E-01    0.732E-01
DAV:   3    -0.191302766127E+03    0.56873E-02   -0.11092E-02 11800   0.766E-01    0.154E-01
DAV:   4    -0.191302904206E+03   -0.13808E-03   -0.15782E-03 10120   0.270E-01    0.199E-01
DAV:   5    -0.191302530646E+03    0.37356E-03   -0.95585E-04 10040   0.230E-01    0.889E-02
DAV:   6    -0.191302447755E+03    0.82890E-04   -0.27161E-04  7360   0.957E-02
  16 F= -.19130245E+03 E0= -.19120613E+03  d E =-.171339E-01
       N       E                     dE             d eps       ncg     rms          rms(c)
DAV:   1    -0.191362338414E+03   -0.59808E-01   -0.66136E+00  8160   0.546E+00    0.746E-01
DAV:   2    -0.191438165376E+03   -0.75827E-01   -0.29555E-01 13520   0.308E+00    0.271E+00
DAV:   3    -0.191370785323E+03    0.67380E-01   -0.16909E-01 12200   0.273E+00    0.611E-01
DAV:   4    -0.191371263526E+03   -0.47820E-03   -0.20372E-02 11640   0.994E-01    0.694E-01
DAV:   5    -0.191366342926E+03    0.49206E-02   -0.10583E-02 11680   0.757E-01    0.261E-01
DAV:   6    -0.191365673095E+03    0.66983E-03   -0.32477E-03 11080   0.309E-01    0.181E-01
DAV:   7    -0.191366280659E+03   -0.60756E-03   -0.32649E-03 11880   0.413E-01    0.304E-01
DAV:   8    -0.191365272046E+03    0.10086E-02   -0.16485E-03 10120   0.301E-01    0.532E-02
DAV:   9    -0.191365242645E+03    0.29401E-04   -0.11713E-04  6080   0.523E-02
  17 F= -.19136524E+03 E0= -.19126428E+03  d E =-.627949E-01
       N       E                     dE             d eps       ncg     rms          rms(c)
DAV:   1    -0.191382935791E+03   -0.17664E-01   -0.51345E-01  8160   0.152E+00    0.187E-01
DAV:   2    -0.191386875314E+03   -0.39395E-02   -0.18721E-02 13600   0.688E-01    0.571E-01
DAV:   3    -0.191383611269E+03    0.32640E-02   -0.79257E-03 11720   0.622E-01    0.162E-01
DAV:   4    -0.191383609147E+03    0.21223E-05   -0.11901E-03  9920   0.223E-01    0.160E-01
DAV:   5    -0.191383368121E+03    0.24103E-03   -0.64038E-04  8960   0.190E-01    0.774E-02
DAV:   6    -0.191383325816E+03    0.42305E-04   -0.20295E-04  6440   0.942E-02
  18 F= -.19138333E+03 E0= -.19128148E+03  d E =-.180832E-01
       N       E                     dE             d eps       ncg     rms          rms(c)
DAV:   1    -0.191382852055E+03    0.51607E-03   -0.58219E-02  8160   0.583E-01    0.164E-01
DAV:   2    -0.191385221352E+03   -0.23693E-02   -0.80407E-03 11800   0.606E-01    0.517E-01
DAV:   3    -0.191382370176E+03    0.28512E-02   -0.51437E-03 11280   0.552E-01    0.116E-01
DAV:   4    -0.191382276962E+03    0.93214E-04   -0.55642E-04  8480   0.139E-01
  19 F= -.19138228E+03 E0= -.19128042E+03  d E =0.104885E-02
       N       E                     dE             d eps       ncg     rms          rms(c)
DAV:   1    -0.191433941365E+03   -0.51571E-01   -0.38721E+00  8160   0.422E+00    0.656E-01
DAV:   2    -0.191498396173E+03   -0.64455E-01   -0.22457E-01 12520   0.281E+00    0.256E+00
DAV:   3    -0.191437892898E+03    0.60503E-01   -0.14105E-01 12160   0.250E+00    0.483E-01
DAV:   4    -0.191438791431E+03   -0.89853E-03   -0.14415E-02 11560   0.838E-01    0.599E-01
DAV:   5    -0.191435079897E+03    0.37115E-02   -0.81212E-03 11400   0.659E-01    0.226E-01
DAV:   6    -0.191434856123E+03    0.22377E-03   -0.29383E-03 11640   0.326E-01    0.218E-01
DAV:   7    -0.191434823745E+03    0.32378E-04   -0.25966E-03 11840   0.369E-01    0.209E-01
DAV:   8    -0.191434306696E+03    0.51705E-03   -0.88374E-04  9480   0.204E-01    0.408E-02
DAV:   9    -0.191434284793E+03    0.21903E-04   -0.10434E-04  6360   0.443E-02
  20 F= -.19143428E+03 E0= -.19133080E+03  d E =-.520078E-01
       N       E                     dE             d eps       ncg     rms          rms(c)
DAV:   1    -0.191443154483E+03   -0.88478E-02   -0.11646E-01  8160   0.728E-01    0.898E-02
DAV:   2    -0.191443917917E+03   -0.76343E-03   -0.43842E-03 13520   0.320E-01    0.244E-01
DAV:   3    -0.191443328414E+03    0.58950E-03   -0.15660E-03 10240   0.276E-01    0.813E-02
DAV:   4    -0.191443333359E+03   -0.49457E-05   -0.28411E-04  6800   0.115E-01
  21 F= -.19144333E+03 E0= -.19133978E+03  d E =-.904857E-02
       N       E                     dE             d eps       ncg     rms          rms(c)
DAV:   1    -0.191366564547E+03    0.76764E-01   -0.76192E+00  8160   0.588E+00    0.710E-01
DAV:   2    -0.191410876249E+03   -0.44312E-01   -0.26825E-01 13600   0.249E+00    0.171E+00
DAV:   3    -0.191376079510E+03    0.34797E-01   -0.73344E-02 12280   0.205E+00    0.525E-01
DAV:   4    -0.191375223256E+03    0.85625E-03   -0.14406E-02 11480   0.721E-01    0.518E-01
DAV:   5    -0.191373349970E+03    0.18733E-02   -0.10159E-02 11760   0.717E-01    0.386E-01
DAV:   6    -0.191372036755E+03    0.13132E-02   -0.41651E-03 11840   0.408E-01    0.162E-01
DAV:   7    -0.191372243435E+03   -0.20668E-03   -0.23511E-03 11880   0.300E-01    0.231E-01
DAV:   8    -0.191371701482E+03    0.54195E-03   -0.12629E-03  9720   0.263E-01    0.808E-02
DAV:   9    -0.191371629352E+03    0.72130E-04   -0.16961E-04  6320   0.803E-02
  22 F= -.19137163E+03 E0= -.19127015E+03  d E =0.717040E-01
       N       E                     dE             d eps       ncg     rms          rms(c)
DAV:   1    -0.191356442758E+03    0.15259E-01   -0.47364E-01  8160   0.147E+00    0.166E-01
DAV:   2    -0.191358047782E+03   -0.16050E-02   -0.14022E-02 13400   0.409E-01    0.287E-01
DAV:   3    -0.191357218578E+03    0.82920E-03   -0.35971E-03 11480   0.417E-01    0.194E-01
DAV:   4    -0.191356958548E+03    0.26003E-03   -0.10748E-03  9840   0.220E-01    0.114E-01
DAV:   5    -0.191356883401E+03    0.75147E-04   -0.55878E-04  8880   0.158E-01
  23 F= -.19135688E+03 E0= -.19125619E+03  d E =0.147460E-01
       N       E                     dE             d eps       ncg     rms          rms(c)
DAV:   1    -0.191377722491E+03   -0.20764E-01   -0.16050E+00  8160   0.267E+00    0.341E-01
DAV:   2    -0.191395874716E+03   -0.18152E-01   -0.69587E-02 13600   0.146E+00    0.130E+00
DAV:   3    -0.191379955861E+03    0.15919E-01   -0.34759E-02 12320   0.127E+00    0.238E-01
DAV:   4    -0.191380188244E+03   -0.23238E-03   -0.32392E-03 11280   0.357E-01    0.290E-01
DAV:   5    -0.191379411189E+03    0.77706E-03   -0.20791E-03 10240   0.343E-01    0.135E-01
DAV:   6    -0.191379307522E+03    0.10367E-03   -0.75218E-04  9800   0.165E-01    0.862E-02
DAV:   7    -0.191379377732E+03   -0.70211E-04   -0.53060E-04  9440   0.171E-01
  24 F= -.19137938E+03 E0= -.19127745E+03  d E =-.224943E-01
       N       E                     dE             d eps       ncg     rms          rms(c)
DAV:   1    -0.191405865632E+03   -0.26558E-01   -0.15105E+00  8160   0.266E+00    0.337E-01
DAV:   2    -0.191413901102E+03   -0.80355E-02   -0.53888E-02 13520   0.109E+00    0.768E-01
DAV:   3    -0.191407624291E+03    0.62768E-02   -0.17201E-02 12160   0.959E-01    0.284E-01
DAV:   4    -0.191407128951E+03    0.49534E-03   -0.34133E-03 11280   0.357E-01    0.232E-01
DAV:   5    -0.191406845640E+03    0.28331E-03   -0.24654E-03 10840   0.348E-01    0.218E-01
DAV:   6    -0.191406422634E+03    0.42301E-03   -0.14036E-03  9600   0.250E-01    0.951E-02
DAV:   7    -0.191406425061E+03   -0.24273E-05   -0.56455E-04  8320   0.140E-01
  25 F= -.19140643E+03 E0= -.19130307E+03  d E =-.270473E-01
       N       E                     dE             d eps       ncg     rms          rms(c)
DAV:   1    -0.191412328810E+03   -0.59062E-02   -0.56014E-02  8160   0.524E-01    0.918E-02
DAV:   2    -0.191413800918E+03   -0.14721E-02   -0.44392E-03 13400   0.392E-01    0.370E-01
DAV:   3    -0.191412339643E+03    0.14613E-02   -0.26338E-03 10040   0.364E-01    0.611E-02
DAV:   4    -0.191412353907E+03   -0.14263E-04   -0.17337E-04  6120   0.744E-02
  26 F= -.19141235E+03 E0= -.19130895E+03  d E =-.592885E-02
       N       E                     dE             d eps       ncg     rms          rms(c)
DAV:   1    -0.191345852244E+03    0.66487E-01   -0.89917E+00  8160   0.640E+00    0.831E-01
DAV:   2    -0.191421084762E+03   -0.75233E-01   -0.33201E-01 13600   0.311E+00    0.239E+00
DAV:   3    -0.191352948944E+03    0.68136E-01   -0.12734E-01 12200   0.270E+00    0.633E-01
DAV:   4    -0.191353342219E+03   -0.39327E-03   -0.23325E-02 11360   0.978E-01    0.726E-01
DAV:   5    -0.191348743862E+03    0.45984E-02   -0.14161E-02 12120   0.865E-01    0.399E-01
DAV:   6    -0.191347302676E+03    0.14412E-02   -0.59748E-03 11720   0.495E-01    0.263E-01
DAV:   7    -0.191347778958E+03   -0.47628E-03   -0.46199E-03 11960   0.473E-01    0.337E-01
DAV:   8    -0.191346604303E+03    0.11747E-02   -0.22495E-03 10120   0.335E-01    0.710E-02
DAV:   9    -0.191346529994E+03    0.74309E-04   -0.24712E-04  7560   0.715E-02
  27 F= -.19134653E+03 E0= -.19124619E+03  d E =0.658239E-01
       N       E                     dE             d eps       ncg     rms          rms(c)
DAV:   1    -0.191411154091E+03   -0.64550E-01   -0.77181E+00  8160   0.591E+00    0.832E-01
DAV:   2    -0.191507484451E+03   -0.96330E-01   -0.34216E-01 13560   0.343E+00    0.310E+00
DAV:   3    -0.191416740989E+03    0.90743E-01   -0.20980E-01 12320   0.314E+00    0.602E-01
DAV:   4    -0.191417037853E+03   -0.29686E-03   -0.21827E-02 12280   0.939E-01    0.720E-01
DAV:   5    -0.191412750537E+03    0.42873E-02   -0.14888E-02 12320   0.880E-01    0.405E-01
DAV:   6    -0.191411198641E+03    0.15519E-02   -0.59394E-03 11600   0.479E-01    0.252E-01
DAV:   7    -0.191411439563E+03   -0.24092E-03   -0.42223E-03 11920   0.460E-01    0.289E-01
DAV:   8    -0.191410506770E+03    0.93279E-03   -0.16926E-03  9960   0.296E-01    0.627E-02
DAV:   9    -0.191410439137E+03    0.67633E-04   -0.20744E-04  6640   0.668E-02
  28 F= -.19141044E+03 E0= -.19130683E+03  d E =-.639091E-01
       N       E                     dE             d eps       ncg     rms          rms(c)
DAV:   1    -0.191432616979E+03   -0.22110E-01   -0.91319E-01  8160   0.202E+00    0.252E-01
DAV:   2    -0.191440795931E+03   -0.81790E-02   -0.35192E-02 13600   0.975E-01    0.865E-01
DAV:   3    -0.191433699223E+03    0.70967E-02   -0.16546E-02 11960   0.876E-01    0.195E-01
DAV:   4    -0.191433806138E+03   -0.10692E-03   -0.19149E-03 10680   0.279E-01    0.220E-01
DAV:   5    -0.191433348803E+03    0.45734E-03   -0.12443E-03 10040   0.261E-01    0.103E-01
DAV:   6    -0.191433320070E+03    0.28732E-04   -0.46737E-04  8760   0.137E-01
  29 F= -.19143332E+03 E0= -.19132919E+03  d E =-.228809E-01
       N       E                     dE             d eps       ncg     rms          rms(c)
DAV:   1    -0.191391364562E+03    0.41984E-01   -0.28071E+00  8160   0.359E+00    0.485E-01
DAV:   2    -0.191417124905E+03   -0.25760E-01   -0.11879E-01 13600   0.181E+00    0.149E+00
DAV:   3    -0.191394241955E+03    0.22883E-01   -0.51751E-02 12400   0.163E+00    0.382E-01
DAV:   4    -0.191393640721E+03    0.60123E-03   -0.67298E-03 11120   0.503E-01    0.337E-01
DAV:   5    -0.191392735770E+03    0.90495E-03   -0.43151E-03 11320   0.481E-01    0.251E-01
DAV:   6    -0.191392199906E+03    0.53586E-03   -0.21171E-03 11280   0.306E-01    0.146E-01
DAV:   7    -0.191392360597E+03   -0.16069E-03   -0.15108E-03 10000   0.270E-01    0.191E-01
DAV:   8    -0.191391974787E+03    0.38581E-03   -0.69138E-04  8280   0.189E-01    0.391E-02
DAV:   9    -0.191391962817E+03    0.11970E-04   -0.77129E-05  6200   0.440E-02
  30 F= -.19139196E+03 E0= -.19128915E+03  d E =0.413573E-01
       N       E                     dE             d eps       ncg     rms          rms(c)
DAV:   1    -0.191450430299E+03   -0.58456E-01   -0.55915E+00  8160   0.508E+00    0.725E-01
DAV:   2    -0.191509342529E+03   -0.58912E-01   -0.25684E-01 13520   0.276E+00    0.244E+00
DAV:   3    -0.191455631214E+03    0.53711E-01   -0.13986E-01 12280   0.250E+00    0.576E-01
DAV:   4    -0.191456688583E+03   -0.10574E-02   -0.19711E-02 12240   0.959E-01    0.728E-01
DAV:   5    -0.191451574129E+03    0.51145E-02   -0.13219E-02 11840   0.843E-01    0.323E-01
DAV:   6    -0.191450962435E+03    0.61169E-03   -0.50505E-03 11640   0.439E-01    0.269E-01
DAV:   7    -0.191450788050E+03    0.17438E-03   -0.37290E-03 11800   0.438E-01    0.238E-01
DAV:   8    -0.191450120051E+03    0.66800E-03   -0.11920E-03  9720   0.236E-01    0.503E-02
DAV:   9    -0.191450077236E+03    0.42815E-04   -0.14312E-04  6480   0.529E-02
  31 F= -.19145008E+03 E0= -.19134555E+03  d E =-.581144E-01
       N       E                     dE             d eps       ncg     rms          rms(c)
DAV:   1    -0.191470020291E+03   -0.19900E-01   -0.66678E-01  8160   0.173E+00    0.200E-01
DAV:   2    -0.191473625846E+03   -0.36056E-02   -0.21760E-02 13520   0.643E-01    0.537E-01
DAV:   3    -0.191470966772E+03    0.26591E-02   -0.81600E-03 12080   0.614E-01    0.198E-01
DAV:   4    -0.191470767611E+03    0.19916E-03   -0.12510E-03  9760   0.203E-01    0.137E-01
DAV:   5    -0.191470664417E+03    0.10319E-03   -0.84374E-04  9360   0.207E-01    0.127E-01
DAV:   6    -0.191470563451E+03    0.10097E-03   -0.53167E-04  8400   0.159E-01    0.670E-02
DAV:   7    -0.191470534666E+03    0.28786E-04   -0.17457E-04  6080   0.792E-02
  32 F= -.19147053E+03 E0= -.19136616E+03  d E =-.204574E-01
       N       E                     dE             d eps       ncg     rms          rms(c)
DAV:   1    -0.191503693176E+03   -0.33130E-01   -0.18058E+00  8160   0.286E+00    0.329E-01
DAV:   2    -0.191513636110E+03   -0.99429E-02   -0.59120E-02 13600   0.109E+00    0.905E-01
DAV:   3    -0.191506203563E+03    0.74325E-02   -0.22768E-02 12360   0.102E+00    0.305E-01
DAV:   4    -0.191505849825E+03    0.35374E-03   -0.33771E-03 11240   0.346E-01    0.254E-01
DAV:   5    -0.191505351663E+03    0.49816E-03   -0.23168E-03 10720   0.350E-01    0.184E-01
DAV:   6    -0.191505121886E+03    0.22978E-03   -0.11892E-03  9760   0.223E-01    0.954E-02
DAV:   7    -0.191505067179E+03    0.54707E-04   -0.44196E-04  8720   0.117E-01
  33 F= -.19150507E+03 E0= -.19140121E+03  d E =-.345325E-01
       N       E                     dE             d eps       ncg     rms          rms(c)
DAV:   1    -0.191477067511E+03    0.28054E-01   -0.10926E+00  8160   0.223E+00    0.251E-01
DAV:   2    -0.191481637627E+03   -0.45701E-02   -0.33190E-02 13560   0.767E-01    0.568E-01
DAV:   3    -0.191478595518E+03    0.30421E-02   -0.10171E-02 12320   0.708E-01    0.259E-01
DAV:   4    -0.191478280307E+03    0.31521E-03   -0.24320E-03 11040   0.308E-01    0.201E-01
DAV:   5    -0.191477937853E+03    0.34245E-03   -0.13393E-03  9960   0.268E-01    0.132E-01
DAV:   6    -0.191477829785E+03    0.10807E-03   -0.69036E-04  9080   0.173E-01    0.871E-02
DAV:   7    -0.191477862994E+03   -0.33209E-04   -0.46909E-04  9240   0.155E-01
  34 F= -.19147786E+03 E0= -.19137338E+03  d E =0.272042E-01
       N       E                     dE             d eps       ncg     rms          rms(c)
DAV:   1    -0.191542508643E+03   -0.64679E-01   -0.63086E+00  8160   0.540E+00    0.675E-01
DAV:   2    -0.191575596094E+03   -0.33087E-01   -0.22504E-01 13440   0.215E+00    0.171E+00
DAV:   3    -0.191550879889E+03    0.24716E-01   -0.90122E-02 12240   0.199E+00    0.642E-01
DAV:   4    -0.191549331981E+03    0.15479E-02   -0.16820E-02 12240   0.866E-01    0.607E-01
DAV:   5    -0.191546023638E+03    0.33083E-02   -0.11233E-02 11880   0.791E-01    0.358E-01
DAV:   6    -0.191545236565E+03    0.78707E-03   -0.55350E-03 11520   0.465E-01    0.249E-01
DAV:   7    -0.191545138424E+03    0.98141E-04   -0.34180E-03 11880   0.421E-01    0.244E-01
DAV:   8    -0.191544443261E+03    0.69516E-03   -0.12437E-03  9880   0.259E-01    0.548E-02
DAV:   9    -0.191544396261E+03    0.47001E-04   -0.15836E-04  6000   0.598E-02
  35 F= -.19154440E+03 E0= -.19144121E+03  d E =-.665333E-01
       N       E                     dE             d eps       ncg     rms          rms(c)
DAV:   1    -0.191564594152E+03   -0.20151E-01   -0.59611E-01  8160   0.164E+00    0.174E-01
DAV:   2    -0.191566389237E+03   -0.17951E-02   -0.16898E-02 13040   0.477E-01    0.324E-01
DAV:   3    -0.191565656999E+03    0.73224E-03   -0.44570E-03 12320   0.462E-01    0.213E-01
DAV:   4    -0.191565319178E+03    0.33782E-03   -0.11243E-03  9720   0.215E-01    0.110E-01
DAV:   5    -0.191565259302E+03    0.59877E-04   -0.60001E-04  8800   0.174E-01
  36 F= -.19156526E+03 E0= -.19146312E+03  d E =-.208630E-01
       N       E                     dE             d eps       ncg     rms          rms(c)
DAV:   1    -0.191596651862E+03   -0.31333E-01   -0.14539E+00  8160   0.257E+00    0.286E-01
DAV:   2    -0.191601064140E+03   -0.44123E-02   -0.40729E-02 13040   0.757E-01    0.521E-01
DAV:   3    -0.191598970774E+03    0.20934E-02   -0.10749E-02 12120   0.760E-01    0.313E-01
DAV:   4    -0.191597964052E+03    0.10067E-02   -0.21926E-03 11040   0.302E-01    0.132E-01
DAV:   5    -0.191598205489E+03   -0.24144E-03   -0.15010E-03 11280   0.277E-01    0.211E-01
DAV:   6    -0.191597906489E+03    0.29900E-03   -0.12591E-03  9760   0.248E-01    0.103E-01
DAV:   7    -0.191597819894E+03    0.86595E-04   -0.40057E-04  8280   0.145E-01
  37 F= -.19159782E+03 E0= -.19149707E+03  d E =-.325606E-01
       N       E                     dE             d eps       ncg     rms          rms(c)
DAV:   1    -0.191616639185E+03   -0.18733E-01   -0.44689E-01  8160   0.144E+00    0.184E-01
DAV:   2    -0.191617807203E+03   -0.11680E-02   -0.15539E-02 13160   0.460E-01    0.289E-01
DAV:   3    -0.191617430329E+03    0.37687E-03   -0.40899E-03 11200   0.445E-01    0.234E-01
DAV:   4    -0.191616984623E+03    0.44571E-03   -0.15804E-03  9800   0.269E-01    0.136E-01
DAV:   5    -0.191616857854E+03    0.12677E-03   -0.68741E-04  9120   0.196E-01    0.105E-01
DAV:   6    -0.191616765018E+03    0.92836E-04   -0.39568E-04  8480   0.144E-01
  38 F= -.19161677E+03 E0= -.19151700E+03  d E =-.189451E-01
       N       E                     dE             d eps       ncg     rms          rms(c)
DAV:   1    -0.191681527290E+03   -0.64669E-01   -0.65929E+00  8160   0.551E+00    0.583E-01
DAV:   2    -0.191693603082E+03   -0.12076E-01   -0.19036E-01 12120   0.124E+00    0.549E-01
DAV:   3    -0.191697340518E+03   -0.37374E-02   -0.33180E-02 12400   0.128E+00    0.856E-01
DAV:   4    -0.191689556486E+03    0.77840E-02   -0.15911E-02 12080   0.968E-01    0.289E-01
DAV:   5    -0.191688729226E+03    0.82726E-03   -0.42683E-03 11320   0.364E-01    0.233E-01
DAV:   6    -0.191689470758E+03   -0.74153E-03   -0.43251E-03 12120   0.501E-01    0.351E-01
DAV:   7    -0.191688170867E+03    0.12999E-02   -0.24173E-03 11000   0.370E-01    0.969E-02
DAV:   8    -0.191688106856E+03    0.64011E-04   -0.36359E-04  7480   0.141E-01
  39 F= -.19168811E+03 E0= -.19159199E+03  d E =-.713418E-01
       N       E                     dE             d eps       ncg     rms          rms(c)
DAV:   1    -0.191752650837E+03   -0.64480E-01   -0.72438E+00  8160   0.578E+00    0.619E-01
DAV:   2    -0.191765217056E+03   -0.12566E-01   -0.21211E-01 12080   0.123E+00    0.485E-01
DAV:   3    -0.191769538150E+03   -0.43211E-02   -0.30048E-02 12320   0.120E+00    0.855E-01
DAV:   4    -0.191761602009E+03    0.79361E-02   -0.16202E-02 12200   0.102E+00    0.298E-01
DAV:   5    -0.191760603893E+03    0.99812E-03   -0.43412E-03 11960   0.373E-01    0.193E-01
DAV:   6    -0.191761060666E+03   -0.45677E-03   -0.35740E-03 12040   0.419E-01    0.292E-01
DAV:   7    -0.191760148050E+03    0.91262E-03   -0.18280E-03 10880   0.342E-01    0.886E-02
DAV:   8    -0.191760102570E+03    0.45480E-04   -0.29437E-04  7640   0.124E-01
  40 F= -.19176010E+03 E0= -.19166827E+03  d E =-.719957E-01
       N       E                     dE             d eps       ncg     rms          rms(c)
DAV:   1    -0.191796257222E+03   -0.36109E-01   -0.30483E+00  8160   0.372E+00    0.428E-01
DAV:   2    -0.191808127243E+03   -0.11870E-01   -0.12108E-01 13200   0.129E+00    0.662E-01
DAV:   3    -0.191804618386E+03    0.35089E-02   -0.17894E-02 12160   0.107E+00    0.447E-01
DAV:   4    -0.191803053451E+03    0.15649E-02   -0.62078E-03 11120   0.573E-01    0.294E-01
DAV:   5    -0.191802488290E+03    0.56516E-03   -0.30300E-03 11760   0.450E-01    0.227E-01
DAV:   6    -0.191802139602E+03    0.34869E-03   -0.16653E-03 12760   0.279E-01    0.106E-01
DAV:   7    -0.191801979685E+03    0.15992E-03   -0.56268E-04  9760   0.102E-01    0.387E-02
DAV:   8    -0.191801975319E+03    0.43660E-05   -0.12004E-04  7280   0.723E-02
  41 F= -.19180198E+03 E0= -.19171246E+03  d E =-.418727E-01
       N       E                     dE             d eps       ncg     rms          rms(c)
DAV:   1    -0.191809004170E+03   -0.70245E-02   -0.29741E-01  8160   0.126E+00    0.245E-01
DAV:   2    -0.191808687957E+03    0.31621E-03   -0.12667E-02 10400   0.467E-01    0.299E-01
DAV:   3    -0.191808389538E+03    0.29842E-03   -0.48033E-03 11680   0.551E-01    0.275E-01
DAV:   4    -0.191807571539E+03    0.81800E-03   -0.24938E-03 11440   0.370E-01    0.159E-01
DAV:   5    -0.191807508609E+03    0.62930E-04   -0.14698E-03 10360   0.291E-01    0.170E-01
DAV:   6    -0.191807174443E+03    0.33417E-03   -0.69993E-04  8840   0.206E-01    0.527E-02
DAV:   7    -0.191807160961E+03    0.13482E-04   -0.12594E-04  5840   0.844E-02
  42 F= -.19180716E+03 E0= -.19171762E+03  d E =-.518564E-02
       N       E                     dE             d eps       ncg     rms          rms(c)
DAV:   1    -0.191842480176E+03   -0.35306E-01   -0.27985E+00  8160   0.358E+00    0.383E-01
DAV:   2    -0.191849874794E+03   -0.73946E-02   -0.89890E-02 12080   0.903E-01    0.467E-01
DAV:   3    -0.191849549085E+03    0.32571E-03   -0.13620E-02 12040   0.913E-01    0.498E-01
DAV:   4    -0.191847188871E+03    0.23602E-02   -0.53411E-03 12200   0.578E-01    0.228E-01
DAV:   5    -0.191846807622E+03    0.38125E-03   -0.21257E-03 11240   0.369E-01    0.188E-01
DAV:   6    -0.191846694317E+03    0.11330E-03   -0.14049E-03 11320   0.281E-01    0.129E-01
DAV:   7    -0.191846468238E+03    0.22608E-03   -0.57515E-04  9800   0.150E-01    0.615E-02
DAV:   8    -0.191846439081E+03    0.29158E-04   -0.11970E-04  6600   0.969E-02
  43 F= -.19184644E+03 E0= -.19175887E+03  d E =-.392781E-01
       N       E                     dE             d eps       ncg     rms          rms(c)
DAV:   1    -0.191904866017E+03   -0.58398E-01   -0.21480E+01  8160   0.100E+01    0.110E+00
DAV:   2    -0.191959755289E+03   -0.54889E-01   -0.74045E-01 12080   0.247E+00    0.118E+00
DAV:   3    -0.191965279836E+03   -0.55245E-02   -0.10825E-01 12240   0.259E+00    0.151E+00
DAV:   4    -0.191940029682E+03    0.25250E-01   -0.42891E-02 12280   0.176E+00    0.501E-01
DAV:   5    -0.191938049244E+03    0.19804E-02   -0.14788E-02 12640   0.802E-01    0.480E-01
DAV:   6    -0.191938771749E+03   -0.72250E-03   -0.15313E-02 12200   0.951E-01    0.527E-01
DAV:   7    -0.191935311918E+03    0.34598E-02   -0.60574E-03 11840   0.592E-01    0.134E-01
DAV:   8    -0.191935243930E+03    0.67988E-04   -0.10317E-03 10480   0.248E-01    0.115E-01
DAV:   9    -0.191935088231E+03    0.15570E-03   -0.30734E-04 10000   0.143E-01    0.424E-02
DAV:  10    -0.191935049722E+03    0.38510E-04   -0.13081E-04  5880   0.506E-02
  44 F= -.19193505E+03 E0= -.19185100E+03  d E =-.886106E-01
       N       E                     dE             d eps       ncg     rms          rms(c)
DAV:   1    -0.191954879756E+03   -0.19792E-01   -0.14703E+01  8160   0.820E+00    0.873E-01
DAV:   2    -0.191999326149E+03   -0.44446E-01   -0.49940E-01 12000   0.224E+00    0.113E+00
DAV:   3    -0.191992446907E+03    0.68792E-02   -0.69868E-02 12240   0.212E+00    0.972E-01
DAV:   4    -0.191982400717E+03    0.10046E-01   -0.21694E-02 12320   0.123E+00    0.450E-01
DAV:   5    -0.191981194287E+03    0.12064E-02   -0.88490E-03 12600   0.793E-01    0.413E-01
DAV:   6    -0.191980528127E+03    0.66616E-03   -0.64539E-03 12720   0.644E-01    0.286E-01
DAV:   7    -0.191979335591E+03    0.11925E-02   -0.27431E-03 11600   0.334E-01    0.124E-01
DAV:   8    -0.191979232703E+03    0.10289E-03   -0.62898E-04  9480   0.202E-01    0.777E-02
DAV:   9    -0.191979164000E+03    0.68703E-04   -0.19490E-04  6720   0.999E-02
  45 F= -.19197916E+03 E0= -.19189707E+03  d E =-.441143E-01
       N       E                     dE             d eps       ncg     rms          rms(c)
DAV:   1    -0.191979249621E+03   -0.16918E-04   -0.79280E-01  8160   0.190E+00    0.211E-01
DAV:   2    -0.191981904520E+03   -0.26549E-02   -0.22672E-02 10960   0.709E-01    0.400E-01
DAV:   3    -0.191980151881E+03    0.17526E-02   -0.49884E-03 12280   0.577E-01    0.166E-01
DAV:   4    -0.191979901181E+03    0.25070E-03   -0.88723E-04 10600   0.228E-01    0.120E-01
DAV:   5    -0.191979860843E+03    0.40338E-04   -0.66477E-04 10680   0.228E-01
  46 F= -.19197986E+03 E0= -.19189744E+03  d E =-.696843E-03
       N       E                     dE             d eps       ncg     rms          rms(c)
DAV:   1    -0.191989044210E+03   -0.91430E-02   -0.77610E-01  8160   0.189E+00    0.226E-01
DAV:   2    -0.191990897073E+03   -0.18529E-02   -0.26788E-02 11280   0.473E-01    0.222E-01
DAV:   3    -0.191990965186E+03   -0.68113E-04   -0.41366E-03 12440   0.469E-01    0.292E-01
DAV:   4    -0.191990171559E+03    0.79363E-03   -0.18378E-03 11600   0.370E-01    0.123E-01
DAV:   5    -0.191989928783E+03    0.24278E-03   -0.57961E-04 10080   0.140E-01    0.530E-02
DAV:   6    -0.191989989248E+03   -0.60466E-04   -0.35457E-04  9520   0.124E-01
  47 F= -.19198999E+03 E0= -.19190797E+03  d E =-.101284E-01
       N       E                     dE             d eps       ncg     rms          rms(c)
DAV:   1    -0.191995195660E+03   -0.52669E-02   -0.24548E-01  8160   0.107E+00    0.133E-01
DAV:   2    -0.191996221831E+03   -0.10262E-02   -0.10250E-02 11160   0.398E-01    0.219E-01
DAV:   3    -0.191995824048E+03    0.39778E-03   -0.17437E-03 12000   0.348E-01    0.130E-01
DAV:   4    -0.191995667719E+03    0.15633E-03   -0.41548E-04  8480   0.171E-01    0.715E-02
DAV:   5    -0.191995647540E+03    0.20179E-04   -0.22505E-04  7600   0.124E-01
  48 F= -.19199565E+03 E0= -.19191398E+03  d E =-.565829E-02
       N       E                     dE             d eps       ncg     rms          rms(c)
DAV:   1    -0.192002334320E+03   -0.66666E-02   -0.46816E-01  8160   0.147E+00    0.185E-01
DAV:   2    -0.192003954067E+03   -0.16197E-02   -0.17267E-02 11840   0.520E-01    0.285E-01
DAV:   3    -0.192003230879E+03    0.72319E-03   -0.27175E-03 12200   0.450E-01    0.164E-01
DAV:   4    -0.192003000734E+03    0.23015E-03   -0.78621E-04  9960   0.224E-01    0.114E-01
DAV:   5    -0.192002958660E+03    0.42074E-04   -0.49672E-04  9280   0.207E-01
  49 F= -.19200296E+03 E0= -.19192215E+03  d E =-.731112E-02
       N       E                     dE             d eps       ncg     rms          rms(c)
DAV:   1    -0.192009202908E+03   -0.62022E-02   -0.43440E-01  8160   0.142E+00    0.168E-01
DAV:   2    -0.192010622195E+03   -0.14193E-02   -0.15442E-02 12280   0.429E-01    0.234E-01
DAV:   3    -0.192010267269E+03    0.35493E-03   -0.25646E-03 12240   0.415E-01    0.184E-01
DAV:   4    -0.192009968163E+03    0.29911E-03   -0.75189E-04  9720   0.231E-01    0.925E-02
DAV:   5    -0.192009895435E+03    0.72728E-04   -0.34750E-04  9120   0.144E-01
  50 F= -.19200990E+03 E0= -.19192981E+03  d E =-.693678E-02
       N       E                     dE             d eps       ncg     rms          rms(c)
DAV:   1    -0.192013905337E+03   -0.39372E-02   -0.16188E-01  8160   0.885E-01    0.118E-01
DAV:   2    -0.192014514112E+03   -0.60878E-03   -0.58295E-03 12480   0.292E-01    0.184E-01
DAV:   3    -0.192014185713E+03    0.32840E-03   -0.12337E-03 11080   0.290E-01    0.107E-01
DAV:   4    -0.192014098994E+03    0.86718E-04   -0.37753E-04  8680   0.139E-01
  51 F= -.19201410E+03 E0= -.19193434E+03  d E =-.420356E-02
       N       E                     dE             d eps       ncg     rms          rms(c)
DAV:   1    -0.192016323920E+03   -0.21382E-02   -0.50039E-02  8160   0.493E-01    0.834E-02
DAV:   2    -0.192016974526E+03   -0.65061E-03   -0.25067E-03 12680   0.305E-01    0.229E-01
DAV:   3    -0.192016348123E+03    0.62640E-03   -0.92833E-04 10280   0.270E-01    0.476E-02
DAV:   4    -0.192016373313E+03   -0.25190E-04   -0.11199E-04  6520   0.910E-02
  52 F= -.19201637E+03 E0= -.19193687E+03  d E =-.227432E-02
       N       E                     dE             d eps       ncg     rms          rms(c)
DAV:   1    -0.192021174095E+03   -0.48260E-02   -0.25759E-01  8160   0.108E+00    0.131E-01
DAV:   2    -0.192022033280E+03   -0.85919E-03   -0.84988E-03 11920   0.360E-01    0.200E-01
DAV:   3    -0.192021655034E+03    0.37825E-03   -0.13683E-03 11680   0.321E-01    0.114E-01
DAV:   4    -0.192021546901E+03    0.10813E-03   -0.37596E-04  8400   0.151E-01    0.742E-02
DAV:   5    -0.192021534776E+03    0.12124E-04   -0.27974E-04  9080   0.139E-01
  53 F= -.19202153E+03 E0= -.19194271E+03  d E =-.516146E-02
       N       E                     dE             d eps       ncg     rms          rms(c)
DAV:   1    -0.192023555487E+03   -0.20086E-02   -0.42610E-02  8160   0.455E-01    0.589E-02
DAV:   2    -0.192023709214E+03   -0.15373E-03   -0.14388E-03 12600   0.140E-01    0.887E-02
DAV:   3    -0.192023624384E+03    0.84830E-04   -0.25239E-04  9480   0.139E-01
  54 F= -.19202362E+03 E0= -.19194511E+03  d E =-.208961E-02
       N       E                     dE             d eps       ncg     rms          rms(c)
DAV:   1    -0.192028200706E+03   -0.44915E-02   -0.23201E-01  8160   0.103E+00    0.124E-01
DAV:   2    -0.192029150161E+03   -0.94946E-03   -0.75893E-03 12000   0.354E-01    0.234E-01
DAV:   3    -0.192028621713E+03    0.52845E-03   -0.14837E-03 11400   0.333E-01    0.108E-01
DAV:   4    -0.192028494454E+03    0.12726E-03   -0.20231E-04  7360   0.106E-01    0.376E-02
DAV:   5    -0.192028550465E+03   -0.56011E-04   -0.15089E-04  7240   0.103E-01
  55 F= -.19202855E+03 E0= -.19195072E+03  d E =-.492608E-02
       N       E                     dE             d eps       ncg     rms          rms(c)
DAV:   1    -0.192033659689E+03   -0.51652E-02   -0.29787E-01  8160   0.117E+00    0.126E-01
DAV:   2    -0.192034337121E+03   -0.67743E-03   -0.92024E-03 11760   0.260E-01    0.117E-01
DAV:   3    -0.192034359311E+03   -0.22190E-04   -0.11146E-03 12080   0.253E-01    0.141E-01
DAV:   4    -0.192034157033E+03    0.20228E-03   -0.40400E-04  8960   0.185E-01    0.652E-02
DAV:   5    -0.192034123667E+03    0.33366E-04   -0.17881E-04  6600   0.974E-02
  56 F= -.19203412E+03 E0= -.19195696E+03  d E =-.557320E-02
       N       E                     dE             d eps       ncg     rms          rms(c)
DAV:   1    -0.192031629503E+03    0.25275E-02   -0.72054E-02  8160   0.589E-01    0.109E-01
DAV:   2    -0.192032831979E+03   -0.12025E-02   -0.43631E-03 12280   0.448E-01    0.320E-01
DAV:   3    -0.192031567078E+03    0.12649E-02   -0.18419E-03 10560   0.378E-01    0.641E-02
DAV:   4    -0.192031573941E+03   -0.68627E-05   -0.23550E-04  7640   0.117E-01
  57 F= -.19203157E+03 E0= -.19195422E+03  d E =0.254973E-02
       N       E                     dE             d eps       ncg     rms          rms(c)
DAV:   1    -0.192018549515E+03    0.13018E-01   -0.13774E+00  8160   0.249E+00    0.271E-01
DAV:   2    -0.192022488264E+03   -0.39387E-02   -0.39670E-02 12000   0.722E-01    0.424E-01
DAV:   3    -0.192021252899E+03    0.12354E-02   -0.71742E-03 12360   0.706E-01    0.289E-01
DAV:   4    -0.192020305997E+03    0.94690E-03   -0.17629E-03 11520   0.306E-01    0.107E-01
DAV:   5    -0.192020365441E+03   -0.59444E-04   -0.89431E-04 10520   0.216E-01
  58 F= -.19202037E+03 E0= -.19194155E+03  d E =0.112085E-01
       N       E                     dE             d eps       ncg     rms          rms(c)
DAV:   1    -0.192034370972E+03   -0.14065E-01   -0.33895E+00  8160   0.391E+00    0.417E-01
DAV:   2    -0.192044787087E+03   -0.10416E-01   -0.99994E-02 11640   0.118E+00    0.679E-01
DAV:   3    -0.192040998358E+03    0.37887E-02   -0.17128E-02 12360   0.110E+00    0.432E-01
DAV:   4    -0.192039144656E+03    0.18537E-02   -0.46961E-03 11520   0.516E-01    0.207E-01
DAV:   5    -0.192038782648E+03    0.36201E-03   -0.18845E-03 12160   0.337E-01    0.179E-01
DAV:   6    -0.192038778313E+03    0.43356E-05   -0.16325E-03 12640   0.334E-01    0.151E-01
DAV:   7    -0.192038411596E+03    0.36672E-03   -0.59765E-04  9280   0.164E-01    0.244E-02
DAV:   8    -0.192038415972E+03   -0.43755E-05   -0.72701E-05  6880   0.473E-02
  59 F= -.19203842E+03 E0= -.19196193E+03  d E =-.180505E-01
       N       E                     dE             d eps       ncg     rms          rms(c)
DAV:   1    -0.192038714568E+03   -0.30297E-03   -0.70092E-03  8440   0.184E-01    0.318E-02
DAV:   2    -0.192038846591E+03   -0.13202E-03   -0.45419E-04 11040   0.144E-01    0.104E-01
DAV:   3    -0.192038713402E+03    0.13319E-03   -0.19398E-04  7160   0.124E-01    0.151E-02
DAV:   4    -0.192038717588E+03   -0.41863E-05   -0.24861E-05  5880   0.258E-02
  60 F= -.19203872E+03 E0= -.19196225E+03  d E =-.301616E-03
       N       E                     dE             d eps       ncg     rms          rms(c)
DAV:   1    -0.192045927065E+03   -0.72137E-02   -0.57680E-01  8160   0.161E+00    0.165E-01
DAV:   2    -0.192047224238E+03   -0.12972E-02   -0.15996E-02 11640   0.419E-01    0.200E-01
DAV:   3    -0.192047225678E+03   -0.14402E-05   -0.22270E-03 12320   0.401E-01    0.210E-01
DAV:   4    -0.192046716802E+03    0.50888E-03   -0.80844E-04 10080   0.230E-01    0.583E-02
DAV:   5    -0.192046739647E+03   -0.22844E-04   -0.27825E-04  7640   0.933E-02
  61 F= -.19204674E+03 E0= -.19197145E+03  d E =-.802206E-02
       N       E                     dE             d eps       ncg     rms          rms(c)
DAV:   1    -0.192022741552E+03    0.23975E-01   -0.35215E+00  8160   0.398E+00    0.407E-01
DAV:   2    -0.192032857331E+03   -0.10116E-01   -0.10219E-01 11680   0.111E+00    0.630E-01
DAV:   3    -0.192030465412E+03    0.23919E-02   -0.15487E-02 12880   0.107E+00    0.448E-01
DAV:   4    -0.192028049420E+03    0.24160E-02   -0.36187E-03 11560   0.467E-01    0.144E-01
DAV:   5    -0.192028302341E+03   -0.25292E-03   -0.16368E-03 12720   0.301E-01    0.197E-01
DAV:   6    -0.192028037410E+03    0.26493E-03   -0.13556E-03 11440   0.323E-01    0.125E-01
DAV:   7    -0.192027791419E+03    0.24599E-03   -0.39931E-04  9280   0.147E-01    0.298E-02
DAV:   8    -0.192027795014E+03   -0.35948E-05   -0.73904E-05  7480   0.604E-02
  62 F= -.19202780E+03 E0= -.19194958E+03  d E =0.189446E-01
       N       E                     dE             d eps       ncg     rms          rms(c)
DAV:   1    -0.192008026140E+03    0.19765E-01   -0.38643E+00  8160   0.416E+00    0.415E-01
DAV:   2    -0.192017207088E+03   -0.91809E-02   -0.10083E-01 11880   0.109E+00    0.586E-01
DAV:   3    -0.192015880290E+03    0.13268E-02   -0.16200E-02 12200   0.105E+00    0.479E-01
DAV:   4    -0.192013047862E+03    0.28324E-02   -0.41517E-03 11800   0.495E-01    0.131E-01
DAV:   5    -0.192013456851E+03   -0.40899E-03   -0.19059E-03 10680   0.281E-01    0.202E-01
DAV:   6    -0.192013175499E+03    0.28135E-03   -0.14013E-03 10480   0.339E-01    0.144E-01
DAV:   7    -0.192012887404E+03    0.28810E-03   -0.43341E-04  8880   0.158E-01    0.310E-02
DAV:   8    -0.192012891705E+03   -0.43010E-05   -0.74902E-05  6640   0.617E-02
  63 F= -.19201289E+03 E0= -.19193164E+03  d E =0.149033E-01
       N       E                     dE             d eps       ncg     rms          rms(c)
DAV:   1    -0.192014808328E+03   -0.19209E-02   -0.15653E-01  8160   0.840E-01    0.982E-02
DAV:   2    -0.192015725852E+03   -0.91752E-03   -0.65296E-03 12760   0.379E-01    0.223E-01
DAV:   3    -0.192015171289E+03    0.55456E-03   -0.12379E-03 10440   0.297E-01    0.672E-02
DAV:   4    -0.192015117723E+03    0.53566E-04   -0.99575E-05  6160   0.778E-02
  64 F= -.19201512E+03 E0= -.19193358E+03  d E =-.222602E-02
       N       E                     dE             d eps       ncg     rms          rms(c)
DAV:   1    -0.192017713021E+03   -0.25417E-02   -0.28306E-01  8160   0.114E+00    0.141E-01
DAV:   2    -0.192018714546E+03   -0.10015E-02   -0.11026E-02 11240   0.382E-01    0.208E-01
DAV:   3    -0.192018455713E+03    0.25883E-03   -0.16713E-03 12520   0.356E-01    0.151E-01
DAV:   4    -0.192018191156E+03    0.26456E-03   -0.40332E-04  8840   0.170E-01    0.561E-02
DAV:   5    -0.192018251039E+03   -0.59883E-04   -0.24836E-04  8600   0.141E-01
  65 F= -.19201825E+03 E0= -.19193630E+03  d E =-.313332E-02
       N       E                     dE             d eps       ncg     rms          rms(c)
DAV:   1    -0.192019461271E+03   -0.12701E-02   -0.22015E-01  8160   0.101E+00    0.127E-01
DAV:   2    -0.192019787004E+03   -0.32573E-03   -0.67964E-03 12120   0.268E-01    0.130E-01
DAV:   3    -0.192019889059E+03   -0.10205E-03   -0.13567E-03 10920   0.296E-01    0.166E-01
DAV:   4    -0.192019541254E+03    0.34781E-03   -0.56376E-04  8480   0.197E-01    0.436E-02
DAV:   5    -0.192019531694E+03    0.95599E-05   -0.14663E-04  6400   0.611E-02
  66 F= -.19201953E+03 E0= -.19193703E+03  d E =-.128065E-02
       N       E                     dE             d eps       ncg     rms          rms(c)
DAV:   1    -0.192021668820E+03   -0.21276E-02   -0.10286E+00  8160   0.216E+00    0.234E-01
DAV:   2    -0.192025320453E+03   -0.36516E-02   -0.33905E-02 12120   0.700E-01    0.391E-01
DAV:   3    -0.192023873953E+03    0.14465E-02   -0.56545E-03 12520   0.619E-01    0.212E-01
DAV:   4    -0.192023483212E+03    0.39074E-03   -0.10899E-03 10040   0.276E-01    0.132E-01
DAV:   5    -0.192023394588E+03    0.88624E-04   -0.63071E-04 10400   0.230E-01
  67 F= -.19202339E+03 E0= -.19193996E+03  d E =-.386289E-02
       N       E                     dE             d eps       ncg     rms          rms(c)
DAV:   1    -0.192026090656E+03   -0.26074E-02   -0.63539E-01  8160   0.171E+00    0.212E-01
DAV:   2    -0.192028433470E+03   -0.23428E-02   -0.24315E-02 11640   0.592E-01    0.323E-01
DAV:   3    -0.192027556002E+03    0.87747E-03   -0.40134E-03 12440   0.530E-01    0.193E-01
DAV:   4    -0.192027182875E+03    0.37313E-03   -0.97207E-04  9920   0.253E-01    0.113E-01
DAV:   5    -0.192027164573E+03    0.18302E-04   -0.49543E-04 10200   0.209E-01
  68 F= -.19202716E+03 E0= -.19194375E+03  d E =-.376998E-02
       N       E                     dE             d eps       ncg     rms          rms(c)
DAV:   1    -0.192028255970E+03   -0.10731E-02   -0.25367E+00  8160   0.341E+00    0.397E-01
DAV:   2    -0.192036224486E+03   -0.79685E-02   -0.95539E-02 11400   0.106E+00    0.497E-01
DAV:   3    -0.192034538060E+03    0.16864E-02   -0.14075E-02 12040   0.903E-01    0.387E-01
DAV:   4    -0.192032873848E+03    0.16642E-02   -0.38798E-03 12080   0.521E-01    0.198E-01
DAV:   5    -0.192032658537E+03    0.21531E-03   -0.18211E-03 11480   0.333E-01    0.182E-01
DAV:   6    -0.192032659190E+03   -0.65304E-06   -0.14563E-03 10720   0.331E-01    0.157E-01
DAV:   7    -0.192032287929E+03    0.37126E-03   -0.56172E-04 10200   0.165E-01    0.233E-02
DAV:   8    -0.192032292613E+03   -0.46833E-05   -0.51585E-05  6560   0.346E-02
  69 F= -.19203229E+03 E0= -.19194890E+03  d E =-.512804E-02
       N       E                     dE             d eps       ncg     rms          rms(c)
DAV:   1    -0.192032044868E+03    0.24306E-03   -0.76479E-02  8160   0.612E-01    0.964E-02
DAV:   2    -0.192032373107E+03   -0.32824E-03   -0.36471E-03 10800   0.289E-01    0.171E-01
DAV:   3    -0.192032046782E+03    0.32632E-03   -0.94020E-04 11040   0.246E-01    0.713E-02
DAV:   4    -0.192031990267E+03    0.56516E-04   -0.20985E-04  7720   0.115E-01
  70 F= -.19203199E+03 E0= -.19194846E+03  d E =0.302346E-03
