<?xml version="1.0" encoding="ISO-8859-1"?>
<modeling>
 <generator>
  <i name="program" type="string">vasp </i>
  <i name="version" type="string">5.4.1  </i>
  <i name="subversion" type="string">05Feb16 (build Jul 05 2020 17:13:04) complex                          parallel </i>
  <i name="platform" type="string">IFC91_ompi </i>
  <i name="date" type="string">2024 04 21 </i>
  <i name="time" type="string">21:58:19 </i>
 </generator>
 <incar>
  <i type="int" name="ISTART">     0</i>
  <i type="string" name="PREC">normal</i>
  <i type="string" name="ALGO"> Normal</i>
  <i type="int" name="ISPIN">     1</i>
  <i type="int" name="ICHARG">     2</i>
  <i type="int" name="IBRION">     1</i>
  <i type="int" name="NSW">   100</i>
  <i type="int" name="ISIF">     3</i>
  <i type="int" name="ISYM">     0</i>
  <i name="SYMPREC">      0.00000001</i>
  <i name="POTIM">      0.50000000</i>
  <i type="logical" name="LREAL"> F  </i>
  <i type="logical" name="LPLANE"> F  </i>
  <i type="int" name="ISMEAR">     0</i>
  <i type="logical" name="LWAVE"> F  </i>
  <i type="logical" name="LCHARG"> F  </i>
  <v type="int" name="KPOINT_BSE">    -1     0     0     0</v>
 </incar>
 <kpoints>
  <generation param="Gamma">
   <v type="int" name="divisions">       8        8        1 </v>
   <v name="usershift">      0.00000000       0.00000000       0.00000000 </v>
   <v name="genvec1">      0.12500000       0.00000000       0.00000000 </v>
   <v name="genvec2">     -0.00000000       0.12500000       0.00000000 </v>
   <v name="genvec3">      0.00000000       0.00000000       1.00000000 </v>
   <v name="shift">      0.00000000       0.00000000       0.00000000 </v>
  </generation>
  <varray name="kpointlist" >
   <v>       0.00000000       0.00000000       0.00000000 </v>
   <v>       0.12500000       0.00000000       0.00000000 </v>
   <v>       0.25000000       0.00000000       0.00000000 </v>
   <v>       0.37500000       0.00000000       0.00000000 </v>
   <v>       0.50000000       0.00000000       0.00000000 </v>
   <v>       0.00000000       0.12500000       0.00000000 </v>
   <v>       0.12500000       0.12500000       0.00000000 </v>
   <v>       0.25000000       0.12500000       0.00000000 </v>
   <v>       0.37500000       0.12500000       0.00000000 </v>
   <v>       0.50000000       0.12500000       0.00000000 </v>
   <v>      -0.37500000       0.12500000       0.00000000 </v>
   <v>      -0.25000000       0.12500000       0.00000000 </v>
   <v>      -0.12500000       0.12500000       0.00000000 </v>
   <v>       0.00000000       0.25000000       0.00000000 </v>
   <v>       0.12500000       0.25000000       0.00000000 </v>
   <v>       0.25000000       0.25000000       0.00000000 </v>
   <v>       0.37500000       0.25000000       0.00000000 </v>
   <v>       0.50000000       0.25000000       0.00000000 </v>
   <v>      -0.37500000       0.25000000       0.00000000 </v>
   <v>      -0.25000000       0.25000000       0.00000000 </v>
   <v>      -0.12500000       0.25000000       0.00000000 </v>
   <v>      -0.00000000       0.37500000       0.00000000 </v>
   <v>       0.12500000       0.37500000       0.00000000 </v>
   <v>       0.25000000       0.37500000       0.00000000 </v>
   <v>       0.37500000       0.37500000       0.00000000 </v>
   <v>       0.50000000       0.37500000       0.00000000 </v>
   <v>      -0.37500000       0.37500000       0.00000000 </v>
   <v>      -0.25000000       0.37500000       0.00000000 </v>
   <v>      -0.12500000       0.37500000       0.00000000 </v>
   <v>       0.00000000       0.50000000       0.00000000 </v>
   <v>       0.12500000       0.50000000       0.00000000 </v>
   <v>       0.25000000       0.50000000       0.00000000 </v>
   <v>       0.37500000       0.50000000       0.00000000 </v>
   <v>       0.50000000       0.50000000       0.00000000 </v>
  </varray>
  <varray name="weights" >
   <v>       0.01562500 </v>
   <v>       0.03125000 </v>
   <v>       0.03125000 </v>
   <v>       0.03125000 </v>
   <v>       0.01562500 </v>
   <v>       0.03125000 </v>
   <v>       0.03125000 </v>
   <v>       0.03125000 </v>
   <v>       0.03125000 </v>
   <v>       0.03125000 </v>
   <v>       0.03125000 </v>
   <v>       0.03125000 </v>
   <v>       0.03125000 </v>
   <v>       0.03125000 </v>
   <v>       0.03125000 </v>
   <v>       0.03125000 </v>
   <v>       0.03125000 </v>
   <v>       0.03125000 </v>
   <v>       0.03125000 </v>
   <v>       0.03125000 </v>
   <v>       0.03125000 </v>
   <v>       0.03125000 </v>
   <v>       0.03125000 </v>
   <v>       0.03125000 </v>
   <v>       0.03125000 </v>
   <v>       0.03125000 </v>
   <v>       0.03125000 </v>
   <v>       0.03125000 </v>
   <v>       0.03125000 </v>
   <v>       0.01562500 </v>
   <v>       0.03125000 </v>
   <v>       0.03125000 </v>
   <v>       0.03125000 </v>
   <v>       0.01562500 </v>
  </varray>
 </kpoints>
 <parameters>
  <separator name="general" >
   <i type="string" name="SYSTEM">unknown system</i>
   <i type="logical" name="LCOMPAT"> F  </i>
  </separator>
  <separator name="electronic" >
   <i type="string" name="PREC">normal</i>
   <i name="ENMAX">    280.00000000</i>
   <i name="ENAUG">    373.43800000</i>
   <i name="EDIFF">      0.00010000</i>
   <i type="int" name="IALGO">    38</i>
   <i type="int" name="IWAVPR">    11</i>
   <i type="int" name="NBANDS">   120</i>
   <i name="NELECT">    159.00000000</i>
   <i type="int" name="TURBO">     0</i>
   <i type="int" name="IRESTART">     0</i>
   <i type="int" name="NREBOOT">     0</i>
   <i type="int" name="NMIN">     0</i>
   <i name="EREF">      0.00000000</i>
   <separator name="electronic smearing" >
    <i type="int" name="ISMEAR">     0</i>
    <i name="SIGMA">      0.20000000</i>
    <i name="KSPACING">      0.50000000</i>
    <i type="logical" name="KGAMMA"> T  </i>
   </separator>
   <separator name="electronic projectors" >
    <i type="logical" name="LREAL"> F  </i>
    <v name="ROPT">      0.00000000      0.00000000      0.00000000      0.00000000</v>
    <i type="int" name="LMAXPAW">  -100</i>
    <i type="int" name="LMAXMIX">     2</i>
    <i type="logical" name="NLSPLINE"> F  </i>
   </separator>
   <separator name="electronic startup" >
    <i type="int" name="ISTART">     0</i>
    <i type="int" name="ICHARG">     2</i>
    <i type="int" name="INIWAV">     1</i>
   </separator>
   <separator name="electronic spin" >
    <i type="int" name="ISPIN">     1</i>
    <i type="logical" name="LNONCOLLINEAR"> F  </i>
    <v name="MAGMOM">      1.00000000      1.00000000      1.00000000      1.00000000      1.00000000      1.00000000      1.00000000      1.00000000      1.00000000      1.00000000      1.00000000      1.00000000      1.00000000      1.00000000      1.00000000      1.00000000      1.00000000      1.00000000      1.00000000      1.00000000
      1.00000000      1.00000000      1.00000000      1.00000000      1.00000000      1.00000000      1.00000000</v>
    <i name="NUPDOWN">     -1.00000000</i>
    <i type="logical" name="LSORBIT"> F  </i>
    <v name="SAXIS">      0.00000000      0.00000000      1.00000000</v>
    <i type="logical" name="LSPIRAL"> F  </i>
    <v name="QSPIRAL">      0.00000000      0.00000000      0.00000000</v>
    <i type="logical" name="LZEROZ"> F  </i>
   </separator>
   <separator name="electronic exchange-correlation" >
    <i type="logical" name="LASPH"> F  </i>
    <i type="logical" name="LMETAGGA"> F  </i>
   </separator>
   <separator name="electronic convergence" >
    <i type="int" name="NELM">    60</i>
    <i type="int" name="NELMDL">    -5</i>
    <i type="int" name="NELMIN">     2</i>
    <i name="ENINI">    280.00000000</i>
    <separator name="electronic convergence detail" >
     <i type="logical" name="LDIAG"> T  </i>
     <i type="logical" name="LSUBROT"> F  </i>
     <i name="WEIMIN">      0.00100000</i>
     <i name="EBREAK">      0.00000021</i>
     <i name="DEPER">      0.30000000</i>
     <i type="int" name="NRMM">     4</i>
     <i name="TIME">      0.40000000</i>
    </separator>
   </separator>
   <separator name="electronic mixer" >
    <i name="AMIX">      0.40000000</i>
    <i name="BMIX">      1.00000000</i>
    <i name="AMIN">      0.10000000</i>
    <i name="AMIX_MAG">      1.60000000</i>
    <i name="BMIX_MAG">      1.00000000</i>
    <separator name="electronic mixer details" >
     <i type="int" name="IMIX">     4</i>
     <i type="logical" name="MIXFIRST"> F  </i>
     <i type="int" name="MAXMIX">   -45</i>
     <i name="WC">    100.00000000</i>
     <i type="int" name="INIMIX">     1</i>
     <i type="int" name="MIXPRE">     1</i>
     <i type="int" name="MREMOVE">     5</i>
    </separator>
   </separator>
   <separator name="electronic dipolcorrection" >
    <i type="logical" name="LDIPOL"> F  </i>
    <i type="logical" name="LMONO"> F  </i>
    <i type="int" name="IDIPOL">     0</i>
    <i name="EPSILON">      1.00000000</i>
    <v name="DIPOL">   -100.00000000   -100.00000000   -100.00000000</v>
    <i name="EFIELD">      0.00000000</i>
   </separator>
  </separator>
  <separator name="grids" >
   <i type="int" name="NGX">    42</i>
   <i type="int" name="NGY">    42</i>
   <i type="int" name="NGZ">   126</i>
   <i type="int" name="NGXF">    84</i>
   <i type="int" name="NGYF">    84</i>
   <i type="int" name="NGZF">   252</i>
   <i type="logical" name="ADDGRID"> F  </i>
  </separator>
  <separator name="ionic" >
   <i type="int" name="NSW">   100</i>
   <i type="int" name="IBRION">     1</i>
   <i type="int" name="ISIF">     3</i>
   <i name="PSTRESS">      0.00000000</i>
   <i name="EDIFFG">      0.00100000</i>
   <i type="int" name="NFREE">     0</i>
   <i name="POTIM">      0.50000000</i>
   <i name="SMASS">     -3.00000000</i>
   <i name="SCALEE">      1.00000000</i>
  </separator>
  <separator name="ionic md" >
   <i name="TEBEG">      0.00010000</i>
   <i name="TEEND">      0.00010000</i>
   <i type="int" name="NBLOCK">     1</i>
   <i type="int" name="KBLOCK">   100</i>
   <i type="int" name="NPACO">   256</i>
   <i name="APACO">     16.00000000</i>
  </separator>
  <separator name="symmetry" >
   <i type="int" name="ISYM">     0</i>
   <i name="SYMPREC">      0.00000001</i>
  </separator>
  <separator name="dos" >
   <i type="logical" name="LORBIT"> F  </i>
   <v name="RWIGS">     -1.00000000     -1.00000000     -1.00000000     -1.00000000</v>
   <i type="int" name="NEDOS">   301</i>
   <i name="EMIN">     10.00000000</i>
   <i name="EMAX">    -10.00000000</i>
   <i name="EFERMI">      0.00000000</i>
  </separator>
  <separator name="writing" >
   <i type="int" name="NWRITE">     2</i>
   <i type="logical" name="LWAVE"> F  </i>
   <i type="logical" name="LCHARG"> F  </i>
   <i type="logical" name="LPARD"> F  </i>
   <i type="logical" name="LVTOT"> F  </i>
   <i type="logical" name="LVHAR"> F  </i>
   <i type="logical" name="LELF"> F  </i>
   <i type="logical" name="LOPTICS"> F  </i>
   <v name="STM">      0.00000000      0.00000000      0.00000000      0.00000000      0.00000000      0.00000000      0.00000000</v>
  </separator>
  <separator name="performance" >
   <i type="int" name="NPAR">    40</i>
   <i type="int" name="NSIM">     4</i>
   <i type="int" name="NBLK">    -1</i>
   <i type="logical" name="LPLANE"> F  </i>
   <i type="logical" name="LSCALAPACK"> T  </i>
   <i type="logical" name="LSCAAWARE"> F  </i>
   <i type="logical" name="LSCALU"> F  </i>
   <i type="logical" name="LASYNC"> F  </i>
   <i type="logical" name="LORBITALREAL"> F  </i>
  </separator>
  <separator name="miscellaneous" >
   <i type="int" name="IDIOT">     3</i>
   <i type="logical" name="LMUSIC"> F  </i>
   <v name="POMASS">     50.94100000     95.94000000    183.85000000     32.06600000</v>
   <v name="DARWINR">      0.00000000      0.00000000      0.00000000      0.00000000</v>
   <v name="DARWINV">      1.00000000      1.00000000      1.00000000      1.00000000</v>
   <i type="logical" name="LCORR"> T  </i>
  </separator>
  <i type="logical" name="GGA_COMPAT"> T  </i>
  <i type="logical" name="LBERRY"> F  </i>
  <i type="int" name="ICORELEVEL">     0</i>
  <i type="logical" name="LDAU"> F  </i>
  <i type="int" name="I_CONSTRAINED_M">     0</i>
  <separator name="electronic exchange-correlation" >
   <i type="string" name="GGA">--</i>
   <i type="int" name="VOSKOWN">     0</i>
   <i type="logical" name="LHFCALC"> F  </i>
   <i type="string" name="PRECFOCK"></i>
   <i type="logical" name="LSYMGRAD"> F  </i>
   <i type="logical" name="LHFONE"> F  </i>
   <i type="logical" name="LRHFCALC"> F  </i>
   <i type="logical" name="LTHOMAS"> F  </i>
   <i type="logical" name="LMODELHF"> F  </i>
   <i name="ENCUT4O">     -1.00000000</i>
   <i type="int" name="EXXOEP">     0</i>
   <i type="int" name="FOURORBIT">     0</i>
   <i name="AEXX">      0.00000000</i>
   <i name="HFALPHA">      0.00000000</i>
   <i name="MCALPHA">      0.00000000</i>
   <i name="ALDAX">      1.00000000</i>
   <i name="AGGAX">      1.00000000</i>
   <i name="ALDAC">      1.00000000</i>
   <i name="AGGAC">      1.00000000</i>
   <i type="int" name="NKREDX">     1</i>
   <i type="int" name="NKREDY">     1</i>
   <i type="int" name="NKREDZ">     1</i>
   <i type="logical" name="SHIFTRED"> F  </i>
   <i type="logical" name="ODDONLY"> F  </i>
   <i type="logical" name="EVENONLY"> F  </i>
   <i type="int" name="LMAXFOCK">     0</i>
   <i type="int" name="NMAXFOCKAE">     0</i>
   <i type="logical" name="LFOCKAEDFT"> F  </i>
   <i name="HFSCREEN">      0.00000000</i>
   <i name="HFSCREENC">      0.00000000</i>
   <i type="int" name="NBANDSGWLOW">     0</i>
  </separator>
  <separator name="vdW DFT" >
   <i type="logical" name="LUSE_VDW"> F  </i>
   <i name="Zab_VDW">     -0.84910000</i>
   <i name="PARAM1">      0.12340000</i>
   <i name="PARAM2">      1.00000000</i>
   <i name="PARAM3">      0.00000000</i>
  </separator>
  <separator name="model GW" >
   <i type="int" name="MODEL_GW">     0</i>
   <i name="MODEL_EPS0">     58.26239943</i>
   <i name="MODEL_ALPHA">      1.00000000</i>
  </separator>
  <separator name="linear response parameters" >
   <i type="logical" name="LEPSILON"> F  </i>
   <i type="logical" name="LRPA"> F  </i>
   <i type="logical" name="LNABLA"> F  </i>
   <i type="logical" name="LVEL"> F  </i>
   <i type="int" name="KINTER">     0</i>
   <i name="CSHIFT">      0.10000000</i>
   <i name="OMEGAMAX">     -1.00000000</i>
   <i name="DEG_THRESHOLD">      0.00200000</i>
  </separator>
  <separator name="orbital magnetization" >
   <i type="logical" name="NUCIND"> F  </i>
   <v name="MAGPOS">      0.00000000      0.00000000      0.00000000</v>
   <i type="logical" name="LNICSALL"> T  </i>
   <i type="logical" name="ORBITALMAG"> F  </i>
   <i type="logical" name="LMAGBLOCH"> F  </i>
   <i type="logical" name="LCHIMAG"> F  </i>
   <i type="logical" name="LGAUGE"> T  </i>
   <i type="int" name="MAGATOM">     0</i>
   <v name="MAGDIPOL">      0.00000000      0.00000000      0.00000000</v>
   <v name="AVECCONST">      0.00000000      0.00000000      0.00000000</v>
  </separator>
  <separator name="response functions" >
   <i type="logical" name="LADDER"> F  </i>
   <i type="logical" name="LFXC"> F  </i>
   <i type="logical" name="LHARTREE"> T  </i>
   <i type="int" name="IBSE">     0</i>
   <v type="int" name="KPOINT">    -1     0     0     0</v>
   <i type="logical" name="LTCTE"> F  </i>
   <i type="logical" name="LTETE"> F  </i>
   <i type="logical" name="LTRIPLET"> F  </i>
   <i type="logical" name="LFXCEPS"> F  </i>
   <i type="logical" name="LFXHEG"> F  </i>
   <i type="int" name="NATURALO">     0</i>
   <i type="logical" name="L2ORDER"> F  </i>
   <i type="logical" name="LUSEW"> F  </i>
   <i name="ENCUTGW">     -2.00000000</i>
   <i name="ENCUTGWSOFT">     -2.00000000</i>
   <i name="ENCUTLF">     -1.00000000</i>
   <i type="int" name="LMAXMP2">    -1</i>
   <i name="SCISSOR">      0.00000000</i>
   <i type="int" name="NOMEGA">     0</i>
   <i type="int" name="NOMEGAR">     0</i>
   <i type="int" name="NBANDSGW">    -1</i>
   <i type="int" name="NBANDSO">    -1</i>
   <i type="int" name="NBANDSV">    -1</i>
   <i type="int" name="NELM">     1</i>
   <i type="int" name="NELMHF">     1</i>
   <i type="int" name="DIM">     3</i>
   <i type="int" name="ANTIRES">     0</i>
   <i name="OMEGAMAX">    -30.00000000</i>
   <i name="OMEGAMIN">    -30.00000000</i>
   <i name="OMEGATL">   -200.00000000</i>
   <i type="int" name="OMEGAGRID">     0</i>
   <i name="CSHIFT">     -0.10000000</i>
   <i type="logical" name="SELFENERGY"> F  </i>
   <i type="logical" name="LSPECTRAL"> F  </i>
   <i type="logical" name="LSPECTRALGW"> F  </i>
   <i type="logical" name="LSINGLES"> F  </i>
   <i type="logical" name="LFERMIGW"> F  </i>
   <i type="logical" name="ODDONLYGW"> F  </i>
   <i type="logical" name="EVENONLYGW"> F  </i>
   <i type="int" name="NKREDLFX">     1</i>
   <i type="int" name="NKREDLFY">     1</i>
   <i type="int" name="NKREDLFZ">     1</i>
   <i type="int" name="MAXMEM">  1800</i>
   <i type="int" name="TELESCOPE">     0</i>
   <i type="int" name="TAUPAR">     1</i>
   <i type="int" name="OMEGAPAR">    -1</i>
   <i name="LAMBDA">      1.00000000</i>
  </separator>
  <separator name="External order field" >
   <i name="OFIELD_KAPPA">      0.00000000</i>
   <v name="OFIELD_K">      0.00000000      0.00000000      0.00000000</v>
   <i name="OFIELD_Q6_NEAR">      0.00000000</i>
   <i name="OFIELD_Q6_FAR">      0.00000000</i>
   <i name="OFIELD_A">      0.00000000</i>
  </separator>
 </parameters>
 <atominfo>
  <atoms>      27 </atoms>
  <types>       4 </types>
  <array name="atoms" >
   <dimension dim="1">ion</dimension>
   <field type="string">element</field>
   <field type="int">atomtype</field>
   <set>
    <rc><c>V </c><c>   1</c></rc>
    <rc><c>V </c><c>   1</c></rc>
    <rc><c>V </c><c>   1</c></rc>
    <rc><c>Mo</c><c>   2</c></rc>
    <rc><c>Mo</c><c>   2</c></rc>
    <rc><c>Mo</c><c>   2</c></rc>
    <rc><c>W </c><c>   3</c></rc>
    <rc><c>W </c><c>   3</c></rc>
    <rc><c>W </c><c>   3</c></rc>
    <rc><c>S </c><c>   4</c></rc>
    <rc><c>S </c><c>   4</c></rc>
    <rc><c>S </c><c>   4</c></rc>
    <rc><c>S </c><c>   4</c></rc>
    <rc><c>S </c><c>   4</c></rc>
    <rc><c>S </c><c>   4</c></rc>
    <rc><c>S </c><c>   4</c></rc>
    <rc><c>S </c><c>   4</c></rc>
    <rc><c>S </c><c>   4</c></rc>
    <rc><c>S </c><c>   4</c></rc>
    <rc><c>S </c><c>   4</c></rc>
    <rc><c>S </c><c>   4</c></rc>
    <rc><c>S </c><c>   4</c></rc>
    <rc><c>S </c><c>   4</c></rc>
    <rc><c>S </c><c>   4</c></rc>
    <rc><c>S </c><c>   4</c></rc>
    <rc><c>S </c><c>   4</c></rc>
    <rc><c>S </c><c>   4</c></rc>
   </set>
  </array>
  <array name="atomtypes" >
   <dimension dim="1">type</dimension>
   <field type="int">atomspertype</field>
   <field type="string">element</field>
   <field>mass</field>
   <field>valence</field>
   <field type="string">pseudopotential</field>
   <set>
    <rc><c>   3</c><c>V </c><c>     50.94100000</c><c>      5.00000000</c><c> PAW_PBE V 08Apr2002                    </c></rc>
    <rc><c>   3</c><c>Mo</c><c>     95.94000000</c><c>      6.00000000</c><c> PAW_PBE Mo 08Apr2002                   </c></rc>
    <rc><c>   3</c><c>W </c><c>    183.85000000</c><c>      6.00000000</c><c> PAW_PBE W 08Apr2002                    </c></rc>
    <rc><c>  18</c><c>S </c><c>     32.06600000</c><c>      6.00000000</c><c>  PAW_PBE S 17Jan2003                   </c></rc>
   </set>
  </array>
 </atominfo>
 <structure name="initialpos" >
  <crystal>
   <varray name="basis" >
    <v>       8.66999996       5.03999989       0.00000000 </v>
    <v>      -8.66999982       5.04000013       0.00000000 </v>
    <v>       0.00000000       0.00000000      30.00000000 </v>
   </varray>
   <i name="volume">   2621.80797419 </i>
   <varray name="rec_basis" >
    <v>       0.05767013       0.09920635       0.00000000 </v>
    <v>      -0.05767013       0.09920635       0.00000000 </v>
    <v>       0.00000000       0.00000000       0.03333333 </v>
   </varray>
  </crystal>
  <varray name="positions" >
   <v>       0.33333334       0.00000000       0.00000000 </v>
   <v>       0.00000000       0.66666669       0.00000000 </v>
   <v>       0.66666669       0.66666669       0.00000000 </v>
   <v>       0.33333334       0.66666669       0.00000000 </v>
   <v>       0.33333334       0.33333334       0.00000000 </v>
   <v>       0.66666669       0.33333334       0.00000000 </v>
   <v>       0.00000000       0.00000000       0.00000000 </v>
   <v>       1.00000000       0.33333334       0.00000000 </v>
   <v>       0.66666669       0.00000000       0.00000000 </v>
   <v>       0.11068511       0.22244981       0.95539999 </v>
   <v>       0.22244981       0.11068511       0.04460000 </v>
   <v>       0.11068511       0.55578315       0.95539999 </v>
   <v>       0.22244981       0.44401845       0.04460000 </v>
   <v>       0.11068511       0.88911647       0.95539999 </v>
   <v>       0.22244981       0.77735180       0.04460000 </v>
   <v>       0.44401845       0.22244981       0.95539999 </v>
   <v>       0.55578315       0.11068511       0.04460000 </v>
   <v>       0.44401845       0.55578315       0.95539999 </v>
   <v>       0.55578315       0.44401845       0.04460000 </v>
   <v>       0.44401845       0.88911647       0.95539999 </v>
   <v>       0.55578315       0.77735180       0.04460000 </v>
   <v>       0.77735180       0.22244981       0.95539999 </v>
   <v>       0.88911647       0.11068511       0.04460000 </v>
   <v>       0.77735180       0.55578315       0.95539999 </v>
   <v>       0.88911647       0.44401845       0.04460000 </v>
   <v>       0.77735180       0.88911647       0.95539999 </v>
   <v>       0.88911647       0.77735180       0.04460000 </v>
  </varray>
 </structure>
 <calculation>
  <scstep>
   <time name="dav">   22.84   22.90</time>
   <time name="total">   22.89   22.95</time>
   <energy>
    <i name="alphaZ">     81.65567618 </i>
    <i name="ewald">  41890.23009673 </i>
    <i name="hartreedc"> -47722.87378575 </i>
    <i name="XCdc">   -242.92724145 </i>
    <i name="pawpsdc">   3467.42045192 </i>
    <i name="pawaedc">  -2871.19716117 </i>
    <i name="eentropy">     -0.54949731 </i>
    <i name="bandstr">   -239.61316940 </i>
    <i name="atom">   6761.44252427 </i>
    <i name="e_fr_energy">   1123.58789402 </i>
    <i name="e_wo_entrp">   1124.13739133 </i>
    <i name="e_0_energy">   1123.86264268 </i>
   </energy>
  </scstep>
  <scstep>
   <time name="dav">   29.83   29.91</time>
   <time name="total">   29.84   29.91</time>
   <energy>
    <i name="e_fr_energy">     -4.08863368 </i>
    <i name="e_wo_entrp">     -3.88087368 </i>
    <i name="e_0_energy">     -3.98475368 </i>
   </energy>
  </scstep>
  <scstep>
   <time name="dav">   29.03   29.10</time>
   <time name="total">   29.03   29.11</time>
   <energy>
    <i name="e_fr_energy">   -200.12409046 </i>
    <i name="e_wo_entrp">   -199.85772495 </i>
    <i name="e_0_energy">   -199.99090771 </i>
   </energy>
  </scstep>
  <scstep>
   <time name="dav">   31.07   31.14</time>
   <time name="total">   31.07   31.15</time>
   <energy>
    <i name="e_fr_energy">   -208.99085510 </i>
    <i name="e_wo_entrp">   -208.69185053 </i>
    <i name="e_0_energy">   -208.84135282 </i>
   </energy>
  </scstep>
  <scstep>
   <time name="dav">   30.01   30.08</time>
   <time name="total">   30.48   30.56</time>
   <energy>
    <i name="e_fr_energy">   -209.32259387 </i>
    <i name="e_wo_entrp">   -209.02657423 </i>
    <i name="e_0_energy">   -209.17458405 </i>
   </energy>
  </scstep>
  <scstep>
   <time name="dav">   32.72   32.80</time>
   <time name="total">   33.23   33.31</time>
   <energy>
    <i name="e_fr_energy">   -236.77094194 </i>
    <i name="e_wo_entrp">   -236.49325956 </i>
    <i name="e_0_energy">   -236.63210075 </i>
   </energy>
  </scstep>
  <scstep>
   <time name="dav">   33.90   33.98</time>
   <time name="total">   34.49   34.58</time>
   <energy>
    <i name="e_fr_energy">   -196.50522433 </i>
    <i name="e_wo_entrp">   -196.19052677 </i>
    <i name="e_0_energy">   -196.34787555 </i>
   </energy>
  </scstep>
  <scstep>
   <time name="dav">   31.31   31.38</time>
   <time name="total">   31.90   31.99</time>
   <energy>
    <i name="e_fr_energy">   -189.37844022 </i>
    <i name="e_wo_entrp">   -189.08188732 </i>
    <i name="e_0_energy">   -189.23016377 </i>
   </energy>
  </scstep>
  <scstep>
   <time name="dav">   34.00   34.08</time>
   <time name="total">   34.60   34.69</time>
   <energy>
    <i name="e_fr_energy">   -188.12030590 </i>
    <i name="e_wo_entrp">   -187.78633443 </i>
    <i name="e_0_energy">   -187.95332016 </i>
   </energy>
  </scstep>
  <scstep>
   <time name="dav">   34.46   34.54</time>
   <time name="total">   35.08   35.16</time>
   <energy>
    <i name="e_fr_energy">   -187.01003092 </i>
    <i name="e_wo_entrp">   -186.66458146 </i>
    <i name="e_0_energy">   -186.83730619 </i>
   </energy>
  </scstep>
  <scstep>
   <time name="dav">   34.09   34.17</time>
   <time name="total">   34.71   34.80</time>
   <energy>
    <i name="e_fr_energy">   -186.97175521 </i>
    <i name="e_wo_entrp">   -186.62047977 </i>
    <i name="e_0_energy">   -186.79611749 </i>
   </energy>
  </scstep>
  <scstep>
   <time name="dav">   32.25   32.32</time>
   <time name="total">   32.86   32.94</time>
   <energy>
    <i name="e_fr_energy">   -187.10345212 </i>
    <i name="e_wo_entrp">   -186.76357770 </i>
    <i name="e_0_energy">   -186.93351491 </i>
   </energy>
  </scstep>
  <scstep>
   <time name="dav">   33.01   33.09</time>
   <time name="total">   33.63   33.72</time>
   <energy>
    <i name="e_fr_energy">   -186.88812407 </i>
    <i name="e_wo_entrp">   -186.55250667 </i>
    <i name="e_0_energy">   -186.72031537 </i>
   </energy>
  </scstep>
  <scstep>
   <time name="dav">   34.02   34.10</time>
   <time name="total">   34.63   34.73</time>
   <energy>
    <i name="e_fr_energy">   -186.86390936 </i>
    <i name="e_wo_entrp">   -186.52037023 </i>
    <i name="e_0_energy">   -186.69213979 </i>
   </energy>
  </scstep>
  <scstep>
   <time name="dav">   32.42   32.50</time>
   <time name="total">   33.03   33.12</time>
   <energy>
    <i name="e_fr_energy">   -186.83993995 </i>
    <i name="e_wo_entrp">   -186.49352593 </i>
    <i name="e_0_energy">   -186.66673294 </i>
   </energy>
  </scstep>
  <scstep>
   <time name="dav">   31.37   31.44</time>
   <time name="total">   31.98   32.07</time>
   <energy>
    <i name="e_fr_energy">   -186.83313734 </i>
    <i name="e_wo_entrp">   -186.48667757 </i>
    <i name="e_0_energy">   -186.65990745 </i>
   </energy>
  </scstep>
  <scstep>
   <time name="dav">   33.15   33.23</time>
   <time name="total">   33.76   33.85</time>
   <energy>
    <i name="e_fr_energy">   -186.83143095 </i>
    <i name="e_wo_entrp">   -186.48700605 </i>
    <i name="e_0_energy">   -186.65921850 </i>
   </energy>
  </scstep>
  <scstep>
   <time name="dav">   31.49   31.56</time>
   <time name="total">   32.11   32.19</time>
   <energy>
    <i name="e_fr_energy">   -186.83065377 </i>
    <i name="e_wo_entrp">   -186.48631950 </i>
    <i name="e_0_energy">   -186.65848663 </i>
   </energy>
  </scstep>
  <scstep>
   <time name="dav">   29.41   29.48</time>
   <time name="total">   30.02   30.10</time>
   <energy>
    <i name="e_fr_energy">   -186.83026764 </i>
    <i name="e_wo_entrp">   -186.48540404 </i>
    <i name="e_0_energy">   -186.65783584 </i>
   </energy>
  </scstep>
  <scstep>
   <time name="dav">   24.79   24.85</time>
   <time name="total">   25.41   25.48</time>
   <energy>
    <i name="e_fr_energy">   -186.83105184 </i>
    <i name="e_wo_entrp">   -186.48648648 </i>
    <i name="e_0_energy">   -186.65876916 </i>
   </energy>
  </scstep>
  <scstep>
   <time name="dav">   22.89   22.95</time>
   <time name="total">   23.51   23.57</time>
   <energy>
    <i name="e_fr_energy">   -186.83166148 </i>
    <i name="e_wo_entrp">   -186.48715347 </i>
    <i name="e_0_energy">   -186.65940747 </i>
   </energy>
  </scstep>
  <scstep>
   <time name="dav">   21.33   21.38</time>
   <time name="total">   21.95   22.01</time>
   <energy>
    <i name="e_fr_energy">   -186.83276285 </i>
    <i name="e_wo_entrp">   -186.48811505 </i>
    <i name="e_0_energy">   -186.66043895 </i>
   </energy>
  </scstep>
  <scstep>
   <time name="dav">   21.34   21.39</time>
   <time name="total">   21.96   22.02</time>
   <energy>
    <i name="e_fr_energy">   -186.83399133 </i>
    <i name="e_wo_entrp">   -186.48945273 </i>
    <i name="e_0_energy">   -186.66172203 </i>
   </energy>
  </scstep>
  <scstep>
   <time name="dav">   19.94   19.99</time>
   <time name="total">   20.56   20.62</time>
   <energy>
    <i name="e_fr_energy">   -186.83458551 </i>
    <i name="e_wo_entrp">   -186.49002180 </i>
    <i name="e_0_energy">   -186.66230365 </i>
   </energy>
  </scstep>
  <scstep>
   <time name="dav">   17.22   17.26</time>
   <time name="total">   17.84   17.89</time>
   <energy>
    <i name="e_fr_energy">   -186.83494101 </i>
    <i name="e_wo_entrp">   -186.49034310 </i>
    <i name="e_0_energy">   -186.66264205 </i>
   </energy>
  </scstep>
  <scstep>
   <time name="dav">   20.05   20.09</time>
   <time name="total">   20.66   20.72</time>
   <energy>
    <i name="e_fr_energy">   -186.83518525 </i>
    <i name="e_wo_entrp">   -186.49060435 </i>
    <i name="e_0_energy">   -186.66289480 </i>
   </energy>
  </scstep>
  <scstep>
   <time name="dav">   20.92   20.97</time>
   <time name="total">   20.95   21.01</time>
   <energy>
    <i name="alphaZ">     81.65567618 </i>
    <i name="ewald">  41890.23009673 </i>
    <i name="hartreedc"> -47832.84031619 </i>
    <i name="XCdc">   -231.61126119 </i>
    <i name="pawpsdc">   4192.05618609 </i>
    <i name="pawaedc">  -3610.05796796 </i>
    <i name="eentropy">     -0.34458487 </i>
    <i name="bandstr">  -1437.36563637 </i>
    <i name="atom">   6761.44252427 </i>
    <i name="e_fr_energy">   -186.83528331 </i>
    <i name="e_wo_entrp">   -186.49069843 </i>
    <i name="e_0_energy">   -186.66299087 </i>
   </energy>
  </scstep>
  <structure>
   <crystal>
    <varray name="basis" >
     <v>       8.66999996       5.03999989       0.00000000 </v>
     <v>      -8.66999982       5.04000013       0.00000000 </v>
     <v>       0.00000000       0.00000000      30.00000000 </v>
    </varray>
    <i name="volume">   2621.80797419 </i>
    <varray name="rec_basis" >
     <v>       0.05767013       0.09920635       0.00000000 </v>
     <v>      -0.05767013       0.09920635       0.00000000 </v>
     <v>       0.00000000       0.00000000       0.03333333 </v>
    </varray>
   </crystal>
   <varray name="positions" >
    <v>       0.33333334       0.00000000       0.00000000 </v>
    <v>       0.00000000       0.66666669       0.00000000 </v>
    <v>       0.66666669       0.66666669       0.00000000 </v>
    <v>       0.33333334       0.66666669       0.00000000 </v>
    <v>       0.33333334       0.33333334       0.00000000 </v>
    <v>       0.66666669       0.33333334       0.00000000 </v>
    <v>       0.00000000       0.00000000       0.00000000 </v>
    <v>       1.00000000       0.33333334       0.00000000 </v>
    <v>       0.66666669       0.00000000       0.00000000 </v>
    <v>       0.11068511       0.22244981       0.95539999 </v>
    <v>       0.22244981       0.11068511       0.04460000 </v>
    <v>       0.11068511       0.55578315       0.95539999 </v>
    <v>       0.22244981       0.44401845       0.04460000 </v>
    <v>       0.11068511       0.88911647       0.95539999 </v>
    <v>       0.22244981       0.77735180       0.04460000 </v>
    <v>       0.44401845       0.22244981       0.95539999 </v>
    <v>       0.55578315       0.11068511       0.04460000 </v>
    <v>       0.44401845       0.55578315       0.95539999 </v>
    <v>       0.55578315       0.44401845       0.04460000 </v>
    <v>       0.44401845       0.88911647       0.95539999 </v>
    <v>       0.55578315       0.77735180       0.04460000 </v>
    <v>       0.77735180       0.22244981       0.95539999 </v>
    <v>       0.88911647       0.11068511       0.04460000 </v>
    <v>       0.77735180       0.55578315       0.95539999 </v>
    <v>       0.88911647       0.44401845       0.04460000 </v>
    <v>       0.77735180       0.88911647       0.95539999 </v>
    <v>       0.88911647       0.77735180       0.04460000 </v>
   </varray>
  </structure>
  <varray name="forces" >
   <v>       0.00275911       0.16206904       0.12051795 </v>
   <v>       0.13470514      -0.06387582       0.02914802 </v>
   <v>       0.08714044      -0.44463154      -0.11635674 </v>
   <v>       0.19315023      -0.13116431       0.07027921 </v>
   <v>       0.01820372       0.28758322      -0.14581414 </v>
   <v>      -0.30353598      -0.11851025      -0.07194126 </v>
   <v>       0.13585498       0.22835694       0.01332276 </v>
   <v>      -0.04009313       0.33325675       0.00518862 </v>
   <v>      -0.27539198      -0.20769174       0.11836091 </v>
   <v>       0.05375369      -0.11643658      -2.91865054 </v>
   <v>       0.69480383      -0.16296347       2.11611740 </v>
   <v>      -0.65536626      -0.16151437      -2.13851271 </v>
   <v>      -0.21835339      -0.16484458       2.88470875 </v>
   <v>       0.73762268      -0.00384662      -1.46378467 </v>
   <v>      -0.89922503       0.01124954       1.44091325 </v>
   <v>       0.51033116      -0.68903543      -2.14484104 </v>
   <v>      -0.35991376      -0.73039940       2.20533649 </v>
   <v>       0.54452243       0.70731844      -2.20015791 </v>
   <v>      -0.51030161       0.70040372       2.18083776 </v>
   <v>      -0.65626999       0.13992089      -2.11224665 </v>
   <v>       0.65269038       0.16576737       2.09466681 </v>
   <v>       0.28365144       0.02680147      -2.85465074 </v>
   <v>      -0.15461292      -0.00551099       2.92850567 </v>
   <v>      -0.34657064       0.65983863      -1.43214234 </v>
   <v>      -0.35467596       0.68706138       2.15546957 </v>
   <v>       0.49129770      -0.59076062      -2.15315239 </v>
   <v>       0.23382372      -0.51844166       1.38887798 </v>
  </varray>
  <varray name="stress" >
   <v>       7.30038937      -0.03624897      -1.53304679 </v>
   <v>      -0.03624891       4.44109320       0.00831056 </v>
   <v>      -1.53304672       0.00831056      30.32672735 </v>
  </varray>
  <energy>
   <i name="e_fr_energy">   -186.83528331 </i>
   <i name="e_wo_entrp">   -186.66299087 </i>
   <i name="e_0_energy">     -0.34458487 </i>
  </energy>
  <time name="totalsc">  826.00  828.19</time>
 </calculation>
 <calculation>
  <scstep>
   <time name="dav">   22.88   22.93</time>
   <time name="total">   23.50   23.56</time>
   <energy>
    <i name="alphaZ">     78.92428777 </i>
    <i name="ewald">  39380.89456063 </i>
    <i name="hartreedc"> -45338.32589649 </i>
    <i name="XCdc">   -239.06901946 </i>
    <i name="pawpsdc">   4192.03059492 </i>
    <i name="pawaedc">  -3610.03267509 </i>
    <i name="eentropy">     -0.28628721 </i>
    <i name="bandstr">  -1413.02854663 </i>
    <i name="atom">   6761.44252427 </i>
    <i name="e_fr_energy">   -187.45045727 </i>
    <i name="e_wo_entrp">   -187.16417006 </i>
    <i name="e_0_energy">   -187.30731367 </i>
   </energy>
  </scstep>
  <scstep>
   <time name="dav">   31.78   31.86</time>
   <time name="total">   32.40   32.48</time>
   <energy>
    <i name="e_fr_energy">   -189.25477859 </i>
    <i name="e_wo_entrp">   -188.94032543 </i>
    <i name="e_0_energy">   -189.09755201 </i>
   </energy>
  </scstep>
  <scstep>
   <time name="dav">   32.17   32.24</time>
   <time name="total">   32.79   32.87</time>
   <energy>
    <i name="e_fr_energy">   -189.35690315 </i>
    <i name="e_wo_entrp">   -189.07915910 </i>
    <i name="e_0_energy">   -189.21803112 </i>
   </energy>
  </scstep>
  <scstep>
   <time name="dav">   32.82   32.90</time>
   <time name="total">   33.44   33.53</time>
   <energy>
    <i name="e_fr_energy">   -188.72078848 </i>
    <i name="e_wo_entrp">   -188.43472217 </i>
    <i name="e_0_energy">   -188.57775532 </i>
   </energy>
  </scstep>
  <scstep>
   <time name="dav">   28.75   28.82</time>
   <time name="total">   29.37   29.45</time>
   <energy>
    <i name="e_fr_energy">   -188.72797323 </i>
    <i name="e_wo_entrp">   -188.44090458 </i>
    <i name="e_0_energy">   -188.58443890 </i>
   </energy>
  </scstep>
  <scstep>
   <time name="dav">   29.52   29.59</time>
   <time name="total">   30.14   30.22</time>
   <energy>
    <i name="e_fr_energy">   -188.64966430 </i>
    <i name="e_wo_entrp">   -188.36445001 </i>
    <i name="e_0_energy">   -188.50705715 </i>
   </energy>
  </scstep>
  <scstep>
   <time name="dav">   31.85   31.93</time>
   <time name="total">   32.48   32.56</time>
   <energy>
    <i name="e_fr_energy">   -188.65730611 </i>
    <i name="e_wo_entrp">   -188.36920652 </i>
    <i name="e_0_energy">   -188.51325632 </i>
   </energy>
  </scstep>
  <scstep>
   <time name="dav">   34.10   34.18</time>
   <time name="total">   34.72   34.81</time>
   <energy>
    <i name="e_fr_energy">   -188.63007787 </i>
    <i name="e_wo_entrp">   -188.34559040 </i>
    <i name="e_0_energy">   -188.48783414 </i>
   </energy>
  </scstep>
  <scstep>
   <time name="dav">   30.36   30.43</time>
   <time name="total">   30.98   31.06</time>
   <energy>
    <i name="e_fr_energy">   -188.62668518 </i>
    <i name="e_wo_entrp">   -188.34191591 </i>
    <i name="e_0_energy">   -188.48430055 </i>
   </energy>
  </scstep>
  <scstep>
   <time name="dav">   34.43   34.52</time>
   <time name="total">   35.06   35.15</time>
   <energy>
    <i name="e_fr_energy">   -188.62777949 </i>
    <i name="e_wo_entrp">   -188.34336843 </i>
    <i name="e_0_energy">   -188.48557396 </i>
   </energy>
  </scstep>
  <scstep>
   <time name="dav">   32.98   33.06</time>
   <time name="total">   33.60   33.69</time>
   <energy>
    <i name="e_fr_energy">   -188.62615587 </i>
    <i name="e_wo_entrp">   -188.34187552 </i>
    <i name="e_0_energy">   -188.48401570 </i>
   </energy>
  </scstep>
  <scstep>
   <time name="dav">   31.11   31.18</time>
   <time name="total">   31.15   31.23</time>
   <energy>
    <i name="alphaZ">     78.92428777 </i>
    <i name="ewald">  39380.89456063 </i>
    <i name="hartreedc"> -45349.39298008 </i>
    <i name="XCdc">   -237.97616424 </i>
    <i name="pawpsdc">   3952.87768181 </i>
    <i name="pawaedc">  -3367.40911884 </i>
    <i name="eentropy">     -0.28382707 </i>
    <i name="bandstr">  -1407.70306126 </i>
    <i name="atom">   6761.44252427 </i>
    <i name="e_fr_energy">   -188.62609700 </i>
    <i name="e_wo_entrp">   -188.34226994 </i>
    <i name="e_0_energy">   -188.48418347 </i>
   </energy>
  </scstep>
  <structure>
   <crystal>
    <varray name="basis" >
     <v>       8.85453017       5.10452624       0.00000000 </v>
     <v>      -8.85559838       5.10636430       0.00000000 </v>
     <v>       0.00000000       0.00000000      30.00000000 </v>
    </varray>
    <i name="volume">   2712.54272914 </i>
    <varray name="rec_basis" >
     <v>       0.05647503       0.09794056       0.00000000 </v>
     <v>      -0.05645470       0.09792874       0.00000000 </v>
     <v>       0.00000000       0.00000000       0.03333333 </v>
    </varray>
   </crystal>
   <varray name="positions" >
    <v>       0.33411668       0.00076798       0.00019380 </v>
    <v>       0.00006906       0.66598621       0.00004687 </v>
    <v>       0.66478113       0.66429625      -0.00018711 </v>
    <v>       0.33324297       0.66550156       0.00011302 </v>
    <v>       0.33476036       0.33465906      -0.00023448 </v>
    <v>       0.66525501       0.33361064      -0.00011569 </v>
    <v>       0.00147088       0.00071494       0.00002142 </v>
    <v>       1.00148341       0.33503985       0.00000834 </v>
    <v>       0.66490649      -0.00022782       0.00019033 </v>
    <v>       0.11027740       0.22174300       0.95070654 </v>
    <v>       0.22360293       0.10797212       0.04800290 </v>
    <v>       0.10808877       0.55683348       0.95196107 </v>
    <v>       0.22105337       0.44383700       0.04923887 </v>
    <v>       0.11271888       0.88704587       0.95304609 </v>
    <v>       0.22000186       0.77990742       0.04691711 </v>
    <v>       0.44214057       0.21773228       0.95195090 </v>
    <v>       0.55128614       0.10819077       0.04814637 </v>
    <v>       0.44891861       0.55765341       0.95186194 </v>
    <v>       0.55771553       0.44879031       0.04810698 </v>
    <v>       0.44286226       0.89161197       0.95200331 </v>
    <v>       0.55839240       0.77632927       0.04796841 </v>
    <v>       0.77826923       0.22178892       0.95080946 </v>
    <v>       0.88865993       0.11108889       0.04930929 </v>
    <v>       0.77954555       0.55990534       0.95309698 </v>
    <v>       0.89141796       0.44829348       0.04806618 </v>
    <v>       0.77589130       0.88492223       0.95193753 </v>
    <v>       0.88728575       0.77422001       0.04683344 </v>
   </varray>
  </structure>
  <varray name="forces" >
   <v>       0.04870125       0.21127051       0.03830841 </v>
   <v>       0.17147673      -0.08428383       0.09062938 </v>
   <v>       0.03407010      -0.44285707      -0.04613189 </v>
   <v>       0.29002062      -0.23287732       0.07411934 </v>
   <v>      -0.15272453       0.19460084      -0.04403082 </v>
   <v>      -0.12450406      -0.20106254      -0.08475954 </v>
   <v>      -0.15538917       0.29943774       0.01006480 </v>
   <v>       0.13347090       0.25324271       0.01115992 </v>
   <v>      -0.23741567      -0.04589983      -0.04892832 </v>
   <v>      -0.07277337      -0.08669528      -0.04723136 </v>
   <v>      -0.01022934      -0.09425943       0.00212956 </v>
   <v>       0.01070629      -0.08963672      -0.07170715 </v>
   <v>      -0.03253578      -0.10873061       0.14020820 </v>
   <v>      -0.09398064       0.00294192       0.15745424 </v>
   <v>      -0.02997597      -0.00620309      -0.12455044 </v>
   <v>       0.02895155      -0.07861525      -0.08485476 </v>
   <v>       0.08419771      -0.07741180       0.10419736 </v>
   <v>       0.03943111       0.08369335      -0.20254203 </v>
   <v>      -0.02990092       0.07873541       0.11501793 </v>
   <v>       0.01517971       0.08855369       0.05206787 </v>
   <v>      -0.00056584       0.11537801      -0.01262392 </v>
   <v>       0.12852902      -0.00636362       0.10085629 </v>
   <v>      -0.00637433       0.00438709      -0.10133395 </v>
   <v>      -0.01786849       0.04225432       0.02938496 </v>
   <v>       0.08913629       0.05097312      -0.05365979 </v>
   <v>      -0.04982071       0.05539255       0.22008285 </v>
   <v>      -0.05981245       0.07403513      -0.22332713 </v>
  </varray>
  <varray name="stress" >
   <v>     -19.99838954       0.01838944       0.01705856 </v>
   <v>       0.01838944     -19.60202163       0.02501964 </v>
   <v>       0.01705861       0.02501955      -1.83567569 </v>
  </varray>
  <energy>
   <i name="e_fr_energy">   -188.62609700 </i>
   <i name="e_wo_entrp">   -188.48418347 </i>
   <i name="e_0_energy">     -0.28382707 </i>
  </energy>
  <time name="totalsc">  423.25  424.36</time>
 </calculation>
 <calculation>
  <scstep>
   <time name="dav">   25.23   25.29</time>
   <time name="total">   25.85   25.91</time>
   <energy>
    <i name="alphaZ">     82.35488688 </i>
    <i name="ewald">  41307.28427237 </i>
    <i name="hartreedc"> -47306.36438363 </i>
    <i name="XCdc">   -233.85093224 </i>
    <i name="pawpsdc">   3950.49513806 </i>
    <i name="pawaedc">  -3364.99919915 </i>
    <i name="eentropy">     -0.23580787 </i>
    <i name="bandstr">  -1386.66811823 </i>
    <i name="atom">   6761.44252427 </i>
    <i name="e_fr_energy">   -190.54161954 </i>
    <i name="e_wo_entrp">   -190.30581167 </i>
    <i name="e_0_energy">   -190.42371560 </i>
   </energy>
  </scstep>
  <scstep>
   <time name="dav">   29.91   29.98</time>
   <time name="total">   30.51   30.59</time>
   <energy>
    <i name="e_fr_energy">   -190.56093887 </i>
    <i name="e_wo_entrp">   -190.32308714 </i>
    <i name="e_0_energy">   -190.44201301 </i>
   </energy>
  </scstep>
  <scstep>
   <time name="dav">   31.88   31.96</time>
   <time name="total">   32.50   32.58</time>
   <energy>
    <i name="e_fr_energy">   -190.00742272 </i>
    <i name="e_wo_entrp">   -189.76006363 </i>
    <i name="e_0_energy">   -189.88374318 </i>
   </energy>
  </scstep>
  <scstep>
   <time name="dav">   32.71   32.79</time>
   <time name="total">   33.32   33.41</time>
   <energy>
    <i name="e_fr_energy">   -189.80761221 </i>
    <i name="e_wo_entrp">   -189.57157049 </i>
    <i name="e_0_energy">   -189.68959135 </i>
   </energy>
  </scstep>
  <scstep>
   <time name="dav">   29.71   29.78</time>
   <time name="total">   30.32   30.40</time>
   <energy>
    <i name="e_fr_energy">   -189.73143832 </i>
    <i name="e_wo_entrp">   -189.48899885 </i>
    <i name="e_0_energy">   -189.61021858 </i>
   </energy>
  </scstep>
  <scstep>
   <time name="dav">   31.06   31.13</time>
   <time name="total">   31.67   31.76</time>
   <energy>
    <i name="e_fr_energy">   -189.71134352 </i>
    <i name="e_wo_entrp">   -189.47306011 </i>
    <i name="e_0_energy">   -189.59220181 </i>
   </energy>
  </scstep>
  <scstep>
   <time name="dav">   32.52   32.60</time>
   <time name="total">   33.13   33.22</time>
   <energy>
    <i name="e_fr_energy">   -189.70350019 </i>
    <i name="e_wo_entrp">   -189.46466046 </i>
    <i name="e_0_energy">   -189.58408033 </i>
   </energy>
  </scstep>
  <scstep>
   <time name="dav">   29.10   29.17</time>
   <time name="total">   29.71   29.79</time>
   <energy>
    <i name="e_fr_energy">   -189.70354083 </i>
    <i name="e_wo_entrp">   -189.46493484 </i>
    <i name="e_0_energy">   -189.58423783 </i>
   </energy>
  </scstep>
  <scstep>
   <time name="dav">   28.58   28.65</time>
   <time name="total">   29.20   29.28</time>
   <energy>
    <i name="e_fr_energy">   -189.70379750 </i>
    <i name="e_wo_entrp">   -189.46497144 </i>
    <i name="e_0_energy">   -189.58438447 </i>
   </energy>
  </scstep>
  <scstep>
   <time name="dav">   28.09   28.15</time>
   <time name="total">   28.70   28.78</time>
   <energy>
    <i name="e_fr_energy">   -189.70411101 </i>
    <i name="e_wo_entrp">   -189.46537328 </i>
    <i name="e_0_energy">   -189.58474214 </i>
   </energy>
  </scstep>
  <scstep>
   <time name="dav">   26.24   26.31</time>
   <time name="total">   26.85   26.93</time>
   <energy>
    <i name="e_fr_energy">   -189.70357554 </i>
    <i name="e_wo_entrp">   -189.46475801 </i>
    <i name="e_0_energy">   -189.58416678 </i>
   </energy>
  </scstep>
  <scstep>
   <time name="dav">   18.69   18.73</time>
   <time name="total">   18.72   18.78</time>
   <energy>
    <i name="alphaZ">     82.35488688 </i>
    <i name="ewald">  41307.28427237 </i>
    <i name="hartreedc"> -47279.63226653 </i>
    <i name="XCdc">   -235.24817154 </i>
    <i name="pawpsdc">   4038.69994262 </i>
    <i name="pawaedc">  -3454.39766999 </i>
    <i name="eentropy">     -0.23872028 </i>
    <i name="bandstr">  -1409.96839791 </i>
    <i name="atom">   6761.44252427 </i>
    <i name="e_fr_energy">   -189.70360010 </i>
    <i name="e_wo_entrp">   -189.46487982 </i>
    <i name="e_0_energy">   -189.58423996 </i>
   </energy>
  </scstep>
  <structure>
   <crystal>
    <varray name="basis" >
     <v>       8.66637949       4.99832624       0.00000000 </v>
     <v>      -8.66722536       4.99977976       0.00000000 </v>
     <v>       0.00000000       0.00000000      30.00000000 </v>
    </varray>
    <i name="volume">   2599.54826046 </i>
    <varray name="rec_basis" >
     <v>       0.05769979       0.10002383       0.00000000 </v>
     <v>      -0.05768302       0.10001406       0.00000000 </v>
     <v>       0.00000000       0.00000000       0.03333333 </v>
    </varray>
   </crystal>
   <varray name="positions" >
    <v>       0.33451412       0.00107214       0.00021545 </v>
    <v>       0.00009330       0.66568215       0.00009809 </v>
    <v>       0.66407839       0.66352837      -0.00021318 </v>
    <v>       0.33313397       0.66483733       0.00015490 </v>
    <v>       0.33493726       0.33512834      -0.00025937 </v>
    <v>       0.66480194       0.33339599      -0.00016359 </v>
    <v>       0.00181931       0.00136082       0.00002711 </v>
    <v>       1.00203172       0.33533255       0.00001465 </v>
    <v>       0.66460296      -0.00007679       0.00016268 </v>
    <v>       0.11006376       0.22166871       0.95067985 </v>
    <v>       0.22343661       0.10782541       0.04800411 </v>
    <v>       0.10795018       0.55667441       0.95192055 </v>
    <v>       0.22084167       0.44368762       0.04931810 </v>
    <v>       0.11263378       0.88714071       0.95313508 </v>
    <v>       0.21996286       0.77992582       0.04684673 </v>
    <v>       0.44203775       0.21757404       0.95190294 </v>
    <v>       0.55123822       0.10798166       0.04820526 </v>
    <v>       0.44909534       0.55775463       0.95174748 </v>
    <v>       0.55781764       0.44894965       0.04817198 </v>
    <v>       0.44302384       0.89174447       0.95203274 </v>
    <v>       0.55858344       0.77652137       0.04796127 </v>
    <v>       0.77838173       0.22165533       0.95086646 </v>
    <v>       0.88866111       0.11110228       0.04925203 </v>
    <v>       0.77959861       0.55999260       0.95311358 </v>
    <v>       0.89158795       0.44829279       0.04803586 </v>
    <v>       0.77593557       0.88506188       0.95206191 </v>
    <v>       0.88735142       0.77440018       0.04670723 </v>
   </varray>
  </structure>
  <varray name="forces" >
   <v>       0.05571282       0.25153932       0.01123488 </v>
   <v>       0.19294459      -0.09750431       0.08548723 </v>
   <v>       0.00667875      -0.43847710      -0.01435139 </v>
   <v>       0.31489456      -0.26217164       0.05186164 </v>
   <v>      -0.20792114       0.14018146      -0.00777300 </v>
   <v>      -0.06253165      -0.23278159      -0.05888232 </v>
   <v>      -0.24620582       0.32260221       0.00848962 </v>
   <v>       0.20146569       0.20370323       0.00805006 </v>
   <v>      -0.22628476       0.02704184      -0.07512007 </v>
   <v>      -0.03441344      -0.01073496      -0.61863585 </v>
   <v>       0.09758046      -0.00272310       0.50076787 </v>
   <v>      -0.10792057      -0.00864175      -0.57901798 </v>
   <v>       0.02378465      -0.04023962       0.70590722 </v>
   <v>       0.06663880       0.00357244      -0.29083306 </v>
   <v>      -0.10481699      -0.00433581       0.31463314 </v>
   <v>       0.06020421      -0.15453368      -0.57571557 </v>
   <v>      -0.04890287      -0.13179942       0.62567307 </v>
   <v>       0.07417150       0.14718924      -0.71933877 </v>
   <v>      -0.06606470       0.13698355       0.59880474 </v>
   <v>      -0.09923387      -0.00150842      -0.43457321 </v>
   <v>       0.12129505       0.04862065       0.48352518 </v>
   <v>       0.05473627       0.00395508      -0.43801873 </v>
   <v>      -0.01690422       0.00765820       0.46185072 </v>
   <v>      -0.05006977       0.11485331      -0.41989908 </v>
   <v>      -0.03486904       0.10089974       0.43068003 </v>
   <v>       0.02646950      -0.06617891      -0.26913546 </v>
   <v>       0.00956199      -0.05716995       0.21432909 </v>
  </varray>
  <varray name="stress" >
   <v>     -10.13595553       0.01125700      -0.00494925 </v>
   <v>       0.01125698      -9.82586911       0.03221455 </v>
   <v>      -0.00494921       0.03221448       6.51433906 </v>
  </varray>
  <energy>
   <i name="e_fr_energy">   -189.70360010 </i>
   <i name="e_wo_entrp">   -189.58423996 </i>
   <i name="e_0_energy">     -0.23872028 </i>
  </energy>
  <time name="totalsc">  393.95  394.99</time>
 </calculation>
 <calculation>
  <scstep>
   <time name="dav">   22.83   22.88</time>
   <time name="total">   23.43   23.49</time>
   <energy>
    <i name="alphaZ">     85.79614333 </i>
    <i name="ewald">  42819.21825395 </i>
    <i name="hartreedc"> -48835.76162680 </i>
    <i name="XCdc">   -232.99619470 </i>
    <i name="pawpsdc">   4038.77704987 </i>
    <i name="pawaedc">  -3454.47238926 </i>
    <i name="eentropy">     -0.19390003 </i>
    <i name="bandstr">  -1373.01862876 </i>
    <i name="atom">   6761.44252427 </i>
    <i name="e_fr_energy">   -191.20876813 </i>
    <i name="e_wo_entrp">   -191.01486810 </i>
    <i name="e_0_energy">   -191.11181811 </i>
   </energy>
  </scstep>
  <scstep>
   <time name="dav">   34.51   34.59</time>
   <time name="total">   35.11   35.20</time>
   <energy>
    <i name="e_fr_energy">   -191.15823501 </i>
    <i name="e_wo_entrp">   -190.95726169 </i>
    <i name="e_0_energy">   -191.05774835 </i>
   </energy>
  </scstep>
  <scstep>
   <time name="dav">   31.18   31.25</time>
   <time name="total">   31.77   31.86</time>
   <energy>
    <i name="e_fr_energy">   -191.07455625 </i>
    <i name="e_wo_entrp">   -190.86326629 </i>
    <i name="e_0_energy">   -190.96891127 </i>
   </energy>
  </scstep>
  <scstep>
   <time name="dav">   33.50   33.58</time>
   <time name="total">   34.11   34.20</time>
   <energy>
    <i name="e_fr_energy">   -190.75781486 </i>
    <i name="e_wo_entrp">   -190.55834506 </i>
    <i name="e_0_energy">   -190.65807996 </i>
   </energy>
  </scstep>
  <scstep>
   <time name="dav">   31.51   31.58</time>
   <time name="total">   32.11   32.19</time>
   <energy>
    <i name="e_fr_energy">   -190.74314466 </i>
    <i name="e_wo_entrp">   -190.54585044 </i>
    <i name="e_0_energy">   -190.64449755 </i>
   </energy>
  </scstep>
  <scstep>
   <time name="dav">   31.61   31.69</time>
   <time name="total">   32.22   32.30</time>
   <energy>
    <i name="e_fr_energy">   -190.63919188 </i>
    <i name="e_wo_entrp">   -190.43773481 </i>
    <i name="e_0_energy">   -190.53846335 </i>
   </energy>
  </scstep>
  <scstep>
   <time name="dav">   32.24   32.32</time>
   <time name="total">   32.84   32.93</time>
   <energy>
    <i name="e_fr_energy">   -190.63285444 </i>
    <i name="e_wo_entrp">   -190.43340486 </i>
    <i name="e_0_energy">   -190.53312965 </i>
   </energy>
  </scstep>
  <scstep>
   <time name="dav">   29.99   30.06</time>
   <time name="total">   30.59   30.67</time>
   <energy>
    <i name="e_fr_energy">   -190.63161967 </i>
    <i name="e_wo_entrp">   -190.43199184 </i>
    <i name="e_0_energy">   -190.53180575 </i>
   </energy>
  </scstep>
  <scstep>
   <time name="dav">   30.38   30.45</time>
   <time name="total">   30.98   31.06</time>
   <energy>
    <i name="e_fr_energy">   -190.62857184 </i>
    <i name="e_wo_entrp">   -190.42889735 </i>
    <i name="e_0_energy">   -190.52873460 </i>
   </energy>
  </scstep>
  <scstep>
   <time name="dav">   27.01   27.08</time>
   <time name="total">   27.61   27.69</time>
   <energy>
    <i name="e_fr_energy">   -190.62893311 </i>
    <i name="e_wo_entrp">   -190.42910449 </i>
    <i name="e_0_energy">   -190.52901880 </i>
   </energy>
  </scstep>
  <scstep>
   <time name="dav">   28.59   28.66</time>
   <time name="total">   29.19   29.27</time>
   <energy>
    <i name="e_fr_energy">   -190.62873684 </i>
    <i name="e_wo_entrp">   -190.42902173 </i>
    <i name="e_0_energy">   -190.52887928 </i>
   </energy>
  </scstep>
  <scstep>
   <time name="dav">   20.75   20.80</time>
   <time name="total">   20.79   20.85</time>
   <energy>
    <i name="alphaZ">     85.79614333 </i>
    <i name="ewald">  42819.21825395 </i>
    <i name="hartreedc"> -48807.44860698 </i>
    <i name="XCdc">   -234.32302260 </i>
    <i name="pawpsdc">   4062.11596461 </i>
    <i name="pawaedc">  -3477.96719047 </i>
    <i name="eentropy">     -0.19966661 </i>
    <i name="bandstr">  -1399.26314008 </i>
    <i name="atom">   6761.44252427 </i>
    <i name="e_fr_energy">   -190.62874057 </i>
    <i name="e_wo_entrp">   -190.42907396 </i>
    <i name="e_0_energy">   -190.52890727 </i>
   </energy>
  </scstep>
  <structure>
   <crystal>
    <varray name="basis" >
     <v>       8.48674052       4.89973124       0.00000000 </v>
     <v>      -8.48728302       4.90066049       0.00000000 </v>
     <v>       0.00000000       0.00000000      30.00000000 </v>
    </varray>
    <i name="volume">   2495.28119352 </i>
    <varray name="rec_basis" >
     <v>       0.05891914       0.10204000       0.00000000 </v>
     <v>      -0.05890797       0.10203348       0.00000000 </v>
     <v>       0.00000000       0.00000000       0.03333333 </v>
    </varray>
   </crystal>
   <varray name="positions" >
    <v>       0.33639586       0.00253219       0.00021585 </v>
    <v>       0.00017752       0.66431458       0.00027023 </v>
    <v>       0.66133512       0.66081533      -0.00021605 </v>
    <v>       0.33259416       0.66195718       0.00024322 </v>
    <v>       0.33485023       0.33669724      -0.00024489 </v>
    <v>       0.66313235       0.33200046      -0.00026335 </v>
    <v>       0.00287497       0.00444981       0.00004331 </v>
    <v>       1.00400478       0.33565955       0.00002865 </v>
    <v>       0.66415262       0.00107200      -0.00001443 </v>
    <v>       0.11011528       0.22185883       0.94892178 </v>
    <v>       0.22415149       0.10752947       0.04945760 </v>
    <v>       0.10753838       0.55737875       0.95029822 </v>
    <v>       0.22092577       0.44343967       0.05125152 </v>
    <v>       0.11312693       0.88669546       0.95215733 </v>
    <v>       0.21945587       0.78038774       0.04786594 </v>
    <v>       0.44114617       0.21615952       0.95030128 </v>
    <v>       0.54991425       0.10738987       0.04993582 </v>
    <v>       0.45048875       0.55851427       0.94982751 </v>
    <v>       0.55852775       0.45023897       0.04981535 </v>
    <v>       0.44227080       0.89203299       0.95072598 </v>
    <v>       0.55933302       0.77604916       0.04937708 </v>
    <v>       0.77852399       0.22161355       0.94950862 </v>
    <v>       0.88864110       0.11123413       0.05067953 </v>
    <v>       0.78026927       0.56111589       0.95186857 </v>
    <v>       0.89203921       0.44934897       0.04933264 </v>
    <v>       0.77542566       0.88414368       0.95109449 </v>
    <v>       0.88680315       0.77358520       0.04751810 </v>
   </varray>
  </structure>
  <varray name="forces" >
   <v>       0.06781409       0.28786055      -0.04490770 </v>
   <v>       0.19763499      -0.09874142       0.04709340 </v>
   <v>      -0.00266486      -0.41829265       0.04601220 </v>
   <v>       0.33903684      -0.30937691      -0.00377160 </v>
   <v>      -0.29290574       0.06331337       0.02496083 </v>
   <v>      -0.01724517      -0.27611080      -0.01104713 </v>
   <v>      -0.27297546       0.34141509       0.01115317 </v>
   <v>       0.30625341       0.19046645       0.00314727 </v>
   <v>      -0.24655270       0.09624596      -0.05506771 </v>
   <v>      -0.00367403       0.08166965      -0.49948149 </v>
   <v>       0.01402916       0.05874647       0.33008180 </v>
   <v>      -0.01353697       0.02182894      -0.38297409 </v>
   <v>       0.03502295       0.01381112       0.54318516 </v>
   <v>       0.01100457       0.02148936      -0.15241000 </v>
   <v>       0.01693014       0.00679345       0.23955822 </v>
   <v>      -0.01827722      -0.05724751      -0.40289818 </v>
   <v>      -0.05267928      -0.04615390       0.48145552 </v>
   <v>       0.03615756       0.03187830      -0.56217759 </v>
   <v>      -0.01661484       0.02715845       0.39475669 </v>
   <v>      -0.01818781      -0.07265306      -0.22894514 </v>
   <v>       0.03754112      -0.00256240       0.27030745 </v>
   <v>      -0.01583931       0.04891130      -0.28169902 </v>
   <v>      -0.06382940       0.01984897       0.34259397 </v>
   <v>      -0.00223427       0.00883191      -0.32274994 </v>
   <v>      -0.01648548       0.00137811       0.26114656 </v>
   <v>       0.02366961      -0.03282962      -0.13256838 </v>
   <v>      -0.03139192      -0.00767919       0.08524573 </v>
  </varray>
  <varray name="stress" >
   <v>      -5.90215645      -0.00617534      -0.06953491 </v>
   <v>      -0.00617532      -5.90554305       0.01626846 </v>
   <v>      -0.06953477       0.01626835       4.45563151 </v>
  </varray>
  <energy>
   <i name="e_fr_energy">   -190.62874057 </i>
   <i name="e_wo_entrp">   -190.52890727 </i>
   <i name="e_0_energy">     -0.19966661 </i>
  </energy>
  <time name="totalsc">  404.49  405.56</time>
 </calculation>
 <calculation>
  <scstep>
   <time name="dav">   22.87   22.92</time>
   <time name="total">   23.46   23.52</time>
   <energy>
    <i name="alphaZ">     90.38547534 </i>
    <i name="ewald">  44759.63440248 </i>
    <i name="hartreedc"> -50805.94679673 </i>
    <i name="XCdc">   -231.68993207 </i>
    <i name="pawpsdc">   4062.06847669 </i>
    <i name="pawaedc">  -3477.91556486 </i>
    <i name="eentropy">     -0.17567333 </i>
    <i name="bandstr">  -1349.88282953 </i>
    <i name="atom">   6761.44252427 </i>
    <i name="e_fr_energy">   -192.07991773 </i>
    <i name="e_wo_entrp">   -191.90424440 </i>
    <i name="e_0_energy">   -191.99208106 </i>
   </energy>
  </scstep>
  <scstep>
   <time name="dav">   32.44   32.52</time>
   <time name="total">   33.03   33.11</time>
   <energy>
    <i name="e_fr_energy">   -191.88426445 </i>
    <i name="e_wo_entrp">   -191.69807337 </i>
    <i name="e_0_energy">   -191.79116891 </i>
   </energy>
  </scstep>
  <scstep>
   <time name="dav">   28.79   28.86</time>
   <time name="total">   29.39   29.47</time>
   <energy>
    <i name="e_fr_energy">   -192.16902519 </i>
    <i name="e_wo_entrp">   -191.96808093 </i>
    <i name="e_0_energy">   -192.06855306 </i>
   </energy>
  </scstep>
  <scstep>
   <time name="dav">   31.33   31.41</time>
   <time name="total">   31.92   32.01</time>
   <energy>
    <i name="e_fr_energy">   -191.53138517 </i>
    <i name="e_wo_entrp">   -191.34879332 </i>
    <i name="e_0_energy">   -191.44008925 </i>
   </energy>
  </scstep>
  <scstep>
   <time name="dav">   31.62   31.70</time>
   <time name="total">   32.22   32.30</time>
   <energy>
    <i name="e_fr_energy">   -191.45540306 </i>
    <i name="e_wo_entrp">   -191.27635168 </i>
    <i name="e_0_energy">   -191.36587737 </i>
   </energy>
  </scstep>
  <scstep>
   <time name="dav">   31.69   31.77</time>
   <time name="total">   32.29   32.37</time>
   <energy>
    <i name="e_fr_energy">   -191.26511199 </i>
    <i name="e_wo_entrp">   -191.08004558 </i>
    <i name="e_0_energy">   -191.17257879 </i>
   </energy>
  </scstep>
  <scstep>
   <time name="dav">   31.43   31.51</time>
   <time name="total">   32.03   32.11</time>
   <energy>
    <i name="e_fr_energy">   -191.25843661 </i>
    <i name="e_wo_entrp">   -191.07435770 </i>
    <i name="e_0_energy">   -191.16639715 </i>
   </energy>
  </scstep>
  <scstep>
   <time name="dav">   28.01   28.08</time>
   <time name="total">   28.60   28.68</time>
   <energy>
    <i name="e_fr_energy">   -191.25344274 </i>
    <i name="e_wo_entrp">   -191.06930158 </i>
    <i name="e_0_energy">   -191.16137216 </i>
   </energy>
  </scstep>
  <scstep>
   <time name="dav">   32.56   32.64</time>
   <time name="total">   33.15   33.24</time>
   <energy>
    <i name="e_fr_energy">   -191.25440769 </i>
    <i name="e_wo_entrp">   -191.07026576 </i>
    <i name="e_0_energy">   -191.16233673 </i>
   </energy>
  </scstep>
  <scstep>
   <time name="dav">   29.44   29.51</time>
   <time name="total">   30.03   30.11</time>
   <energy>
    <i name="e_fr_energy">   -191.25349067 </i>
    <i name="e_wo_entrp">   -191.06933959 </i>
    <i name="e_0_energy">   -191.16141513 </i>
   </energy>
  </scstep>
  <scstep>
   <time name="dav">   27.70   27.77</time>
   <time name="total">   27.74   27.81</time>
   <energy>
    <i name="alphaZ">     90.38547534 </i>
    <i name="ewald">  44759.63440248 </i>
    <i name="hartreedc"> -50769.58214908 </i>
    <i name="XCdc">   -233.33134904 </i>
    <i name="pawpsdc">   4083.41474913 </i>
    <i name="pawaedc">  -3499.33229552 </i>
    <i name="eentropy">     -0.18428843 </i>
    <i name="bandstr">  -1383.70046247 </i>
    <i name="atom">   6761.44252427 </i>
    <i name="e_fr_energy">   -191.25339332 </i>
    <i name="e_wo_entrp">   -191.06910489 </i>
    <i name="e_0_energy">   -191.16124911 </i>
   </energy>
  </scstep>
  <structure>
   <crystal>
    <varray name="basis" >
     <v>       8.26802195       4.77348710       0.00000000 </v>
     <v>      -8.26897815       4.77513331       0.00000000 </v>
     <v>       0.00000000       0.00000000      30.00000000 </v>
    </varray>
    <i name="volume">   2368.58302869 </i>
    <varray name="rec_basis" >
     <v>       0.06048089       0.10473323       0.00000000 </v>
     <v>      -0.06046004       0.10472112       0.00000000 </v>
     <v>       0.00000000       0.00000000       0.03333333 </v>
    </varray>
   </crystal>
   <varray name="positions" >
    <v>       0.34060888       0.00575010       0.00003341 </v>
    <v>       0.00036767       0.66154027       0.00048135 </v>
    <v>       0.65594158       0.65553822      -0.00002654 </v>
    <v>       0.33116349       0.65551539       0.00023575 </v>
    <v>       0.33346404       0.33962935      -0.00012244 </v>
    <v>       0.65954056       0.32853623      -0.00030913 </v>
    <v>       0.00511535       0.01095767       0.00008636 </v>
    <v>       1.00855682       0.33569242       0.00004121 </v>
    <v>       0.66370736       0.00416333      -0.00028065 </v>
    <v>       0.11123129       0.22295634       0.94619750 </v>
    <v>       0.22544383       0.10807072       0.05143434 </v>
    <v>       0.10760649       0.55825025       0.94807939 </v>
    <v>       0.22155885       0.44338462       0.05417521 </v>
    <v>       0.11378825       0.88652157       0.95098613 </v>
    <v>       0.21939918       0.78058950       0.04935306 </v>
    <v>       0.44001865       0.21503291       0.94802995 </v>
    <v>       0.54839827       0.10710460       0.05254796 </v>
    <v>       0.45165156       0.55894865       0.94687880 </v>
    <v>       0.55900601       0.45118689       0.05206314 </v>
    <v>       0.44078361       0.89137596       0.94916076 </v>
    <v>       0.55975998       0.77533069       0.05112759 </v>
    <v>       0.77892401       0.22236194       0.94769867 </v>
    <v>       0.88844255       0.11191420       0.05274593 </v>
    <v>       0.78066566       0.56175391       0.95001429 </v>
    <v>       0.89202533       0.45004762       0.05100860 </v>
    <v>       0.77489157       0.88299000       0.94996421 </v>
    <v>       0.88615363       0.77307112       0.04839506 </v>
   </varray>
  </structure>
  <varray name="forces" >
   <v>       0.05607240       0.26146781      -0.02387701 </v>
   <v>       0.14936427      -0.09481488       0.02804819 </v>
   <v>       0.07561984      -0.33205677      -0.00855429 </v>
   <v>       0.18403274      -0.25195570      -0.03157782 </v>
   <v>      -0.23269968      -0.09032021      -0.00735657 </v>
   <v>       0.02206126      -0.22282748      -0.01388547 </v>
   <v>      -0.20361128       0.30781334       0.01303442 </v>
   <v>       0.31915310       0.11517036       0.02601290 </v>
   <v>      -0.24272532       0.21506710       0.01966042 </v>
   <v>      -0.00258660       0.13844468      -0.26356365 </v>
   <v>      -0.07901589       0.08203110       0.02778770 </v>
   <v>       0.10796613      -0.00775982      -0.07644830 </v>
   <v>       0.02045626       0.02025314       0.25250013 </v>
   <v>      -0.07486269       0.05716995       0.10632179 </v>
   <v>       0.16365352       0.03978573      -0.05852511 </v>
   <v>      -0.12854662       0.04088835      -0.07025718 </v>
   <v>      -0.00608992       0.02419392       0.17056294 </v>
   <v>       0.00032509      -0.08656488      -0.16267416 </v>
   <v>       0.02775381      -0.11899150       0.09814430 </v>
   <v>       0.09243077      -0.11343494       0.07413332 </v>
   <v>      -0.07646531      -0.03289554      -0.10461466 </v>
   <v>      -0.06242275       0.13644874      -0.02740124 </v>
   <v>      -0.10946134       0.04311962       0.12570688 </v>
   <v>       0.02488783      -0.10978678      -0.01698425 </v>
   <v>       0.10097203      -0.11505854      -0.05142123 </v>
   <v>      -0.02858899       0.03311435       0.15992478 </v>
   <v>      -0.09767265       0.06149884      -0.18469682 </v>
  </varray>
  <varray name="stress" >
   <v>      -0.03833015      -0.10903022       0.01659507 </v>
   <v>      -0.10903016      -0.13945321      -0.09762131 </v>
   <v>       0.01659501      -0.09762124      -0.44174372 </v>
  </varray>
  <energy>
   <i name="e_fr_energy">   -191.25339332 </i>
   <i name="e_wo_entrp">   -191.16124911 </i>
   <i name="e_0_energy">     -0.18428843 </i>
  </energy>
  <time name="totalsc">  377.63  378.63</time>
 </calculation>
 <calculation>
  <scstep>
   <time name="dav">   22.87   22.93</time>
   <time name="total">   23.47   23.53</time>
   <energy>
    <i name="alphaZ">     90.44387609 </i>
    <i name="ewald">  44771.60316583 </i>
    <i name="hartreedc"> -50782.87867536 </i>
    <i name="XCdc">   -233.35379814 </i>
    <i name="pawpsdc">   4083.87477047 </i>
    <i name="pawaedc">  -3499.79005383 </i>
    <i name="eentropy">     -0.18955867 </i>
    <i name="bandstr">  -1382.46606088 </i>
    <i name="atom">   6761.44252427 </i>
    <i name="e_fr_energy">   -191.31381021 </i>
    <i name="e_wo_entrp">   -191.12425154 </i>
    <i name="e_0_energy">   -191.21903088 </i>
   </energy>
  </scstep>
  <scstep>
   <time name="dav">   34.34   34.42</time>
   <time name="total">   34.93   35.02</time>
   <energy>
    <i name="e_fr_energy">   -191.37039888 </i>
    <i name="e_wo_entrp">   -191.17339416 </i>
    <i name="e_0_energy">   -191.27189652 </i>
   </energy>
  </scstep>
  <scstep>
   <time name="dav">   30.67   30.74</time>
   <time name="total">   31.26   31.35</time>
   <energy>
    <i name="e_fr_energy">   -191.32349948 </i>
    <i name="e_wo_entrp">   -191.13315188 </i>
    <i name="e_0_energy">   -191.22832568 </i>
   </energy>
  </scstep>
  <scstep>
   <time name="dav">   29.89   29.96</time>
   <time name="total">   30.48   30.57</time>
   <energy>
    <i name="e_fr_energy">   -191.32317257 </i>
    <i name="e_wo_entrp">   -191.13295878 </i>
    <i name="e_0_energy">   -191.22806568 </i>
   </energy>
  </scstep>
  <scstep>
   <time name="dav">   29.75   29.82</time>
   <time name="total">   30.34   30.42</time>
   <energy>
    <i name="e_fr_energy">   -191.32028788 </i>
    <i name="e_wo_entrp">   -191.12942465 </i>
    <i name="e_0_energy">   -191.22485626 </i>
   </energy>
  </scstep>
  <scstep>
   <time name="dav">   29.27   29.34</time>
   <time name="total">   29.87   29.94</time>
   <energy>
    <i name="e_fr_energy">   -191.31979954 </i>
    <i name="e_wo_entrp">   -191.12895586 </i>
    <i name="e_0_energy">   -191.22437770 </i>
   </energy>
  </scstep>
  <scstep>
   <time name="dav">   30.37   30.44</time>
   <time name="total">   30.96   31.04</time>
   <energy>
    <i name="e_fr_energy">   -191.32015113 </i>
    <i name="e_wo_entrp">   -191.12926873 </i>
    <i name="e_0_energy">   -191.22470993 </i>
   </energy>
  </scstep>
  <scstep>
   <time name="dav">   25.95   26.01</time>
   <time name="total">   26.54   26.61</time>
   <energy>
    <i name="e_fr_energy">   -191.31966518 </i>
    <i name="e_wo_entrp">   -191.12877440 </i>
    <i name="e_0_energy">   -191.22421979 </i>
   </energy>
  </scstep>
  <scstep>
   <time name="dav">   18.72   18.77</time>
   <time name="total">   18.76   18.82</time>
   <energy>
    <i name="alphaZ">     90.44387609 </i>
    <i name="ewald">  44771.60316583 </i>
    <i name="hartreedc"> -50783.42280326 </i>
    <i name="XCdc">   -233.35634369 </i>
    <i name="pawpsdc">   4082.68771718 </i>
    <i name="pawaedc">  -3498.57667726 </i>
    <i name="eentropy">     -0.19085495 </i>
    <i name="bandstr">  -1381.95023174 </i>
    <i name="atom">   6761.44252427 </i>
    <i name="e_fr_energy">   -191.31962752 </i>
    <i name="e_wo_entrp">   -191.12877257 </i>
    <i name="e_0_energy">   -191.22420004 </i>
   </energy>
  </scstep>
  <structure>
   <crystal>
    <varray name="basis" >
     <v>       8.26507588       4.76889944       0.00000000 </v>
     <v>      -8.26880906       4.77535458       0.00000000 </v>
     <v>       0.00000000       0.00000000      30.00000000 </v>
    </varray>
    <i name="volume">   2367.05360485 </i>
    <varray name="rec_basis" >
     <v>       0.06052277       0.10479876       0.00000000 </v>
     <v>      -0.06044096       0.10475144       0.00000000 </v>
     <v>       0.00000000       0.00000000       0.03333333 </v>
    </varray>
   </crystal>
   <varray name="positions" >
    <v>       0.34213042       0.00693589      -0.00000633 </v>
    <v>       0.00032506       0.66060180       0.00052808 </v>
    <v>       0.65444135       0.65359392      -0.00003937 </v>
    <v>       0.33041293       0.65365376       0.00018450 </v>
    <v>       0.33231069       0.33986990      -0.00013363 </v>
    <v>       0.65844982       0.32731601      -0.00033191 </v>
    <v>       0.00609723       0.01316252       0.00010774 </v>
    <v>       1.01010831       0.33533991       0.00008349 </v>
    <v>       0.66408724       0.00599128      -0.00025036 </v>
    <v>       0.11193602       0.22367586       0.94575253 </v>
    <v>       0.22563809       0.10872406       0.05149246 </v>
    <v>       0.10788478       0.55789949       0.94794090 </v>
    <v>       0.22172653       0.44342745       0.05460339 </v>
    <v>       0.11386404       0.88703108       0.95115030 </v>
    <v>       0.22008257       0.78031262       0.04926803 </v>
    <v>       0.43984150       0.21561158       0.94790132 </v>
    <v>       0.54849342       0.10724398       0.05284128 </v>
    <v>       0.45121933       0.55850985       0.94659641 </v>
    <v>       0.55848461       0.45050555       0.05223693 </v>
    <v>       0.44046770       0.89052252       0.94927026 </v>
    <v>       0.55937015       0.77538264       0.05096971 </v>
    <v>       0.77943771       0.22324538       0.94764198 </v>
    <v>       0.88833909       0.11245977       0.05296356 </v>
    <v>       0.78018246       0.56112632       0.94997469 </v>
    <v>       0.89173625       0.44916975       0.05093648 </v>
    <v>       0.77497226       0.88323460       0.95021543 </v>
    <v>       0.88617489       0.77366697       0.04810204 </v>
   </varray>
  </structure>
  <varray name="forces" >
   <v>       0.06168451       0.25277941      -0.03429826 </v>
   <v>       0.15039065      -0.10398290       0.05409301 </v>
   <v>       0.13660702      -0.35322651       0.01028936 </v>
   <v>       0.17425543      -0.29404777      -0.00358098 </v>
   <v>      -0.21497770      -0.07997213       0.02320957 </v>
   <v>      -0.00800143      -0.22701917      -0.00088685 </v>
   <v>      -0.21463273       0.33374039      -0.00679243 </v>
   <v>       0.31866331       0.11803701       0.02126741 </v>
   <v>      -0.27582778       0.25570686      -0.02557540 </v>
   <v>      -0.00793977       0.08971897      -0.23600648 </v>
   <v>      -0.04831933       0.05662059       0.03846404 </v>
   <v>       0.07386262      -0.02172329      -0.07063122 </v>
   <v>       0.02006002       0.00915065       0.20713544 </v>
   <v>      -0.06027297       0.04803693       0.13211058 </v>
   <v>       0.10651488       0.03759767      -0.09783327 </v>
   <v>      -0.09304137       0.01129745      -0.06051029 </v>
   <v>      -0.01758628       0.01387154       0.17034270 </v>
   <v>       0.00944014      -0.06228604      -0.14263426 </v>
   <v>       0.01422188      -0.09356589       0.05893721 </v>
   <v>       0.06512741      -0.05943963       0.10516233 </v>
   <v>      -0.04969134       0.00006363      -0.14886005 </v>
   <v>      -0.04260946       0.11790637      -0.01103039 </v>
   <v>      -0.07285127       0.03866183       0.11430976 </v>
   <v>       0.00992181      -0.07933728      -0.00753075 </v>
   <v>       0.08393071      -0.08624797      -0.07092062 </v>
   <v>      -0.03575540       0.02820794       0.19762528 </v>
   <v>      -0.08317357       0.04945135      -0.21585545 </v>
  </varray>
  <varray name="stress" >
   <v>       0.03267898      -0.03069456       0.03808453 </v>
   <v>      -0.03069469       0.01403464      -0.05481022 </v>
   <v>       0.03808471      -0.05481017      -1.01516235 </v>
  </varray>
  <energy>
   <i name="e_fr_energy">   -191.31962752 </i>
   <i name="e_wo_entrp">   -191.22420004 </i>
   <i name="e_0_energy">     -0.19085495 </i>
  </energy>
  <time name="totalsc">  300.40  301.19</time>
 </calculation>
 <calculation>
  <scstep>
   <time name="dav">   22.82   22.87</time>
   <time name="total">   23.41   23.47</time>
   <energy>
    <i name="alphaZ">     90.42921378 </i>
    <i name="ewald">  44762.38518702 </i>
    <i name="hartreedc"> -50774.17052548 </i>
    <i name="XCdc">   -233.37717393 </i>
    <i name="pawpsdc">   4082.68976473 </i>
    <i name="pawaedc">  -3498.57902965 </i>
    <i name="eentropy">     -0.19373361 </i>
    <i name="bandstr">  -1381.98656460 </i>
    <i name="atom">   6761.44252427 </i>
    <i name="e_fr_energy">   -191.36033748 </i>
    <i name="e_wo_entrp">   -191.16660387 </i>
    <i name="e_0_energy">   -191.26347068 </i>
   </energy>
  </scstep>
  <scstep>
   <time name="dav">   34.72   34.80</time>
   <time name="total">   35.31   35.40</time>
   <energy>
    <i name="e_fr_energy">   -191.38245740 </i>
    <i name="e_wo_entrp">   -191.18265700 </i>
    <i name="e_0_energy">   -191.28255720 </i>
   </energy>
  </scstep>
  <scstep>
   <time name="dav">   30.85   30.92</time>
   <time name="total">   31.44   31.53</time>
   <energy>
    <i name="e_fr_energy">   -191.36353957 </i>
    <i name="e_wo_entrp">   -191.16928739 </i>
    <i name="e_0_energy">   -191.26641348 </i>
   </energy>
  </scstep>
  <scstep>
   <time name="dav">   29.64   29.71</time>
   <time name="total">   30.23   30.31</time>
   <energy>
    <i name="e_fr_energy">   -191.36367532 </i>
    <i name="e_wo_entrp">   -191.16944124 </i>
    <i name="e_0_energy">   -191.26655828 </i>
   </energy>
  </scstep>
  <scstep>
   <time name="dav">   29.39   29.46</time>
   <time name="total">   29.99   30.07</time>
   <energy>
    <i name="e_fr_energy">   -191.36241773 </i>
    <i name="e_wo_entrp">   -191.16765565 </i>
    <i name="e_0_energy">   -191.26503669 </i>
   </energy>
  </scstep>
  <scstep>
   <time name="dav">   28.04   28.11</time>
   <time name="total">   28.63   28.71</time>
   <energy>
    <i name="e_fr_energy">   -191.36224055 </i>
    <i name="e_wo_entrp">   -191.16751415 </i>
    <i name="e_0_energy">   -191.26487735 </i>
   </energy>
  </scstep>
  <scstep>
   <time name="dav">   26.10   26.16</time>
   <time name="total">   26.69   26.76</time>
   <energy>
    <i name="e_fr_energy">   -191.36234380 </i>
    <i name="e_wo_entrp">   -191.16762765 </i>
    <i name="e_0_energy">   -191.26498572 </i>
   </energy>
  </scstep>
  <scstep>
   <time name="dav">   23.71   23.76</time>
   <time name="total">   24.30   24.37</time>
   <energy>
    <i name="e_fr_energy">   -191.36219460 </i>
    <i name="e_wo_entrp">   -191.16746961 </i>
    <i name="e_0_energy">   -191.26483211 </i>
   </energy>
  </scstep>
  <scstep>
   <time name="dav">   19.24   19.28</time>
   <time name="total">   19.27   19.33</time>
   <energy>
    <i name="alphaZ">     90.42921378 </i>
    <i name="ewald">  44762.38518702 </i>
    <i name="hartreedc"> -50774.82541922 </i>
    <i name="XCdc">   -233.35846655 </i>
[...]
      <set comment="kpoint 31">
       <r>  -17.5641    1.0000 </r>
       <r>  -17.2206    1.0000 </r>
       <r>  -16.9311    1.0000 </r>
       <r>  -16.6784    1.0000 </r>
       <r>  -16.4992    1.0000 </r>
       <r>  -16.4383    1.0000 </r>
       <r>  -16.3111    1.0000 </r>
       <r>  -16.2272    1.0000 </r>
       <r>  -16.0961    1.0000 </r>
       <r>  -16.0246    1.0000 </r>
       <r>  -15.9620    1.0000 </r>
       <r>  -15.8844    1.0000 </r>
       <r>  -15.7651    1.0000 </r>
       <r>  -15.6970    1.0000 </r>
       <r>  -15.6109    1.0000 </r>
       <r>  -15.5195    1.0000 </r>
       <r>  -15.3672    1.0000 </r>
       <r>  -15.2259    1.0000 </r>
       <r>   -9.7251    1.0000 </r>
       <r>   -9.4295    1.0000 </r>
       <r>   -9.3739    1.0000 </r>
       <r>   -9.0330    1.0000 </r>
       <r>   -8.9388    1.0000 </r>
       <r>   -8.7212    1.0000 </r>
       <r>   -8.6079    1.0000 </r>
       <r>   -8.3858    1.0000 </r>
       <r>   -8.3409    1.0000 </r>
       <r>   -8.3242    1.0000 </r>
       <r>   -8.2682    1.0000 </r>
       <r>   -8.2203    1.0000 </r>
       <r>   -8.1950    1.0000 </r>
       <r>   -8.0807    1.0000 </r>
       <r>   -8.0130    1.0000 </r>
       <r>   -7.9182    1.0000 </r>
       <r>   -7.7848    1.0000 </r>
       <r>   -7.7262    1.0000 </r>
       <r>   -7.5898    1.0000 </r>
       <r>   -7.4177    1.0000 </r>
       <r>   -7.3431    1.0000 </r>
       <r>   -7.2861    1.0000 </r>
       <r>   -7.1321    1.0000 </r>
       <r>   -7.0632    1.0000 </r>
       <r>   -6.9959    1.0000 </r>
       <r>   -6.9650    1.0000 </r>
       <r>   -6.8771    1.0000 </r>
       <r>   -6.7601    1.0000 </r>
       <r>   -6.6596    1.0000 </r>
       <r>   -6.5824    1.0000 </r>
       <r>   -6.5615    1.0000 </r>
       <r>   -6.4886    1.0000 </r>
       <r>   -6.3807    1.0000 </r>
       <r>   -6.3174    1.0000 </r>
       <r>   -6.2518    1.0000 </r>
       <r>   -6.1910    1.0000 </r>
       <r>   -6.1672    1.0000 </r>
       <r>   -6.0784    1.0000 </r>
       <r>   -6.0026    1.0000 </r>
       <r>   -5.9068    1.0000 </r>
       <r>   -5.8460    1.0000 </r>
       <r>   -5.8187    1.0000 </r>
       <r>   -5.7011    1.0000 </r>
       <r>   -5.6440    1.0000 </r>
       <r>   -5.5229    1.0000 </r>
       <r>   -5.4093    1.0000 </r>
       <r>   -5.2639    1.0000 </r>
       <r>   -5.1667    1.0000 </r>
       <r>   -5.1147    1.0000 </r>
       <r>   -4.9036    1.0000 </r>
       <r>   -4.7902    1.0000 </r>
       <r>   -4.7085    1.0000 </r>
       <r>   -4.5240    1.0000 </r>
       <r>   -4.4500    1.0000 </r>
       <r>   -4.2925    1.0000 </r>
       <r>   -4.2063    1.0000 </r>
       <r>   -4.1178    1.0000 </r>
       <r>   -3.9950    1.0000 </r>
       <r>   -3.8573    0.9999 </r>
       <r>   -3.6667    0.9934 </r>
       <r>   -3.5694    0.9633 </r>
       <r>   -3.2331    0.2783 </r>
       <r>   -3.0982    0.0616 </r>
       <r>   -2.7942    0.0001 </r>
       <r>   -2.6669    0.0000 </r>
       <r>   -2.5558    0.0000 </r>
       <r>   -2.5137    0.0000 </r>
       <r>   -2.3202    0.0000 </r>
       <r>   -2.2393    0.0000 </r>
       <r>   -2.1081    0.0000 </r>
       <r>   -1.9828    0.0000 </r>
       <r>   -1.8719    0.0000 </r>
       <r>   -1.6953    0.0000 </r>
       <r>   -1.5708    0.0000 </r>
       <r>   -1.4338    0.0000 </r>
       <r>   -1.3820    0.0000 </r>
       <r>   -1.2579    0.0000 </r>
       <r>   -1.1897    0.0000 </r>
       <r>   -1.1280    0.0000 </r>
       <r>   -1.0376    0.0000 </r>
       <r>   -1.0304    0.0000 </r>
       <r>   -0.9294    0.0000 </r>
       <r>   -0.9013    0.0000 </r>
       <r>   -0.7362    0.0000 </r>
       <r>   -0.6766    0.0000 </r>
       <r>   -0.5546    0.0000 </r>
       <r>   -0.4086    0.0000 </r>
       <r>   -0.3737    0.0000 </r>
       <r>   -0.2028    0.0000 </r>
       <r>   -0.0775    0.0000 </r>
       <r>    0.0681    0.0000 </r>
       <r>    0.2405    0.0000 </r>
       <r>    0.3681    0.0000 </r>
       <r>    0.5169    0.0000 </r>
       <r>    0.6581    0.0000 </r>
       <r>    0.8397    0.0000 </r>
       <r>    1.0119    0.0000 </r>
       <r>    1.2965    0.0000 </r>
       <r>    1.4486    0.0000 </r>
       <r>    2.1156    0.0000 </r>
       <r>    2.2980    0.0000 </r>
       <r>    2.3791    0.0000 </r>
      </set>
      <set comment="kpoint 32">
       <r>  -17.5615    1.0000 </r>
       <r>  -17.1552    1.0000 </r>
       <r>  -17.0555    1.0000 </r>
       <r>  -16.6703    1.0000 </r>
       <r>  -16.4566    1.0000 </r>
       <r>  -16.3253    1.0000 </r>
       <r>  -16.3103    1.0000 </r>
       <r>  -16.2474    1.0000 </r>
       <r>  -16.1853    1.0000 </r>
       <r>  -16.0619    1.0000 </r>
       <r>  -15.9870    1.0000 </r>
       <r>  -15.8791    1.0000 </r>
       <r>  -15.7464    1.0000 </r>
       <r>  -15.6755    1.0000 </r>
       <r>  -15.5790    1.0000 </r>
       <r>  -15.5053    1.0000 </r>
       <r>  -15.3831    1.0000 </r>
       <r>  -15.2352    1.0000 </r>
       <r>   -9.6633    1.0000 </r>
       <r>   -9.5576    1.0000 </r>
       <r>   -9.4425    1.0000 </r>
       <r>   -8.9937    1.0000 </r>
       <r>   -8.7807    1.0000 </r>
       <r>   -8.6288    1.0000 </r>
       <r>   -8.4911    1.0000 </r>
       <r>   -8.4722    1.0000 </r>
       <r>   -8.4361    1.0000 </r>
       <r>   -8.3422    1.0000 </r>
       <r>   -8.2930    1.0000 </r>
       <r>   -8.2268    1.0000 </r>
       <r>   -8.1973    1.0000 </r>
       <r>   -8.1147    1.0000 </r>
       <r>   -8.0475    1.0000 </r>
       <r>   -7.9371    1.0000 </r>
       <r>   -7.8135    1.0000 </r>
       <r>   -7.6650    1.0000 </r>
       <r>   -7.6172    1.0000 </r>
       <r>   -7.4391    1.0000 </r>
       <r>   -7.3480    1.0000 </r>
       <r>   -7.2763    1.0000 </r>
       <r>   -7.1497    1.0000 </r>
       <r>   -7.0829    1.0000 </r>
       <r>   -7.0297    1.0000 </r>
       <r>   -6.9756    1.0000 </r>
       <r>   -6.8513    1.0000 </r>
       <r>   -6.7409    1.0000 </r>
       <r>   -6.6680    1.0000 </r>
       <r>   -6.6280    1.0000 </r>
       <r>   -6.5183    1.0000 </r>
       <r>   -6.4919    1.0000 </r>
       <r>   -6.3546    1.0000 </r>
       <r>   -6.2952    1.0000 </r>
       <r>   -6.2631    1.0000 </r>
       <r>   -6.1919    1.0000 </r>
       <r>   -6.1455    1.0000 </r>
       <r>   -6.0639    1.0000 </r>
       <r>   -5.9799    1.0000 </r>
       <r>   -5.8722    1.0000 </r>
       <r>   -5.7951    1.0000 </r>
       <r>   -5.7022    1.0000 </r>
       <r>   -5.6667    1.0000 </r>
       <r>   -5.6086    1.0000 </r>
       <r>   -5.5472    1.0000 </r>
       <r>   -5.4519    1.0000 </r>
       <r>   -5.3220    1.0000 </r>
       <r>   -5.2134    1.0000 </r>
       <r>   -5.0962    1.0000 </r>
       <r>   -5.0068    1.0000 </r>
       <r>   -4.7725    1.0000 </r>
       <r>   -4.6715    1.0000 </r>
       <r>   -4.5388    1.0000 </r>
       <r>   -4.4081    1.0000 </r>
       <r>   -4.3705    1.0000 </r>
       <r>   -4.2632    1.0000 </r>
       <r>   -4.1034    1.0000 </r>
       <r>   -3.9834    1.0000 </r>
       <r>   -3.8455    0.9999 </r>
       <r>   -3.6732    0.9942 </r>
       <r>   -3.5176    0.9228 </r>
       <r>   -3.2067    0.2193 </r>
       <r>   -3.1337    0.0984 </r>
       <r>   -2.8358    0.0003 </r>
       <r>   -2.6654    0.0000 </r>
       <r>   -2.5654    0.0000 </r>
       <r>   -2.5325    0.0000 </r>
       <r>   -2.3648    0.0000 </r>
       <r>   -2.2277    0.0000 </r>
       <r>   -2.1322    0.0000 </r>
       <r>   -1.9919    0.0000 </r>
       <r>   -1.8685    0.0000 </r>
       <r>   -1.7365    0.0000 </r>
       <r>   -1.5419    0.0000 </r>
       <r>   -1.3984    0.0000 </r>
       <r>   -1.3202    0.0000 </r>
       <r>   -1.2277    0.0000 </r>
       <r>   -1.1641    0.0000 </r>
       <r>   -1.1218    0.0000 </r>
       <r>   -1.0302    0.0000 </r>
       <r>   -1.0050    0.0000 </r>
       <r>   -0.9479    0.0000 </r>
       <r>   -0.8725    0.0000 </r>
       <r>   -0.7744    0.0000 </r>
       <r>   -0.7037    0.0000 </r>
       <r>   -0.5606    0.0000 </r>
       <r>   -0.4801    0.0000 </r>
       <r>   -0.3216    0.0000 </r>
       <r>   -0.2400    0.0000 </r>
       <r>   -0.0870    0.0000 </r>
       <r>    0.1281    0.0000 </r>
       <r>    0.2069    0.0000 </r>
       <r>    0.3357    0.0000 </r>
       <r>    0.6126    0.0000 </r>
       <r>    0.7049    0.0000 </r>
       <r>    0.8685    0.0000 </r>
       <r>    0.9800    0.0000 </r>
       <r>    1.2367    0.0000 </r>
       <r>    1.4198    0.0000 </r>
       <r>    2.0939    0.0000 </r>
       <r>    2.2675    0.0000 </r>
       <r>    2.5619    0.0000 </r>
      </set>
      <set comment="kpoint 33">
       <r>  -17.5348    1.0000 </r>
       <r>  -17.2760    1.0000 </r>
       <r>  -16.9073    1.0000 </r>
       <r>  -16.6623    1.0000 </r>
       <r>  -16.4814    1.0000 </r>
       <r>  -16.4722    1.0000 </r>
       <r>  -16.2843    1.0000 </r>
       <r>  -16.2306    1.0000 </r>
       <r>  -16.1371    1.0000 </r>
       <r>  -16.0750    1.0000 </r>
       <r>  -15.9926    1.0000 </r>
       <r>  -15.8587    1.0000 </r>
       <r>  -15.7302    1.0000 </r>
       <r>  -15.6609    1.0000 </r>
       <r>  -15.5759    1.0000 </r>
       <r>  -15.4857    1.0000 </r>
       <r>  -15.3852    1.0000 </r>
       <r>  -15.2679    1.0000 </r>
       <r>   -9.7552    1.0000 </r>
       <r>   -9.4680    1.0000 </r>
       <r>   -9.3514    1.0000 </r>
       <r>   -8.9510    1.0000 </r>
       <r>   -8.8690    1.0000 </r>
       <r>   -8.7375    1.0000 </r>
       <r>   -8.6088    1.0000 </r>
       <r>   -8.5534    1.0000 </r>
       <r>   -8.4337    1.0000 </r>
       <r>   -8.3189    1.0000 </r>
       <r>   -8.2699    1.0000 </r>
       <r>   -8.1583    1.0000 </r>
       <r>   -8.1253    1.0000 </r>
       <r>   -8.0485    1.0000 </r>
       <r>   -8.0237    1.0000 </r>
       <r>   -7.8753    1.0000 </r>
       <r>   -7.8118    1.0000 </r>
       <r>   -7.6873    1.0000 </r>
       <r>   -7.5868    1.0000 </r>
       <r>   -7.5166    1.0000 </r>
       <r>   -7.4084    1.0000 </r>
       <r>   -7.2895    1.0000 </r>
       <r>   -7.1428    1.0000 </r>
       <r>   -7.0407    1.0000 </r>
       <r>   -7.0340    1.0000 </r>
       <r>   -6.9523    1.0000 </r>
       <r>   -6.8673    1.0000 </r>
       <r>   -6.7673    1.0000 </r>
       <r>   -6.6384    1.0000 </r>
       <r>   -6.5890    1.0000 </r>
       <r>   -6.5159    1.0000 </r>
       <r>   -6.4682    1.0000 </r>
       <r>   -6.3998    1.0000 </r>
       <r>   -6.3224    1.0000 </r>
       <r>   -6.2706    1.0000 </r>
       <r>   -6.1614    1.0000 </r>
       <r>   -6.0973    1.0000 </r>
       <r>   -6.0313    1.0000 </r>
       <r>   -5.9981    1.0000 </r>
       <r>   -5.9313    1.0000 </r>
       <r>   -5.8393    1.0000 </r>
       <r>   -5.7351    1.0000 </r>
       <r>   -5.6553    1.0000 </r>
       <r>   -5.6012    1.0000 </r>
       <r>   -5.5342    1.0000 </r>
       <r>   -5.4259    1.0000 </r>
       <r>   -5.3566    1.0000 </r>
       <r>   -5.1956    1.0000 </r>
       <r>   -5.0891    1.0000 </r>
       <r>   -4.8845    1.0000 </r>
       <r>   -4.7589    1.0000 </r>
       <r>   -4.7133    1.0000 </r>
       <r>   -4.5640    1.0000 </r>
       <r>   -4.4050    1.0000 </r>
       <r>   -4.3457    1.0000 </r>
       <r>   -4.2670    1.0000 </r>
       <r>   -4.1177    1.0000 </r>
       <r>   -3.9999    1.0000 </r>
       <r>   -3.8469    0.9999 </r>
       <r>   -3.7087    0.9972 </r>
       <r>   -3.4787    0.8748 </r>
       <r>   -3.2770    0.3909 </r>
       <r>   -3.0704    0.0411 </r>
       <r>   -2.8910    0.0013 </r>
       <r>   -2.7075    0.0000 </r>
       <r>   -2.5627    0.0000 </r>
       <r>   -2.5128    0.0000 </r>
       <r>   -2.4045    0.0000 </r>
       <r>   -2.2421    0.0000 </r>
       <r>   -2.1792    0.0000 </r>
       <r>   -1.9500    0.0000 </r>
       <r>   -1.8550    0.0000 </r>
       <r>   -1.7570    0.0000 </r>
       <r>   -1.5090    0.0000 </r>
       <r>   -1.3611    0.0000 </r>
       <r>   -1.3020    0.0000 </r>
       <r>   -1.1708    0.0000 </r>
       <r>   -1.1484    0.0000 </r>
       <r>   -1.1190    0.0000 </r>
       <r>   -1.0245    0.0000 </r>
       <r>   -0.9963    0.0000 </r>
       <r>   -0.9320    0.0000 </r>
       <r>   -0.8460    0.0000 </r>
       <r>   -0.8169    0.0000 </r>
       <r>   -0.7360    0.0000 </r>
       <r>   -0.5919    0.0000 </r>
       <r>   -0.5454    0.0000 </r>
       <r>   -0.3833    0.0000 </r>
       <r>   -0.1919    0.0000 </r>
       <r>   -0.0692    0.0000 </r>
       <r>    0.0973    0.0000 </r>
       <r>    0.2124    0.0000 </r>
       <r>    0.3234    0.0000 </r>
       <r>    0.6404    0.0000 </r>
       <r>    0.7937    0.0000 </r>
       <r>    0.8799    0.0000 </r>
       <r>    1.0602    0.0000 </r>
       <r>    1.1888    0.0000 </r>
       <r>    1.4046    0.0000 </r>
       <r>    2.1318    0.0000 </r>
       <r>    2.2979    0.0000 </r>
       <r>    2.3949    0.0000 </r>
      </set>
      <set comment="kpoint 34">
       <r>  -17.5078    1.0000 </r>
       <r>  -17.3424    1.0000 </r>
       <r>  -16.7370    1.0000 </r>
       <r>  -16.6766    1.0000 </r>
       <r>  -16.6424    1.0000 </r>
       <r>  -16.4892    1.0000 </r>
       <r>  -16.2697    1.0000 </r>
       <r>  -16.2185    1.0000 </r>
       <r>  -16.1427    1.0000 </r>
       <r>  -16.0396    1.0000 </r>
       <r>  -16.0004    1.0000 </r>
       <r>  -15.8437    1.0000 </r>
       <r>  -15.7248    1.0000 </r>
       <r>  -15.6562    1.0000 </r>
       <r>  -15.5761    1.0000 </r>
       <r>  -15.4795    1.0000 </r>
       <r>  -15.3768    1.0000 </r>
       <r>  -15.2942    1.0000 </r>
       <r>   -9.7975    1.0000 </r>
       <r>   -9.4080    1.0000 </r>
       <r>   -9.1937    1.0000 </r>
       <r>   -9.0435    1.0000 </r>
       <r>   -8.9342    1.0000 </r>
       <r>   -8.8507    1.0000 </r>
       <r>   -8.6468    1.0000 </r>
       <r>   -8.5628    1.0000 </r>
       <r>   -8.4442    1.0000 </r>
       <r>   -8.3243    1.0000 </r>
       <r>   -8.2534    1.0000 </r>
       <r>   -8.1458    1.0000 </r>
       <r>   -8.1006    1.0000 </r>
       <r>   -7.9905    1.0000 </r>
       <r>   -7.9201    1.0000 </r>
       <r>   -7.8622    1.0000 </r>
       <r>   -7.7409    1.0000 </r>
       <r>   -7.6860    1.0000 </r>
       <r>   -7.6275    1.0000 </r>
       <r>   -7.5993    1.0000 </r>
       <r>   -7.4548    1.0000 </r>
       <r>   -7.3106    1.0000 </r>
       <r>   -7.1532    1.0000 </r>
       <r>   -7.0568    1.0000 </r>
       <r>   -6.9592    1.0000 </r>
       <r>   -6.9249    1.0000 </r>
       <r>   -6.8462    1.0000 </r>
       <r>   -6.7249    1.0000 </r>
       <r>   -6.6216    1.0000 </r>
       <r>   -6.5662    1.0000 </r>
       <r>   -6.5481    1.0000 </r>
       <r>   -6.4746    1.0000 </r>
       <r>   -6.4075    1.0000 </r>
       <r>   -6.3422    1.0000 </r>
       <r>   -6.2767    1.0000 </r>
       <r>   -6.2580    1.0000 </r>
       <r>   -6.1381    1.0000 </r>
       <r>   -6.0044    1.0000 </r>
       <r>   -5.9704    1.0000 </r>
       <r>   -5.9503    1.0000 </r>
       <r>   -5.8273    1.0000 </r>
       <r>   -5.7099    1.0000 </r>
       <r>   -5.6735    1.0000 </r>
       <r>   -5.6229    1.0000 </r>
       <r>   -5.5161    1.0000 </r>
       <r>   -5.4747    1.0000 </r>
       <r>   -5.3706    1.0000 </r>
       <r>   -5.1140    1.0000 </r>
       <r>   -5.0659    1.0000 </r>
       <r>   -4.8908    1.0000 </r>
       <r>   -4.8099    1.0000 </r>
       <r>   -4.6425    1.0000 </r>
       <r>   -4.4765    1.0000 </r>
       <r>   -4.4529    1.0000 </r>
       <r>   -4.3298    1.0000 </r>
       <r>   -4.2688    1.0000 </r>
       <r>   -4.1593    1.0000 </r>
       <r>   -3.9831    1.0000 </r>
       <r>   -3.8916    1.0000 </r>
       <r>   -3.7177    0.9977 </r>
       <r>   -3.4677    0.8579 </r>
       <r>   -3.2967    0.4453 </r>
       <r>   -3.0269    0.0204 </r>
       <r>   -2.9339    0.0034 </r>
       <r>   -2.7339    0.0000 </r>
       <r>   -2.5619    0.0000 </r>
       <r>   -2.4912    0.0000 </r>
       <r>   -2.4231    0.0000 </r>
       <r>   -2.2654    0.0000 </r>
       <r>   -2.1858    0.0000 </r>
       <r>   -1.9241    0.0000 </r>
       <r>   -1.8566    0.0000 </r>
       <r>   -1.7535    0.0000 </r>
       <r>   -1.4890    0.0000 </r>
       <r>   -1.3573    0.0000 </r>
       <r>   -1.2893    0.0000 </r>
       <r>   -1.1622    0.0000 </r>
       <r>   -1.1329    0.0000 </r>
       <r>   -1.1176    0.0000 </r>
       <r>   -1.0435    0.0000 </r>
       <r>   -0.9970    0.0000 </r>
       <r>   -0.8861    0.0000 </r>
       <r>   -0.8560    0.0000 </r>
       <r>   -0.8029    0.0000 </r>
       <r>   -0.7425    0.0000 </r>
       <r>   -0.6193    0.0000 </r>
       <r>   -0.6147    0.0000 </r>
       <r>   -0.4073    0.0000 </r>
       <r>   -0.1311    0.0000 </r>
       <r>   -0.0791    0.0000 </r>
       <r>    0.0598    0.0000 </r>
       <r>    0.2294    0.0000 </r>
       <r>    0.3104    0.0000 </r>
       <r>    0.6320    0.0000 </r>
       <r>    0.8534    0.0000 </r>
       <r>    0.8948    0.0000 </r>
       <r>    1.1228    0.0000 </r>
       <r>    1.1523    0.0000 </r>
       <r>    1.4048    0.0000 </r>
       <r>    2.2204    0.0000 </r>
       <r>    2.2417    0.0000 </r>
       <r>    2.4003    0.0000 </r>
      </set>
     </set>
    </set>
   </array>
  </eigenvalues>
  <separator name="orbital magnetization" >
   <v name="MAGDIPOLOUT">      0.00000000      0.00000000      0.00000000</v>
  </separator>
 </calculation>
 <structure name="finalpos" >
  <crystal>
   <varray name="basis" >
    <v>       8.32057394       4.82099190       0.00000000 </v>
    <v>      -8.32874673       4.83522431       0.00000000 </v>
    <v>       0.00000000       0.00000000      30.00000000 </v>
   </varray>
   <i name="volume">   2411.53985892 </i>
   <varray name="rec_basis" >
    <v>       0.06015108       0.10361114       0.00000000 </v>
    <v>      -0.05997403       0.10350947       0.00000000 </v>
    <v>       0.00000000       0.00000000       0.03333333 </v>
   </varray>
  </crystal>
  <varray name="positions" >
   <v>       0.34907550       0.03036609       0.00096513 </v>
   <v>      -0.01154462       0.63215167      -0.00035421 </v>
   <v>       0.64503916       0.63197557      -0.00119405 </v>
   <v>       0.32054069       0.63551094      -0.00018616 </v>
   <v>       0.33331456       0.33864140       0.00030547 </v>
   <v>       0.64233393       0.32243352      -0.00008756 </v>
   <v>       0.03327311       0.03321987      -0.00003172 </v>
   <v>       1.03251243       0.34637095       0.00069227 </v>
   <v>       0.64767404       0.01855283      -0.00015391 </v>
   <v>       0.11847336       0.23158914       0.94371753 </v>
   <v>       0.23029428       0.11375280       0.05501273 </v>
   <v>       0.10922182       0.55474055       0.94561586 </v>
   <v>       0.22742211       0.44182851       0.05748828 </v>
   <v>       0.11476165       0.88745381       0.95378674 </v>
   <v>       0.21895227       0.77921929       0.04378807 </v>
   <v>       0.43824751       0.22006184       0.94567718 </v>
   <v>       0.54442650       0.11026131       0.05621580 </v>
   <v>       0.44912331       0.55695553       0.94518489 </v>
   <v>       0.55784499       0.44807001       0.05438151 </v>
   <v>       0.43322426       0.88891078       0.95181237 </v>
   <v>       0.55956921       0.77685572       0.04700446 </v>
   <v>       0.78445862       0.23074743       0.95071250 </v>
   <v>       0.89029576       0.11330007       0.05037745 </v>
   <v>       0.77641866       0.55514831       0.94864110 </v>
   <v>       0.88736833       0.43628173       0.05020455 </v>
   <v>       0.77546788       0.88818419       0.95824503 </v>
   <v>       0.89042513       0.77563059       0.04217859 </v>
  </varray>
 </structure>
</modeling>
