unknown system                          
           1
     8.854530    5.104526    0.000000
    -8.855598    5.106364    0.000000
     0.000000    0.000000   30.000000
   V    Mo   W    S 
   3   3   3  18
Direct configuration=     1
   0.33333334  0.00000000  0.00000000
   0.00000000  0.66666669  0.00000000
   0.66666669  0.66666669  0.00000000
   0.33333334  0.66666669  0.00000000
   0.33333334  0.33333334  0.00000000
   0.66666669  0.33333334  0.00000000
   0.00000000  0.00000000  0.00000000
   1.00000000  0.33333334  0.00000000
   0.66666669  0.00000000  0.00000000
   0.11068511  0.22244981  0.95539999
   0.22244981  0.11068511  0.04460000
   0.11068511  0.55578315  0.95539999
   0.22244981  0.44401845  0.04460000
   0.11068511  0.88911647  0.95539999
   0.22244981  0.77735180  0.04460000
   0.44401845  0.22244981  0.95539999
   0.55578315  0.11068511  0.04460000
   0.44401845  0.55578315  0.95539999
   0.55578315  0.44401845  0.04460000
   0.44401845  0.88911647  0.95539999
   0.55578315  0.77735180  0.04460000
   0.77735180  0.22244981  0.95539999
   0.88911647  0.11068511  0.04460000
   0.77735180  0.55578315  0.95539999
   0.88911647  0.44401845  0.04460000
   0.77735180  0.88911647  0.95539999
   0.88911647  0.77735180  0.04460000
unknown system                          
           1
     8.666379    4.998326    0.000000
    -8.667225    4.999780    0.000000
     0.000000    0.000000   30.000000
   V    Mo   W    S 
   3   3   3  18
Direct configuration=     2
   0.33411668  0.00076798  0.00019380
   0.00006906  0.66598621  0.00004687
   0.66478113  0.66429625 -0.00018711
   0.33324297  0.66550156  0.00011302
   0.33476036  0.33465906 -0.00023448
   0.66525501  0.33361064 -0.00011569
   0.00147088  0.00071494  0.00002142
   1.00148341  0.33503985  0.00000834
   0.66490649 -0.00022782  0.00019033
   0.11027740  0.22174300  0.95070654
   0.22360293  0.10797212  0.04800290
   0.10808877  0.55683348  0.95196107
   0.22105337  0.44383700  0.04923887
   0.11271888  0.88704587  0.95304609
   0.22000186  0.77990742  0.04691711
   0.44214057  0.21773228  0.95195090
   0.55128614  0.10819077  0.04814637
   0.44891861  0.55765341  0.95186194
   0.55771553  0.44879031  0.04810698
   0.44286226  0.89161197  0.95200331
   0.55839240  0.77632927  0.04796841
   0.77826923  0.22178892  0.95080946
   0.88865993  0.11108889  0.04930929
   0.77954555  0.55990534  0.95309698
   0.89141796  0.44829348  0.04806618
   0.77589130  0.88492223  0.95193753
   0.88728575  0.77422001  0.04683344
unknown system                          
           1
     8.486741    4.899731    0.000000
    -8.487283    4.900660    0.000000
     0.000000    0.000000   30.000000
   V    Mo   W    S 
   3   3   3  18
Direct configuration=     3
   0.33451412  0.00107214  0.00021545
   0.00009330  0.66568215  0.00009809
   0.66407839  0.66352837 -0.00021318
   0.33313397  0.66483733  0.00015490
   0.33493726  0.33512834 -0.00025937
   0.66480194  0.33339599 -0.00016359
   0.00181931  0.00136082  0.00002711
   1.00203172  0.33533255  0.00001465
   0.66460296 -0.00007679  0.00016268
   0.11006376  0.22166871  0.95067985
   0.22343661  0.10782541  0.04800411
   0.10795018  0.55667441  0.95192055
   0.22084167  0.44368762  0.04931810
   0.11263378  0.88714071  0.95313508
   0.21996286  0.77992582  0.04684673
   0.44203775  0.21757404  0.95190294
   0.55123822  0.10798166  0.04820526
   0.44909534  0.55775463  0.95174748
   0.55781764  0.44894965  0.04817198
   0.44302384  0.89174447  0.95203274
   0.55858344  0.77652137  0.04796127
   0.77838173  0.22165533  0.95086646
   0.88866111  0.11110228  0.04925203
   0.77959861  0.55999260  0.95311358
   0.89158795  0.44829279  0.04803586
   0.77593557  0.88506188  0.95206191
   0.88735142  0.77440018  0.04670723
unknown system                          
           1
     8.268022    4.773487    0.000000
    -8.268978    4.775133    0.000000
     0.000000    0.000000   30.000000
   V    Mo   W    S 
   3   3   3  18
Direct configuration=     4
   0.33639586  0.00253219  0.00021585
   0.00017752  0.66431458  0.00027023
   0.66133512  0.66081533 -0.00021605
   0.33259416  0.66195718  0.00024322
   0.33485023  0.33669724 -0.00024489
   0.66313235  0.33200046 -0.00026335
   0.00287497  0.00444981  0.00004331
   1.00400478  0.33565955  0.00002865
   0.66415262  0.00107200 -0.00001443
   0.11011528  0.22185883  0.94892178
   0.22415149  0.10752947  0.04945760
   0.10753838  0.55737875  0.95029822
   0.22092577  0.44343967  0.05125152
   0.11312693  0.88669546  0.95215733
   0.21945587  0.78038774  0.04786594
   0.44114617  0.21615952  0.95030128
   0.54991425  0.10738987  0.04993582
   0.45048875  0.55851427  0.94982751
   0.55852775  0.45023897  0.04981535
   0.44227080  0.89203299  0.95072598
   0.55933302  0.77604916  0.04937708
   0.77852399  0.22161355  0.94950862
   0.88864110  0.11123413  0.05067953
   0.78026927  0.56111589  0.95186857
   0.89203921  0.44934897  0.04933264
   0.77542566  0.88414368  0.95109449
   0.88680315  0.77358520  0.04751810
unknown system                          
           1
     8.265076    4.768899    0.000000
    -8.268809    4.775355    0.000000
     0.000000    0.000000   30.000000
   V    Mo   W    S 
   3   3   3  18
Direct configuration=     5
   0.34060888  0.00575010  0.00003341
   0.00036767  0.66154027  0.00048135
   0.65594158  0.65553822 -0.00002654
   0.33116349  0.65551539  0.00023575
   0.33346404  0.33962935 -0.00012244
   0.65954056  0.32853623 -0.00030913
   0.00511535  0.01095767  0.00008636
   1.00855682  0.33569242  0.00004121
   0.66370736  0.00416333 -0.00028065
   0.11123129  0.22295634  0.94619750
   0.22544383  0.10807072  0.05143434
   0.10760649  0.55825025  0.94807939
   0.22155885  0.44338462  0.05417521
   0.11378825  0.88652157  0.95098613
   0.21939918  0.78058950  0.04935306
   0.44001865  0.21503291  0.94802995
   0.54839827  0.10710460  0.05254796
   0.45165156  0.55894865  0.94687880
   0.55900601  0.45118689  0.05206314
   0.44078361  0.89137596  0.94916076
   0.55975998  0.77533069  0.05112759
   0.77892401  0.22236194  0.94769867
   0.88844255  0.11191420  0.05274593
   0.78066566  0.56175391  0.95001429
   0.89202533  0.45004762  0.05100860
   0.77489157  0.88299000  0.94996421
   0.88615363  0.77307112  0.04839506
unknown system                          
           1
     8.265627    4.768776    0.000000
    -8.269862    4.776100    0.000000
     0.000000    0.000000   30.000000
   V    Mo   W    S 
   3   3   3  18
Direct configuration=     6
   0.34213042  0.00693589 -0.00000633
   0.00032506  0.66060180  0.00052808
   0.65444135  0.65359392 -0.00003937
   0.33041293  0.65365376  0.00018450
   0.33231069  0.33986990 -0.00013363
   0.65844982  0.32731601 -0.00033191
   0.00609723  0.01316252  0.00010774
   1.01010831  0.33533991  0.00008349
   0.66408724  0.00599128 -0.00025036
   0.11193602  0.22367586  0.94575253
   0.22563809  0.10872406  0.05149246
   0.10788478  0.55789949  0.94794090
   0.22172653  0.44342745  0.05460339
   0.11386404  0.88703108  0.95115030
   0.22008257  0.78031262  0.04926803
   0.43984150  0.21561158  0.94790132
   0.54849342  0.10724398  0.05284128
   0.45121933  0.55850985  0.94659641
   0.55848461  0.45050555  0.05223693
   0.44046770  0.89052252  0.94927026
   0.55937015  0.77538264  0.05096971
   0.77943771  0.22324538  0.94764198
   0.88833909  0.11245977  0.05296356
   0.78018246  0.56112632  0.94997469
   0.89173625  0.44916975  0.05093648
   0.77497226  0.88323460  0.95021543
   0.88617489  0.77366697  0.04810204
unknown system                          
           1
     8.262242    4.767656    0.000000
    -8.264786    4.772051    0.000000
     0.000000    0.000000   30.000000
   V    Mo   W    S 
   3   3   3  18
Direct configuration=     7
   0.34308150  0.00765150 -0.00004233
   0.00026728  0.65997276  0.00058508
   0.65354035  0.65216568 -0.00002881
   0.32977045  0.65235380  0.00018089
   0.33163387  0.34000947 -0.00010915
   0.65768578  0.32658371 -0.00033265
   0.00679183  0.01467199  0.00010030
   1.01110456  0.33512066  0.00010599
   0.66441014  0.00736765 -0.00027706
   0.11221591  0.22398646  0.94551024
   0.22572975  0.10900366  0.05152739
   0.10795390  0.55768213  0.94787260
   0.22179354  0.44341924  0.05481440
   0.11390599  0.88730781  0.95129442
   0.22041296  0.78023283  0.04915946
   0.43970304  0.21583085  0.94784386
   0.54851013  0.10732483  0.05301443
   0.45102668  0.55828288  0.94645364
   0.55819870  0.45016382  0.05229257
   0.44040013  0.89020199  0.94938694
   0.55927429  0.77548126  0.05080610
   0.77974789  0.22371788  0.94763596
   0.88832853  0.11272661  0.05307852
   0.77993595  0.56084115  0.94997225
   0.89161054  0.44871894  0.05085596
   0.77499909  0.88340120  0.95042910
   0.88618169  0.77399371  0.04786981
unknown system                          
           1
     8.259962    4.765223    0.000000
    -8.261887    4.768544    0.000000
     0.000000    0.000000   30.000000
   V    Mo   W    S 
   3   3   3  18
Direct configuration=     8
   0.34205885  0.00686971 -0.00001287
   0.00037991  0.66082427  0.00051327
   0.65442841  0.65396440 -0.00001013
   0.33069088  0.65380764  0.00020444
   0.33219583  0.33996045 -0.00010511
   0.65861265  0.32731564 -0.00031056
   0.00596385  0.01301699  0.00009110
   1.01015332  0.33528240  0.00008280
   0.66389731  0.00550020 -0.00027553
   0.11198646  0.22371449  0.94574967
   0.22572048  0.10889884  0.05148784
   0.10795533  0.55788236  0.94791974
   0.22181221  0.44349229  0.05460491
   0.11387371  0.88708723  0.95110396
   0.22016862  0.78023980  0.04931688
   0.43986068  0.21572172  0.94788377
   0.54853169  0.10725594  0.05285242
   0.45119185  0.55846344  0.94653353
   0.55848464  0.45049284  0.05221556
   0.44037541  0.89041277  0.94921860
   0.55924346  0.77529145  0.05107790
   0.77937150  0.22312783  0.94764513
   0.88829108  0.11252573  0.05298650
   0.78010934  0.56102136  0.94996161
   0.89170478  0.44912845  0.05096028
   0.77498775  0.88324148  0.95014155
   0.88616444  0.77367473  0.04816263
unknown system                          
           1
     8.254552    4.761522    0.000000
    -8.257204    4.766102    0.000000
     0.000000    0.000000   30.000000
   V    Mo   W    S 
   3   3   3  18
Direct configuration=     9
   0.34061489  0.00568086  0.00002740
   0.00072939  0.66243877  0.00037338
   0.65566076  0.65759689 -0.00000051
   0.33259804  0.65614536  0.00013125
   0.33246529  0.34002385 -0.00018377
   0.66025663  0.32814111 -0.00031240
   0.00459137  0.01051969  0.00015627
   1.00909543  0.33569626  0.00003531
   0.66240926  0.00154789 -0.00024868
   0.11184056  0.22351264  0.94599502
   0.22584112  0.10899160  0.05142218
   0.10810013  0.55811893  0.94802692
   0.22183219  0.44372268  0.05445102
   0.11389700  0.88689949  0.95073161
   0.21999710  0.78017021  0.04960878
   0.44012207  0.21577103  0.94798484
   0.54848837  0.10693098  0.05263090
   0.45139004  0.55867665  0.94658081
   0.55884022  0.45088173  0.05210586
   0.44003614  0.89042546  0.94885282
   0.55892926  0.77483594  0.05177977
   0.77894289  0.22212247  0.94768657
   0.88807720  0.11229639  0.05286144
   0.78030546  0.56115093  0.94999921
   0.89199239  0.44969952  0.05110830
   0.77501415  0.88295112  0.94951396
   0.88614711  0.77326600  0.04868166
unknown system                          
           1
     8.259335    4.763912    0.000000
    -8.262345    4.769113    0.000000
     0.000000    0.000000   30.000000
   V    Mo   W    S 
   3   3   3  18
Direct configuration=    10
   0.34187650  0.00656384 -0.00001533
   0.00062772  0.66167054  0.00047575
   0.65439193  0.65618669  0.00003410
   0.33226789  0.65469524  0.00017964
   0.33146086  0.34027549 -0.00010639
   0.65934422  0.32712019 -0.00030919
   0.00545568  0.01248127  0.00016585
   1.01062611  0.33562010  0.00008181
   0.66236145  0.00262542 -0.00026789
   0.11204601  0.22375950  0.94567845
   0.22588535  0.10931861  0.05141468
   0.10819035  0.55784637  0.94795774
   0.22189810  0.44376700  0.05469759
   0.11389439  0.88732613  0.95095666
   0.22043892  0.78011649  0.04939871
   0.43993724  0.21603116  0.94796518
   0.54849148  0.10686390  0.05280701
   0.45125440  0.55844166  0.94639588
   0.55849151  0.45049679  0.05205492
   0.43996576  0.89005177  0.94898944
   0.55883073  0.77492632  0.05158810
   0.77936587  0.22247755  0.94776625
   0.88794375  0.11252969  0.05292400
   0.77998297  0.56089168  0.95008525
   0.89194080  0.44919210  0.05095763
   0.77507161  0.88316261  0.94980679
   0.88617287  0.77377633  0.04831728
unknown system                          
           1
     8.263917    4.765366    0.000000
    -8.267629    4.771782    0.000000
     0.000000    0.000000   30.000000
   V    Mo   W    S 
   3   3   3  18
Direct configuration=    11
   0.34245923  0.00699560 -0.00003623
   0.00055183  0.66122879  0.00050729
   0.65386737  0.65527300  0.00002492
   0.33187401  0.65396456  0.00016048
   0.33109159  0.34030981 -0.00011507
   0.65885960  0.32669575 -0.00032088
   0.00592824  0.01341831  0.00015828
   1.01122404  0.33555102  0.00008338
   0.66250303  0.00346871 -0.00028119
   0.11216373  0.22389725  0.94553558
   0.22591693  0.10940302  0.05145059
   0.10821154  0.55775580  0.94792264
   0.22191946  0.44375679  0.05484072
   0.11391364  0.88744841  0.95104944
   0.22058925  0.78012604  0.04932663
   0.43984430  0.21609522  0.94793406
   0.54847011  0.10689080  0.05291399
   0.45117821  0.55833656  0.94633107
   0.55834396  0.45033175  0.05209840
   0.43994176  0.88991888  0.94905334
   0.55884795  0.77500119  0.05148641
   0.77956629  0.22274390  0.94776727
   0.88794585  0.11265249  0.05298482
   0.77988134  0.56079786  0.95008876
   0.89188066  0.44896719  0.05091926
   0.77507961  0.88323946  0.94994446
   0.88616092  0.77394628  0.04817150
unknown system                          
           1
     8.259116    4.763094    0.000000
    -8.261590    4.767365    0.000000
     0.000000    0.000000   30.000000
   V    Mo   W    S 
   3   3   3  18
Direct configuration=    12
   0.34400527  0.00810489 -0.00008477
   0.00030885  0.66009843  0.00060566
   0.65237182  0.65288623  0.00002278
   0.33103373  0.65208312  0.00014128
   0.33007674  0.34049438 -0.00010839
   0.65761041  0.32558159 -0.00034135
   0.00715771  0.01592685  0.00015472
   1.01289910  0.33536043  0.00011286
   0.66272732  0.00547003 -0.00031447
   0.11246434  0.22426338  0.94516065
   0.22597106  0.10966720  0.05151548
   0.10828895  0.55748811  0.94784916
   0.22198762  0.44376140  0.05517815
   0.11394736  0.88781304  0.95130815
   0.22101271  0.78011523  0.04910694
   0.43962388  0.21631396  0.94786246
   0.54844913  0.10695039  0.05317415
   0.45098003  0.55804945  0.94616325
   0.55794428  0.44990439  0.05216124
   0.43986512  0.88953953  0.94922176
   0.55886454  0.77516822  0.05121066
   0.78011233  0.22341022  0.94781260
   0.88795540  0.11300883  0.05310163
   0.77957142  0.56051541  0.95012571
   0.89173438  0.44832848  0.05078225
   0.77512706  0.88347255  0.95032659
   0.88612390  0.77443872  0.04775074
unknown system                          
           1
     8.258273    4.762551    0.000000
    -8.260204    4.765881    0.000000
     0.000000    0.000000   30.000000
   V    Mo   W    S 
   3   3   3  18
Direct configuration=    13
   0.34229822  0.00685149 -0.00003681
   0.00056555  0.66149278  0.00048342
   0.65386168  0.65569000  0.00003024
   0.33224203  0.65412613  0.00014148
   0.33108287  0.34045835 -0.00013554
   0.65908335  0.32678805 -0.00031646
   0.00568714  0.01324054  0.00015169
   1.01112911  0.33540755  0.00006331
   0.66248811  0.00303147 -0.00028556
   0.11212084  0.22384257  0.94555798
   0.22591077  0.10944701  0.05145145
   0.10823695  0.55774734  0.94793130
   0.22191311  0.44378368  0.05485701
   0.11390748  0.88747164  0.95100596
   0.22062014  0.78009784  0.04936009
   0.43987672  0.21615514  0.94794105
   0.54849390  0.10684882  0.05290366
   0.45122281  0.55834903  0.94634040
   0.55840791  0.45042416  0.05205608
   0.43991732  0.88987895  0.94902103
   0.55879967  0.77493972  0.05156372
   0.77951392  0.22258644  0.94777570
   0.88789459  0.11264270  0.05298934
   0.77984235  0.56079151  0.95011681
   0.89189847  0.44899677  0.05093348
   0.77507457  0.88320467  0.94987839
   0.88612486  0.77392009  0.04822068
unknown system                          
           1
     8.256159    4.760527    0.000000
    -8.258767    4.765029    0.000000
     0.000000    0.000000   30.000000
   V    Mo   W    S 
   3   3   3  18
Direct configuration=    14
   0.34051458  0.00543224  0.00002891
   0.00096034  0.66337586  0.00034882
   0.65545443  0.65947844  0.00007008
   0.33389179  0.65638470  0.00014490
   0.33167064  0.34044294 -0.00012264
   0.66085802  0.32781828 -0.00027518
   0.00397451  0.01039684  0.00020065
   1.00942794  0.33539875  0.00002537
   0.66196563 -0.00024270 -0.00023509
   0.11178078  0.22340065  0.94587734
   0.22586778  0.10935355  0.05133211
   0.10824652  0.55797665  0.94805625
   0.22180600  0.44387328  0.05456560
   0.11387374  0.88722837  0.95065988
   0.22033394  0.78004192  0.04960632
   0.44013345  0.21607811  0.94806486
   0.54849758  0.10655572  0.05259426
   0.45153852  0.55865270  0.94641110
   0.55886215  0.45096267  0.05187727
   0.43985314  0.89009378  0.94876366
   0.55859324  0.77457584  0.05211630
   0.77894382  0.22153432  0.94774879
   0.88771254  0.11226604  0.05290743
   0.78009689  0.56108525  0.95016635
   0.89221923  0.44974416  0.05105425
   0.77504068  0.88287300  0.94926764
   0.88609658  0.77343307  0.04874464
unknown system                          
           1
     8.259814    4.762368    0.000000
    -8.262524    4.767049    0.000000
     0.000000    0.000000   30.000000
   V    Mo   W    S 
   3   3   3  18
Direct configuration=    15
   0.34185993  0.00635555 -0.00003331
   0.00080438  0.66243475  0.00043121
   0.65418820  0.65792070  0.00004495
   0.33336803  0.65487343  0.00011639
   0.33067216  0.34064824 -0.00013974
   0.65990015  0.32672516 -0.00032138
   0.00490196  0.01244088  0.00019652
   1.01097629  0.33545563  0.00004060
   0.66190923  0.00103981 -0.00026933
   0.11198847  0.22363835  0.94558527
   0.22588081  0.10957546  0.05134011
   0.10835454  0.55775476  0.94804092
   0.22184143  0.44390879  0.05483677
   0.11385967  0.88759725  0.95091005
   0.22072026  0.78006705  0.04939163
   0.43994607  0.21624590  0.94808667
   0.54847135  0.10648589  0.05277966
   0.45138071  0.55840363  0.94629174
   0.55851346  0.45055761  0.05187378
   0.43981767  0.88976963  0.94892316
   0.55859258  0.77470325  0.05193331
   0.77938682  0.22191184  0.94784192
   0.88764558  0.11249132  0.05297570
   0.77984152  0.56090545  0.95025883
   0.89217849  0.44927373  0.05091384
   0.77510737  0.88308400  0.94957577
   0.88610735  0.77394639  0.04837487
unknown system                          
           1
     8.268204    4.766432    0.000000
    -8.271181    4.771574    0.000000
     0.000000    0.000000   30.000000
   V    Mo   W    S 
   3   3   3  18
Direct configuration=    16
   0.34234917  0.00669482 -0.00004466
   0.00073198  0.66207418  0.00046460
   0.65375699  0.65723678  0.00005036
   0.33309402  0.65433214  0.00012157
   0.33033486  0.34066955 -0.00012940
   0.65952831  0.32635902 -0.00032169
   0.00529476  0.01319578  0.00019810
   1.01151536  0.33546177  0.00005778
   0.66190401  0.00159386 -0.00027137
   0.11207431  0.22374605  0.94546170
   0.22591228  0.10965329  0.05135793
   0.10838161  0.55769371  0.94800943
   0.22187383  0.44392131  0.05493960
   0.11387260  0.88769698  0.95098746
   0.22084239  0.78008224  0.04932623
   0.43986989  0.21629255  0.94806225
   0.54845350  0.10649797  0.05286136
   0.45132012  0.55831457  0.94622814
   0.55838558  0.45041531  0.05188904
   0.43978092  0.88965607  0.94896036
   0.55859847  0.77474685  0.05185900
   0.77956505  0.22210363  0.94784961
   0.88765130  0.11260385  0.05300847
   0.77976691  0.56083210  0.95026482
   0.89213635  0.44909367  0.05087847
   0.77512490  0.88315567  0.94968004
   0.88609498  0.77409074  0.04825071
unknown system                          
           1
     8.268471    4.766506    0.000000
    -8.271720    4.772119    0.000000
     0.000000    0.000000   30.000000
   V    Mo   W    S 
   3   3   3  18
Direct configuration=    17
   0.34418224  0.00792592 -0.00009789
   0.00048256  0.66073690  0.00058342
   0.65222845  0.65469673  0.00005528
   0.33203408  0.65241661  0.00012056
   0.32909361  0.34069677 -0.00011618
   0.65815193  0.32497820 -0.00034541
   0.00677273  0.01593235  0.00019322
   1.01349375  0.33554402  0.00010753
   0.66178916  0.00362807 -0.00030083
   0.11238103  0.22416363  0.94505704
   0.22600825  0.10992504  0.05140861
   0.10847556  0.55744022  0.94793563
   0.22198098  0.44397252  0.05528596
   0.11392376  0.88806677  0.95130293
   0.22127046  0.78011882  0.04906510
   0.43962028  0.21645996  0.94800272
   0.54839174  0.10655833  0.05314110
   0.45104011  0.55797163  0.94604586
   0.55789983  0.44986463  0.05193780
   0.43965953  0.88926196  0.94913128
   0.55860592  0.77492629  0.05156483
   0.78022240  0.22283065  0.94791853
   0.88771381  0.11304532  0.05309529
   0.77950237  0.56052077  0.95031050
   0.89199221  0.44841910  0.05072286
   0.77521581  0.88347381  0.95009980
   0.88608188  0.77463943  0.04777437
unknown system                          
           1
     8.263561    4.763429    0.000000
    -8.266861    4.769129    0.000000
     0.000000    0.000000   30.000000
   V    Mo   W    S 
   3   3   3  18
Direct configuration=    18
   0.34467218  0.00827818 -0.00011089
   0.00037378  0.66030978  0.00061858
   0.65178138  0.65387587  0.00005378
   0.33173741  0.65187722  0.00012439
   0.32883269  0.34071827 -0.00010930
   0.65774315  0.32465029 -0.00035462
   0.00720124  0.01668657  0.00019455
   1.01401787  0.33557718  0.00012482
   0.66177523  0.00424995 -0.00030778
   0.11246748  0.22428015  0.94494978
   0.22602856  0.10997875  0.05142542
   0.10849079  0.55738769  0.94790391
   0.22202065  0.44397598  0.05537394
   0.11393503  0.88815296  0.95138696
   0.22136731  0.78014002  0.04900112
   0.43955341  0.21650158  0.94797884
   0.54838330  0.10658744  0.05322420
   0.45097751  0.55789376  0.94600929
   0.55777495  0.44972557  0.05195626
   0.43964090  0.88917312  0.94917330
   0.55863374  0.77498839  0.05146254
   0.78039600  0.22304485  0.94793744
   0.88773555  0.11314839  0.05310910
   0.77943124  0.56044774  0.95031402
   0.89193412  0.44823014  0.05068818
   0.77523140  0.88355352  0.95023224
   0.88607761  0.77478111  0.04763982
unknown system                          
           1
     8.273106    4.768866    0.000000
    -8.276775    4.775207    0.000000
     0.000000    0.000000   30.000000
   V    Mo   W    S 
   3   3   3  18
Direct configuration=    19
   0.34469001  0.00826968 -0.00011258
   0.00037570  0.66042409  0.00061506
   0.65169916  0.65395578  0.00006287
   0.33181291  0.65177422  0.00012343
   0.32872451  0.34080054 -0.00011173
   0.65777269  0.32462097 -0.00035133
   0.00717416  0.01675801  0.00019947
   1.01412761  0.33551682  0.00013017
   0.66179007  0.00416602 -0.00030438
   0.11243607  0.22423983  0.94495151
   0.22600548  0.10999456  0.05140310
   0.10850003  0.55738584  0.94791528
   0.22200979  0.44398789  0.05537330
   0.11392276  0.88817919  0.95138610
   0.22139376  0.78013655  0.04899927
   0.43957412  0.21653369  0.94800166
   0.54840771  0.10656006  0.05321139
   0.45100392  0.55790280  0.94602020
   0.55778450  0.44974456  0.05191403
   0.43965784  0.88915031  0.94917626
   0.55860683  0.77497061  0.05147036
   0.78038438  0.22297095  0.94795466
   0.88770805  0.11313273  0.05309391
   0.77942373  0.56044986  0.95034347
   0.89193392  0.44823319  0.05067193
   0.77524039  0.88356770  0.95022111
   0.88605437  0.77478802  0.04764136
unknown system                          
           1
     8.273695    4.769146    0.000000
    -8.277467    4.775665    0.000000
     0.000000    0.000000   30.000000
   V    Mo   W    S 
   3   3   3  18
Direct configuration=    20
   0.34603203  0.00921064 -0.00015224
   0.00011748  0.65915504  0.00071506
   0.65061711  0.65167958  0.00004559
   0.33085789  0.65045782  0.00012054
   0.32806547  0.34071525 -0.00010368
   0.65664655  0.32370877 -0.00038568
   0.00838404  0.01873055  0.00018765
   1.01543236  0.33569352  0.00015783
   0.66171444  0.00596225 -0.00034008
   0.11272616  0.22462794  0.94464366
   0.22610657  0.11014291  0.05148393
   0.10853264  0.55722069  0.94783429
   0.22212405  0.44399676  0.05563902
   0.11397627  0.88838565  0.95162755
   0.22163782  0.78017737  0.04881138
   0.43935480  0.21660872  0.94791022
   0.54833636  0.10666996  0.05345979
   0.45077005  0.55765412  0.94589038
   0.55740383  0.44931126  0.05202942
   0.43955746  0.88890031  0.94930031
   0.55868674  0.77515116  0.05120042
   0.78090737  0.22367936  0.94798514
   0.88780836  0.11347108  0.05317405
   0.77925167  0.56023171  0.95032352
   0.89180425  0.44771475  0.05058497
   0.77528594  0.88377946  0.95058950
   0.88607674  0.77517783  0.04726736
unknown system                          
           1
     8.267309    4.763764    0.000000
    -8.270666    4.769560    0.000000
     0.000000    0.000000   30.000000
   V    Mo   W    S 
   3   3   3  18
Direct configuration=    21
   0.34625109  0.00936361 -0.00015893
   0.00005808  0.65894479  0.00073282
   0.65039010  0.65127928  0.00004458
   0.33071341  0.65019632  0.00012025
   0.32795209  0.34073612 -0.00010207
   0.65646878  0.32357258 -0.00039100
   0.00858254  0.01908660  0.00018742
   1.01567263  0.33571664  0.00016327
   0.66173078  0.00627114 -0.00034492
   0.11277250  0.22468330  0.94457982
   0.22612189  0.11016921  0.05149766
   0.10853671  0.55720476  0.94781831
   0.22214619  0.44400236  0.05569621
   0.11397663  0.88841554  0.95166565
   0.22168053  0.78018251  0.04878073
   0.43931427  0.21663100  0.94789236
   0.54833156  0.10667943  0.05350708
   0.45075169  0.55762425  0.94586325
   0.55734160  0.44924530  0.05204573
   0.43954234  0.88883782  0.94931684
   0.55869992  0.77517344  0.05115704
   0.78100137  0.22378943  0.94798829
   0.88780934  0.11351709  0.05319271
   0.77922826  0.56021203  0.95032390
   0.89178355  0.44763371  0.05057088
   0.77528743  0.88380291  0.95064837
   0.88606917  0.77524329  0.04720364
unknown system                          
           1
     8.268861    4.764741    0.000000
    -8.271739    4.769706    0.000000
     0.000000    0.000000   30.000000
   V    Mo   W    S 
   3   3   3  18
Direct configuration=    22
   0.34466403  0.00802417 -0.00010046
   0.00063491  0.66127737  0.00058194
   0.65171149  0.65444620  0.00007514
   0.33250761  0.65237509  0.00010271
   0.32882306  0.34092554 -0.00012073
   0.65757982  0.32452889 -0.00034278
   0.00710072  0.01627386  0.00020508
   1.01409159  0.33539853  0.00012483
   0.66113022  0.00332193 -0.00031433
   0.11234806  0.22410883  0.94497549
   0.22604991  0.10988381  0.05136809
   0.10848453  0.55733111  0.94790921
   0.22201240  0.44400825  0.05536166
   0.11413985  0.88830516  0.95131607
   0.22147995  0.78035414  0.04903520
   0.43953938  0.21634948  0.94804403
   0.54827337  0.10647737  0.05318440
   0.45113987  0.55793693  0.94606903
   0.55792672  0.44997847  0.05185851
   0.43955685  0.88935937  0.94916243
   0.55858384  0.77486876  0.05154526
   0.78029579  0.22274304  0.94797810
   0.88770475  0.11312207  0.05306368
   0.77936160  0.56045907  0.95036298
   0.89193199  0.44828642  0.05066923
   0.77526503  0.88352089  0.95014188
   0.88587712  0.77454970  0.04774326
unknown system                          
           1
     8.270276    4.765791    0.000000
    -8.272094    4.768916    0.000000
     0.000000    0.000000   30.000000
   V    Mo   W    S 
   3   3   3  18
Direct configuration=    23
   0.34438525  0.00766852 -0.00006916
   0.00083279  0.66208338  0.00055165
   0.65199931  0.65524073  0.00007039
   0.33304731  0.65297090  0.00010045
   0.32891640  0.34097776 -0.00011882
   0.65771166  0.32460724 -0.00033699
   0.00683725  0.01562205  0.00022012
   1.01392418  0.33534728  0.00011311
   0.66072261  0.00246268 -0.00030593
   0.11225562  0.22396675  0.94505003
   0.22606015  0.10984039  0.05133006
   0.10849261  0.55732389  0.94795629
   0.22201197  0.44405976  0.05529412
   0.11423820  0.88834108  0.95121650
   0.22148844  0.78041686  0.04908720
   0.43953996  0.21626839  0.94807282
   0.54823575  0.10639375  0.05313403
   0.45123808  0.55799338  0.94609011
   0.55804014  0.45013840  0.05181605
   0.43947959  0.88944200  0.94908858
   0.55856065  0.77478893  0.05167316
   0.78015047  0.22247721  0.94801667
   0.88766138  0.11301815  0.05300659
   0.77934527  0.56048701  0.95039497
   0.89198582  0.44841769  0.05064166
   0.77526720  0.88346882  0.95003447
   0.88578637  0.77439145  0.04787178
unknown system                          
           1
     8.274537    4.769192    0.000000
    -8.276990    4.773421    0.000000
     0.000000    0.000000   30.000000
   V    Mo   W    S 
   3   3   3  18
Direct configuration=    24
   0.34521898  0.00786891 -0.00005079
   0.00085229  0.66256868  0.00060539
   0.65138528  0.65459557  0.00001724
   0.33318866  0.65263574  0.00009192
   0.32817651  0.34107953 -0.00011900
   0.65682163  0.32366273 -0.00036804
   0.00755097  0.01652613  0.00024070
   1.01533599  0.33548616  0.00011602
   0.65979852  0.00255646 -0.00031615
   0.11240831  0.22403534  0.94488162
   0.22614806  0.11005964  0.05132864
   0.10865827  0.55718983  0.94803948
   0.22217516  0.44427526  0.05544566
   0.11435583  0.88862490  0.95123974
   0.22178862  0.78041948  0.04901163
   0.43930910  0.21634459  0.94803789
   0.54825061  0.10630018  0.05331070
   0.45113566  0.55785252  0.94595374
   0.55777542  0.44984998  0.05184151
   0.43927816  0.88909809  0.94900159