   27   27  100    1
  0.9710400E+02  0.1002848E-08  0.1002848E-08  0.3000000E-08  0.5000000E-15
  1.000000000000000E-004
  CAR 
 unknown system                          
    159     34    120
 
  0.0000000E+00  0.0000000E+00  0.0000000E+00  0.1562500E-01
    1      -17.786415   1.000000
    2      -16.605026   1.000000
    3      -16.581443   1.000000
    4      -16.581006   1.000000
    5      -16.503745   1.000000
    6      -16.398119   1.000000
    7      -16.335388   1.000000
    8      -16.334688   1.000000
    9      -16.114021   1.000000
   10      -16.012677   1.000000
   11      -16.010695   1.000000
   12      -15.932905   1.000000
   13      -15.931413   1.000000
   14      -15.877793   1.000000
   15      -15.492600   1.000000
   16      -15.491307   1.000000
   17      -15.489071   1.000000
   18      -15.467116   1.000000
   19       -9.297726   1.000000
   20       -8.991166   1.000000
   21       -8.862564   1.000000
   22       -8.860706   1.000000
   23       -8.736165   1.000000
   24       -8.517963   1.000000
   25       -8.495436   1.000000
   26       -8.493906   1.000000
   27       -8.428550   1.000000
   28       -8.427594   1.000000
   29       -8.396389   1.000000
   30       -8.325762   1.000000
   31       -8.314031   1.000000
   32       -8.312762   1.000000
   33       -8.136266   1.000000
   34       -8.135511   1.000000
   35       -7.833537   1.000000
   36       -7.736644   1.000000
   37       -7.735928   1.000000
   38       -7.553205   1.000000
   39       -7.552794   1.000000
   40       -7.373553   1.000000
   41       -7.232847   1.000000
   42       -7.223380   1.000000
   43       -7.222588   1.000000
   44       -6.772332   1.000000
   45       -6.734132   1.000000
   46       -6.732205   1.000000
   47       -6.647885   1.000000
   48       -6.605113   1.000000
   49       -6.603767   1.000000
   50       -6.423923   1.000000
   51       -6.423207   1.000000
   52       -6.399858   1.000000
   53       -6.357278   1.000000
   54       -6.356659   1.000000
   55       -6.241963   1.000000
   56       -6.241630   1.000000
   57       -6.191239   1.000000
   58       -5.892041   1.000000
   59       -5.655234   1.000000
   60       -5.576960   1.000000
   61       -5.573281   1.000000
   62       -5.283097   1.000000
   63       -5.276880   1.000000
   64       -5.114563   1.000000
   65       -4.969352   1.000000
   66       -4.964701   1.000000
   67       -4.890650   1.000000
   68       -4.840529   1.000000
   69       -4.838126   1.000000
   70       -4.815778   1.000000
   71       -4.590389   1.000000
   72       -4.497684   1.000000
   73       -4.496362   1.000000
   74       -4.442838   1.000000
   75       -4.148185   1.000000
   76       -4.144990   1.000000
   77       -3.705949   0.999909
   78       -3.585389   0.998080
   79       -3.584903   0.998059
   80       -3.181472   0.513924
   81       -3.180132   0.510147
   82       -2.834119   0.007734
   83       -2.830638   0.007225
   84       -2.769383   0.001995
   85       -2.592569   0.000018
   86       -2.588123   0.000016
   87       -2.559451   0.000006
   88       -2.474124   0.000000
   89       -2.147520   0.000000
   90       -2.145617   0.000000
   91       -1.885819   0.000000
   92       -1.883649   0.000000
   93       -1.866423   0.000000
   94       -1.540477   0.000000
   95       -1.228313   0.000000
   96       -1.226644   0.000000
   97       -0.793927   0.000000
   98       -0.676005   0.000000
   99       -0.644826   0.000000
  100       -0.643131   0.000000
  101       -0.478791   0.000000
  102       -0.477275   0.000000
  103       -0.217158   0.000000
  104       -0.206525   0.000000
  105       -0.205463   0.000000
  106        0.018710   0.000000
  107        0.019619   0.000000
  108        0.072882   0.000000
  109        0.316574   0.000000
  110        0.316830   0.000000
  111        0.319368   0.000000
  112        0.631090   0.000000
  113        0.662663   0.000000
  114        0.663707   0.000000
  115        0.870855   0.000000
  116        0.906622   0.000000
  117        0.907995   0.000000
  118        1.654349   0.000000
  119        1.844572   0.000000
  120        2.157858   0.000000
 
  0.1250000E+00  0.2775558E-16  0.0000000E+00  0.3125000E-01
    1      -17.761629   1.000000
    2      -16.730569   1.000000
    3      -16.609157   1.000000
    4      -16.596762   1.000000
    5      -16.476757   1.000000
    6      -16.405880   1.000000
    7      -16.302258   1.000000
    8      -16.296811   1.000000
    9      -16.100716   1.000000
   10      -16.032540   1.000000
   11      -16.015105   1.000000
   12      -15.908125   1.000000
   13      -15.897532   1.000000
   14      -15.813496   1.000000
   15      -15.531984   1.000000
   16      -15.513890   1.000000
   17      -15.473282   1.000000
   18      -15.466656   1.000000
   19       -9.288055   1.000000
   20       -9.120399   1.000000
   21       -8.975488   1.000000
   22       -8.954964   1.000000
   23       -8.771661   1.000000
   24       -8.623036   1.000000
   25       -8.551501   1.000000
   26       -8.478985   1.000000
   27       -8.464936   1.000000
   28       -8.415425   1.000000
   29       -8.371509   1.000000
   30       -8.309328   1.000000
   31       -8.196285   1.000000
   32       -8.155769   1.000000
   33       -7.978484   1.000000
   34       -7.977588   1.000000
   35       -7.802435   1.000000
   36       -7.719482   1.000000
   37       -7.660975   1.000000
   38       -7.598721   1.000000
   39       -7.566326   1.000000
   40       -7.373364   1.000000
   41       -7.241885   1.000000
   42       -7.210249   1.000000
   43       -7.178788   1.000000
   44       -6.882634   1.000000
   45       -6.822564   1.000000
   46       -6.717708   1.000000
   47       -6.670232   1.000000
   48       -6.569053   1.000000
   49       -6.514737   1.000000
   50       -6.460057   1.000000
   51       -6.458435   1.000000
   52       -6.388248   1.000000
   53       -6.382280   1.000000
   54       -6.299807   1.000000
   55       -6.280783   1.000000
   56       -6.247507   1.000000
   57       -6.180138   1.000000
   58       -5.866328   1.000000
   59       -5.617306   1.000000
   60       -5.592601   1.000000
   61       -5.527335   1.000000
   62       -5.293769   1.000000
   63       -5.248790   1.000000
   64       -5.195412   1.000000
   65       -5.112084   1.000000
   66       -5.095487   1.000000
   67       -4.957166   1.000000
   68       -4.940945   1.000000
   69       -4.783468   1.000000
   70       -4.732572   1.000000
   71       -4.624636   1.000000
   72       -4.528537   1.000000
   73       -4.380908   1.000000
   74       -4.292109   1.000000
   75       -4.100433   1.000000
   76       -3.990268   1.000000
   77       -3.799067   0.999995
   78       -3.698918   0.999890
   79       -3.660706   0.999691
   80       -3.169650   0.480586
   81       -3.101828   0.298660
   82       -2.831709   0.007379
   83       -2.830097   0.007149
   84       -2.735127   0.000901
   85       -2.602604   0.000025
   86       -2.585739   0.000015
   87       -2.553125   0.000005
   88       -2.457862   0.000000
   89       -2.170194   0.000000
   90       -2.160280   0.000000
   91       -1.879801   0.000000
   92       -1.877129   0.000000
   93       -1.856886   0.000000
   94       -1.500556   0.000000
   95       -1.218321   0.000000
   96       -1.199341   0.000000
   97       -0.795768   0.000000
   98       -0.740943   0.000000
   99       -0.650385   0.000000
  100       -0.647453   0.000000
  101       -0.538996   0.000000
  102       -0.511955   0.000000
  103       -0.273588   0.000000
  104       -0.271106   0.000000
  105       -0.211126   0.000000
  106       -0.210336   0.000000
  107       -0.035195   0.000000
  108        0.222749   0.000000
  109        0.224836   0.000000
  110        0.359616   0.000000
  111        0.415965   0.000000
  112        0.459615   0.000000
  113        0.619580   0.000000
  114        0.755604   0.000000
  115        0.835467   0.000000
  116        0.979226   0.000000
  117        1.064204   0.000000
  118        1.696922   0.000000
  119        1.885108   0.000000
  120        2.192867   0.000000
 
  0.2500000E+00  0.5551115E-16  0.0000000E+00  0.3125000E-01
    1      -17.688999   1.000000
    2      -16.944242   1.000000
    3      -16.657851   1.000000
    4      -16.606217   1.000000
    5      -16.523548   1.000000
    6      -16.364635   1.000000
    7      -16.264278   1.000000
    8      -16.226102   1.000000
    9      -16.103888   1.000000
   10      -16.051387   1.000000
   11      -16.008255   1.000000
   12      -15.834661   1.000000
   13      -15.827621   1.000000
   14      -15.692816   1.000000
   15      -15.585162   1.000000
   16      -15.564884   1.000000
   17      -15.482357   1.000000
   18      -15.476265   1.000000
   19       -9.465034   1.000000
   20       -9.191797   1.000000
   21       -9.115316   1.000000
   22       -9.079210   1.000000
   23       -8.842637   1.000000
   24       -8.768389   1.000000
   25       -8.597552   1.000000
   26       -8.461640   1.000000
   27       -8.392040   1.000000
   28       -8.367609   1.000000
   29       -8.324260   1.000000
   30       -8.251257   1.000000
   31       -8.081383   1.000000
   32       -8.059532   1.000000
   33       -7.945410   1.000000
   34       -7.778408   1.000000
   35       -7.721073   1.000000
   36       -7.649928   1.000000
   37       -7.577109   1.000000
   38       -7.507528   1.000000
   39       -7.434374   1.000000
   40       -7.361029   1.000000
   41       -7.254602   1.000000
   42       -7.196759   1.000000
   43       -7.140916   1.000000
   44       -6.917677   1.000000
   45       -6.792436   1.000000
   46       -6.765271   1.000000
   47       -6.704415   1.000000
   48       -6.634860   1.000000
   49       -6.586054   1.000000
   50       -6.515162   1.000000
   51       -6.488046   1.000000
   52       -6.369565   1.000000
   53       -6.353187   1.000000
   54       -6.266073   1.000000
   55       -6.189360   1.000000
   56       -6.183440   1.000000
   57       -6.097586   1.000000
   58       -5.855401   1.000000
   59       -5.648241   1.000000
   60       -5.616440   1.000000
   61       -5.596081   1.000000
   62       -5.505037   1.000000
   63       -5.434032   1.000000
   64       -5.305888   1.000000
   65       -5.272834   1.000000
   66       -5.135198   1.000000
   67       -4.965718   1.000000
   68       -4.826148   1.000000
   69       -4.752221   1.000000
   70       -4.699595   1.000000
   71       -4.681476   1.000000
   72       -4.415951   1.000000
   73       -4.290908   1.000000
   74       -4.138204   1.000000
   75       -4.087674   1.000000
   76       -3.972944   1.000000
   77       -3.970079   1.000000
   78       -3.705090   0.999907
   79       -3.628192   0.999298
   80       -3.159790   0.452873
   81       -3.050441   0.186298
   82       -2.845998   0.009713
   83       -2.776772   0.002351
   84       -2.709208   0.000476
   85       -2.607517   0.000029
   86       -2.595543   0.000020
   87       -2.519408   0.000002
   88       -2.431566   0.000000
   89       -2.190820   0.000000
   90       -2.170262   0.000000
   91       -1.880007   0.000000
   92       -1.876807   0.000000
   93       -1.833341   0.000000
   94       -1.423186   0.000000
   95       -1.180116   0.000000
   96       -1.146053   0.000000
   97       -0.865787   0.000000
   98       -0.807862   0.000000
   99       -0.726395   0.000000
  100       -0.716709   0.000000
  101       -0.624709   0.000000
  102       -0.567130   0.000000
  103       -0.444828   0.000000
  104       -0.383822   0.000000
  105       -0.378626   0.000000
  106       -0.237107   0.000000
  107       -0.107561   0.000000
  108        0.050349   0.000000
  109        0.159972   0.000000
  110        0.346086   0.000000
  111        0.433606   0.000000
  112        0.482205   0.000000
  113        0.617482   0.000000
  114        0.766081   0.000000
  115        0.936105   0.000000
  116        1.170712   0.000000
  117        1.210252   0.000000
  118        1.816710   0.000000
  119        1.999416   0.000000
  120        2.296823   0.000000
 
  0.3750000E+00  0.0000000E+00  0.0000000E+00  0.3125000E-01
    1      -17.576874   1.000000
    2      -17.154536   1.000000
    3      -16.694269   1.000000
    4      -16.636376   1.000000
    5      -16.514447   1.000000
    6      -16.385896   1.000000
    7      -16.207788   1.000000
    8      -16.179475   1.000000
    9      -16.135423   1.000000
   10      -16.041108   1.000000
   11      -15.960814   1.000000
   12      -15.768830   1.000000
   13      -15.764815   1.000000
   14      -15.653404   1.000000
   15      -15.624421   1.000000
   16      -15.574197   1.000000
   17      -15.509776   1.000000
   18      -15.489951   1.000000
   19       -9.681665   1.000000
   20       -9.232358   1.000000
   21       -9.230355   1.000000
   22       -9.061837   1.000000
   23       -8.876207   1.000000
   24       -8.862884   1.000000
   25       -8.589820   1.000000
   26       -8.455121   1.000000
   27       -8.379052   1.000000
   28       -8.310844   1.000000
   29       -8.267244   1.000000
   30       -8.193104   1.000000
   31       -8.107840   1.000000
   32       -7.980355   1.000000
   33       -7.966479   1.000000
   34       -7.786103   1.000000
   35       -7.699620   1.000000
   36       -7.614079   1.000000
   37       -7.588776   1.000000
   38       -7.373753   1.000000
   39       -7.311721   1.000000
   40       -7.298663   1.000000
   41       -7.135999   1.000000
   42       -7.098771   1.000000
   43       -7.061788   1.000000
   44       -6.917563   1.000000
   45       -6.861424   1.000000
   46       -6.729266   1.000000
   47       -6.728371   1.000000
   48       -6.635240   1.000000
   49       -6.589176   1.000000
   50       -6.557323   1.000000
   51       -6.362118   1.000000
   52       -6.332629   1.000000
   53       -6.260443   1.000000
   54       -6.234624   1.000000
   55       -6.158619   1.000000
   56       -6.042808   1.000000
   57       -5.976842   1.000000
   58       -5.971615   1.000000
   59       -5.915950   1.000000
   60       -5.796670   1.000000
   61       -5.720462   1.000000
   62       -5.694524   1.000000
   63       -5.577195   1.000000
   64       -5.491328   1.000000
   65       -5.223911   1.000000
   66       -5.044741   1.000000
   67       -4.858409   1.000000
   68       -4.857770   1.000000
   69       -4.722840   1.000000
   70       -4.710912   1.000000
   71       -4.638482   1.000000
   72       -4.622358   1.000000
   73       -4.269277   1.000000
   74       -4.212681   1.000000
   75       -4.012473   1.000000
   76       -3.925871   1.000000
   77       -3.881485   1.000000
   78       -3.597389   0.998539
   79       -3.589265   0.998241
   80       -3.115812   0.333824
   81       -3.057107   0.199200
   82       -2.887761   0.020579
   83       -2.736485   0.000930
   84       -2.720725   0.000634
   85       -2.605303   0.000027
   86       -2.571347   0.000009
   87       -2.493029   0.000001
   88       -2.413473   0.000000
   89       -2.167424   0.000000
   90       -2.153508   0.000000
   91       -1.889926   0.000000
   92       -1.889521   0.000000
   93       -1.816389   0.000000
   94       -1.363106   0.000000
   95       -1.139884   0.000000
   96       -1.124401   0.000000
   97       -0.941216   0.000000
   98       -0.922265   0.000000
   99       -0.807783   0.000000
  100       -0.757604   0.000000
  101       -0.691084   0.000000
  102       -0.687982   0.000000
  103       -0.521235   0.000000
  104       -0.461612   0.000000
  105       -0.453226   0.000000
  106       -0.272306   0.000000
  107       -0.173140   0.000000
  108       -0.136731   0.000000
  109        0.064006   0.000000
  110        0.337976   0.000000
  111        0.390605   0.000000
  112        0.524897   0.000000
  113        0.611188   0.000000
  114        0.845362   0.000000
  115        1.050304   0.000000
  116        1.306091   0.000000
  117        1.307831   0.000000
  118        1.998611   0.000000
  119        2.171896   0.000000
  120        2.466826   0.000000
 
  0.5000000E+00  0.1110223E-15  0.0000000E+00  0.1562500E-01
    1      -17.485919   1.000000
    2      -17.280058   1.000000
    3      -16.707286   1.000000
    4      -16.649870   1.000000
    5      -16.500731   1.000000
    6      -16.403591   1.000000
    7      -16.169254   1.000000
    8      -16.168809   1.000000
    9      -16.165155   1.000000
   10      -16.025639   1.000000
   11      -15.933121   1.000000
   12      -15.740315   1.000000
   13      -15.727600   1.000000
   14      -15.677981   1.000000
   15      -15.663637   1.000000
   16      -15.544128   1.000000
   17      -15.525148   1.000000
   18      -15.491201   1.000000
   19       -9.760971   1.000000
   20       -9.273681   1.000000
   21       -9.262970   1.000000
   22       -9.035136   1.000000
   23       -8.895421   1.000000
   24       -8.859146   1.000000
   25       -8.581057   1.000000
   26       -8.506582   1.000000
   27       -8.385835   1.000000
   28       -8.283806   1.000000
   29       -8.238506   1.000000
   30       -8.146491   1.000000
   31       -8.083476   1.000000
   32       -7.961753   1.000000
   33       -7.961253   1.000000
   34       -7.804100   1.000000
   35       -7.737961   1.000000
   36       -7.670624   1.000000
   37       -7.600632   1.000000
   38       -7.330580   1.000000
   39       -7.322144   1.000000
   40       -7.270917   1.000000
   41       -7.038549   1.000000
   42       -7.015276   1.000000
   43       -6.914531   1.000000
   44       -6.900574   1.000000
   45       -6.876771   1.000000
   46       -6.747867   1.000000
   47       -6.682915   1.000000
   48       -6.634355   1.000000
   49       -6.615062   1.000000
   50       -6.573426   1.000000
   51       -6.348138   1.000000
   52       -6.322695   1.000000
   53       -6.228911   1.000000
   54       -6.166690   1.000000
   55       -6.136923   1.000000
   56       -6.093439   1.000000
   57       -6.065086   1.000000
   58       -5.944599   1.000000
   59       -5.930285   1.000000
   60       -5.824802   1.000000
   61       -5.798544   1.000000
   62       -5.650037   1.000000
   63       -5.560702   1.000000
   64       -5.507377   1.000000
   65       -5.492786   1.000000
   66       -5.030663   1.000000
   67       -4.964556   1.000000
   68       -4.811645   1.000000
   69       -4.745759   1.000000
   70       -4.711372   1.000000
   71       -4.614501   1.000000
   72       -4.558101   1.000000
   73       -4.325777   1.000000
   74       -4.236297   1.000000
   75       -3.959694   1.000000
   76       -3.890464   1.000000
   77       -3.818368   0.999997
   78       -3.598581   0.998579
   79       -3.554751   0.996257
   80       -3.068600   0.222668
   81       -3.059472   0.203904
   82       -2.926472   0.038513
   83       -2.742413   0.001071
   84       -2.728088   0.000760
   85       -2.585989   0.000015
   86       -2.561812   0.000007
   87       -2.484987   0.000001
   88       -2.406908   0.000000
   89       -2.145711   0.000000
   90       -2.138510   0.000000
   91       -1.898755   0.000000
   92       -1.896902   0.000000
   93       -1.811093   0.000000
   94       -1.338277   0.000000
   95       -1.158558   0.000000
   96       -1.099574   0.000000
   97       -0.988093   0.000000
   98       -0.958684   0.000000
   99       -0.834159   0.000000
  100       -0.769366   0.000000
  101       -0.767782   0.000000
  102       -0.707476   0.000000
  103       -0.535365   0.000000
  104       -0.484579   0.000000
  105       -0.468436   0.000000
  106       -0.284577   0.000000
  107       -0.263836   0.000000
  108       -0.144203   0.000000
  109        0.019392   0.000000
  110        0.320372   0.000000
  111        0.383506   0.000000
  112        0.544484   0.000000
  113        0.604149   0.000000
  114        0.879681   0.000000
  115        1.095188   0.000000
  116        1.339513   0.000000
  117        1.353753   0.000000
  118        2.224823   0.000000
  119        2.239089   0.000000
  120        2.366378   0.000000
 
  0.0000000E+00  0.1250000E+00  0.0000000E+00  0.3125000E-01
    1      -17.761625   1.000000
    2      -16.730716   1.000000
    3      -16.608985   1.000000
    4      -16.596829   1.000000
    5      -16.476327   1.000000
    6      -16.406300   1.000000
    7      -16.301906   1.000000
    8      -16.297142   1.000000
    9      -16.101016   1.000000
   10      -16.031949   1.000000
   11      -16.015480   1.000000
   12      -15.907686   1.000000
   13      -15.897934   1.000000
   14      -15.813435   1.000000
   15      -15.530960   1.000000
   16      -15.515018   1.000000
   17      -15.472455   1.000000
   18      -15.467388   1.000000
   19       -9.287993   1.000000
   20       -9.120674   1.000000
   21       -8.974896   1.000000
   22       -8.955849   1.000000
   23       -8.771097   1.000000
   24       -8.622277   1.000000
   25       -8.551467   1.000000
   26       -8.478554   1.000000
   27       -8.465880   1.000000
   28       -8.415347   1.000000
   29       -8.371599   1.000000
   30       -8.309220   1.000000
   31       -8.197051   1.000000
   32       -8.155685   1.000000
   33       -7.978154   1.000000
   34       -7.977397   1.000000
   35       -7.802893   1.000000
   36       -7.719369   1.000000
   37       -7.661702   1.000000
   38       -7.598397   1.000000
   39       -7.566100   1.000000
   40       -7.372453   1.000000
   41       -7.242360   1.000000
   42       -7.210984   1.000000
   43       -7.178296   1.000000
   44       -6.882524   1.000000
   45       -6.822693   1.000000
   46       -6.717808   1.000000
   47       -6.670985   1.000000
   48       -6.569042   1.000000
   49       -6.514803   1.000000
   50       -6.460105   1.000000
   51       -6.458892   1.000000
   52       -6.387744   1.000000
   53       -6.381300   1.000000
   54       -6.300268   1.000000
   55       -6.280465   1.000000
   56       -6.247450   1.000000
   57       -6.179695   1.000000
   58       -5.866897   1.000000
   59       -5.615411   1.000000
   60       -5.590555   1.000000
   61       -5.531201   1.000000
   62       -5.291695   1.000000
   63       -5.251535   1.000000
   64       -5.194694   1.000000
   65       -5.110927   1.000000
   66       -5.097108   1.000000
   67       -4.957777   1.000000
   68       -4.939831   1.000000
   69       -4.784078   1.000000
   70       -4.732309   1.000000
   71       -4.623239   1.000000
   72       -4.528991   1.000000
   73       -4.380705   1.000000
   74       -4.292708   1.000000
   75       -4.101835   1.000000
   76       -3.988934   1.000000
   77       -3.798363   0.999995
   78       -3.698922   0.999890
   79       -3.661635   0.999698
   80       -3.169872   0.481211
   81       -3.101794   0.298578
   82       -2.832215   0.007452
   83       -2.827648   0.006813
   84       -2.735773   0.000915
   85       -2.600983   0.000024
   86       -2.588385   0.000016
   87       -2.553743   0.000005
   88       -2.457518   0.000000
   89       -2.171829   0.000000
   90       -2.158416   0.000000
   91       -1.880916   0.000000
   92       -1.877939   0.000000
   93       -1.854987   0.000000
   94       -1.500370   0.000000
   95       -1.218088   0.000000
   96       -1.199683   0.000000
   97       -0.795704   0.000000
   98       -0.740744   0.000000
   99       -0.651529   0.000000
  100       -0.646494   0.000000
  101       -0.538254   0.000000
  102       -0.512984   0.000000
  103       -0.273334   0.000000
  104       -0.271630   0.000000
  105       -0.211438   0.000000
  106       -0.209677   0.000000
  107       -0.034752   0.000000
  108        0.223223   0.000000
  109        0.224191   0.000000
  110        0.360210   0.000000
  111        0.416208   0.000000
  112        0.459034   0.000000
  113        0.619625   0.000000
  114        0.755008   0.000000
  115        0.834213   0.000000
  116        0.980064   0.000000
  117        1.064944   0.000000
  118        1.696929   0.000000
  119        1.885095   0.000000
  120        2.192869   0.000000
 
  0.1250000E+00  0.1250000E+00  0.0000000E+00  0.3125000E-01
    1      -17.712864   1.000000
    2      -16.858034   1.000000
    3      -16.739707   1.000000
    4      -16.566039   1.000000
    5      -16.439739   1.000000
    6      -16.390678   1.000000
    7      -16.301427   1.000000
    8      -16.240572   1.000000
    9      -16.100896   1.000000
   10      -16.057745   1.000000
   11      -15.993150   1.000000
   12      -15.913521   1.000000
   13      -15.784147   1.000000
   14      -15.743491   1.000000
   15      -15.573373   1.000000
   16      -15.536131   1.000000
   17      -15.508054   1.000000
   18      -15.452457   1.000000
   19       -9.355731   1.000000
   20       -9.246182   1.000000
   21       -9.139660   1.000000
   22       -9.031832   1.000000
   23       -8.794680   1.000000
   24       -8.700308   1.000000
   25       -8.530557   1.000000
   26       -8.477958   1.000000
   27       -8.434420   1.000000
   28       -8.372953   1.000000
   29       -8.332690   1.000000
   30       -8.264129   1.000000
   31       -8.156653   1.000000
   32       -8.087908   1.000000
   33       -7.969735   1.000000
   34       -7.827783   1.000000
   35       -7.716715   1.000000
   36       -7.695808   1.000000
   37       -7.572616   1.000000
   38       -7.511333   1.000000
   39       -7.473076   1.000000
   40       -7.336026   1.000000
   41       -7.277076   1.000000
   42       -7.213082   1.000000
   43       -7.139378   1.000000
   44       -6.882134   1.000000
   45       -6.872297   1.000000
   46       -6.805061   1.000000
   47       -6.645358   1.000000
   48       -6.624404   1.000000
   49       -6.567292   1.000000
   50       -6.501729   1.000000
   51       -6.439149   1.000000
   52       -6.415991   1.000000
   53       -6.337427   1.000000
   54       -6.305130   1.000000
   55       -6.242764   1.000000
   56       -6.153443   1.000000
   57       -6.146470   1.000000
   58       -5.855072   1.000000
   59       -5.670147   1.000000
   60       -5.582246   1.000000
   61       -5.475164   1.000000
   62       -5.439786   1.000000
   63       -5.409146   1.000000
   64       -5.291266   1.000000
   65       -5.180032   1.000000
   66       -5.091734   1.000000
   67       -4.993150   1.000000
   68       -4.959410   1.000000
   69       -4.851818   1.000000
   70       -4.728122   1.000000
   71       -4.535307   1.000000
   72       -4.460570   1.000000
   73       -4.266832   1.000000
   74       -4.138107   1.000000
   75       -4.093719   1.000000
   76       -4.034603   1.000000
   77       -3.877268   1.000000
   78       -3.791534   0.999993
   79       -3.618840   0.999119
   80       -3.152074   0.431340
   81       -3.044727   0.175662
   82       -2.863138   0.013344
   83       -2.792518   0.003310
   84       -2.704592   0.000423
   85       -2.615195   0.000036
   86       -2.586490   0.000015
   87       -2.535174   0.000003
   88       -2.432698   0.000000
   89       -2.214225   0.000000
   90       -2.146354   0.000000
   91       -1.886751   0.000000
   92       -1.865618   0.000000
   93       -1.843323   0.000000
   94       -1.441314   0.000000
   95       -1.203708   0.000000
   96       -1.150527   0.000000
   97       -0.847494   0.000000
   98       -0.780325   0.000000
   99       -0.693893   0.000000
  100       -0.687690   0.000000
  101       -0.619065   0.000000
  102       -0.549468   0.000000
  103       -0.440067   0.000000
  104       -0.368829   0.000000
  105       -0.261651   0.000000
  106       -0.230603   0.000000
  107       -0.113868   0.000000
  108        0.094591   0.000000
  109        0.207465   0.000000
  110        0.337527   0.000000
  111        0.434665   0.000000
  112        0.517503   0.000000
  113        0.590587   0.000000
  114        0.695960   0.000000
  115        1.002636   0.000000
  116        1.039758   0.000000
  117        1.194569   0.000000
  118        1.778097   0.000000
  119        1.962465   0.000000
  120        2.262360   0.000000
 
  0.2500000E+00  0.1250000E+00  0.0000000E+00  0.3125000E-01
    1      -17.619538   1.000000
    2      -17.044857   1.000000
    3      -16.840171   1.000000
    4      -16.537150   1.000000
    5      -16.448878   1.000000
    6      -16.374184   1.000000
    7      -16.251934   1.000000
    8      -16.196529   1.000000
    9      -16.126954   1.000000
   10      -16.044824   1.000000
   11      -15.980124   1.000000
   12      -15.870688   1.000000
   13      -15.707846   1.000000
   14      -15.654971   1.000000
   15      -15.606562   1.000000
   16      -15.584385   1.000000
   17      -15.539565   1.000000
   18      -15.452159   1.000000
   19       -9.572239   1.000000
   20       -9.368504   1.000000
   21       -9.212315   1.000000
   22       -9.077528   1.000000
   23       -8.803684   1.000000
   24       -8.710836   1.000000
   25       -8.560830   1.000000
   26       -8.445313   1.000000
   27       -8.360277   1.000000
   28       -8.328036   1.000000
   29       -8.278492   1.000000
   30       -8.227707   1.000000
   31       -8.141307   1.000000
   32       -8.049966   1.000000
   33       -7.999555   1.000000
   34       -7.862521   1.000000
   35       -7.797335   1.000000
   36       -7.543195   1.000000
   37       -7.480154   1.000000
   38       -7.369732   1.000000
   39       -7.336836   1.000000
   40       -7.291744   1.000000
   41       -7.207270   1.000000
   42       -7.189441   1.000000
   43       -7.067795   1.000000
   44       -6.896179   1.000000
   45       -6.842765   1.000000
   46       -6.749029   1.000000
   47       -6.682899   1.000000