       N       E                     dE             d eps       ncg     rms          rms(c)
DAV:   1     0.112627331746E+04    0.11263E+04   -0.35980E+04  8160   0.577E+02
DAV:   2    -0.531545990645E+01   -0.11316E+04   -0.10923E+04 11280   0.173E+02
DAV:   3    -0.199879015609E+03   -0.19456E+03   -0.18703E+03 10840   0.819E+01
DAV:   4    -0.208991945389E+03   -0.91129E+01   -0.88238E+01 12360   0.260E+01
DAV:   5    -0.209299078284E+03   -0.30713E+00   -0.30608E+00 11680   0.335E+00    0.275E+01
DAV:   6    -0.237601890256E+03   -0.28303E+02   -0.10531E+02 12600   0.601E+01    0.594E+01
DAV:   7    -0.196632516921E+03    0.40969E+02   -0.17593E+02 13160   0.152E+02    0.200E+01
DAV:   8    -0.189486746977E+03    0.71458E+01   -0.18273E+01 12000   0.127E+01    0.125E+01
DAV:   9    -0.188068222984E+03    0.14185E+01   -0.31128E+00 13520   0.649E+00    0.891E+00
DAV:  10    -0.186921522083E+03    0.11467E+01   -0.15906E+00 13440   0.763E+00    0.196E+00
DAV:  11    -0.186933448747E+03   -0.11927E-01   -0.42474E-01 13600   0.231E+00    0.300E+00
DAV:  12    -0.186856294433E+03    0.77154E-01   -0.25557E-01 13600   0.259E+00    0.133E+00
DAV:  13    -0.186831455436E+03    0.24839E-01   -0.74123E-02 12240   0.102E+00    0.937E-01
DAV:  14    -0.186829070236E+03    0.23852E-02   -0.22144E-02 13560   0.758E-01    0.754E-01
DAV:  15    -0.186823270815E+03    0.57994E-02   -0.11808E-02 13280   0.570E-01    0.169E-01
DAV:  16    -0.186822960470E+03    0.31034E-03   -0.27892E-03 11760   0.161E-01    0.161E-01
DAV:  17    -0.186822544406E+03    0.41606E-03   -0.15131E-03 12200   0.180E-01    0.151E-01
DAV:  18    -0.186822522506E+03    0.21900E-04   -0.96062E-04 10400   0.163E-01
   1 F= -.18682252E+03 E0= -.18665247E+03  d E =-.186823E+03
       N       E                     dE             d eps       ncg     rms          rms(c)
DAV:   1    -0.187473086467E+03   -0.65054E+00   -0.27522E+02  8160   0.352E+01    0.462E+00
DAV:   2    -0.189241346688E+03   -0.17683E+01   -0.19890E+01 11960   0.147E+01    0.775E+00
DAV:   3    -0.189364910282E+03   -0.12356E+00   -0.33675E+00 12240   0.116E+01    0.685E+00
DAV:   4    -0.188716516371E+03    0.64839E+00   -0.64910E-01 12400   0.497E+00    0.174E+00
DAV:   5    -0.188705804143E+03    0.10712E-01   -0.30569E-01 11200   0.164E+00    0.219E+00
DAV:   6    -0.188690104492E+03    0.15700E-01   -0.32982E-01 13320   0.264E+00    0.250E+00
DAV:   7    -0.188665390726E+03    0.24714E-01   -0.19782E-01 12320   0.255E+00    0.185E+00
DAV:   8    -0.188630660944E+03    0.34730E-01   -0.66521E-02 12640   0.130E+00    0.428E-01
DAV:   9    -0.188629628846E+03    0.10321E-02   -0.83195E-03 12640   0.360E-01    0.332E-01
DAV:  10    -0.188630200065E+03   -0.57122E-03   -0.56996E-03 13360   0.422E-01    0.401E-01
DAV:  11    -0.188628920253E+03    0.12798E-02   -0.30044E-03 12080   0.259E-01    0.108E-01
DAV:  12    -0.188629208576E+03   -0.28832E-03   -0.67461E-04 11200   0.890E-02    0.405E-02
DAV:  13    -0.188629317860E+03   -0.10928E-03   -0.10563E-04  7880   0.345E-02    0.323E-02
DAV:  14    -0.188629520518E+03   -0.20266E-03   -0.56123E-05  6480   0.243E-02    0.235E-02
DAV:  15    -0.188629628755E+03   -0.10824E-03   -0.25648E-05  7680   0.169E-02    0.708E-03
DAV:  16    -0.188629812962E+03   -0.18421E-03   -0.92262E-06  6480   0.884E-03    0.420E-03
DAV:  17    -0.188630058959E+03   -0.24600E-03   -0.73390E-06  6720   0.721E-03    0.301E-03
DAV:  18    -0.188630255846E+03   -0.19689E-03   -0.82016E-06  6440   0.529E-03    0.243E-03
DAV:  19    -0.188630293504E+03   -0.37658E-04   -0.23316E-06  7920   0.388E-03
   2 F= -.18863029E+03 E0= -.18849177E+03  d E =-.180777E+01
       N       E                     dE             d eps       ncg     rms          rms(c)
DAV:   1    -0.190571879376E+03   -0.19416E+01   -0.31646E+01  9440   0.143E+01    0.447E+00
DAV:   2    -0.190528016233E+03    0.43863E-01   -0.28015E+00 12080   0.957E+00    0.726E+00
DAV:   3    -0.190046398114E+03    0.48162E+00   -0.13091E+00 12520   0.864E+00    0.421E+00
DAV:   4    -0.189835519819E+03    0.21088E+00   -0.65928E-01 13080   0.426E+00    0.249E+00
DAV:   5    -0.189740650396E+03    0.94869E-01   -0.28961E-01 11840   0.196E+00    0.718E-01
DAV:   6    -0.189730420467E+03    0.10230E-01   -0.37113E-02 11120   0.747E-01    0.399E-01
DAV:   7    -0.189730677917E+03   -0.25745E-03   -0.96931E-03 11920   0.536E-01    0.379E-01
DAV:   8    -0.189729517193E+03    0.11607E-02   -0.25795E-03 11720   0.278E-01    0.119E-01
DAV:   9    -0.189729688281E+03   -0.17109E-03   -0.68161E-04 10680   0.961E-02    0.589E-02
DAV:  10    -0.189729819761E+03   -0.13148E-03   -0.36796E-04  9760   0.125E-01    0.127E-01
DAV:  11    -0.189729690087E+03    0.12967E-03   -0.20971E-04  7000   0.981E-02    0.162E-02
DAV:  12    -0.189729706532E+03   -0.16445E-04   -0.32501E-05  6200   0.198E-02
   3 F= -.18972971E+03 E0= -.18961331E+03  d E =-.109941E+01
       N       E                     dE             d eps       ncg     rms          rms(c)
DAV:   1    -0.191317918510E+03   -0.15882E+01   -0.78233E+01  8160   0.201E+01    0.460E+00
DAV:   2    -0.191108494613E+03    0.20942E+00   -0.53399E+00 13560   0.749E+00    0.436E+00
DAV:   3    -0.191289447309E+03   -0.18095E+00   -0.16104E+00 12480   0.909E+00    0.680E+00
DAV:   4    -0.190858891581E+03    0.43056E+00   -0.12373E+00 13000   0.774E+00    0.268E+00
DAV:   5    -0.190743661286E+03    0.11523E+00   -0.28407E-01 11520   0.212E+00    0.801E-01
DAV:   6    -0.190741375611E+03    0.22857E-02   -0.70920E-02 12240   0.134E+00    0.101E+00
DAV:   7    -0.190737826188E+03    0.35494E-02   -0.39424E-02 11440   0.135E+00    0.775E-01
DAV:   8    -0.190730898955E+03    0.69272E-02   -0.95723E-03 12440   0.623E-01    0.144E-01
DAV:   9    -0.190731190706E+03   -0.29175E-03   -0.23679E-03 10160   0.155E-01    0.952E-02
DAV:  10    -0.190731301654E+03   -0.11095E-03   -0.73307E-04 11600   0.169E-01    0.138E-01
DAV:  11    -0.190731187923E+03    0.11373E-03   -0.43325E-04  9080   0.147E-01    0.738E-02
DAV:  12    -0.190731120982E+03    0.66941E-04   -0.98666E-05  6400   0.555E-02
   4 F= -.19073112E+03 E0= -.19063175E+03  d E =-.100141E+01
       N       E                     dE             d eps       ncg     rms          rms(c)
DAV:   1    -0.192104866818E+03   -0.13737E+01   -0.17204E+02  8160   0.291E+01    0.560E+00
DAV:   2    -0.191794593402E+03    0.31027E+00   -0.89648E+00 10200   0.720E+00    0.301E+00
DAV:   3    -0.191661222051E+03    0.13337E+00   -0.12408E+00 10880   0.433E+00    0.315E+00
DAV:   4    -0.191694941435E+03   -0.33719E-01   -0.72013E-01 12320   0.655E+00    0.451E+00
DAV:   5    -0.191460663154E+03    0.23428E+00   -0.51675E-01 12480   0.529E+00    0.931E-01
DAV:   6    -0.191452362578E+03    0.83006E-02   -0.86862E-02 12680   0.129E+00    0.640E-01
DAV:   7    -0.191456082385E+03   -0.37198E-02   -0.37392E-02 12800   0.133E+00    0.989E-01
DAV:   8    -0.191446145219E+03    0.99372E-02   -0.15793E-02 11520   0.890E-01    0.143E-01
DAV:   9    -0.191447013100E+03   -0.86788E-03   -0.29851E-03 11720   0.296E-01    0.286E-01
DAV:  10    -0.191446291562E+03    0.72154E-03   -0.17925E-03 11080   0.305E-01    0.827E-02
DAV:  11    -0.191446256334E+03    0.35228E-04   -0.12914E-04  6280   0.680E-02
   5 F= -.19144626E+03 E0= -.19134997E+03  d E =-.715135E+00
       N       E                     dE             d eps       ncg     rms          rms(c)
DAV:   1    -0.191531863685E+03   -0.85572E-01   -0.77331E+00  8160   0.576E+00    0.923E-01
DAV:   2    -0.191665777509E+03   -0.13391E+00   -0.45808E-01 13600   0.452E+00    0.337E+00
DAV:   3    -0.191538717117E+03    0.12706E+00   -0.22067E-01 12640   0.357E+00    0.340E-01
DAV:   4    -0.191537490115E+03    0.12270E-02   -0.70749E-03 12360   0.329E-01    0.218E-01
DAV:   5    -0.191537285678E+03    0.20444E-03   -0.37519E-03 12400   0.308E-01    0.247E-01
DAV:   6    -0.191538286713E+03   -0.10010E-02   -0.53977E-03 12160   0.519E-01    0.402E-01
DAV:   7    -0.191536585102E+03    0.17016E-02   -0.26995E-03 10840   0.351E-01    0.302E-02
DAV:   8    -0.191536634756E+03   -0.49655E-04   -0.11899E-04  6000   0.471E-02
   6 F= -.19153663E+03 E0= -.19143901E+03  d E =-.903784E-01
       N       E                     dE             d eps       ncg     rms          rms(c)
DAV:   1    -0.191657690747E+03   -0.12111E+00   -0.31773E+01  8160   0.117E+01    0.155E+00
DAV:   2    -0.191951820979E+03   -0.29413E+00   -0.11256E+00 13120   0.659E+00    0.500E+00
DAV:   3    -0.191676804267E+03    0.27502E+00   -0.57467E-01 12360   0.574E+00    0.747E-01
DAV:   4    -0.191671240218E+03    0.55640E-02   -0.22688E-02 12600   0.707E-01    0.548E-01
DAV:   5    -0.191677976064E+03   -0.67358E-02   -0.32379E-02 12320   0.124E+00    0.102E+00
DAV:   6    -0.191668615408E+03    0.93607E-02   -0.20782E-02 11920   0.947E-01    0.209E-01
DAV:   7    -0.191668071243E+03    0.54416E-03   -0.34951E-03 11440   0.303E-01    0.200E-01
DAV:   8    -0.191667862509E+03    0.20873E-03   -0.17587E-03 10640   0.273E-01    0.137E-01
DAV:   9    -0.191667683087E+03    0.17942E-03   -0.40564E-04  8720   0.122E-01    0.282E-02
DAV:  10    -0.191667685770E+03   -0.26828E-05   -0.74363E-05  6640   0.286E-02
   7 F= -.19166769E+03 E0= -.19156861E+03  d E =-.131051E+00
       N       E                     dE             d eps       ncg     rms          rms(c)
DAV:   1    -0.191680219924E+03   -0.12537E-01   -0.41573E-01  8160   0.157E+00    0.433E-01
DAV:   2    -0.191679424413E+03    0.79551E-03   -0.32331E-02 10240   0.895E-01    0.640E-01
DAV:   3    -0.191676172279E+03    0.32521E-02   -0.15808E-02 11480   0.990E-01    0.378E-01
DAV:   4    -0.191674241789E+03    0.19305E-02   -0.58992E-03 11480   0.497E-01    0.238E-01
DAV:   5    -0.191674933284E+03   -0.69150E-03   -0.57963E-03 11400   0.477E-01    0.419E-01
DAV:   6    -0.191673242848E+03    0.16904E-02   -0.34289E-03 11280   0.384E-01    0.591E-02
DAV:   7    -0.191673215097E+03    0.27752E-04   -0.18343E-04  5800   0.643E-02
   8 F= -.19167322E+03 E0= -.19157354E+03  d E =-.552933E-02
       N       E                     dE             d eps       ncg     rms          rms(c)
DAV:   1    -0.191697506689E+03   -0.24264E-01   -0.26951E+00  8160   0.341E+00    0.392E-01
DAV:   2    -0.191712332878E+03   -0.14826E-01   -0.79890E-02 12720   0.131E+00    0.101E+00
DAV:   3    -0.191700335386E+03    0.11997E-01   -0.27764E-02 12360   0.125E+00    0.274E-01
DAV:   4    -0.191700973555E+03   -0.63817E-03   -0.46891E-03 11640   0.426E-01    0.386E-01
DAV:   5    -0.191699667732E+03    0.13058E-02   -0.36255E-03 10520   0.407E-01    0.147E-01
DAV:   6    -0.191699562185E+03    0.10555E-03   -0.77554E-04 10120   0.132E-01    0.493E-02
DAV:   7    -0.191699607857E+03   -0.45673E-04   -0.34034E-04  7520   0.111E-01
   9 F= -.19169961E+03 E0= -.19159982E+03  d E =-.263928E-01
       N       E                     dE             d eps       ncg     rms          rms(c)
DAV:   1    -0.191712507988E+03   -0.12946E-01   -0.69558E-01  8160   0.179E+00    0.318E-01
DAV:   2    -0.191720393961E+03   -0.78860E-02   -0.41191E-02 12360   0.122E+00    0.841E-01
DAV:   3    -0.191712159986E+03    0.82340E-02   -0.15819E-02 11520   0.972E-01    0.146E-01
DAV:   4    -0.191711951093E+03    0.20889E-03   -0.14527E-03 11720   0.184E-01    0.144E-01
DAV:   5    -0.191712148638E+03   -0.19755E-03   -0.19582E-03 10840   0.285E-01    0.232E-01
DAV:   6    -0.191711655777E+03    0.49286E-03   -0.12583E-03  9400   0.224E-01    0.529E-02
DAV:   7    -0.191711629104E+03    0.26673E-04   -0.13006E-04  5640   0.537E-02
  10 F= -.19171163E+03 E0= -.19161151E+03  d E =-.120212E-01
       N       E                     dE             d eps       ncg     rms          rms(c)
DAV:   1    -0.191727756109E+03   -0.16100E-01   -0.37946E+00  8160   0.408E+00    0.549E-01
DAV:   2    -0.191758955948E+03   -0.31200E-01   -0.16612E-01 13600   0.233E+00    0.152E+00
DAV:   3    -0.191732490601E+03    0.26465E-01   -0.55513E-02 12240   0.177E+00    0.301E-01
DAV:   4    -0.191734654959E+03   -0.21644E-02   -0.10073E-02 12240   0.629E-01    0.611E-01
DAV:   5    -0.191731251755E+03    0.34032E-02   -0.82144E-03 11200   0.596E-01    0.168E-01
DAV:   6    -0.191731281188E+03   -0.29432E-04   -0.18703E-03 11280   0.190E-01    0.121E-01
DAV:   7    -0.191731336268E+03   -0.55080E-04   -0.14115E-03 10600   0.232E-01    0.184E-01
DAV:   8    -0.191731004341E+03    0.33193E-03   -0.60034E-04  8840   0.157E-01    0.207E-02
DAV:   9    -0.191731011795E+03   -0.74539E-05   -0.41840E-05  5920   0.219E-02
  11 F= -.19173101E+03 E0= -.19163053E+03  d E =-.193827E-01
       N       E                     dE             d eps       ncg     rms          rms(c)
DAV:   1    -0.191732464923E+03   -0.14606E-02   -0.10015E-01  8160   0.757E-01    0.191E-01
DAV:   2    -0.191732307265E+03    0.15766E-03   -0.63884E-03 10560   0.400E-01    0.280E-01
DAV:   3    -0.191731757358E+03    0.54991E-03   -0.31578E-03 11360   0.432E-01    0.187E-01
DAV:   4    -0.191731574924E+03    0.18243E-03   -0.19512E-03  9920   0.285E-01    0.201E-01
DAV:   5    -0.191731375217E+03    0.19971E-03   -0.16123E-03  9600   0.263E-01    0.148E-01
DAV:   6    -0.191731105258E+03    0.26996E-03   -0.53024E-04  8240   0.141E-01    0.208E-02
DAV:   7    -0.191731103005E+03    0.22533E-05   -0.62796E-05  6320   0.309E-02
  12 F= -.19173110E+03 E0= -.19163030E+03  d E =-.912094E-04
       N       E                     dE             d eps       ncg     rms          rms(c)
DAV:   1    -0.191734941196E+03   -0.38359E-02   -0.42944E-01  8160   0.136E+00    0.148E-01
DAV:   2    -0.191737077815E+03   -0.21366E-02   -0.15048E-02 12400   0.509E-01    0.340E-01
DAV:   3    -0.191735766990E+03    0.13108E-02   -0.35396E-03 11360   0.441E-01    0.117E-01
DAV:   4    -0.191735861191E+03   -0.94201E-04   -0.78169E-04  8280   0.176E-01
  13 F= -.19173586E+03 E0= -.19163523E+03  d E =-.475819E-02
       N       E                     dE             d eps       ncg     rms          rms(c)
DAV:   1    -0.191737296726E+03   -0.15297E-02   -0.56353E-02  8160   0.548E-01    0.113E-01
DAV:   2    -0.191737992321E+03   -0.69560E-03   -0.36341E-03 11920   0.354E-01    0.273E-01
DAV:   3    -0.191737203304E+03    0.78902E-03   -0.18199E-03 10240   0.312E-01    0.897E-02
DAV:   4    -0.191737393486E+03   -0.19018E-03   -0.83927E-04  8680   0.192E-01    0.166E-01
DAV:   5    -0.191737110831E+03    0.28266E-03   -0.55895E-04  8320   0.162E-01    0.349E-02
DAV:   6    -0.191737111441E+03   -0.60985E-06   -0.91504E-05  5560   0.399E-02
  14 F= -.19173711E+03 E0= -.19163623E+03  d E =-.125025E-02
       N       E                     dE             d eps       ncg     rms          rms(c)
DAV:   1    -0.191741369272E+03   -0.42584E-02   -0.62832E-01  8160   0.172E+00    0.307E-01
DAV:   2    -0.191748036020E+03   -0.66667E-02   -0.41944E-02 12240   0.109E+00    0.797E-01
DAV:   3    -0.191741685197E+03    0.63508E-02   -0.16351E-02 11600   0.897E-01    0.250E-01
DAV:   4    -0.191742739643E+03   -0.10544E-02   -0.62325E-03 12000   0.517E-01    0.430E-01
DAV:   5    -0.191740834981E+03    0.19047E-02   -0.36191E-03 10840   0.407E-01    0.838E-02
DAV:   6    -0.191740782759E+03    0.52222E-04   -0.65504E-04  9360   0.983E-02
  15 F= -.19174078E+03 E0= -.19163960E+03  d E =-.367132E-02
       N       E                     dE             d eps       ncg     rms          rms(c)
DAV:   1    -0.191742074425E+03   -0.12394E-02   -0.24782E-01  8160   0.105E+00    0.169E-01
DAV:   2    -0.191745765371E+03   -0.36909E-02   -0.14968E-02 13000   0.737E-01    0.598E-01
DAV:   3    -0.191742241473E+03    0.35239E-02   -0.74038E-03 11000   0.578E-01    0.145E-01
DAV:   4    -0.191742368932E+03   -0.12746E-03   -0.13805E-03 10080   0.254E-01    0.169E-01
DAV:   5    -0.191742032535E+03    0.33640E-03   -0.52671E-04  8720   0.159E-01    0.339E-02
DAV:   6    -0.191742047115E+03   -0.14580E-04   -0.15401E-04  6120   0.458E-02
  16 F= -.19174205E+03 E0= -.19164078E+03  d E =-.126436E-02
       N       E                     dE             d eps       ncg     rms          rms(c)
DAV:   1    -0.191742360873E+03   -0.32834E-03   -0.15814E-02  8160   0.289E-01    0.717E-02
DAV:   2    -0.191743142912E+03   -0.78204E-03   -0.25686E-03 11040   0.312E-01    0.295E-01
DAV:   3    -0.191742301392E+03    0.84152E-03   -0.16223E-03 10040   0.264E-01    0.473E-02
DAV:   4    -0.191742342695E+03   -0.41303E-04   -0.16567E-04  7440   0.942E-02
  17 F= -.19174234E+03 E0= -.19164117E+03  d E =-.295580E-03
