 vasp.5.4.1 05Feb16 (build Jul 05 2020 17:13:04) complex                        
  
 executed on           IFC91_ompi date 2024.04.21  03:17:25
 running on   40 total cores
 distrk:  each k-point on   40 cores,    1 groups
 distr:  one band on NCORES_PER_BAND=   1 cores,   40 groups


--------------------------------------------------------------------------------------------------------


 INCAR:
 POTCAR:   PAW_PBE V 08Apr2002                    
 POTCAR:   PAW_PBE Mo 08Apr2002                   
 POTCAR:   PAW_PBE W 08Apr2002                    
 POTCAR:    PAW_PBE S 17Jan2003                   

 ----------------------------------------------------------------------------- 
|                                                                             |
|           W    W    AA    RRRRR   N    N  II  N    N   GGGG   !!!           |
|           W    W   A  A   R    R  NN   N  II  NN   N  G    G  !!!           |
|           W    W  A    A  R    R  N N  N  II  N N  N  G       !!!           |
|           W WW W  AAAAAA  RRRRR   N  N N  II  N  N N  G  GGG   !            |
|           WW  WW  A    A  R   R   N   NN  II  N   NN  G    G                |
|           W    W  A    A  R    R  N    N  II  N    N   GGGG   !!!           |
|                                                                             |
|      For optimal performance we recommend to set                            |
|        NCORE= 4 - approx SQRT( number of cores)                             |
|      NCORE specifies how many cores store one orbital (NPAR=cpu/NCORE).     |
|      This setting can  greatly improve the performance of VASP for DFT.     |
|      The default, NPAR=number of cores might be grossly inefficient         |
|      on modern multi-core architectures or massively parallel machines.     |
|      Do your own testing !!!!                                               |
|      Unfortunately you need to use the default for GW and RPA calculations. |
|      (for HF NCORE is supported but not extensively tested yet)             |
|                                                                             |
 ----------------------------------------------------------------------------- 

 POTCAR:   PAW_PBE V 08Apr2002                    
   VRHFIN =V: p6 d4 s1                                                          
   LEXCH  = PE                                                                  
   EATOM  =   170.8679 eV,   12.5584 Ry                                         
                                                                                
   TITEL  = PAW_PBE V 08Apr2002                                                 
   LULTRA =        F    use ultrasoft PP ?                                      
   IUNSCR =        1    unscreen: 0-lin 1-nonlin 2-no                           
   RPACOR =    2.000    partial core radius                                     
   POMASS =   50.941; ZVAL   =    5.000    mass and valenz                      
   RCORE  =    2.700    outmost cutoff radius                                   
   RWIGS  =    2.500; RWIGS  =    1.323    wigner-seitz radius (au A)           
   ENMAX  =  192.543; ENMIN  =  144.408 eV                                      
   RCLOC  =    1.779    cutoff for local pot                                    
   LCOR   =        T    correct aug charges                                     
   LPAW   =        T    paw PP                                                  
   EAUG   =  358.662                                                            
   DEXC   =    -.034                                                            
   RMAX   =    3.323    core radius for proj-oper                               
   RAUG   =    1.300    factor for augmentation sphere                          
   RDEP   =    2.762    radius for radial grids                                 
   QCUT   =   -3.762; QGAM   =    7.524    optimization parameters              
                                                                                
   Description                                                                  
     l     E      TYP  RCUT    TYP  RCUT                                        
     2   .000     23  2.700                                                     
     2   .000     23  2.700                                                     
     0   .000     23  2.700                                                     
     0  2.000     23  2.700                                                     
     1   .000     23  2.700                                                     
     1  2.000     23  2.700                                                     
     3   .000      7   .000                                                     
  local pseudopotential read in
  partial core-charges read in
  atomic valenz-charges read in
  non local Contribution for L=           2  read in
    real space projection operators read in
  non local Contribution for L=           2  read in
    real space projection operators read in
  non local Contribution for L=           0  read in
    real space projection operators read in
  non local Contribution for L=           0  read in
    real space projection operators read in
  non local Contribution for L=           1  read in
    real space projection operators read in
  non local Contribution for L=           1  read in
    real space projection operators read in
    PAW grid and wavefunctions read in
 
   number of l-projection  operators is LMAX  =           6
   number of lm-projection operators is LMMAX =          18
 
 POTCAR:   PAW_PBE Mo 08Apr2002                   
   VRHFIN =Mo: 4p5s4d                                                           
   LEXCH  = PE                                                                  
   EATOM  =   217.5180 eV,   15.9871 Ry                                         
                                                                                
   TITEL  = PAW_PBE Mo 08Apr2002                                                
   LULTRA =        F    use ultrasoft PP ?                                      
   IUNSCR =        1    unscreen: 0-lin 1-nonlin 2-no                           
   RPACOR =    2.200    partial core radius                                     
   POMASS =   95.940; ZVAL   =    6.000    mass and valenz                      
   RCORE  =    2.750    outmost cutoff radius                                   
   RWIGS  =    2.750; RWIGS  =    1.455    wigner-seitz radius (au A)           
   ENMAX  =  224.584; ENMIN  =  168.438 eV                                      
   RCLOC  =    2.111    cutoff for local pot                                    
   LCOR   =        T    correct aug charges                                     
   LPAW   =        T    paw PP                                                  
   EAUG   =  345.278                                                            
   DEXC   =    -.088                                                            
   RMAX   =    3.077    core radius for proj-oper                               
   RAUG   =    1.300    factor for augmentation sphere                          
   RDEP   =    2.815    radius for radial grids                                 
   QCUT   =   -4.063; QGAM   =    8.126    optimization parameters              
                                                                                
   Description                                                                  
     l     E      TYP  RCUT    TYP  RCUT                                        
     2   .000     23  2.500                                                     
     2   .000     23  2.500                                                     
     0   .000     23  2.600                                                     
     0  1.000     23  2.600                                                     
     1   .400     23  2.750                                                     
     1  2.000     23  2.750                                                     
     3   .000      7   .000                                                     
  local pseudopotential read in
  partial core-charges read in
  atomic valenz-charges read in
  non local Contribution for L=           2  read in
    real space projection operators read in
  non local Contribution for L=           2  read in
    real space projection operators read in
  non local Contribution for L=           0  read in
    real space projection operators read in
  non local Contribution for L=           0  read in
    real space projection operators read in
  non local Contribution for L=           1  read in
    real space projection operators read in
  non local Contribution for L=           1  read in
    real space projection operators read in
    PAW grid and wavefunctions read in
 
   number of l-projection  operators is LMAX  =           6
   number of lm-projection operators is LMMAX =          18
 
 POTCAR:   PAW_PBE W 08Apr2002                    
   VRHFIN =W : 6s5d                                                             
   LEXCH  = PE                                                                  
   EATOM  =   204.6100 eV,   15.0384 Ry                                         
                                                                                
   TITEL  = PAW_PBE W 08Apr2002                                                 
   LULTRA =        F    use ultrasoft PP ?                                      
   IUNSCR =        1    unscreen: 0-lin 1-nonlin 2-no                           
   RPACOR =    2.330    partial core radius                                     
   POMASS =  183.850; ZVAL   =    6.000    mass and valenz                      
   RCORE  =    2.750    outmost cutoff radius                                   
   RWIGS  =    2.750; RWIGS  =    1.455    wigner-seitz radius (au A)           
   ENMAX  =  223.057; ENMIN  =  167.293 eV                                      
   RCLOC  =    2.147    cutoff for local pot                                    
   LCOR   =        T    correct aug charges                                     
   LPAW   =        T    paw PP                                                  
   EAUG   =  373.438                                                            
   DEXC   =    -.060                                                            
   RMAX   =    3.087    core radius for proj-oper                               
   RAUG   =    1.300    factor for augmentation sphere                          
   RDEP   =    2.886    radius for radial grids                                 
   QCUT   =   -4.049; QGAM   =    8.098    optimization parameters              
                                                                                
   Description                                                                  
     l     E      TYP  RCUT    TYP  RCUT                                        
     2   .000     23  2.500                                                     
     2   .000     23  2.500                                                     
     0   .000     23  2.500                                                     
     0   .000     23  2.500                                                     
     1   .200     23  2.750                                                     
     1  2.000     23  2.750                                                     
     3   .000      7   .000                                                     
  local pseudopotential read in
  partial core-charges read in
  atomic valenz-charges read in
  non local Contribution for L=           2  read in
    real space projection operators read in
  non local Contribution for L=           2  read in
    real space projection operators read in
  non local Contribution for L=           0  read in
    real space projection operators read in
  non local Contribution for L=           0  read in
    real space projection operators read in
  non local Contribution for L=           1  read in
    real space projection operators read in
  non local Contribution for L=           1  read in
    real space projection operators read in
    PAW grid and wavefunctions read in
 
   number of l-projection  operators is LMAX  =           6
   number of lm-projection operators is LMMAX =          18
 
 POTCAR:    PAW_PBE S 17Jan2003                   
   VRHFIN =S : s2p4                                                             
   LEXCH  = PE                                                                  
   EATOM  =   276.8230 eV,   20.3459 Ry                                         
                                                                                
   TITEL  = PAW_PBE S 17Jan2003                                                 
   LULTRA =        F    use ultrasoft PP ?                                      
   IUNSCR =        1    unscreen: 0-lin 1-nonlin 2-no                           
   RPACOR =    1.500    partial core radius                                     
   POMASS =   32.066; ZVAL   =    6.000    mass and valenz                      
   RCORE  =    1.900    outmost cutoff radius                                   
   RWIGS  =    2.200; RWIGS  =    1.164    wigner-seitz radius (au A)           
   ENMAX  =  280.000; ENMIN  =  194.016 eV                                      
   ICORE  =        2    local potential                                         
   LCOR   =        T    correct aug charges                                     
   LPAW   =        T    paw PP                                                  
   EAUG   =  335.092                                                            
   DEXC   =     .000                                                            
   RMAX   =    2.867    core radius for proj-oper                               
   RAUG   =    1.300    factor for augmentation sphere                          
   RDEP   =    1.954    radius for radial grids                                 
   QCUT   =   -4.360; QGAM   =    8.721    optimization parameters              
                                                                                
   Description                                                                  
     l     E      TYP  RCUT    TYP  RCUT                                        
     0   .000     23  1.900                                                     
     0   .000     23  1.900                                                     
     1   .000     23  1.900                                                     
     1   .000     23  1.900                                                     
     2   .000     23  1.900                                                     
  local pseudopotential read in
  partial core-charges read in
  atomic valenz-charges read in
  non local Contribution for L=           0  read in
    real space projection operators read in
  non local Contribution for L=           0  read in
    real space projection operators read in
  non local Contribution for L=           1  read in
    real space projection operators read in
  non local Contribution for L=           1  read in
    real space projection operators read in
    PAW grid and wavefunctions read in
 
   number of l-projection  operators is LMAX  =           4
   number of lm-projection operators is LMMAX =           8
 

 ----------------------------------------------------------------------------- 
|                                                                             |
|  ADVICE TO THIS USER RUNNING 'VASP/VAMP'   (HEAR YOUR MASTER'S VOICE ...):  |
|                                                                             |
|      You have a (more or less) 'large supercell' and for larger cells       |
|      it might be more efficient to use real space projection operators      |
|      So try LREAL= Auto  in the INCAR   file.                               |
|      Mind: If you want to do a very accurate calculations keep the          |
|      reciprocal projection scheme          (i.e. LREAL=.FALSE.)             |
|                                                                             |
 ----------------------------------------------------------------------------- 

 PAW_PBE V 08Apr2002                    :
 energy of atom  1       EATOM= -170.8679
 kinetic energy error for atom=    0.0047 (will be added to EATOM!!)
 PAW_PBE Mo 08Apr2002                   :
 energy of atom  2       EATOM= -217.5180
 kinetic energy error for atom=    0.0215 (will be added to EATOM!!)
 PAW_PBE W 08Apr2002                    :
 energy of atom  3       EATOM= -204.6100
 kinetic energy error for atom=    0.0205 (will be added to EATOM!!)
  PAW_PBE S 17Jan2003                   :
 energy of atom  4       EATOM= -276.8230
 kinetic energy error for atom=    0.0122 (will be added to EATOM!!)
 
 
 POSCAR: crystal structure from VMoWS2 with Hexag
  positions in cartesian coordinates
  No initial velocities read in
 exchange correlation table for  LEXCH =        8
   RHO(1)=    0.500       N(1)  =     2000
   RHO(2)=  100.500       N(2)  =     4000
 


--------------------------------------------------------------------------------------------------------


 ion  position               nearest neighbor table
   1  0.333  0.000  0.000-  11 2.34  20 2.34  17 2.36  16 2.36  15 2.36  14 2.36
   2  0.000  0.000  0.000-  23 2.34  14 2.34  11 2.36  10 2.36  27 2.36  26 2.36
   3  0.333  0.333  0.000-  13 2.34  16 2.34  19 2.36  18 2.36  11 2.36  10 2.36
   4  0.667  0.667  0.000-  21 2.34  24 2.34  27 2.36  26 2.36  19 2.36  18 2.36   8 3.34   6 3.34
                             9 3.34   5 3.34
   5  0.333  0.667  0.000-  15 2.34  18 2.34  20 2.36  21 2.36  13 2.36  12 2.36   8 3.34   4 3.34
                             6 3.36   7 3.36
   6  0.667  0.000  0.000-  17 2.34  26 2.34  23 2.36  22 2.36  21 2.36  20 2.36   4 3.34   9 3.34
                             7 3.36   5 3.36
   7  1.000  0.333  0.000-  25 2.34  10 2.34  13 2.36  12 2.36  22 2.36  23 2.36   9 3.34   8 3.34
                             6 3.36   5 3.36
   8  0.000  0.667  0.000-  27 2.34  12 2.34  14 2.36  15 2.36  24 2.36  25 2.36   4 3.34   7 3.34
                             5 3.34   9 3.36
   9  0.667  0.333  0.000-  19 2.34  22 2.34  25 2.36  24 2.36  17 2.36  16 2.36   7 3.34   4 3.34
                             6 3.34   8 3.36
  10  0.111  0.222  0.955-   7 2.34   2 2.36   3 2.36
  11  0.222  0.111  0.045-   1 2.34   2 2.36   3 2.36
  12  0.111  0.556  0.955-   8 2.34   7 2.36   5 2.36
  13  0.222  0.444  0.045-   3 2.34   7 2.36   5 2.36
  14  0.111  0.889  0.955-   2 2.34   8 2.36   1 2.36
  15  0.222  0.777  0.045-   5 2.34   8 2.36   1 2.36
  16  0.444  0.222  0.955-   3 2.34   1 2.36   9 2.36
  17  0.556  0.111  0.045-   6 2.34   1 2.36   9 2.36
  18  0.444  0.556  0.955-   5 2.34   3 2.36   4 2.36
  19  0.556  0.444  0.045-   9 2.34   3 2.36   4 2.36
  20  0.444  0.889  0.955-   1 2.34   5 2.36   6 2.36
  21  0.556  0.777  0.045-   4 2.34   5 2.36   6 2.36
  22  0.777  0.222  0.955-   9 2.34   6 2.36   7 2.36
  23  0.889  0.111  0.045-   2 2.34   6 2.36   7 2.36
  24  0.777  0.556  0.955-   4 2.34   9 2.36   8 2.36
  25  0.889  0.444  0.045-   7 2.34   9 2.36   8 2.36
  26  0.777  0.889  0.955-   6 2.34   4 2.36   2 2.36
  27  0.889  0.777  0.045-   8 2.34   4 2.36   2 2.36
 

IMPORTANT INFORMATION: All symmetrisations will be switched off!
NOSYMM: (Re-)initialisation of all symmetry stuff for point group C_1.

 
 
 KPOINTS: K-POINTS 	#supercell of CrS2 in hexagona

Automatic generation of k-mesh.
Space group operators:
 irot       det(A)        alpha          n_x          n_y          n_z        tau_x        tau_y        tau_z
    1     1.000000     0.000000     1.000000     0.000000     0.000000     0.000000     0.000000     0.000000
 
 Subroutine IBZKPT returns following result:
 ===========================================
 
 Found     34 irreducible k-points:
 
 Following reciprocal coordinates:
            Coordinates               Weight
  0.000000  0.000000  0.000000      1.000000
  0.125000  0.000000  0.000000      2.000000
  0.250000  0.000000  0.000000      2.000000
  0.375000  0.000000  0.000000      2.000000
  0.500000  0.000000  0.000000      1.000000
  0.000000  0.125000  0.000000      2.000000
  0.125000  0.125000  0.000000      2.000000
  0.250000  0.125000  0.000000      2.000000
  0.375000  0.125000  0.000000      2.000000
  0.500000  0.125000  0.000000      2.000000
 -0.375000  0.125000  0.000000      2.000000
 -0.250000  0.125000  0.000000      2.000000
 -0.125000  0.125000  0.000000      2.000000
  0.000000  0.250000  0.000000      2.000000
  0.125000  0.250000  0.000000      2.000000
  0.250000  0.250000  0.000000      2.000000
  0.375000  0.250000  0.000000      2.000000
  0.500000  0.250000  0.000000      2.000000
 -0.375000  0.250000  0.000000      2.000000
 -0.250000  0.250000  0.000000      2.000000
 -0.125000  0.250000  0.000000      2.000000
 -0.000000  0.375000  0.000000      2.000000
  0.125000  0.375000  0.000000      2.000000
  0.250000  0.375000  0.000000      2.000000
  0.375000  0.375000  0.000000      2.000000
  0.500000  0.375000  0.000000      2.000000
 -0.375000  0.375000  0.000000      2.000000
 -0.250000  0.375000  0.000000      2.000000
 -0.125000  0.375000  0.000000      2.000000
  0.000000  0.500000  0.000000      1.000000
  0.125000  0.500000  0.000000      2.000000
  0.250000  0.500000  0.000000      2.000000
  0.375000  0.500000  0.000000      2.000000
  0.500000  0.500000  0.000000      1.000000
 
 Following cartesian coordinates:
            Coordinates               Weight
  0.000000  0.000000  0.000000      1.000000
  0.007209  0.012401  0.000000      2.000000
  0.014418  0.024802  0.000000      2.000000
  0.021626  0.037202  0.000000      2.000000
  0.028835  0.049603  0.000000      1.000000
 -0.007209  0.012401  0.000000      2.000000
  0.000000  0.024802  0.000000      2.000000
  0.007209  0.037202  0.000000      2.000000
  0.014418  0.049603  0.000000      2.000000
  0.021626  0.062004  0.000000      2.000000
 -0.028835 -0.024802  0.000000      2.000000
 -0.021626 -0.012401  0.000000      2.000000
 -0.014418  0.000000  0.000000      2.000000
 -0.014418  0.024802  0.000000      2.000000
 -0.007209  0.037202  0.000000      2.000000
  0.000000  0.049603  0.000000      2.000000
  0.007209  0.062004  0.000000      2.000000
  0.014418  0.074405  0.000000      2.000000
 -0.036044 -0.012401  0.000000      2.000000
 -0.028835  0.000000  0.000000      2.000000
 -0.021626  0.012401  0.000000      2.000000
 -0.021626  0.037202  0.000000      2.000000
 -0.014418  0.049603  0.000000      2.000000
 -0.007209  0.062004  0.000000      2.000000
  0.000000  0.074405  0.000000      2.000000
  0.007209  0.086806  0.000000      2.000000
 -0.043253  0.000000  0.000000      2.000000
 -0.036044  0.012401  0.000000      2.000000
 -0.028835  0.024802  0.000000      2.000000
 -0.028835  0.049603  0.000000      1.000000
 -0.021626  0.062004  0.000000      2.000000
 -0.014418  0.074405  0.000000      2.000000
 -0.007209  0.086806  0.000000      2.000000
  0.000000  0.099206  0.000000      1.000000
 


--------------------------------------------------------------------------------------------------------




 Dimension of arrays:
   k-points           NKPTS =     34   k-points in BZ     NKDIM =     34   number of bands    NBANDS=    120
   number of dos      NEDOS =    301   number of ions     NIONS =     27
   non local maximal  LDIM  =      6   non local SUM 2l+1 LMDIM =     18
   total plane-waves  NPLWV = 222264
   max r-space proj   IRMAX =      1   max aug-charges    IRDMAX=   5642
   dimension x,y,z NGX =    42 NGY =   42 NGZ =  126
   dimension x,y,z NGXF=    84 NGYF=   84 NGZF=  252
   support grid    NGXF=    84 NGYF=   84 NGZF=  252
   ions per type =               3   3   3  18
 NGX,Y,Z   is equivalent  to a cutoff of   6.96,  6.96,  6.98 a.u.
 NGXF,Y,Z  is equivalent  to a cutoff of  13.92, 13.92, 13.96 a.u.


 I would recommend the setting:
   dimension x,y,z NGX =    41 NGY =   41 NGZ =  123
 SYSTEM =  unknown system                          
 POSCAR =  crystal structure from VMoWS2 with Hexag

 Startparameter for this run:
   NWRITE =      2    write-flag & timer
   PREC   = normal    normal or accurate (medium, high low for compatibility)
   ISTART =      0    job   : 0-new  1-cont  2-samecut
   ICHARG =      2    charge: 1-file 2-atom 10-const
   ISPIN  =      1    spin polarized calculation?
   LNONCOLLINEAR =      F non collinear calculations
   LSORBIT =      F    spin-orbit coupling
   INIWAV =      1    electr: 0-lowe 1-rand  2-diag
   LASPH  =      F    aspherical Exc in radial PAW
   METAGGA=      F    non-selfconsistent MetaGGA calc.

 Electronic Relaxation 1
   ENCUT  =  280.0 eV  20.58 Ry    4.54 a.u.  13.68 13.68 40.93*2*pi/ulx,y,z
   ENINI  =  280.0     initial cutoff
   ENAUG  =  373.4 eV  augmentation charge cutoff
   NELM   =     60;   NELMIN=  2; NELMDL= -5     # of ELM steps 
   EDIFF  = 0.1E-03   stopping-criterion for ELM
   LREAL  =      F    real-space projection
   NLSPLINE    = F    spline interpolate recip. space projectors
   LCOMPAT=      F    compatible to vasp.4.4
   GGA_COMPAT  = T    GGA compatible to vasp.4.4-vasp.4.6
   LMAXPAW     = -100 max onsite density
   LMAXMIX     =    2 max onsite mixed and CHGCAR
   VOSKOWN=      0    Vosko Wilk Nusair interpolation
   ROPT   =    0.00000   0.00000   0.00000   0.00000
 Ionic relaxation
   EDIFFG = 0.1E-02   stopping-criterion for IOM
   NSW    =    100    number of steps for IOM
   NBLOCK =      1;   KBLOCK =    100    inner block; outer block 
   IBRION =      1    ionic relax: 0-MD 1-quasi-New 2-CG
   NFREE  =      0    steps in history (QN), initial steepest desc. (CG)
   ISIF   =      3    stress and relaxation
   IWAVPR =     11    prediction:  0-non 1-charg 2-wave 3-comb
   ISYM   =      0    0-nonsym 1-usesym 2-fastsym
   LCORR  =      T    Harris-Foulkes like correction to forces

   POTIM  = 0.5000    time-step for ionic-motion
   TEIN   =    0.0    initial temperature
   TEBEG  =    0.0;   TEEND  =   0.0 temperature during run
   SMASS  =  -3.00    Nose mass-parameter (am)
   estimated Nose-frequenzy (Omega)   =  0.10E-29 period in steps =****** mass=  -0.230E-26a.u.
   SCALEE = 1.0000    scale energy and forces
   NPACO  =    256;   APACO  = 16.0  distance and # of slots for P.C.
   PSTRESS=    0.0 pullay stress

  Mass of Ions in am
   POMASS =  50.94 95.94183.85 32.07
  Ionic Valenz
   ZVAL   =   5.00  6.00  6.00  6.00
  Atomic Wigner-Seitz radii
   RWIGS  =  -1.00 -1.00 -1.00 -1.00
  virtual crystal weights 
   VCA    =   1.00  1.00  1.00  1.00
   NELECT =     159.0000    total number of electrons
   NUPDOWN=      -1.0000    fix difference up-down

 DOS related values:
   EMIN   =  10.00;   EMAX   =-10.00  energy-range for DOS
   EFERMI =   0.00
   ISMEAR =     0;   SIGMA  =   0.20  broadening in eV -4-tet -1-fermi 0-gaus

 Electronic relaxation 2 (details)
   IALGO  =     38    algorithm
   LDIAG  =      T    sub-space diagonalisation (order eigenvalues)
   LSUBROT=      F    optimize rotation matrix (better conditioning)
   TURBO    =      0    0=normal 1=particle mesh
   IRESTART =      0    0=no restart 2=restart with 2 vectors
   NREBOOT  =      0    no. of reboots
   NMIN     =      0    reboot dimension
   EREF     =   0.00    reference energy to select bands
   IMIX   =      4    mixing-type and parameters
     AMIX     =   0.40;   BMIX     =  1.00
     AMIX_MAG =   1.60;   BMIX_MAG =  1.00
     AMIN     =   0.10
     WC   =   100.;   INIMIX=   1;  MIXPRE=   1;  MAXMIX= -45

 Intra band minimization:
   WEIMIN = 0.0010     energy-eigenvalue tresh-hold
   EBREAK =  0.21E-06  absolut break condition
   DEPER  =   0.30     relativ break condition  

   TIME   =   0.40     timestep for ELM

  volume/ion in A,a.u.               =      97.10       655.29
  Fermi-wavevector in a.u.,A,eV,Ry     =   0.643191  1.215456  5.628665  0.413695
  Thomas-Fermi vector in A             =   1.710110
 
 Write flags
   LWAVE  =      F    write WAVECAR
   LCHARG =      F    write CHGCAR
   LVTOT  =      F    write LOCPOT, total local potential
   LVHAR  =      F    write LOCPOT, Hartree potential only
   LELF   =      F    write electronic localiz. function (ELF)
   LORBIT =      0    0 simple, 1 ext, 2 COOP (PROOUT)


 Dipole corrections
   LMONO  =      F    monopole corrections only (constant potential shift)
   LDIPOL =      F    correct potential (dipole corrections)
   IDIPOL =      0    1-x, 2-y, 3-z, 4-all directions 
   EPSILON=  1.0000000 bulk dielectric constant

 Exchange correlation treatment:
   GGA     =    --    GGA type
   LEXCH   =     8    internal setting for exchange type
   VOSKOWN=      0    Vosko Wilk Nusair interpolation
   LHFCALC =     F    Hartree Fock is set to
   LHFONE  =     F    Hartree Fock one center treatment
   AEXX    =    0.0000 exact exchange contribution

 Linear response parameters
   LEPSILON=     F    determine dielectric tensor
   LRPA    =     F    only Hartree local field effects (RPA)
   LNABLA  =     F    use nabla operator in PAW spheres
   LVEL    =     F    velocity operator in full k-point grid
   LINTERFAST=   F  fast interpolation
   KINTER  =     0    interpolate to denser k-point grid
   CSHIFT  =0.1000    complex shift for real part using Kramers Kronig
   OMEGAMAX=  -1.0    maximum frequency
   DEG_THRESHOLD= 0.2000000E-02 threshold for treating states as degnerate
   RTIME   =    0.100 relaxation time in fs

 Orbital magnetization related:
   ORBITALMAG=     F  switch on orbital magnetization
   LCHIMAG   =     F  perturbation theory with respect to B field
   DQ        =  0.001000  dq finite difference perturbation B field



--------------------------------------------------------------------------------------------------------


 quasi-Newton-method for relaxation of ions
 charge density and potential will be updated during run
 non-spin polarized calculation
 Variant of blocked Davidson
 Davidson routine will perform the subspace rotation
 perform sub-space diagonalisation
    after iterative eigenvector-optimisation
 modified Broyden-mixing scheme, WC =      100.0
 initial mixing is a Kerker type mixing with AMIX =  0.4000 and BMIX =      1.0000
 Hartree-type preconditioning will be used
 using additional bands           40
 reciprocal scheme for non local part
 use partial core corrections
 calculate Harris-corrections to forces 
   (improved forces if not selfconsistent)
 use gradient corrections 
 use of overlap-Matrix (Vanderbilt PP)
 Gauss-broadening in eV      SIGMA  =   0.20


--------------------------------------------------------------------------------------------------------


  energy-cutoff  :      280.00
  volume of cell :     2621.81
      direct lattice vectors                 reciprocal lattice vectors
     8.669999960  5.039999894  0.000000000     0.057670129  0.099206348  0.000000000
    -8.669999821  5.040000133  0.000000000    -0.057670126  0.099206350  0.000000000
     0.000000000  0.000000000 30.000000000     0.000000000  0.000000000  0.033333333

  length of vectors
    10.028484344 10.028484344 30.000000000     0.114750788  0.114750788  0.033333333


 
 k-points in units of 2pi/SCALE and weight: K-POINTS 	#supercell of CrS2 in hexagona
   0.00000000  0.00000000  0.00000000       0.016
   0.00720877  0.01240079  0.00000000       0.031
   0.01441753  0.02480159  0.00000000       0.031
   0.02162630  0.03720238  0.00000000       0.031
   0.02883506  0.04960317  0.00000000       0.016
  -0.00720877  0.01240079  0.00000000       0.031
   0.00000000  0.02480159  0.00000000       0.031
   0.00720877  0.03720238  0.00000000       0.031
   0.01441753  0.04960317  0.00000000       0.031
   0.02162630  0.06200397  0.00000000       0.031
  -0.02883506 -0.02480159  0.00000000       0.031
  -0.02162630 -0.01240079  0.00000000       0.031
  -0.01441753  0.00000000  0.00000000       0.031
  -0.01441753  0.02480159  0.00000000       0.031
  -0.00720877  0.03720238  0.00000000       0.031
   0.00000000  0.04960317  0.00000000       0.031
   0.00720877  0.06200397  0.00000000       0.031
   0.01441753  0.07440476  0.00000000       0.031
  -0.03604383 -0.01240079  0.00000000       0.031
  -0.02883506  0.00000000  0.00000000       0.031
  -0.02162630  0.01240079  0.00000000       0.031
  -0.02162630  0.03720238  0.00000000       0.031
  -0.01441753  0.04960317  0.00000000       0.031
  -0.00720877  0.06200397  0.00000000       0.031
   0.00000000  0.07440476  0.00000000       0.031
   0.00720877  0.08680556  0.00000000       0.031
  -0.04325260  0.00000000  0.00000000       0.031
  -0.03604383  0.01240079  0.00000000       0.031
  -0.02883506  0.02480159  0.00000000       0.031
  -0.02883506  0.04960317  0.00000000       0.016
  -0.02162630  0.06200397  0.00000000       0.031
  -0.01441753  0.07440476  0.00000000       0.031
  -0.00720876  0.08680556  0.00000000       0.031
   0.00000000  0.09920635  0.00000000       0.016
 
 k-points in reciprocal lattice and weights: K-POINTS 	#supercell of CrS2 in hexagona
   0.00000000  0.00000000  0.00000000       0.016
   0.12500000  0.00000000  0.00000000       0.031
   0.25000000  0.00000000  0.00000000       0.031
   0.37500000  0.00000000  0.00000000       0.031
   0.50000000  0.00000000  0.00000000       0.016
   0.00000000  0.12500000  0.00000000       0.031
   0.12500000  0.12500000  0.00000000       0.031
   0.25000000  0.12500000  0.00000000       0.031
   0.37500000  0.12500000  0.00000000       0.031
   0.50000000  0.12500000  0.00000000       0.031
  -0.37500000  0.12500000  0.00000000       0.031
  -0.25000000  0.12500000  0.00000000       0.031
  -0.12500000  0.12500000  0.00000000       0.031
   0.00000000  0.25000000  0.00000000       0.031
   0.12500000  0.25000000  0.00000000       0.031
   0.25000000  0.25000000  0.00000000       0.031
   0.37500000  0.25000000  0.00000000       0.031
   0.50000000  0.25000000  0.00000000       0.031
  -0.37500000  0.25000000  0.00000000       0.031
  -0.25000000  0.25000000  0.00000000       0.031
  -0.12500000  0.25000000  0.00000000       0.031
  -0.00000000  0.37500000  0.00000000       0.031
   0.12500000  0.37500000  0.00000000       0.031
   0.25000000  0.37500000  0.00000000       0.031
   0.37500000  0.37500000  0.00000000       0.031
   0.50000000  0.37500000  0.00000000       0.031
  -0.37500000  0.37500000  0.00000000       0.031
  -0.25000000  0.37500000  0.00000000       0.031
  -0.12500000  0.37500000  0.00000000       0.031
   0.00000000  0.50000000  0.00000000       0.016
   0.12500000  0.50000000  0.00000000       0.031
   0.25000000  0.50000000  0.00000000       0.031
   0.37500000  0.50000000  0.00000000       0.031
   0.50000000  0.50000000  0.00000000       0.016
 
 position of ions in fractional coordinates (direct lattice) 
   0.33333334  0.00000000  0.00000000
   0.00000000  0.00000000  0.00000000
   0.33333334  0.33333334  0.00000000
   0.66666669  0.66666669  0.00000000
   0.33333334  0.66666669  0.00000000
   0.66666669  0.00000000  0.00000000
   1.00000000  0.33333334  0.00000000
   0.00000000  0.66666669  0.00000000
   0.66666669  0.33333334  0.00000000
   0.11068511  0.22244981  0.95539999
   0.22244981  0.11068511  0.04460000
   0.11068511  0.55578315  0.95539999
   0.22244981  0.44401845  0.04460000
   0.11068511  0.88911647  0.95539999
   0.22244981  0.77735180  0.04460000
   0.44401845  0.22244981  0.95539999
   0.55578315  0.11068511  0.04460000
   0.44401845  0.55578315  0.95539999
   0.55578315  0.44401845  0.04460000
   0.44401845  0.88911647  0.95539999
   0.55578315  0.77735180  0.04460000
   0.77735180  0.22244981  0.95539999
   0.88911647  0.11068511  0.04460000
   0.77735180  0.55578315  0.95539999
   0.88911647  0.44401845  0.04460000
   0.77735180  0.88911647  0.95539999
   0.88911647  0.77735180  0.04460000
 
 position of ions in cartesian coordinates  (Angst):
   2.89000007  1.68000002  0.00000000
   0.00000000  0.00000000  0.00000000
   0.00000005  3.36000011  0.00000000
   0.00000009  6.72000022  0.00000000
  -2.88999998  5.04000020  0.00000000
   5.78000015  3.36000003  0.00000000
   5.77999993  6.71999999  0.00000000
  -5.78000005  3.36000019  0.00000000
   2.89000012  5.04000012  0.00000000
  -0.96899991  1.67900001 28.66199970
   0.96899995  1.67899998  1.33799996
  -3.85899993  3.35900011 28.66199970
  -1.92100007  3.35900008  1.33799996
  -6.74899970  5.03900005 28.66199970
  -4.81100010  5.03900017  1.33799996
   1.92100017  3.35900003 28.66199970
   3.85900003  3.35900000  1.33799996
  -0.96899986  5.03900012 28.66199970
   0.96900000  5.03900009  1.33799996
  -3.85899963  6.71900006 28.66199970
  -1.92100003  6.71900019  1.33799996
   4.81100024  5.03900004 28.66199970
   6.74899984  5.03899987  1.33799996
   1.92100021  6.71900014 28.66199970
   3.85899981  6.71899996  1.33799996
  -0.96899956  8.39900008 28.66199970
   0.96899979  8.39900005  1.33799996
 


--------------------------------------------------------------------------------------------------------


 k-point  1 :   0.0000 0.0000 0.0000  plane waves:   27959
 k-point  2 :   0.1250 0.0000 0.0000  plane waves:   27889
 k-point  3 :   0.2500 0.0000 0.0000  plane waves:   27875
 k-point  4 :   0.3750 0.0000 0.0000  plane waves:   27893
 k-point  5 :   0.5000 0.0000 0.0000  plane waves:   27932
 k-point  6 :   0.0000 0.1250 0.0000  plane waves:   27889
 k-point  7 :   0.1250 0.1250 0.0000  plane waves:   27906
 k-point  8 :   0.2500 0.1250 0.0000  plane waves:   27898
 k-point  9 :   0.3750 0.1250 0.0000  plane waves:   27888
 k-point 10 :   0.5000 0.1250 0.0000  plane waves:   27873
 k-point 11 :  -0.3750 0.1250 0.0000  plane waves:   27874
 k-point 12 :  -0.2500 0.1250 0.0000  plane waves:   27895
 k-point 13 :  -0.1250 0.1250 0.0000  plane waves:   27879
 k-point 14 :   0.0000 0.2500 0.0000  plane waves:   27875
 k-point 15 :   0.1250 0.2500 0.0000  plane waves:   27898
 k-point 16 :   0.2500 0.2500 0.0000  plane waves:   27920
 k-point 17 :   0.3750 0.2500 0.0000  plane waves:   27901
 k-point 18 :   0.5000 0.2500 0.0000  plane waves:   27875
 k-point 19 :  -0.3750 0.2500 0.0000  plane waves:   27894
 k-point 20 :  -0.2500 0.2500 0.0000  plane waves:   27870
 k-point 21 :  -0.1250 0.2500 0.0000  plane waves:   27895
 k-point 22 :  -0.0000 0.3750 0.0000  plane waves:   27893
 k-point 23 :   0.1250 0.3750 0.0000  plane waves:   27888
 k-point 24 :   0.2500 0.3750 0.0000  plane waves:   27901
 k-point 25 :   0.3750 0.3750 0.0000  plane waves:   27860
 k-point 26 :   0.5000 0.3750 0.0000  plane waves:   27895
 k-point 27 :  -0.3750 0.3750 0.0000  plane waves:   27858
 k-point 28 :  -0.2500 0.3750 0.0000  plane waves:   27894
 k-point 29 :  -0.1250 0.3750 0.0000  plane waves:   27874
 k-point 30 :   0.0000 0.5000 0.0000  plane waves:   27932
 k-point 31 :   0.1250 0.5000 0.0000  plane waves:   27873
 k-point 32 :   0.2500 0.5000 0.0000  plane waves:   27875
 k-point 33 :   0.3750 0.5000 0.0000  plane waves:   27895
 k-point 34 :   0.5000 0.5000 0.0000  plane waves:   27910

 maximum and minimum number of plane-waves per node :     27959    27858

 maximum number of plane-waves:     27959
 maximum index in each direction: 
   IXMAX=   14   IYMAX=   13   IZMAX=   40
   IXMIN=  -14   IYMIN=  -14   IZMIN=  -40

 WARNING: aliasing errors must be expected set NGX to  58 to avoid them
 WARNING: aliasing errors must be expected set NGY to  56 to avoid them
 WARNING: aliasing errors must be expected set NGZ to 162 to avoid them
 aliasing errors are usually negligible using standard VASP settings
 and one can safely disregard these warnings

 serial   3D FFT for wavefunctions

 total amount of memory used by VASP on root node   650782. kBytes
========================================================================

   base      :      30000. kBytes
   nonl-proj :     559647. kBytes
   fftplans  :       2414. kBytes
   grid      :      12150. kBytes
   one-center:        419. kBytes
   wavefun   :      46152. kBytes
 
     INWAV:  cpu time    0.0000: real time    0.0000
 Broyden mixing: mesh for mixing (old mesh)
   NGX = 27   NGY = 27   NGZ = 81
  (NGX  = 84   NGY  = 84   NGZ  =252)
  gives a total of  59049 points

 initial charge density was supplied:
 charge density of overlapping atoms calculated
 number of electron     159.0000000 magnetization 
 keeping initial charge density in first step


--------------------------------------------------------------------------------------------------------


 Maximum index for augmentation-charges          146 (set IRDMAX)


--------------------------------------------------------------------------------------------------------


 First call to EWALD:  gamma=   0.129
 Maximum number of real-space cells 4x 4x 2
 Maximum number of reciprocal cells 2x 2x 5

 FEWALD executed in parallel
    FEWALD:  cpu time    0.0016: real time    0.0016


----------------------------------------- Iteration    1(   1)  ---------------------------------------


    POTLOK:  cpu time    0.0389: real time    0.0392
    SETDIJ:  cpu time    0.0034: real time    0.0034
     EDDAV:  cpu time   22.8061: real time   22.8645
       DOS:  cpu time    0.0015: real time    0.0016
    --------------------------------------------
      LOOP:  cpu time   22.8541: real time   22.9155

 eigenvalue-minimisations  :  8160
 total energy-change (2. order) : 0.1126273E+04  (-0.3597974E+04)
 number of electron     159.0000000 magnetization 
 augmentation part      159.0000000 magnetization 

 Free energy of the ion-electron system (eV)
  ---------------------------------------------------
  alpha Z        PSCENC =        81.65567618
  Ewald energy   TEWEN  =     41891.17178796
  -Hartree energ DENC   =    -47723.81766572
  -exchange      EXHF   =         0.00000000
  -V(xc)+E(xc)   XCENC  =      -242.92465012
  PAW double counting   =      3467.42045192    -2871.19716117
  entropy T*S    EENTRO =        -0.53987717
  eigenvalues    EBANDS =      -236.93776870
  atomic energy  EATOM  =      6761.44252427
  Solvation  Ediel_sol  =         0.00000000
  ---------------------------------------------------
  free energy    TOTEN  =      1126.27331746 eV

  energy without entropy =     1126.81319462  energy(sigma->0) =     1126.54325604


--------------------------------------------------------------------------------------------------------




----------------------------------------- Iteration    1(   2)  ---------------------------------------


     EDDAV:  cpu time   29.6586: real time   29.7303
       DOS:  cpu time    0.0011: real time    0.0011
    --------------------------------------------
      LOOP:  cpu time   29.6608: real time   29.7387

 eigenvalue-minimisations  : 11280
 total energy-change (2. order) :-0.1131589E+04  (-0.1092281E+04)
 number of electron     159.0000000 magnetization 
 augmentation part      159.0000000 magnetization 

 Free energy of the ion-electron system (eV)
  ---------------------------------------------------
  alpha Z        PSCENC =        81.65567618
  Ewald energy   TEWEN  =     41891.17178796
  -Hartree energ DENC   =    -47723.81766572
  -exchange      EXHF   =         0.00000000
  -V(xc)+E(xc)   XCENC  =      -242.92465012
  PAW double counting   =      3467.42045192    -2871.19716117
  entropy T*S    EENTRO =        -0.20043035
  eigenvalues    EBANDS =     -1368.86599288
  atomic energy  EATOM  =      6761.44252427
  Solvation  Ediel_sol  =         0.00000000
  ---------------------------------------------------
  free energy    TOTEN  =        -5.31545991 eV

  energy without entropy =       -5.11502956  energy(sigma->0) =       -5.21524473


--------------------------------------------------------------------------------------------------------




----------------------------------------- Iteration    1(   3)  ---------------------------------------


     EDDAV:  cpu time   28.6501: real time   28.7188
       DOS:  cpu time    0.0009: real time    0.0009
    --------------------------------------------
      LOOP:  cpu time   28.6519: real time   28.7270

 eigenvalue-minimisations  : 10840
 total energy-change (2. order) :-0.1945636E+03  (-0.1870314E+03)
 number of electron     159.0000000 magnetization 
 augmentation part      159.0000000 magnetization 

 Free energy of the ion-electron system (eV)
  ---------------------------------------------------
  alpha Z        PSCENC =        81.65567618
  Ewald energy   TEWEN  =     41891.17178796
  -Hartree energ DENC   =    -47723.81766572
  -exchange      EXHF   =         0.00000000
  -V(xc)+E(xc)   XCENC  =      -242.92465012
  PAW double counting   =      3467.42045192    -2871.19716117
  entropy T*S    EENTRO =        -0.25472527
  eigenvalues    EBANDS =     -1563.37525366
  atomic energy  EATOM  =      6761.44252427
  Solvation  Ediel_sol  =         0.00000000
  ---------------------------------------------------
  free energy    TOTEN  =      -199.87901561 eV

  energy without entropy =     -199.62429034  energy(sigma->0) =     -199.75165298


--------------------------------------------------------------------------------------------------------




----------------------------------------- Iteration    1(   4)  ---------------------------------------


     EDDAV:  cpu time   31.9263: real time   32.0034
       DOS:  cpu time    0.0010: real time    0.0010
    --------------------------------------------
      LOOP:  cpu time   31.9284: real time   32.0110

 eigenvalue-minimisations  : 12360
 total energy-change (2. order) :-0.9112930E+01  (-0.8823784E+01)
 number of electron     159.0000000 magnetization 
 augmentation part      159.0000000 magnetization 

 Free energy of the ion-electron system (eV)
  ---------------------------------------------------
  alpha Z        PSCENC =        81.65567618
  Ewald energy   TEWEN  =     41891.17178796
  -Hartree energ DENC   =    -47723.81766572
  -exchange      EXHF   =         0.00000000
  -V(xc)+E(xc)   XCENC  =      -242.92465012
  PAW double counting   =      3467.42045192    -2871.19716117
  entropy T*S    EENTRO =        -0.28798836
  eigenvalues    EBANDS =     -1572.45492035
  atomic energy  EATOM  =      6761.44252427
  Solvation  Ediel_sol  =         0.00000000
  ---------------------------------------------------
  free energy    TOTEN  =      -208.99194539 eV

  energy without entropy =     -208.70395703  energy(sigma->0) =     -208.84795121


--------------------------------------------------------------------------------------------------------




----------------------------------------- Iteration    1(   5)  ---------------------------------------


     EDDAV:  cpu time   30.4200: real time   30.4936
       DOS:  cpu time    0.0010: real time    0.0010
    CHARGE:  cpu time    0.4627: real time    0.4639
    MIXING:  cpu time    0.0021: real time    0.0023
    --------------------------------------------
      LOOP:  cpu time   30.8870: real time   30.9679

 eigenvalue-minimisations  : 11680
 total energy-change (2. order) :-0.3071329E+00  (-0.3060782E+00)
 number of electron     159.0000110 magnetization 
 augmentation part       -9.8148269 magnetization 

 Broyden mixing:
  rms(total) = 0.27499E+01    rms(broyden)= 0.27494E+01
  rms(prec ) = 0.29350E+01
  weight for this iteration     100.00

 Free energy of the ion-electron system (eV)
  ---------------------------------------------------
  alpha Z        PSCENC =        81.65567618
  Ewald energy   TEWEN  =     41891.17178796
  -Hartree energ DENC   =    -47723.81766572
  -exchange      EXHF   =         0.00000000
  -V(xc)+E(xc)   XCENC  =      -242.92465012
  PAW double counting   =      3467.42045192    -2871.19716117
  entropy T*S    EENTRO =        -0.28471457
  eigenvalues    EBANDS =     -1572.76532704
  atomic energy  EATOM  =      6761.44252427
  Solvation  Ediel_sol  =         0.00000000
  ---------------------------------------------------
  free energy    TOTEN  =      -209.29907828 eV

  energy without entropy =     -209.01436372  energy(sigma->0) =     -209.15672100


--------------------------------------------------------------------------------------------------------




----------------------------------------- Iteration    1(   6)  ---------------------------------------


    POTLOK:  cpu time    0.0366: real time    0.0370
    SETDIJ:  cpu time    0.0028: real time    0.0028
     EDDAV:  cpu time   32.3153: real time   32.3932
       DOS:  cpu time    0.0002: real time    0.0011
    CHARGE:  cpu time    0.4603: real time    0.4614
    MIXING:  cpu time    0.0018: real time    0.0024
    --------------------------------------------
      LOOP:  cpu time   32.8191: real time   32.9075

 eigenvalue-minimisations  : 12600
 total energy-change (2. order) :-0.2830281E+02  (-0.1053074E+02)
 number of electron     159.0000106 magnetization 
 augmentation part        7.0825845 magnetization 

 Broyden mixing:
  rms(total) = 0.59360E+01    rms(broyden)= 0.59353E+01
  rms(prec ) = 0.65449E+01
  weight for this iteration     100.00

 eigenvalues of (default mixing * dielectric matrix)
  average eigenvalue GAMMA=   0.2942
  0.2942

 Free energy of the ion-electron system (eV)
  ---------------------------------------------------
  alpha Z        PSCENC =        81.65567618
  Ewald energy   TEWEN  =     41891.17178796
  -Hartree energ DENC   =    -47702.09139859
  -exchange      EXHF   =         0.00000000
  -V(xc)+E(xc)   XCENC  =      -233.62042325
  PAW double counting   =      3676.13630007    -3082.21716656
  entropy T*S    EENTRO =        -0.25135055
  eigenvalues    EBANDS =     -1629.82783979
  atomic energy  EATOM  =      6761.44252427
  Solvation  Ediel_sol  =         0.00000000
  ---------------------------------------------------
  free energy    TOTEN  =      -237.60189026 eV

  energy without entropy =     -237.35053971  energy(sigma->0) =     -237.47621498


--------------------------------------------------------------------------------------------------------




----------------------------------------- Iteration    1(   7)  ---------------------------------------


    POTLOK:  cpu time    0.0328: real time    0.0328
    SETDIJ:  cpu time    0.0027: real time    0.0027
     EDDAV:  cpu time   33.6004: real time   33.6814
       DOS:  cpu time    0.0010: real time    0.0010
    CHARGE:  cpu time    0.4673: real time    0.4685
    MIXING:  cpu time    0.0013: real time    0.0013
    --------------------------------------------
      LOOP:  cpu time   34.1064: real time   34.1965

 eigenvalue-minimisations  : 13160
 total energy-change (2. order) : 0.4096937E+02  (-0.1759330E+02)
 number of electron     159.0000090 magnetization 
 augmentation part       -6.2609131 magnetization 

 Broyden mixing:
  rms(total) = 0.20018E+01    rms(broyden)= 0.19998E+01
  rms(prec ) = 0.22233E+01
  weight for this iteration     100.00

 eigenvalues of (default mixing * dielectric matrix)
  average eigenvalue GAMMA=   0.5513
  0.8912  0.2114

 Free energy of the ion-electron system (eV)
  ---------------------------------------------------
  alpha Z        PSCENC =        81.65567618
  Ewald energy   TEWEN  =     41891.17178796
  -Hartree energ DENC   =    -47739.17221680
  -exchange      EXHF   =         0.00000000
  -V(xc)+E(xc)   XCENC  =      -234.99393418
  PAW double counting   =      3763.62986402    -3177.65836835
  entropy T*S    EENTRO =        -0.37054335
  eigenvalues    EBANDS =     -1542.33730666
  atomic energy  EATOM  =      6761.44252427
  Solvation  Ediel_sol  =         0.00000000
  ---------------------------------------------------
  free energy    TOTEN  =      -196.63251692 eV

  energy without entropy =     -196.26197357  energy(sigma->0) =     -196.44724524


--------------------------------------------------------------------------------------------------------




----------------------------------------- Iteration    1(   8)  ---------------------------------------


    POTLOK:  cpu time    0.0323: real time    0.0324
    SETDIJ:  cpu time    0.0036: real time    0.0036
     EDDAV:  cpu time   31.0844: real time   31.1593
       DOS:  cpu time    0.0012: real time    0.0012
    CHARGE:  cpu time    0.4843: real time    0.4855
    MIXING:  cpu time    0.0014: real time    0.0018
    --------------------------------------------
      LOOP:  cpu time   31.6081: real time   31.6925

 eigenvalue-minimisations  : 12000
 total energy-change (2. order) : 0.7145770E+01  (-0.1827290E+01)
 number of electron     159.0000095 magnetization 
 augmentation part       -6.3741957 magnetization 

 Broyden mixing:
  rms(total) = 0.12502E+01    rms(broyden)= 0.12499E+01
  rms(prec ) = 0.13506E+01
  weight for this iteration     100.00

 eigenvalues of (default mixing * dielectric matrix)
  average eigenvalue GAMMA=   0.5969
  1.1547  0.2307  0.4053

 Free energy of the ion-electron system (eV)
  ---------------------------------------------------
  alpha Z        PSCENC =        81.65567618
  Ewald energy   TEWEN  =     41891.17178796
  -Hartree energ DENC   =    -47762.22133790
  -exchange      EXHF   =         0.00000000
  -V(xc)+E(xc)   XCENC  =      -235.00669605
  PAW double counting   =      3906.57662015    -3322.23462327
  entropy T*S    EENTRO =        -0.32301947
  eigenvalues    EBANDS =     -1510.54767884
  atomic energy  EATOM  =      6761.44252427
  Solvation  Ediel_sol  =         0.00000000
  ---------------------------------------------------
  free energy    TOTEN  =      -189.48674698 eV

  energy without entropy =     -189.16372751  energy(sigma->0) =     -189.32523724


--------------------------------------------------------------------------------------------------------




----------------------------------------- Iteration    1(   9)  ---------------------------------------


    POTLOK:  cpu time    0.0321: real time    0.0324
    SETDIJ:  cpu time    0.0026: real time    0.0026
     EDDAV:  cpu time   34.4312: real time   34.5142
       DOS:  cpu time    0.0010: real time    0.0010
    CHARGE:  cpu time    0.4866: real time    0.4878
    MIXING:  cpu time    0.0013: real time    0.0013
    --------------------------------------------
      LOOP:  cpu time   34.9560: real time   35.0484

 eigenvalue-minimisations  : 13520
 total energy-change (2. order) : 0.1418524E+01  (-0.3112833E+00)
 number of electron     159.0000090 magnetization 
 augmentation part       -5.5198556 magnetization 

 Broyden mixing:
  rms(total) = 0.89066E+00    rms(broyden)= 0.89048E+00
  rms(prec ) = 0.96524E+00
  weight for this iteration     100.00

 eigenvalues of (default mixing * dielectric matrix)
  average eigenvalue GAMMA=   0.7570
  1.8465  0.6326  0.2211  0.3277

 Free energy of the ion-electron system (eV)
  ---------------------------------------------------
  alpha Z        PSCENC =        81.65567618
  Ewald energy   TEWEN  =     41891.17178796
  -Hartree energ DENC   =    -47767.27940249
  -exchange      EXHF   =         0.00000000
  -V(xc)+E(xc)   XCENC  =      -234.06723666
  PAW double counting   =      3980.89800739    -3397.48824302
  entropy T*S    EENTRO =        -0.31824679
  eigenvalues    EBANDS =     -1504.08308981
  atomic energy  EATOM  =      6761.44252427
  Solvation  Ediel_sol  =         0.00000000
  ---------------------------------------------------
  free energy    TOTEN  =      -188.06822298 eV

  energy without entropy =     -187.74997619  energy(sigma->0) =     -187.90909959


--------------------------------------------------------------------------------------------------------




----------------------------------------- Iteration    1(  10)  ---------------------------------------


    POTLOK:  cpu time    0.0333: real time    0.0337
    SETDIJ:  cpu time    0.0027: real time    0.0027
     EDDAV:  cpu time   34.2324: real time   34.3150
       DOS:  cpu time    0.0011: real time    0.0011
    CHARGE:  cpu time    0.5658: real time    0.5671
    MIXING:  cpu time    0.0014: real time    0.0014
    --------------------------------------------
      LOOP:  cpu time   34.8380: real time   34.9300

 eigenvalue-minimisations  : 13440
 total energy-change (2. order) : 0.1146701E+01  (-0.1590587E+00)
 number of electron     159.0000092 magnetization 
 augmentation part       -4.2163231 magnetization 

 Broyden mixing:
  rms(total) = 0.19597E+00    rms(broyden)= 0.19530E+00
  rms(prec ) = 0.20647E+00
  weight for this iteration     100.00

 eigenvalues of (default mixing * dielectric matrix)
  average eigenvalue GAMMA=   0.9472
  1.7812  1.7812  0.6467  0.2213  0.3057

 Free energy of the ion-electron system (eV)
  ---------------------------------------------------
  alpha Z        PSCENC =        81.65567618
  Ewald energy   TEWEN  =     41891.17178796
  -Hartree energ DENC   =    -47780.69207309
  -exchange      EXHF   =         0.00000000
  -V(xc)+E(xc)   XCENC  =      -232.54346093
  PAW double counting   =      4109.23895338    -3527.41006802
  entropy T*S    EENTRO =        -0.35186706
  eigenvalues    EBANDS =     -1489.43299478
  atomic energy  EATOM  =      6761.44252427
  Solvation  Ediel_sol  =         0.00000000
  ---------------------------------------------------
  free energy    TOTEN  =      -186.92152208 eV

  energy without entropy =     -186.56965502  energy(sigma->0) =     -186.74558855


--------------------------------------------------------------------------------------------------------




----------------------------------------- Iteration    1(  11)  ---------------------------------------


    POTLOK:  cpu time    0.0338: real time    0.0339
    SETDIJ:  cpu time    0.0026: real time    0.0026
     EDDAV:  cpu time   34.6044: real time   34.6877
       DOS:  cpu time    0.0002: real time    0.0011
    CHARGE:  cpu time    0.5570: real time    0.5583
    MIXING:  cpu time    0.0015: real time    0.0015
    --------------------------------------------
      LOOP:  cpu time   35.2014: real time   35.2955

 eigenvalue-minimisations  : 13600
 total energy-change (2. order) :-0.1192666E-01  (-0.4247358E-01)
 number of electron     159.0000087 magnetization 
 augmentation part       -4.6186640 magnetization 

 Broyden mixing:
  rms(total) = 0.29999E+00    rms(broyden)= 0.29991E+00
  rms(prec ) = 0.33370E+00
  weight for this iteration     100.00

 eigenvalues of (default mixing * dielectric matrix)
  average eigenvalue GAMMA=   0.9608
  2.1916  1.7353  0.6544  0.6544  0.2209  0.3084

 Free energy of the ion-electron system (eV)
  ---------------------------------------------------
  alpha Z        PSCENC =        81.65567618
  Ewald energy   TEWEN  =     41891.17178796
  -Hartree energ DENC   =    -47795.15806696
  -exchange      EXHF   =         0.00000000
  -V(xc)+E(xc)   XCENC  =      -232.08646351
  PAW double counting   =      4173.90705059    -3592.19206095
  entropy T*S    EENTRO =        -0.32583891
  eigenvalues    EBANDS =     -1475.34805741
  atomic energy  EATOM  =      6761.44252427
  Solvation  Ediel_sol  =         0.00000000
  ---------------------------------------------------
  free energy    TOTEN  =      -186.93344875 eV

  energy without entropy =     -186.60760983  energy(sigma->0) =     -186.77052929


--------------------------------------------------------------------------------------------------------




----------------------------------------- Iteration    1(  12)  ---------------------------------------


    POTLOK:  cpu time    0.0329: real time    0.0333
    SETDIJ:  cpu time    0.0027: real time    0.0027
     EDDAV:  cpu time   34.5869: real time   34.6703
       DOS:  cpu time    0.0011: real time    0.0011
    CHARGE:  cpu time    0.5747: real time    0.5761
    MIXING:  cpu time    0.0015: real time    0.0015
    --------------------------------------------
      LOOP:  cpu time   35.2010: real time   35.2941

 eigenvalue-minimisations  : 13600
 total energy-change (2. order) : 0.7715431E-01  (-0.2555672E-01)
 number of electron     159.0000088 magnetization 
 augmentation part       -4.1870324 magnetization 

 Broyden mixing:
  rms(total) = 0.13288E+00    rms(broyden)= 0.13258E+00
  rms(prec ) = 0.15103E+00
  weight for this iteration     100.00

 eigenvalues of (default mixing * dielectric matrix)
  average eigenvalue GAMMA=   0.8837
  2.2469  1.7258  0.7734  0.6585  0.3080  0.2208  0.2527

 Free energy of the ion-electron system (eV)
  ---------------------------------------------------
  alpha Z        PSCENC =        81.65567618
  Ewald energy   TEWEN  =     41891.17178796
  -Hartree energ DENC   =    -47801.21593556
  -exchange      EXHF   =         0.00000000
  -V(xc)+E(xc)   XCENC  =      -231.92177350
  PAW double counting   =      4189.53608205    -3607.73605774
  entropy T*S    EENTRO =        -0.33984891
  eigenvalues    EBANDS =     -1469.44874918
  atomic energy  EATOM  =      6761.44252427
  Solvation  Ediel_sol  =         0.00000000
  ---------------------------------------------------
  free energy    TOTEN  =      -186.85629443 eV

  energy without entropy =     -186.51644553  energy(sigma->0) =     -186.68636998


--------------------------------------------------------------------------------------------------------




----------------------------------------- Iteration    1(  13)  ---------------------------------------


    POTLOK:  cpu time    0.0321: real time    0.0325
    SETDIJ:  cpu time    0.0026: real time    0.0026
     EDDAV:  cpu time   31.6374: real time   31.7137
       DOS:  cpu time    0.0010: real time    0.0010
    CHARGE:  cpu time    0.5733: real time    0.5747
    MIXING:  cpu time    0.0016: real time    0.0016
    --------------------------------------------
      LOOP:  cpu time   32.2493: real time   32.3348

 eigenvalue-minimisations  : 12240
 total energy-change (2. order) : 0.2483900E-01  (-0.7412270E-02)
 number of electron     159.0000089 magnetization 
 augmentation part       -4.1024168 magnetization 

 Broyden mixing:
  rms(total) = 0.93653E-01    rms(broyden)= 0.93537E-01
  rms(prec ) = 0.10436E+00
  weight for this iteration     100.00

 eigenvalues of (default mixing * dielectric matrix)
  average eigenvalue GAMMA=   0.8109
  2.2461  1.7503  0.8226  0.6431  0.2208  0.3103  0.3103  0.1834

 Free energy of the ion-electron system (eV)
  ---------------------------------------------------
  alpha Z        PSCENC =        81.65567618
  Ewald energy   TEWEN  =     41891.17178796
  -Hartree energ DENC   =    -47803.55989311
  -exchange      EXHF   =         0.00000000
  -V(xc)+E(xc)   XCENC  =      -231.87756230
  PAW double counting   =      4191.81170329    -3609.96762662
  entropy T*S    EENTRO =        -0.34277159
  eigenvalues    EBANDS =     -1467.16529352
  atomic energy  EATOM  =      6761.44252427
  Solvation  Ediel_sol  =         0.00000000
  ---------------------------------------------------
  free energy    TOTEN  =      -186.83145544 eV

  energy without entropy =     -186.48868384  energy(sigma->0) =     -186.66006964


--------------------------------------------------------------------------------------------------------




----------------------------------------- Iteration    1(  14)  ---------------------------------------


    POTLOK:  cpu time    0.0317: real time    0.0331
    SETDIJ:  cpu time    0.0028: real time    0.0028
     EDDAV:  cpu time   34.4748: real time   34.5579
       DOS:  cpu time    0.0011: real time    0.0011
    CHARGE:  cpu time    0.5761: real time    0.5775
    MIXING:  cpu time    0.0016: real time    0.0016
    --------------------------------------------
      LOOP:  cpu time   35.0903: real time   35.1830

 eigenvalue-minimisations  : 13560
 total energy-change (2. order) : 0.2385200E-02  (-0.2214447E-02)
 number of electron     159.0000089 magnetization 
 augmentation part       -4.1266644 magnetization 

 Broyden mixing:
  rms(total) = 0.75360E-01    rms(broyden)= 0.75327E-01
  rms(prec ) = 0.84321E-01
  weight for this iteration     100.00

 eigenvalues of (default mixing * dielectric matrix)
  average eigenvalue GAMMA=   0.8314
  2.2105  1.9553  1.1194  0.6464  0.6464  0.3080  0.2209  0.2543  0.1210

 Free energy of the ion-electron system (eV)
  ---------------------------------------------------
  alpha Z        PSCENC =        81.65567618
  Ewald energy   TEWEN  =     41891.17178796
  -Hartree energ DENC   =    -47804.88240373
  -exchange      EXHF   =         0.00000000
  -V(xc)+E(xc)   XCENC  =      -231.86003303
  PAW double counting   =      4192.23349240    -3610.37014652
  entropy T*S    EENTRO =        -0.34219798
  eigenvalues    EBANDS =     -1465.87776979
  atomic energy  EATOM  =      6761.44252427
  Solvation  Ediel_sol  =         0.00000000
  ---------------------------------------------------
  free energy    TOTEN  =      -186.82907024 eV

  energy without entropy =     -186.48687225  energy(sigma->0) =     -186.65797124


--------------------------------------------------------------------------------------------------------




----------------------------------------- Iteration    1(  15)  ---------------------------------------


    POTLOK:  cpu time    0.0318: real time    0.0322
    SETDIJ:  cpu time    0.0025: real time    0.0025
     EDDAV:  cpu time   33.8653: real time   33.9463
       DOS:  cpu time    0.0011: real time    0.0011
    CHARGE:  cpu time    0.5751: real time    0.5765
    MIXING:  cpu time    0.0017: real time    0.0017
    --------------------------------------------
      LOOP:  cpu time   34.4788: real time   34.5692

 eigenvalue-minimisations  : 13280
 total energy-change (2. order) : 0.5799421E-02  (-0.1180816E-02)
 number of electron     159.0000089 magnetization 
 augmentation part       -4.2097804 magnetization 

 Broyden mixing:
  rms(total) = 0.16905E-01    rms(broyden)= 0.16816E-01
  rms(prec ) = 0.20611E-01
  weight for this iteration     100.00

 eigenvalues of (default mixing * dielectric matrix)
  average eigenvalue GAMMA=   0.8962
  2.2767  2.2767  1.3643  0.9001  0.6227  0.6227  0.3083  0.2209  0.2503  0.1193

 Free energy of the ion-electron system (eV)
  ---------------------------------------------------
  alpha Z        PSCENC =        81.65567618
  Ewald energy   TEWEN  =     41891.17178796
  -Hartree energ DENC   =    -47809.18606572
  -exchange      EXHF   =         0.00000000
  -V(xc)+E(xc)   XCENC  =      -231.80406475
  PAW double counting   =      4193.33601375    -3611.41621209
  entropy T*S    EENTRO =        -0.33971173
  eigenvalues    EBANDS =     -1461.68321869
  atomic energy  EATOM  =      6761.44252427
  Solvation  Ediel_sol  =         0.00000000
  ---------------------------------------------------
  free energy    TOTEN  =      -186.82327081 eV

  energy without entropy =     -186.48355908  energy(sigma->0) =     -186.65341495


--------------------------------------------------------------------------------------------------------




----------------------------------------- Iteration    1(  16)  ---------------------------------------


    POTLOK:  cpu time    0.0327: real time    0.0328
    SETDIJ:  cpu time    0.0026: real time    0.0026
     EDDAV:  cpu time   30.5268: real time   30.6005
       DOS:  cpu time    0.0011: real time    0.0011
    CHARGE:  cpu time    0.5756: real time    0.5770
    MIXING:  cpu time    0.0018: real time    0.0018
    --------------------------------------------
      LOOP:  cpu time   31.1415: real time   31.2249

 eigenvalue-minimisations  : 11760
 total energy-change (2. order) : 0.3103447E-03  (-0.2789179E-03)
 number of electron     159.0000089 magnetization 
 augmentation part       -4.2062878 magnetization 

 Broyden mixing:
  rms(total) = 0.16090E-01    rms(broyden)= 0.16075E-01
  rms(prec ) = 0.19605E-01
  weight for this iteration     100.00

 eigenvalues of (default mixing * dielectric matrix)
  average eigenvalue GAMMA=   0.8791
  2.3359  2.3359  1.4090  1.0377  0.6396  0.6396  0.3743  0.3081  0.2209  0.2495
  0.1193

 Free energy of the ion-electron system (eV)
  ---------------------------------------------------
  alpha Z        PSCENC =        81.65567618
  Ewald energy   TEWEN  =     41891.17178796
  -Hartree energ DENC   =    -47814.30390311
  -exchange      EXHF   =         0.00000000
  -V(xc)+E(xc)   XCENC  =      -231.73998830
  PAW double counting   =      4194.40421128    -3612.43615481
  entropy T*S    EENTRO =        -0.33972242
  eigenvalues    EBANDS =     -1456.67739153
  atomic energy  EATOM  =      6761.44252427
  Solvation  Ediel_sol  =         0.00000000
  ---------------------------------------------------
  free energy    TOTEN  =      -186.82296047 eV

  energy without entropy =     -186.48323805  energy(sigma->0) =     -186.65309926


--------------------------------------------------------------------------------------------------------




----------------------------------------- Iteration    1(  17)  ---------------------------------------


    POTLOK:  cpu time    0.0332: real time    0.0335
    SETDIJ:  cpu time    0.0026: real time    0.0026
     EDDAV:  cpu time   31.5483: real time   31.6246
       DOS:  cpu time    0.0011: real time    0.0011
    CHARGE:  cpu time    0.5767: real time    0.5781
    MIXING:  cpu time    0.0019: real time    0.0019
    --------------------------------------------
      LOOP:  cpu time   32.1651: real time   32.2528

 eigenvalue-minimisations  : 12200
 total energy-change (2. order) : 0.4160639E-03  (-0.1513087E-03)
 number of electron     159.0000089 magnetization 
 augmentation part       -4.1911584 magnetization 

 Broyden mixing:
  rms(total) = 0.15087E-01    rms(broyden)= 0.15076E-01
  rms(prec ) = 0.17751E-01
  weight for this iteration     100.00

 eigenvalues of (default mixing * dielectric matrix)
  average eigenvalue GAMMA=   0.8302
  2.3510  2.3510  1.4160  1.0663  0.6449  0.6449  0.4194  0.3081  0.2209  0.2497
  0.1193  0.1708

 Free energy of the ion-electron system (eV)
  ---------------------------------------------------
  alpha Z        PSCENC =        81.65567618
  Ewald energy   TEWEN  =     41891.17178796
  -Hartree energ DENC   =    -47816.79235848
  -exchange      EXHF   =         0.00000000
  -V(xc)+E(xc)   XCENC  =      -231.71443509
  PAW double counting   =      4194.44327587    -3612.46015682
  entropy T*S    EENTRO =        -0.34012060
  eigenvalues    EBANDS =     -1454.22873770
  atomic energy  EATOM  =      6761.44252427
  Solvation  Ediel_sol  =         0.00000000
  ---------------------------------------------------
  free energy    TOTEN  =      -186.82254441 eV

  energy without entropy =     -186.48242380  energy(sigma->0) =     -186.65248410


--------------------------------------------------------------------------------------------------------




----------------------------------------- Iteration    1(  18)  ---------------------------------------


    POTLOK:  cpu time    0.0335: real time    0.0335
    SETDIJ:  cpu time    0.0026: real time    0.0027
     EDDAV:  cpu time   27.7872: real time   27.8536
       DOS:  cpu time    0.0010: real time    0.0010
    --------------------------------------------
      LOOP:  cpu time   27.8252: real time   27.8999

 eigenvalue-minimisations  : 10400
 total energy-change (2. order) : 0.2190011E-04  (-0.9606239E-04)
 number of electron     159.0000089 magnetization 
 augmentation part       -4.1911584 magnetization 

 Free energy of the ion-electron system (eV)
  ---------------------------------------------------
  alpha Z        PSCENC =        81.65567618
  Ewald energy   TEWEN  =     41891.17178796
  -Hartree energ DENC   =    -47817.67995685
  -exchange      EXHF   =         0.00000000
  -V(xc)+E(xc)   XCENC  =      -231.70685507
  PAW double counting   =      4194.32659547    -3612.33989915
  entropy T*S    EENTRO =        -0.34010039
  eigenvalues    EBANDS =     -1453.35229492
  atomic energy  EATOM  =      6761.44252427
  Solvation  Ediel_sol  =         0.00000000
  ---------------------------------------------------
  free energy    TOTEN  =      -186.82252251 eV

  energy without entropy =     -186.48242212  energy(sigma->0) =     -186.65247231


--------------------------------------------------------------------------------------------------------




 average (electrostatic) potential at core
  the test charge radii are     1.2064  1.2296  1.1823  0.9698
  (the norm of the test charge is              1.0000)
       1 -50.0928       2 -50.1047       3 -50.0944       4 -47.5640       5 -47.5665
       6 -47.5694       7 -49.9901       8 -49.9941       9 -49.9944      10 -95.1242
      11 -94.9261      12 -95.4683      13 -95.2486      14 -95.1200      15 -95.2535
      16 -95.1183      17 -95.2526      18 -95.1662      19 -95.2531      20 -95.1626
      21 -95.3256      22 -95.4685      23 -95.2490      24 -95.4665      25 -95.4968
      26 -95.1682      27 -95.2547
 
 
 
 E-fermi :  -3.4264     XC(G=0):  -2.4982     alpha+bet : -2.1596


 k-point     1 :       0.0000    0.0000    0.0000
  band No.  band energies     occupation 
      1     -18.3538      2.00000
      2     -17.2286      2.00000
      3     -17.2088      2.00000
      4     -17.1667      2.00000
      5     -16.9484      2.00000
      6     -16.8572      2.00000
      7     -16.8434      2.00000
      8     -16.6255      2.00000
      9     -16.5370      2.00000
     10     -16.5338      2.00000
     11     -16.3739      2.00000
     12     -16.3197      2.00000
     13     -16.3006      2.00000
     14     -16.3001      2.00000
     15     -16.2441      2.00000
     16     -16.0542      2.00000
     17     -16.0518      2.00000
     18     -15.8258      2.00000
     19      -9.6289      2.00000
     20      -9.6198      2.00000
     21      -9.5789      2.00000
     22      -9.5193      2.00000
     23      -9.2356      2.00000
     24      -9.2214      2.00000
     25      -9.1597      2.00000
     26      -8.9598      2.00000
     27      -8.8324      2.00000
     28      -8.8270      2.00000
     29      -8.7570      2.00000
     30      -8.7542      2.00000
     31      -8.7124      2.00000
     32      -8.4391      2.00000
     33      -8.4380      2.00000
     34      -8.3820      2.00000
     35      -8.3513      2.00000
     36      -8.3508      2.00000
     37      -8.2197      2.00000
     38      -8.1784      2.00000
     39      -8.1698      2.00000
     40      -8.0277      2.00000
     41      -7.9922      2.00000
     42      -7.9801      2.00000
     43      -7.9174      2.00000
     44      -7.7045      2.00000
     45      -7.6920      2.00000
     46      -7.4440      2.00000
     47      -7.4275      2.00000
     48      -7.4184      2.00000
     49      -7.3263      2.00000
     50      -7.1242      2.00000
     51      -7.1135      2.00000
     52      -6.7028      2.00000
     53      -6.6458      2.00000
     54      -6.6332      2.00000
     55      -6.6026      2.00000
     56      -6.6019      2.00000
     57      -6.5646      2.00000
     58      -5.8851      2.00000
     59      -5.7609      2.00000
     60      -5.7345      2.00000
     61      -5.7066      2.00000
     62      -5.6920      2.00000
     63      -5.5529      2.00000
     64      -5.5480      2.00000
     65      -5.4185      2.00000
     66      -5.4175      2.00000
     67      -5.3776      2.00000
     68      -5.3647      2.00000
     69      -5.3635      2.00000
     70      -5.2201      2.00000
     71      -4.4290      2.00000
     72      -4.4173      2.00000
     73      -4.2385      2.00000
     74      -4.1741      2.00000
     75      -4.1625      2.00000
     76      -4.0801      2.00000
     77      -3.9870      1.99993
     78      -3.9829      1.99992
     79      -3.9783      1.99990
     80      -3.9482      1.99978
     81      -3.3383      0.53345
     82      -3.3346      0.51599
     83      -2.9024      0.00021
     84      -2.8047      0.00001
     85      -2.7444      0.00000
     86      -2.7411      0.00000
     87      -2.6639      0.00000
     88      -2.6597      0.00000
     89      -2.6299      0.00000
     90      -2.4701      0.00000
     91      -2.3423      0.00000
     92      -2.3395      0.00000
     93      -2.2454      0.00000
     94      -2.2434      0.00000
     95      -2.2274      0.00000
     96      -2.1876      0.00000
     97      -1.9513      0.00000
     98      -1.9156      0.00000
     99      -1.9053      0.00000
    100      -0.7592      0.00000
    101      -0.7415      0.00000
    102      -0.7175      0.00000
    103      -0.6681      0.00000
    104      -0.4438      0.00000
    105      -0.4032      0.00000
    106       0.1578      0.00000
    107       0.3034      0.00000
    108       0.3172      0.00000
    109       0.4642      0.00000
    110       0.5088      0.00000
    111       0.5575      0.00000
    112       0.8125      0.00000
    113       0.8503      0.00000
    114       0.8795      0.00000
    115       0.9400      0.00000
    116       0.9667      0.00000
    117       1.0062      0.00000
    118       1.2813      0.00000
    119       1.3552      0.00000
    120       1.9163      0.00000

 k-point     2 :       0.1250    0.0000    0.0000
  band No.  band energies     occupation 
      1     -18.3334      2.00000
      2     -17.3468      2.00000
      3     -17.2264      2.00000
      4     -17.1107      2.00000
      5     -16.9430      2.00000
      6     -16.8643      2.00000
      7     -16.8249      2.00000
      8     -16.6123      2.00000
      9     -16.5312      2.00000
     10     -16.5008      2.00000
     11     -16.3833      2.00000
     12     -16.3131      2.00000
     13     -16.3067      2.00000
     14     -16.2732      2.00000
     15     -16.2443      2.00000
     16     -16.0618      2.00000
     17     -16.0569      2.00000
     18     -15.8310      2.00000
     19      -9.7720      2.00000
     20      -9.6652      2.00000
     21      -9.6100      2.00000
     22      -9.4708      2.00000
     23      -9.2398      2.00000
     24      -9.2002      2.00000
     25      -9.1398      2.00000
     26      -9.0542      2.00000
     27      -8.9115      2.00000
     28      -8.8562      2.00000
     29      -8.7897      2.00000
     30      -8.6306      2.00000
     31      -8.5512      2.00000
     32      -8.4882      2.00000
     33      -8.4518      2.00000
     34      -8.3415      2.00000
     35      -8.2996      2.00000
     36      -8.2867      2.00000
     37      -8.2460      2.00000
     38      -8.1630      2.00000
     39      -8.1476      2.00000
     40      -8.0354      2.00000
     41      -7.9551      2.00000
     42      -7.9371      2.00000
     43      -7.8402      2.00000
     44      -7.7177      2.00000
     45      -7.6818      2.00000
     46      -7.4531      2.00000
     47      -7.4195      2.00000
     48      -7.3491      2.00000
     49      -7.3296      2.00000
     50      -7.1388      2.00000
     51      -7.1231      2.00000
     52      -6.7973      2.00000
     53      -6.7301      2.00000
     54      -6.6863      2.00000
     55      -6.6217      2.00000
     56      -6.4548      2.00000
     57      -6.4223      2.00000
     58      -5.9818      2.00000
     59      -5.8810      2.00000
     60      -5.8314      2.00000
     61      -5.7867      2.00000
     62      -5.6951      2.00000
     63      -5.6715      2.00000
     64      -5.5856      2.00000
     65      -5.5294      2.00000
     66      -5.5080      2.00000
     67      -5.3622      2.00000
     68      -5.2327      2.00000
     69      -5.1860      2.00000
     70      -5.0667      2.00000
     71      -4.5756      2.00000
     72      -4.4921      2.00000
     73      -4.2801      2.00000
     74      -4.1766      2.00000
     75      -4.1516      2.00000
     76      -4.0588      1.99999
     77      -3.9864      1.99992
     78      -3.9703      1.99988
[...]
    104      -0.4806      0.00000
    105      -0.4077      0.00000
    106      -0.2788      0.00000
    107      -0.2199      0.00000
    108      -0.1666      0.00000
    109       0.0106      0.00000
    110       0.2683      0.00000
    111       0.3483      0.00000
    112       0.5583      0.00000
    113       0.6357      0.00000
    114       0.8517      0.00000
    115       1.1199      0.00000
    116       1.2934      0.00000
    117       1.3547      0.00000
    118       2.1363      0.00000
    119       2.3006      0.00000
    120       2.3930      0.00000

 k-point    34 :       0.5000    0.5000    0.0000
  band No.  band energies     occupation 
      1     -17.4857      2.00000
      2     -17.2800      2.00000
      3     -16.7075      2.00000
      4     -16.6501      2.00000
      5     -16.5002      2.00000
      6     -16.4049      2.00000
      7     -16.1698      2.00000
      8     -16.1672      2.00000
      9     -16.1646      2.00000
     10     -16.0270      2.00000
     11     -15.9336      2.00000
     12     -15.7414      2.00000
     13     -15.7283      2.00000
     14     -15.6750      2.00000
     15     -15.6612      2.00000
     16     -15.5435      2.00000
     17     -15.5289      2.00000
     18     -15.4903      2.00000
     19      -9.7611      2.00000
     20      -9.2744      2.00000
     21      -9.2634      2.00000
     22      -9.0350      2.00000
     23      -8.8953      2.00000
     24      -8.8571      2.00000
     25      -8.5824      2.00000
     26      -8.5079      2.00000
     27      -8.3857      2.00000
     28      -8.2832      2.00000
     29      -8.2386      2.00000
     30      -8.1470      2.00000
     31      -8.0813      2.00000
     32      -7.9621      2.00000
     33      -7.9610      2.00000
     34      -7.8045      2.00000
     35      -7.7371      2.00000
     36      -7.6699      2.00000
     37      -7.6016      2.00000
     38      -7.3346      2.00000
     39      -7.3220      2.00000
     40      -7.2727      2.00000
     41      -7.0390      2.00000
     42      -7.0132      2.00000
     43      -6.9136      2.00000
     44      -6.8987      2.00000
     45      -6.8756      2.00000
     46      -6.7486      2.00000
     47      -6.6849      2.00000
     48      -6.6348      2.00000
     49      -6.6142      2.00000
     50      -6.5731      2.00000
     51      -6.3482      2.00000
     52      -6.3244      2.00000
     53      -6.2300      2.00000
     54      -6.1650      2.00000
     55      -6.1370      2.00000
     56      -6.0934      2.00000
     57      -6.0646      2.00000
     58      -5.9418      2.00000
     59      -5.9283      2.00000
     60      -5.8226      2.00000
     61      -5.7953      2.00000
     62      -5.6495      2.00000
     63      -5.5646      2.00000
     64      -5.5065      2.00000
     65      -5.4953      2.00000
     66      -5.0328      2.00000
     67      -4.9621      2.00000
     68      -4.8134      2.00000
     69      -4.7420      2.00000
     70      -4.7145      2.00000
     71      -4.6169      2.00000
     72      -4.5557      2.00000
     73      -4.3293      2.00000
     74      -4.2375      2.00000
     75      -3.9579      2.00000
     76      -3.8923      2.00000
     77      -3.8160      1.99999
     78      -3.5978      1.99711
     79      -3.5526      1.99217
     80      -3.0684      0.44463
     81      -3.0593      0.40722
     82      -2.9286      0.07953
     83      -2.7404      0.00204
     84      -2.7263      0.00145
     85      -2.5855      0.00003
     86      -2.5640      0.00001
     87      -2.4900      0.00000
     88      -2.4072      0.00000
     89      -2.1487      0.00000
     90      -2.1366      0.00000
     91      -1.8995      0.00000
     92      -1.8962      0.00000
     93      -1.8098      0.00000
     94      -1.3356      0.00000
     95      -1.1571      0.00000
     96      -1.1012      0.00000
     97      -0.9853      0.00000
     98      -0.9613      0.00000
     99      -0.8321      0.00000
    100      -0.7698      0.00000
    101      -0.7673      0.00000
    102      -0.7087      0.00000
    103      -0.5369      0.00000
    104      -0.4820      0.00000
    105      -0.4691      0.00000
    106      -0.2861      0.00000
    107      -0.2642      0.00000
    108      -0.1429      0.00000
    109       0.0184      0.00000
    110       0.3182      0.00000
    111       0.3856      0.00000
    112       0.5455      0.00000
    113       0.6025      0.00000
    114       0.8777      0.00000
    115       1.0954      0.00000
    116       1.3415      0.00000
    117       1.3558      0.00000
    118       2.2257      0.00000
    119       2.2387      0.00000
    120       2.3664      0.00000


--------------------------------------------------------------------------------------------------------


 soft charge-density along one line, spin component           1
         0         1         2         3         4         5         6         7         8         9
 total charge-density along one line
 
 pseudopotential strength for first ion, spin component:           1
 -7.339  -0.035   0.000  -0.000   0.000   0.711   0.009  -0.000
 -0.035  -7.290  -0.000  -0.000   0.000   0.009   0.695   0.000
  0.000  -0.000  -7.239  -0.018  -0.030  -0.000   0.000   0.682
 -0.000  -0.000  -0.018  -7.247  -0.017   0.000   0.000   0.005
  0.000   0.000  -0.030  -0.017  -7.341  -0.000  -0.000   0.009
  0.711   0.009  -0.000   0.000  -0.000   0.322  -0.002   0.000
  0.009   0.695   0.000   0.000  -0.000  -0.002   0.327  -0.000
 -0.000   0.000   0.682   0.005   0.009   0.000  -0.000   0.329
  0.000   0.000   0.005   0.683   0.006  -0.000  -0.000  -0.002
 -0.000  -0.000   0.009   0.006   0.711   0.000   0.000  -0.003
  0.000   0.000  -0.016   0.009  -0.008  -0.000  -0.000   0.003
  0.000   0.000  -0.006   0.003  -0.002  -0.000  -0.000   0.001
  0.004   0.002   0.000   0.000   0.000  -0.000  -0.000  -0.000
  0.000  -0.000   0.001   0.003  -0.000  -0.000   0.000  -0.000
 -0.000   0.000  -0.001   0.001   0.002   0.000  -0.000   0.000
  0.003   0.001   0.000   0.000   0.000  -0.001  -0.000  -0.000
  0.000   0.000  -0.000   0.003  -0.000  -0.000   0.000   0.000
 -0.000   0.000  -0.001   0.000   0.001   0.000  -0.000   0.000
 total augmentation occupancy for first ion, spin component:           1
  0.832   0.154   0.000  -0.000   0.000   0.413   0.256   0.000  -0.000   0.000   0.000  -0.000   0.010   0.001   0.000  -0.001
  0.154   1.134   0.000   0.000  -0.000   0.252   0.616   0.000   0.000  -0.000   0.000   0.000   0.024   0.001   0.001   0.001
  0.000   0.000   0.702  -0.070  -0.081   0.000   0.000   0.265   0.003  -0.002   0.173   0.000   0.001  -0.005   0.013   0.000
 -0.000   0.000  -0.070   1.072  -0.176  -0.000   0.000   0.001   0.611  -0.234   0.021  -0.000   0.001   0.007   0.013   0.000
  0.000  -0.000  -0.081  -0.176   0.775   0.000  -0.000  -0.006  -0.235   0.401  -0.046   0.002   0.000  -0.003  -0.012  -0.000
  0.413   0.252   0.000  -0.000   0.000   0.355   0.228   0.000  -0.000  -0.000   0.000  -0.000   0.008   0.001   0.000   0.000
  0.256   0.616   0.000   0.000  -0.000   0.228   0.549   0.000   0.000  -0.000   0.000   0.000   0.028   0.001   0.001   0.002
  0.000   0.000   0.265   0.001  -0.006   0.000   0.000   0.235  -0.005  -0.000   0.019   0.005  -0.000   0.001   0.005   0.000
 -0.000   0.000   0.003   0.611  -0.235  -0.000   0.000  -0.005   0.536  -0.215   0.027   0.001   0.001   0.019   0.005   0.000
  0.000  -0.000  -0.002  -0.234   0.401  -0.000  -0.000  -0.000  -0.215   0.355   0.001  -0.001  -0.000  -0.012  -0.002  -0.000
  0.000   0.000   0.173   0.021  -0.046   0.000   0.000   0.019   0.027   0.001   1.386   0.127   0.001   0.023  -0.004   0.000
 -0.000   0.000   0.000  -0.000   0.002  -0.000   0.000   0.005   0.001  -0.001   0.127   0.024   0.000   0.001   0.002   0.000
  0.010   0.024   0.001   0.001   0.000   0.008   0.028  -0.000   0.001  -0.000   0.001   0.000   0.368   0.000   0.000   0.025
  0.001   0.001  -0.005   0.007  -0.003   0.001   0.001   0.001   0.019  -0.012   0.023   0.001   0.000   0.412   0.011  -0.000
  0.000   0.001   0.013   0.013  -0.012   0.000   0.001   0.005   0.005  -0.002  -0.004   0.002   0.000   0.011   0.338  -0.000
 -0.001   0.001   0.000   0.000  -0.000   0.000   0.002   0.000   0.000  -0.000   0.000   0.000   0.025  -0.000  -0.000   0.003
  0.000   0.000   0.000  -0.001  -0.000   0.000   0.000  -0.000   0.001  -0.001   0.001   0.000  -0.000   0.028   0.000  -0.000
  0.000   0.000   0.001   0.000  -0.001   0.000   0.000   0.001   0.001  -0.001   0.000   0.000  -0.000   0.000   0.026  -0.000


------------------------ aborting loop because EDIFF is reached ----------------------------------------


    CHARGE:  cpu time    0.4712: real time    0.4723
    FORLOC:  cpu time    0.0090: real time    0.0090
    FORNL :  cpu time    6.5291: real time    6.5448
    STRESS:  cpu time   32.3811: real time   32.4585
    FORCOR:  cpu time    0.0379: real time    0.0380
    FORHAR:  cpu time    0.0150: real time    0.0150
    MIXING:  cpu time    0.0012: real time    0.0012
    OFIELD:  cpu time    0.0000: real time    0.0000

  FORCE on cell =-STRESS in cart. coord.  units (eV):
  Direction    XX          YY          ZZ          XY          YZ          ZX
  --------------------------------------------------------------------------------------
  Alpha Z    88.65746    88.65746    88.65746
  Ewald   48911.18273 48910.73203-53857.97046    -0.08652     0.07402    -0.12630
  Hartree 49627.67156 49627.43202-49284.57190    -0.06649     0.02219    -0.01136
  E(xc)    -609.79446  -609.79542  -616.84718     0.00065    -0.00082     0.00037
  Local  ************************100585.43190     0.16010    -0.10558     0.11313
  n-local  1214.29135  1214.30552  1251.44921     0.01465     0.00264    -0.02345
  augment  -212.80544  -212.80999  -215.57387    -0.00613    -0.00414     0.00081
  Kinetic  2014.99600  2014.99492  2047.07644    -0.00091     0.02684     0.03889
  Fock        0.00000     0.00000     0.00000     0.00000     0.00000     0.00000
  -------------------------------------------------------------------------------------
  Total       0.07960     0.05548    -2.34841     0.01534     0.01514    -0.00791
  in kB       0.05281     0.03681    -1.55816     0.01018     0.01005    -0.00525
  external pressure =       -0.49 kB  Pullay stress =        0.00 kB


 VOLUME and BASIS-vectors are now :
 -----------------------------------------------------------------------------
  energy-cutoff  :      280.00
  volume of cell :     2414.75
      direct lattice vectors                 reciprocal lattice vectors
     8.348455354  4.820703834  0.000000000     0.059891622  0.103718769  0.000000000
    -8.348493117  4.820774452  0.000000000    -0.059890745  0.103718300  0.000000000
     0.000000000  0.000000000 30.000000000     0.000000000  0.000000000  0.033333333

  length of vectors
     9.640326356  9.640394372 30.000000000     0.119768900  0.119768055  0.033333333


 FORCES acting on ions
    electron-ion (+dipol)            ewald-force                    non-local-force                 convergence-correction
 -----------------------------------------------------------------------------------------------
   0.116E+02 0.137E+00 -.271E+00   -.120E+02 -.166E+00 0.384E+00   0.433E+00 0.185E-01 -.110E+00   -.538E-01 0.189E-01 -.311E-02
   -.579E+01 -.102E+02 -.434E-02   0.598E+01 0.105E+02 0.110E+00   -.218E+00 -.385E+00 -.104E+00   0.310E-01 0.661E-01 -.322E-02
   -.560E+01 0.101E+02 -.153E+00   0.578E+01 -.105E+02 0.265E+00   -.198E+00 0.385E+00 -.108E+00   0.302E-01 -.277E-01 -.298E-02
   -.285E+02 0.111E+00 -.194E+01   0.274E+02 -.539E-01 0.219E+01   0.104E+01 0.351E-03 -.240E+00   0.941E-02 -.523E-01 0.253E-02
   0.143E+02 0.249E+02 -.193E+01   -.138E+02 -.240E+02 0.218E+01   -.513E+00 -.892E+00 -.244E+00   0.127E-01 -.239E-01 0.128E-02
   0.143E+02 -.247E+02 -.194E+01   -.137E+02 0.238E+02 0.219E+01   -.517E+00 0.900E+00 -.240E+00   -.283E-01 -.984E-02 -.980E-04
   -.293E+02 -.156E+00 0.377E+00   0.285E+02 0.140E+00 -.360E+00   0.732E+00 -.909E-02 -.384E-02   0.471E-01 0.219E-01 -.749E-02
   0.145E+02 -.254E+02 0.370E+00   -.141E+02 0.247E+02 -.355E+00   -.379E+00 0.634E+00 -.587E-02   -.552E-02 0.330E-01 -.513E-02
   0.146E+02 0.254E+02 0.461E+00   -.142E+02 -.246E+02 -.443E+00   -.379E+00 -.653E+00 -.519E-02   -.433E-01 -.548E-01 -.697E-02
   -.874E+01 -.222E+00 0.525E+03   0.975E+01 0.145E+00 -.529E+03   -.110E+01 0.368E-02 0.412E+01   0.791E-01 0.719E-01 0.644E-01
   0.117E+00 0.112E-02 -.521E+03   -.123E+00 -.636E-01 0.526E+03   -.224E-02 -.784E-02 -.406E+01   0.686E-02 0.691E-01 -.110E+00
   -.700E+01 -.120E+02 0.579E+03   0.643E+01 0.111E+02 -.583E+03   0.549E+00 0.964E+00 0.377E+01   0.166E-01 0.138E-01 -.890E-02
   -.507E+01 0.102E+02 -.546E+03   0.575E+01 -.103E+02 0.551E+03   -.794E+00 0.115E+00 -.420E+01   0.106E+00 -.129E-02 -.584E-01
   0.421E+01 -.766E+01 0.525E+03   -.476E+01 0.851E+01 -.529E+03   0.554E+00 -.948E+00 0.412E+01   -.714E-03 0.847E-01 0.454E-01
   0.113E+02 0.787E+00 -.546E+03   -.118E+02 -.222E+00 0.551E+03   0.498E+00 -.633E+00 -.420E+01   -.369E-01 0.621E-01 -.325E-01
   0.446E+01 0.763E+01 0.526E+03   -.493E+01 -.851E+01 -.530E+03   0.554E+00 0.956E+00 0.411E+01   -.708E-01 -.623E-01 0.957E-01
   0.113E+02 -.753E+00 -.547E+03   -.117E+02 0.175E+00 0.551E+03   0.513E+00 0.646E+00 -.419E+01   -.672E-01 -.616E-01 -.352E-01
   -.108E+02 0.190E+02 0.589E+03   0.107E+02 -.189E+02 -.593E+03   0.478E-01 -.704E-01 0.385E+01   0.479E-01 -.927E-01 0.579E-01
   -.619E+01 0.950E+01 -.547E+03   0.593E+01 -.102E+02 0.551E+03   0.302E+00 0.766E+00 -.419E+01   -.423E-01 -.107E+00 -.602E-01
   0.218E+02 0.121E+00 0.589E+03   -.217E+02 -.117E+00 -.593E+03   -.888E-01 0.369E-02 0.384E+01   -.770E-01 -.779E-02 0.266E-01
   0.554E-01 0.996E-01 -.635E+03   -.577E-01 -.790E-01 0.639E+03   0.311E-02 0.549E-02 -.351E+01   -.189E-02 -.245E-01 0.108E-01
   -.695E+01 0.119E+02 0.579E+03   0.641E+01 -.110E+02 -.583E+03   0.549E+00 -.972E+00 0.376E+01   -.954E-02 -.569E-02 -.201E-01
   -.504E+01 -.103E+02 -.547E+03   0.580E+01 0.104E+02 0.551E+03   -.800E+00 -.120E+00 -.420E+01   0.399E-01 0.285E-01 -.485E-03
   0.138E+02 -.839E-02 0.580E+03   -.127E+02 0.310E-01 -.583E+03   -.112E+01 -.468E-02 0.376E+01   -.777E-02 -.184E-01 -.122E-01
   -.111E+00 -.715E-01 -.635E+03   0.110E+00 0.815E-01 0.639E+03   -.211E-02 -.103E-01 -.393E+01   0.140E-02 -.201E-02 0.696E-02
   -.109E+02 -.189E+02 0.589E+03   0.108E+02 0.188E+02 -.593E+03   0.438E-01 0.718E-01 0.384E+01   0.203E-01 0.293E-01 -.103E-01
   -.632E+01 -.952E+01 -.547E+03   0.603E+01 0.102E+02 0.551E+03   0.297E+00 -.754E+00 -.419E+01   -.134E-02 0.372E-01 0.230E-03
 -----------------------------------------------------------------------------------------------
   -.143E-01 0.696E-02 0.261E+01   0.178E-13 0.108E-12 0.000E+00   0.122E-01 0.785E-02 -.254E+01   0.238E-02 -.152E-01 -.657E-01
 
 
 POSITION                                       TOTAL-FORCE (eV/Angst)
 -----------------------------------------------------------------------------------
      2.84414      1.60815      0.00910        -0.011681      0.008484      0.000280
     -0.03037     -0.05430      0.00795         0.004943      0.004867     -0.002006
     -0.02844      3.26701      0.00867         0.015907     -0.008179      0.000957
     -0.21128      6.42768      0.00356        -0.019734      0.004873      0.005222
     -2.67672      5.00463      0.00349         0.010847      0.018804      0.004581
      5.67187      3.02977      0.00349         0.014215     -0.015026      0.006043
      5.34375      6.42566     -0.00626        -0.029604     -0.003577      0.006037
     -5.45646      3.02009     -0.00620         0.009492     -0.026168      0.003898
      2.89262      5.01148     -0.00651         0.010802      0.020646      0.005504
     -0.93439      1.60617     28.58008        -0.011900     -0.001062      0.015553
      0.92774      1.60617      1.40152        -0.001082     -0.001224      0.000601
     -3.68571      3.25625     28.43203         0.002461      0.006035      0.010424
     -1.83810      3.20937      1.47948        -0.006200     -0.001611     -0.020266
     -6.48976      4.81448     28.58007         0.004693     -0.012164      0.013732
     -4.65017      4.83307      1.47955         0.001717     -0.006123     -0.020022
      1.85861      3.21846     28.57828         0.004961      0.010003      0.004293
      3.69860      3.19999      1.48098         0.003857      0.006169     -0.015521
     -0.91068      4.79120     28.40467        -0.001710      0.003447      0.001534
      0.92198      4.80339      1.48134         0.002607      0.005226     -0.013650
     -3.74440      6.42724     28.40437         0.005324     -0.000185      0.003782
     -1.85491      6.42714      1.71782        -0.001136      0.001580      0.009834
      4.66251      4.77676     28.43070         0.003288     -0.008214      0.007064
      6.51086      4.82376      1.48092        -0.003239      0.000338     -0.019019
      1.80543      6.42663     28.42998        -0.007549     -0.000500      0.006776
      3.71004      6.42660      1.73542        -0.001296     -0.002306     -0.002959
     -0.91068      8.06328     28.40404        -0.000904     -0.002509      0.004053
      0.92194      8.05109      1.48146         0.000919     -0.001620     -0.016726
 -----------------------------------------------------------------------------------
    total drift:                                0.000331     -0.000417     -0.001713


--------------------------------------------------------------------------------------------------------



  FREE ENERGIE OF THE ION-ELECTRON SYSTEM (eV)
  ---------------------------------------------------
  free  energy   TOTEN  =      -191.74234270 eV

  energy  without entropy=     -191.53999119  energy(sigma->0) =     -191.64116694
 
 d Force = 0.2165732E-03[ 0.151E-03, 0.282E-03]  d Energy = 0.2955802E-03-0.790E-04
 d Force =-0.1503678E+01[-0.150E+01,-0.150E+01]  d Ewald  = 0.2207024E+02-0.236E+02


--------------------------------------------------------------------------------------------------------


    POTLOK:  cpu time    0.0359: real time    0.0360


--------------------------------------------------------------------------------------------------------


 Quasi-Newton relaxation of ions (Broydens 2nd method)
  g(Force)  = 0.376E-03   g(Stress)= 0.177E-04

 retain information from N=  2 steps
 eigenvalues of (default step * inverse Hessian matrix)
  average eigenvalue of G=   1.1773
 eigenvalue spectrum of G is  0.1952  2.1594


--------------------------------------------------------------------------------------------------------


  
 reached required accuracy - stopping structural energy minimisation
     LOOP+:  cpu time  140.8058: real time  141.1578
    4ORBIT:  cpu time    0.0000: real time    0.0000

 total amount of memory used by VASP on root node   650782. kBytes
========================================================================

   base      :      30000. kBytes
   nonl-proj :     559647. kBytes
   fftplans  :       2414. kBytes
   grid      :      12150. kBytes
   one-center:        419. kBytes
   wavefun   :      46152. kBytes
 
  
  
 General timing and accounting informations for this job:
 ========================================================
  
                  Total CPU time used (sec):     5087.330
                            User time (sec):     5042.123
                          System time (sec):       45.207
                         Elapsed time (sec):     5100.736
  
                   Maximum memory used (kb):      743904.
                   Average memory used (kb):           0.
  
                          Minor page faults:       376268
                          Major page faults:            2
                 Voluntary context switches:         4892
