<?xml version="1.0" encoding="ISO-8859-1"?>
<modeling>
 <generator>
  <i name="program" type="string">vasp </i>
  <i name="version" type="string">5.4.1  </i>
  <i name="subversion" type="string">05Feb16 (build Jul 05 2020 17:13:04) complex                          parallel </i>
  <i name="platform" type="string">IFC91_ompi </i>
  <i name="date" type="string">2024 04 21 </i>
  <i name="time" type="string">03:17:25 </i>
 </generator>
 <incar>
  <i type="int" name="ISTART">     0</i>
  <i type="string" name="PREC">normal</i>
  <i type="string" name="ALGO"> Normal</i>
  <i type="int" name="ISPIN">     1</i>
  <i type="int" name="ICHARG">     2</i>
  <i type="int" name="IBRION">     1</i>
  <i type="int" name="NSW">   100</i>
  <i type="int" name="ISIF">     3</i>
  <i type="int" name="ISYM">     0</i>
  <i name="SYMPREC">      0.00000001</i>
  <i name="POTIM">      0.50000000</i>
  <i type="logical" name="LREAL"> F  </i>
  <i type="logical" name="LPLANE"> F  </i>
  <i type="int" name="ISMEAR">     0</i>
  <i type="logical" name="LWAVE"> F  </i>
  <i type="logical" name="LCHARG"> F  </i>
  <v type="int" name="KPOINT_BSE">    -1     0     0     0</v>
 </incar>
 <kpoints>
  <generation param="Gamma">
   <v type="int" name="divisions">       8        8        1 </v>
   <v name="usershift">      0.00000000       0.00000000       0.00000000 </v>
   <v name="genvec1">      0.12500000       0.00000000       0.00000000 </v>
   <v name="genvec2">     -0.00000000       0.12500000       0.00000000 </v>
   <v name="genvec3">      0.00000000       0.00000000       1.00000000 </v>
   <v name="shift">      0.00000000       0.00000000       0.00000000 </v>
  </generation>
  <varray name="kpointlist" >
   <v>       0.00000000       0.00000000       0.00000000 </v>
   <v>       0.12500000       0.00000000       0.00000000 </v>
   <v>       0.25000000       0.00000000       0.00000000 </v>
   <v>       0.37500000       0.00000000       0.00000000 </v>
   <v>       0.50000000       0.00000000       0.00000000 </v>
   <v>       0.00000000       0.12500000       0.00000000 </v>
   <v>       0.12500000       0.12500000       0.00000000 </v>
   <v>       0.25000000       0.12500000       0.00000000 </v>
   <v>       0.37500000       0.12500000       0.00000000 </v>
   <v>       0.50000000       0.12500000       0.00000000 </v>
   <v>      -0.37500000       0.12500000       0.00000000 </v>
   <v>      -0.25000000       0.12500000       0.00000000 </v>
   <v>      -0.12500000       0.12500000       0.00000000 </v>
   <v>       0.00000000       0.25000000       0.00000000 </v>
   <v>       0.12500000       0.25000000       0.00000000 </v>
   <v>       0.25000000       0.25000000       0.00000000 </v>
   <v>       0.37500000       0.25000000       0.00000000 </v>
   <v>       0.50000000       0.25000000       0.00000000 </v>
   <v>      -0.37500000       0.25000000       0.00000000 </v>
   <v>      -0.25000000       0.25000000       0.00000000 </v>
   <v>      -0.12500000       0.25000000       0.00000000 </v>
   <v>      -0.00000000       0.37500000       0.00000000 </v>
   <v>       0.12500000       0.37500000       0.00000000 </v>
   <v>       0.25000000       0.37500000       0.00000000 </v>
   <v>       0.37500000       0.37500000       0.00000000 </v>
   <v>       0.50000000       0.37500000       0.00000000 </v>
   <v>      -0.37500000       0.37500000       0.00000000 </v>
   <v>      -0.25000000       0.37500000       0.00000000 </v>
   <v>      -0.12500000       0.37500000       0.00000000 </v>
   <v>       0.00000000       0.50000000       0.00000000 </v>
   <v>       0.12500000       0.50000000       0.00000000 </v>
   <v>       0.25000000       0.50000000       0.00000000 </v>
   <v>       0.37500000       0.50000000       0.00000000 </v>
   <v>       0.50000000       0.50000000       0.00000000 </v>
  </varray>
  <varray name="weights" >
   <v>       0.01562500 </v>
   <v>       0.03125000 </v>
   <v>       0.03125000 </v>
   <v>       0.03125000 </v>
   <v>       0.01562500 </v>
   <v>       0.03125000 </v>
   <v>       0.03125000 </v>
   <v>       0.03125000 </v>
   <v>       0.03125000 </v>
   <v>       0.03125000 </v>
   <v>       0.03125000 </v>
   <v>       0.03125000 </v>
   <v>       0.03125000 </v>
   <v>       0.03125000 </v>
   <v>       0.03125000 </v>
   <v>       0.03125000 </v>
   <v>       0.03125000 </v>
   <v>       0.03125000 </v>
   <v>       0.03125000 </v>
   <v>       0.03125000 </v>
   <v>       0.03125000 </v>
   <v>       0.03125000 </v>
   <v>       0.03125000 </v>
   <v>       0.03125000 </v>
   <v>       0.03125000 </v>
   <v>       0.03125000 </v>
   <v>       0.03125000 </v>
   <v>       0.03125000 </v>
   <v>       0.03125000 </v>
   <v>       0.01562500 </v>
   <v>       0.03125000 </v>
   <v>       0.03125000 </v>
   <v>       0.03125000 </v>
   <v>       0.01562500 </v>
  </varray>
 </kpoints>
 <parameters>
  <separator name="general" >
   <i type="string" name="SYSTEM">unknown system</i>
   <i type="logical" name="LCOMPAT"> F  </i>
  </separator>
  <separator name="electronic" >
   <i type="string" name="PREC">normal</i>
   <i name="ENMAX">    280.00000000</i>
   <i name="ENAUG">    373.43800000</i>
   <i name="EDIFF">      0.00010000</i>
   <i type="int" name="IALGO">    38</i>
   <i type="int" name="IWAVPR">    11</i>
   <i type="int" name="NBANDS">   120</i>
   <i name="NELECT">    159.00000000</i>
   <i type="int" name="TURBO">     0</i>
   <i type="int" name="IRESTART">     0</i>
   <i type="int" name="NREBOOT">     0</i>
   <i type="int" name="NMIN">     0</i>
   <i name="EREF">      0.00000000</i>
   <separator name="electronic smearing" >
    <i type="int" name="ISMEAR">     0</i>
    <i name="SIGMA">      0.20000000</i>
    <i name="KSPACING">      0.50000000</i>
    <i type="logical" name="KGAMMA"> T  </i>
   </separator>
   <separator name="electronic projectors" >
    <i type="logical" name="LREAL"> F  </i>
    <v name="ROPT">      0.00000000      0.00000000      0.00000000      0.00000000</v>
    <i type="int" name="LMAXPAW">  -100</i>
    <i type="int" name="LMAXMIX">     2</i>
    <i type="logical" name="NLSPLINE"> F  </i>
   </separator>
   <separator name="electronic startup" >
    <i type="int" name="ISTART">     0</i>
    <i type="int" name="ICHARG">     2</i>
    <i type="int" name="INIWAV">     1</i>
   </separator>
   <separator name="electronic spin" >
    <i type="int" name="ISPIN">     1</i>
    <i type="logical" name="LNONCOLLINEAR"> F  </i>
    <v name="MAGMOM">      1.00000000      1.00000000      1.00000000      1.00000000      1.00000000      1.00000000      1.00000000      1.00000000      1.00000000      1.00000000      1.00000000      1.00000000      1.00000000      1.00000000      1.00000000      1.00000000      1.00000000      1.00000000      1.00000000      1.00000000
      1.00000000      1.00000000      1.00000000      1.00000000      1.00000000      1.00000000      1.00000000</v>
    <i name="NUPDOWN">     -1.00000000</i>
    <i type="logical" name="LSORBIT"> F  </i>
    <v name="SAXIS">      0.00000000      0.00000000      1.00000000</v>
    <i type="logical" name="LSPIRAL"> F  </i>
    <v name="QSPIRAL">      0.00000000      0.00000000      0.00000000</v>
    <i type="logical" name="LZEROZ"> F  </i>
   </separator>
   <separator name="electronic exchange-correlation" >
    <i type="logical" name="LASPH"> F  </i>
    <i type="logical" name="LMETAGGA"> F  </i>
   </separator>
   <separator name="electronic convergence" >
    <i type="int" name="NELM">    60</i>
    <i type="int" name="NELMDL">    -5</i>
    <i type="int" name="NELMIN">     2</i>
    <i name="ENINI">    280.00000000</i>
    <separator name="electronic convergence detail" >
     <i type="logical" name="LDIAG"> T  </i>
     <i type="logical" name="LSUBROT"> F  </i>
     <i name="WEIMIN">      0.00100000</i>
     <i name="EBREAK">      0.00000021</i>
     <i name="DEPER">      0.30000000</i>
     <i type="int" name="NRMM">     4</i>
     <i name="TIME">      0.40000000</i>
    </separator>
   </separator>
   <separator name="electronic mixer" >
    <i name="AMIX">      0.40000000</i>
    <i name="BMIX">      1.00000000</i>
    <i name="AMIN">      0.10000000</i>
    <i name="AMIX_MAG">      1.60000000</i>
    <i name="BMIX_MAG">      1.00000000</i>
    <separator name="electronic mixer details" >
     <i type="int" name="IMIX">     4</i>
     <i type="logical" name="MIXFIRST"> F  </i>
     <i type="int" name="MAXMIX">   -45</i>
     <i name="WC">    100.00000000</i>
     <i type="int" name="INIMIX">     1</i>
     <i type="int" name="MIXPRE">     1</i>
     <i type="int" name="MREMOVE">     5</i>
    </separator>
   </separator>
   <separator name="electronic dipolcorrection" >
    <i type="logical" name="LDIPOL"> F  </i>
    <i type="logical" name="LMONO"> F  </i>
    <i type="int" name="IDIPOL">     0</i>
    <i name="EPSILON">      1.00000000</i>
    <v name="DIPOL">   -100.00000000   -100.00000000   -100.00000000</v>
    <i name="EFIELD">      0.00000000</i>
   </separator>
  </separator>
  <separator name="grids" >
   <i type="int" name="NGX">    42</i>
   <i type="int" name="NGY">    42</i>
   <i type="int" name="NGZ">   126</i>
   <i type="int" name="NGXF">    84</i>
   <i type="int" name="NGYF">    84</i>
   <i type="int" name="NGZF">   252</i>
   <i type="logical" name="ADDGRID"> F  </i>
  </separator>
  <separator name="ionic" >
   <i type="int" name="NSW">   100</i>
   <i type="int" name="IBRION">     1</i>
   <i type="int" name="ISIF">     3</i>
   <i name="PSTRESS">      0.00000000</i>
   <i name="EDIFFG">      0.00100000</i>
   <i type="int" name="NFREE">     0</i>
   <i name="POTIM">      0.50000000</i>
   <i name="SMASS">     -3.00000000</i>
   <i name="SCALEE">      1.00000000</i>
  </separator>
  <separator name="ionic md" >
   <i name="TEBEG">      0.00010000</i>
   <i name="TEEND">      0.00010000</i>
   <i type="int" name="NBLOCK">     1</i>
   <i type="int" name="KBLOCK">   100</i>
   <i type="int" name="NPACO">   256</i>
   <i name="APACO">     16.00000000</i>
  </separator>
  <separator name="symmetry" >
   <i type="int" name="ISYM">     0</i>
   <i name="SYMPREC">      0.00000001</i>
  </separator>
  <separator name="dos" >
   <i type="logical" name="LORBIT"> F  </i>
   <v name="RWIGS">     -1.00000000     -1.00000000     -1.00000000     -1.00000000</v>
   <i type="int" name="NEDOS">   301</i>
   <i name="EMIN">     10.00000000</i>
   <i name="EMAX">    -10.00000000</i>
   <i name="EFERMI">      0.00000000</i>
  </separator>
  <separator name="writing" >
   <i type="int" name="NWRITE">     2</i>
   <i type="logical" name="LWAVE"> F  </i>
   <i type="logical" name="LCHARG"> F  </i>
   <i type="logical" name="LPARD"> F  </i>
   <i type="logical" name="LVTOT"> F  </i>
   <i type="logical" name="LVHAR"> F  </i>
   <i type="logical" name="LELF"> F  </i>
   <i type="logical" name="LOPTICS"> F  </i>
   <v name="STM">      0.00000000      0.00000000      0.00000000      0.00000000      0.00000000      0.00000000      0.00000000</v>
  </separator>
  <separator name="performance" >
   <i type="int" name="NPAR">    40</i>
   <i type="int" name="NSIM">     4</i>
   <i type="int" name="NBLK">    -1</i>
   <i type="logical" name="LPLANE"> F  </i>
   <i type="logical" name="LSCALAPACK"> T  </i>
   <i type="logical" name="LSCAAWARE"> F  </i>
   <i type="logical" name="LSCALU"> F  </i>
   <i type="logical" name="LASYNC"> F  </i>
   <i type="logical" name="LORBITALREAL"> F  </i>
  </separator>
  <separator name="miscellaneous" >
   <i type="int" name="IDIOT">     3</i>
   <i type="logical" name="LMUSIC"> F  </i>
   <v name="POMASS">     50.94100000     95.94000000    183.85000000     32.06600000</v>
   <v name="DARWINR">      0.00000000      0.00000000      0.00000000      0.00000000</v>
   <v name="DARWINV">      1.00000000      1.00000000      1.00000000      1.00000000</v>
   <i type="logical" name="LCORR"> T  </i>
  </separator>
  <i type="logical" name="GGA_COMPAT"> T  </i>
  <i type="logical" name="LBERRY"> F  </i>
  <i type="int" name="ICORELEVEL">     0</i>
  <i type="logical" name="LDAU"> F  </i>
  <i type="int" name="I_CONSTRAINED_M">     0</i>
  <separator name="electronic exchange-correlation" >
   <i type="string" name="GGA">--</i>
   <i type="int" name="VOSKOWN">     0</i>
   <i type="logical" name="LHFCALC"> F  </i>
   <i type="string" name="PRECFOCK"></i>
   <i type="logical" name="LSYMGRAD"> F  </i>
   <i type="logical" name="LHFONE"> F  </i>
   <i type="logical" name="LRHFCALC"> F  </i>
   <i type="logical" name="LTHOMAS"> F  </i>
   <i type="logical" name="LMODELHF"> F  </i>
   <i name="ENCUT4O">     -1.00000000</i>
   <i type="int" name="EXXOEP">     0</i>
   <i type="int" name="FOURORBIT">     0</i>
   <i name="AEXX">      0.00000000</i>
   <i name="HFALPHA">      0.00000000</i>
   <i name="MCALPHA">      0.00000000</i>
   <i name="ALDAX">      1.00000000</i>
   <i name="AGGAX">      1.00000000</i>
   <i name="ALDAC">      1.00000000</i>
   <i name="AGGAC">      1.00000000</i>
   <i type="int" name="NKREDX">     1</i>
   <i type="int" name="NKREDY">     1</i>
   <i type="int" name="NKREDZ">     1</i>
   <i type="logical" name="SHIFTRED"> F  </i>
   <i type="logical" name="ODDONLY"> F  </i>
   <i type="logical" name="EVENONLY"> F  </i>
   <i type="int" name="LMAXFOCK">     0</i>
   <i type="int" name="NMAXFOCKAE">     0</i>
   <i type="logical" name="LFOCKAEDFT"> F  </i>
   <i name="HFSCREEN">      0.00000000</i>
   <i name="HFSCREENC">      0.00000000</i>
   <i type="int" name="NBANDSGWLOW">     0</i>
  </separator>
  <separator name="vdW DFT" >
   <i type="logical" name="LUSE_VDW"> F  </i>
   <i name="Zab_VDW">     -0.84910000</i>
   <i name="PARAM1">      0.12340000</i>
   <i name="PARAM2">      1.00000000</i>
   <i name="PARAM3">      0.00000000</i>
  </separator>
  <separator name="model GW" >
   <i type="int" name="MODEL_GW">     0</i>
   <i name="MODEL_EPS0">     58.26239943</i>
   <i name="MODEL_ALPHA">      1.00000000</i>
  </separator>
  <separator name="linear response parameters" >
   <i type="logical" name="LEPSILON"> F  </i>
   <i type="logical" name="LRPA"> F  </i>
   <i type="logical" name="LNABLA"> F  </i>
   <i type="logical" name="LVEL"> F  </i>
   <i type="int" name="KINTER">     0</i>
   <i name="CSHIFT">      0.10000000</i>
   <i name="OMEGAMAX">     -1.00000000</i>
   <i name="DEG_THRESHOLD">      0.00200000</i>
  </separator>
  <separator name="orbital magnetization" >
   <i type="logical" name="NUCIND"> F  </i>
   <v name="MAGPOS">      0.00000000      0.00000000      0.00000000</v>
   <i type="logical" name="LNICSALL"> T  </i>
   <i type="logical" name="ORBITALMAG"> F  </i>
   <i type="logical" name="LMAGBLOCH"> F  </i>
   <i type="logical" name="LCHIMAG"> F  </i>
   <i type="logical" name="LGAUGE"> T  </i>
   <i type="int" name="MAGATOM">     0</i>
   <v name="MAGDIPOL">      0.00000000      0.00000000      0.00000000</v>
   <v name="AVECCONST">      0.00000000      0.00000000      0.00000000</v>
  </separator>
  <separator name="response functions" >
   <i type="logical" name="LADDER"> F  </i>
   <i type="logical" name="LFXC"> F  </i>
   <i type="logical" name="LHARTREE"> T  </i>
   <i type="int" name="IBSE">     0</i>
   <v type="int" name="KPOINT">    -1     0     0     0</v>
   <i type="logical" name="LTCTE"> F  </i>
   <i type="logical" name="LTETE"> F  </i>
   <i type="logical" name="LTRIPLET"> F  </i>
   <i type="logical" name="LFXCEPS"> F  </i>
   <i type="logical" name="LFXHEG"> F  </i>
   <i type="int" name="NATURALO">     0</i>
   <i type="logical" name="L2ORDER"> F  </i>
   <i type="logical" name="LUSEW"> F  </i>
   <i name="ENCUTGW">     -2.00000000</i>
   <i name="ENCUTGWSOFT">     -2.00000000</i>
   <i name="ENCUTLF">     -1.00000000</i>
   <i type="int" name="LMAXMP2">    -1</i>
   <i name="SCISSOR">      0.00000000</i>
   <i type="int" name="NOMEGA">     0</i>
   <i type="int" name="NOMEGAR">     0</i>
   <i type="int" name="NBANDSGW">    -1</i>
   <i type="int" name="NBANDSO">    -1</i>
   <i type="int" name="NBANDSV">    -1</i>
   <i type="int" name="NELM">     1</i>
   <i type="int" name="NELMHF">     1</i>
   <i type="int" name="DIM">     3</i>
   <i type="int" name="ANTIRES">     0</i>
   <i name="OMEGAMAX">    -30.00000000</i>
   <i name="OMEGAMIN">    -30.00000000</i>
   <i name="OMEGATL">   -200.00000000</i>
   <i type="int" name="OMEGAGRID">     0</i>
   <i name="CSHIFT">     -0.10000000</i>
   <i type="logical" name="SELFENERGY"> F  </i>
   <i type="logical" name="LSPECTRAL"> F  </i>
   <i type="logical" name="LSPECTRALGW"> F  </i>
   <i type="logical" name="LSINGLES"> F  </i>
   <i type="logical" name="LFERMIGW"> F  </i>
   <i type="logical" name="ODDONLYGW"> F  </i>
   <i type="logical" name="EVENONLYGW"> F  </i>
   <i type="int" name="NKREDLFX">     1</i>
   <i type="int" name="NKREDLFY">     1</i>
   <i type="int" name="NKREDLFZ">     1</i>
   <i type="int" name="MAXMEM">  1800</i>
   <i type="int" name="TELESCOPE">     0</i>
   <i type="int" name="TAUPAR">     1</i>
   <i type="int" name="OMEGAPAR">    -1</i>
   <i name="LAMBDA">      1.00000000</i>
  </separator>
  <separator name="External order field" >
   <i name="OFIELD_KAPPA">      0.00000000</i>
   <v name="OFIELD_K">      0.00000000      0.00000000      0.00000000</v>
   <i name="OFIELD_Q6_NEAR">      0.00000000</i>
   <i name="OFIELD_Q6_FAR">      0.00000000</i>
   <i name="OFIELD_A">      0.00000000</i>
  </separator>
 </parameters>
 <atominfo>
  <atoms>      27 </atoms>
  <types>       4 </types>
  <array name="atoms" >
   <dimension dim="1">ion</dimension>
   <field type="string">element</field>
   <field type="int">atomtype</field>
   <set>
    <rc><c>V </c><c>   1</c></rc>
    <rc><c>V </c><c>   1</c></rc>
    <rc><c>V </c><c>   1</c></rc>
    <rc><c>Mo</c><c>   2</c></rc>
    <rc><c>Mo</c><c>   2</c></rc>
    <rc><c>Mo</c><c>   2</c></rc>
    <rc><c>W </c><c>   3</c></rc>
    <rc><c>W </c><c>   3</c></rc>
    <rc><c>W </c><c>   3</c></rc>
    <rc><c>S </c><c>   4</c></rc>
    <rc><c>S </c><c>   4</c></rc>
    <rc><c>S </c><c>   4</c></rc>
    <rc><c>S </c><c>   4</c></rc>
    <rc><c>S </c><c>   4</c></rc>
    <rc><c>S </c><c>   4</c></rc>
    <rc><c>S </c><c>   4</c></rc>
    <rc><c>S </c><c>   4</c></rc>
    <rc><c>S </c><c>   4</c></rc>
    <rc><c>S </c><c>   4</c></rc>
    <rc><c>S </c><c>   4</c></rc>
    <rc><c>S </c><c>   4</c></rc>
    <rc><c>S </c><c>   4</c></rc>
    <rc><c>S </c><c>   4</c></rc>
    <rc><c>S </c><c>   4</c></rc>
    <rc><c>S </c><c>   4</c></rc>
    <rc><c>S </c><c>   4</c></rc>
    <rc><c>S </c><c>   4</c></rc>
   </set>
  </array>
  <array name="atomtypes" >
   <dimension dim="1">type</dimension>
   <field type="int">atomspertype</field>
   <field type="string">element</field>
   <field>mass</field>
   <field>valence</field>
   <field type="string">pseudopotential</field>
   <set>
    <rc><c>   3</c><c>V </c><c>     50.94100000</c><c>      5.00000000</c><c> PAW_PBE V 08Apr2002                    </c></rc>
    <rc><c>   3</c><c>Mo</c><c>     95.94000000</c><c>      6.00000000</c><c> PAW_PBE Mo 08Apr2002                   </c></rc>
    <rc><c>   3</c><c>W </c><c>    183.85000000</c><c>      6.00000000</c><c> PAW_PBE W 08Apr2002                    </c></rc>
    <rc><c>  18</c><c>S </c><c>     32.06600000</c><c>      6.00000000</c><c>  PAW_PBE S 17Jan2003                   </c></rc>
   </set>
  </array>
 </atominfo>
 <structure name="initialpos" >
  <crystal>
   <varray name="basis" >
    <v>       8.66999996       5.03999989       0.00000000 </v>
    <v>      -8.66999982       5.04000013       0.00000000 </v>
    <v>       0.00000000       0.00000000      30.00000000 </v>
   </varray>
   <i name="volume">   2621.80797419 </i>
   <varray name="rec_basis" >
    <v>       0.05767013       0.09920635       0.00000000 </v>
    <v>      -0.05767013       0.09920635       0.00000000 </v>
    <v>       0.00000000       0.00000000       0.03333333 </v>
   </varray>
  </crystal>
  <varray name="positions" >
   <v>       0.33333334       0.00000000       0.00000000 </v>
   <v>       0.00000000       0.00000000       0.00000000 </v>
   <v>       0.33333334       0.33333334       0.00000000 </v>
   <v>       0.66666669       0.66666669       0.00000000 </v>
   <v>       0.33333334       0.66666669       0.00000000 </v>
   <v>       0.66666669       0.00000000       0.00000000 </v>
   <v>       1.00000000       0.33333334       0.00000000 </v>
   <v>       0.00000000       0.66666669       0.00000000 </v>
   <v>       0.66666669       0.33333334       0.00000000 </v>
   <v>       0.11068511       0.22244981       0.95539999 </v>
   <v>       0.22244981       0.11068511       0.04460000 </v>
   <v>       0.11068511       0.55578315       0.95539999 </v>
   <v>       0.22244981       0.44401845       0.04460000 </v>
   <v>       0.11068511       0.88911647       0.95539999 </v>
   <v>       0.22244981       0.77735180       0.04460000 </v>
   <v>       0.44401845       0.22244981       0.95539999 </v>
   <v>       0.55578315       0.11068511       0.04460000 </v>
   <v>       0.44401845       0.55578315       0.95539999 </v>
   <v>       0.55578315       0.44401845       0.04460000 </v>
   <v>       0.44401845       0.88911647       0.95539999 </v>
   <v>       0.55578315       0.77735180       0.04460000 </v>
   <v>       0.77735180       0.22244981       0.95539999 </v>
   <v>       0.88911647       0.11068511       0.04460000 </v>
   <v>       0.77735180       0.55578315       0.95539999 </v>
   <v>       0.88911647       0.44401845       0.04460000 </v>
   <v>       0.77735180       0.88911647       0.95539999 </v>
   <v>       0.88911647       0.77735180       0.04460000 </v>
  </varray>
 </structure>
 <calculation>
  <scstep>
   <time name="dav">   22.81   22.86</time>
   <time name="total">   22.85   22.92</time>
   <energy>
    <i name="alphaZ">     81.65567618 </i>
    <i name="ewald">  41891.17178796 </i>
    <i name="hartreedc"> -47723.81766572 </i>
    <i name="XCdc">   -242.92465012 </i>
    <i name="pawpsdc">   3467.42045192 </i>
    <i name="pawaedc">  -2871.19716117 </i>
    <i name="eentropy">     -0.53987717 </i>
    <i name="bandstr">   -236.93776870 </i>
    <i name="atom">   6761.44252427 </i>
    <i name="e_fr_energy">   1126.27331746 </i>
    <i name="e_wo_entrp">   1126.81319462 </i>
    <i name="e_0_energy">   1126.54325604 </i>
   </energy>
  </scstep>
  <scstep>
   <time name="dav">   29.66   29.73</time>
   <time name="total">   29.66   29.74</time>
   <energy>
    <i name="e_fr_energy">     -5.31545991 </i>
    <i name="e_wo_entrp">     -5.11502956 </i>
    <i name="e_0_energy">     -5.21524473 </i>
   </energy>
  </scstep>
  <scstep>
   <time name="dav">   28.65   28.72</time>
   <time name="total">   28.65   28.73</time>
   <energy>
    <i name="e_fr_energy">   -199.87901561 </i>
    <i name="e_wo_entrp">   -199.62429034 </i>
    <i name="e_0_energy">   -199.75165298 </i>
   </energy>
  </scstep>
  <scstep>
   <time name="dav">   31.93   32.00</time>
   <time name="total">   31.93   32.01</time>
   <energy>
    <i name="e_fr_energy">   -208.99194539 </i>
    <i name="e_wo_entrp">   -208.70395703 </i>
    <i name="e_0_energy">   -208.84795121 </i>
   </energy>
  </scstep>
  <scstep>
   <time name="dav">   30.42   30.49</time>
   <time name="total">   30.89   30.97</time>
   <energy>
    <i name="e_fr_energy">   -209.29907828 </i>
    <i name="e_wo_entrp">   -209.01436372 </i>
    <i name="e_0_energy">   -209.15672100 </i>
   </energy>
  </scstep>
  <scstep>
   <time name="dav">   32.32   32.39</time>
   <time name="total">   32.82   32.91</time>
   <energy>
    <i name="e_fr_energy">   -237.60189026 </i>
    <i name="e_wo_entrp">   -237.35053971 </i>
    <i name="e_0_energy">   -237.47621498 </i>
   </energy>
  </scstep>
  <scstep>
   <time name="dav">   33.60   33.68</time>
   <time name="total">   34.11   34.20</time>
   <energy>
    <i name="e_fr_energy">   -196.63251692 </i>
    <i name="e_wo_entrp">   -196.26197357 </i>
    <i name="e_0_energy">   -196.44724524 </i>
   </energy>
  </scstep>
  <scstep>
   <time name="dav">   31.08   31.16</time>
   <time name="total">   31.61   31.69</time>
   <energy>
    <i name="e_fr_energy">   -189.48674698 </i>
    <i name="e_wo_entrp">   -189.16372751 </i>
    <i name="e_0_energy">   -189.32523724 </i>
   </energy>
  </scstep>
  <scstep>
   <time name="dav">   34.43   34.51</time>
   <time name="total">   34.96   35.05</time>
   <energy>
    <i name="e_fr_energy">   -188.06822298 </i>
    <i name="e_wo_entrp">   -187.74997619 </i>
    <i name="e_0_energy">   -187.90909959 </i>
   </energy>
  </scstep>
  <scstep>
   <time name="dav">   34.23   34.32</time>
   <time name="total">   34.84   34.93</time>
   <energy>
    <i name="e_fr_energy">   -186.92152208 </i>
    <i name="e_wo_entrp">   -186.56965502 </i>
    <i name="e_0_energy">   -186.74558855 </i>
   </energy>
  </scstep>
  <scstep>
   <time name="dav">   34.60   34.69</time>
   <time name="total">   35.20   35.30</time>
   <energy>
    <i name="e_fr_energy">   -186.93344875 </i>
    <i name="e_wo_entrp">   -186.60760983 </i>
    <i name="e_0_energy">   -186.77052929 </i>
   </energy>
  </scstep>
  <scstep>
   <time name="dav">   34.59   34.67</time>
   <time name="total">   35.20   35.29</time>
   <energy>
    <i name="e_fr_energy">   -186.85629443 </i>
    <i name="e_wo_entrp">   -186.51644553 </i>
    <i name="e_0_energy">   -186.68636998 </i>
   </energy>
  </scstep>
  <scstep>
   <time name="dav">   31.64   31.71</time>
   <time name="total">   32.25   32.33</time>
   <energy>
    <i name="e_fr_energy">   -186.83145544 </i>
    <i name="e_wo_entrp">   -186.48868384 </i>
    <i name="e_0_energy">   -186.66006964 </i>
   </energy>
  </scstep>
  <scstep>
   <time name="dav">   34.47   34.56</time>
   <time name="total">   35.09   35.18</time>
   <energy>
    <i name="e_fr_energy">   -186.82907024 </i>
    <i name="e_wo_entrp">   -186.48687225 </i>
    <i name="e_0_energy">   -186.65797124 </i>
   </energy>
  </scstep>
  <scstep>
   <time name="dav">   33.87   33.95</time>
   <time name="total">   34.48   34.57</time>
   <energy>
    <i name="e_fr_energy">   -186.82327081 </i>
    <i name="e_wo_entrp">   -186.48355908 </i>
    <i name="e_0_energy">   -186.65341495 </i>
   </energy>
  </scstep>
  <scstep>
   <time name="dav">   30.53   30.60</time>
   <time name="total">   31.14   31.22</time>
   <energy>
    <i name="e_fr_energy">   -186.82296047 </i>
    <i name="e_wo_entrp">   -186.48323805 </i>
    <i name="e_0_energy">   -186.65309926 </i>
   </energy>
  </scstep>
  <scstep>
   <time name="dav">   31.55   31.62</time>
   <time name="total">   32.17   32.25</time>
   <energy>
    <i name="e_fr_energy">   -186.82254441 </i>
    <i name="e_wo_entrp">   -186.48242380 </i>
    <i name="e_0_energy">   -186.65248410 </i>
   </energy>
  </scstep>
  <scstep>
   <time name="dav">   27.79   27.85</time>
   <time name="total">   27.83   27.90</time>
   <energy>
    <i name="alphaZ">     81.65567618 </i>
    <i name="ewald">  41891.17178796 </i>
    <i name="hartreedc"> -47817.67995685 </i>
    <i name="XCdc">   -231.70685507 </i>
    <i name="pawpsdc">   4194.32659547 </i>
    <i name="pawaedc">  -3612.33989915 </i>
    <i name="eentropy">     -0.34010039 </i>
    <i name="bandstr">  -1453.35229492 </i>
    <i name="atom">   6761.44252427 </i>
    <i name="e_fr_energy">   -186.82252251 </i>
    <i name="e_wo_entrp">   -186.48242212 </i>
    <i name="e_0_energy">   -186.65247231 </i>
   </energy>
  </scstep>
  <structure>
   <crystal>
    <varray name="basis" >
     <v>       8.66999996       5.03999989       0.00000000 </v>
     <v>      -8.66999982       5.04000013       0.00000000 </v>
     <v>       0.00000000       0.00000000      30.00000000 </v>
    </varray>
    <i name="volume">   2621.80797419 </i>
    <varray name="rec_basis" >
     <v>       0.05767013       0.09920635       0.00000000 </v>
     <v>      -0.05767013       0.09920635       0.00000000 </v>
     <v>       0.00000000       0.00000000       0.03333333 </v>
    </varray>
   </crystal>
   <varray name="positions" >
    <v>       0.33333334       0.00000000       0.00000000 </v>
    <v>       0.00000000       0.00000000       0.00000000 </v>
    <v>       0.33333334       0.33333334       0.00000000 </v>
    <v>       0.66666669       0.66666669       0.00000000 </v>
    <v>       0.33333334       0.66666669       0.00000000 </v>
    <v>       0.66666669       0.00000000       0.00000000 </v>
    <v>       1.00000000       0.33333334       0.00000000 </v>
    <v>       0.00000000       0.66666669       0.00000000 </v>
    <v>       0.66666669       0.33333334       0.00000000 </v>
    <v>       0.11068511       0.22244981       0.95539999 </v>
    <v>       0.22244981       0.11068511       0.04460000 </v>
    <v>       0.11068511       0.55578315       0.95539999 </v>
    <v>       0.22244981       0.44401845       0.04460000 </v>
    <v>       0.11068511       0.88911647       0.95539999 </v>
    <v>       0.22244981       0.77735180       0.04460000 </v>
    <v>       0.44401845       0.22244981       0.95539999 </v>
    <v>       0.55578315       0.11068511       0.04460000 </v>
    <v>       0.44401845       0.55578315       0.95539999 </v>
    <v>       0.55578315       0.44401845       0.04460000 </v>
    <v>       0.44401845       0.88911647       0.95539999 </v>
    <v>       0.55578315       0.77735180       0.04460000 </v>
    <v>       0.77735180       0.22244981       0.95539999 </v>
    <v>       0.88911647       0.11068511       0.04460000 </v>
    <v>       0.77735180       0.55578315       0.95539999 </v>
    <v>       0.88911647       0.44401845       0.04460000 </v>
    <v>       0.77735180       0.88911647       0.95539999 </v>
    <v>       0.88911647       0.77735180       0.04460000 </v>
   </varray>
  </structure>
  <varray name="forces" >
   <v>       0.21532644      -0.00076387       0.06837952 </v>
   <v>      -0.11651962      -0.19225814       0.06356339 </v>
   <v>      -0.11379197       0.18641228       0.06088771 </v>
   <v>      -0.54797085       0.00415679      -0.15204317 </v>
   <v>       0.27881064       0.44846335      -0.15903470 </v>
   <v>       0.28497092      -0.45011192      -0.15575184 </v>
   <v>       0.11910012      -0.00987211       0.08865709 </v>
   <v>      -0.06540258       0.07625542       0.10313791 </v>
   <v>      -0.05685603      -0.08153343       0.10326685 </v>
   <v>       0.74941333      -0.00642482      -1.46589623 </v>
   <v>      -0.07003910      -0.00586699       0.73429769 </v>
   <v>       0.07124762      -0.10025316      -2.86206531 </v>
   <v>       0.65210703      -0.16814681       2.09103156 </v>
   <v>      -0.24569286       0.52157077      -1.41997015 </v>
   <v>      -0.62839815       0.52671251       2.12599258 </v>
   <v>      -0.23784976      -0.52047931      -1.42022191 </v>
   <v>      -0.63009465      -0.52644064       2.12021788 </v>
   <v>       0.51643171      -0.67931480      -2.17436158 </v>
   <v>      -0.34158942      -0.69919959       2.12793130 </v>
   <v>      -0.72762799       0.00305135      -2.13410225 </v>
   <v>      -0.12025209       0.00307097       2.94079720 </v>
   <v>       0.07034554       0.10520067      -2.86347679 </v>
   <v>       0.65839444       0.17311852       2.08725753 </v>
   <v>       0.24392078       0.00190770      -2.85916751 </v>
   <v>      -0.13219224       0.00192096       2.99710078 </v>
   <v>       0.51556511       0.68387385      -2.17688240 </v>
   <v>      -0.34135637       0.70495045       2.13045483 </v>
  </varray>
  <varray name="stress" >
   <v>       7.41292385       0.01370806      -1.55793100 </v>
   <v>       0.01370834       4.51783174       0.00067008 </v>
   <v>      -1.55793103       0.00067013      31.18068790 </v>
  </varray>
  <energy>
   <i name="e_fr_energy">   -186.82252251 </i>
   <i name="e_wo_entrp">   -186.65247231 </i>
   <i name="e_0_energy">     -0.34010039 </i>
  </energy>
  <time name="totalsc">  619.43  621.06</time>
 </calculation>
 <calculation>
  <scstep>
   <time name="dav">   22.80   22.85</time>
   <time name="total">   23.42   23.48</time>
   <energy>
    <i name="alphaZ">     78.88139700 </i>
    <i name="ewald">  39358.47610767 </i>
    <i name="hartreedc"> -45303.97012559 </i>
    <i name="XCdc">   -239.18607907 </i>
    <i name="pawpsdc">   4193.56942749 </i>
    <i name="pawaedc">  -3611.56878816 </i>
    <i name="eentropy">     -0.27969846 </i>
    <i name="bandstr">  -1424.83785161 </i>
    <i name="atom">   6761.44252427 </i>
    <i name="e_fr_energy">   -187.47308647 </i>
    <i name="e_wo_entrp">   -187.19338801 </i>
    <i name="e_0_energy">   -187.33323724 </i>
   </energy>
  </scstep>
  <scstep>
   <time name="dav">   31.03   31.11</time>
   <time name="total">   31.66   31.74</time>
   <energy>
    <i name="e_fr_energy">   -189.24134669 </i>
    <i name="e_wo_entrp">   -188.92924399 </i>
    <i name="e_0_energy">   -189.08529534 </i>
   </energy>
  </scstep>
  <scstep>
   <time name="dav">   31.54   31.61</time>
   <time name="total">   32.16   32.25</time>
   <energy>
    <i name="e_fr_energy">   -189.36491028 </i>
    <i name="e_wo_entrp">   -189.10811541 </i>
    <i name="e_0_energy">   -189.23651285 </i>
   </energy>
  </scstep>
  <scstep>
   <time name="dav">   31.88   31.96</time>
   <time name="total">   32.51   32.59</time>
   <energy>
    <i name="e_fr_energy">   -188.71651637 </i>
    <i name="e_wo_entrp">   -188.43504928 </i>
    <i name="e_0_energy">   -188.57578283 </i>
   </energy>
  </scstep>
  <scstep>
   <time name="dav">   29.33   29.40</time>
   <time name="total">   29.96   30.04</time>
   <energy>
    <i name="e_fr_energy">   -188.70580414 </i>
    <i name="e_wo_entrp">   -188.42721226 </i>
    <i name="e_0_energy">   -188.56650820 </i>
   </energy>
  </scstep>
  <scstep>
   <time name="dav">   33.98   34.06</time>
   <time name="total">   34.60   34.69</time>
   <energy>
    <i name="e_fr_energy">   -188.69010449 </i>
    <i name="e_wo_entrp">   -188.41055514 </i>
    <i name="e_0_energy">   -188.55032982 </i>
   </energy>
  </scstep>
  <scstep>
   <time name="dav">   31.70   31.78</time>
   <time name="total">   32.33   32.41</time>
   <energy>
    <i name="e_fr_energy">   -188.66539073 </i>
    <i name="e_wo_entrp">   -188.38377164 </i>
    <i name="e_0_energy">   -188.52458119 </i>
   </energy>
  </scstep>
  <scstep>
   <time name="dav">   32.45   32.52</time>
   <time name="total">   33.07   33.16</time>
   <energy>
    <i name="e_fr_energy">   -188.63066094 </i>
    <i name="e_wo_entrp">   -188.35247861 </i>
    <i name="e_0_energy">   -188.49156978 </i>
   </energy>
  </scstep>
  <scstep>
   <time name="dav">   32.49   32.57</time>
   <time name="total">   33.12   33.20</time>
   <energy>
    <i name="e_fr_energy">   -188.62962885 </i>
    <i name="e_wo_entrp">   -188.35225493 </i>
    <i name="e_0_energy">   -188.49094189 </i>
   </energy>
  </scstep>
  <scstep>
   <time name="dav">   34.08   34.16</time>
   <time name="total">   34.71   34.80</time>
   <energy>
    <i name="e_fr_energy">   -188.63020007 </i>
    <i name="e_wo_entrp">   -188.35286985 </i>
    <i name="e_0_energy">   -188.49153496 </i>
   </energy>
  </scstep>
  <scstep>
   <time name="dav">   31.25   31.32</time>
   <time name="total">   31.88   31.96</time>
   <energy>
    <i name="e_fr_energy">   -188.62892025 </i>
    <i name="e_wo_entrp">   -188.35208649 </i>
    <i name="e_0_energy">   -188.49050337 </i>
   </energy>
  </scstep>
  <scstep>
   <time name="dav">   29.33   29.40</time>
   <time name="total">   29.95   30.03</time>
   <energy>
    <i name="e_fr_energy">   -188.62920858 </i>
    <i name="e_wo_entrp">   -188.35225434 </i>
    <i name="e_0_energy">   -188.49073146 </i>
   </energy>
  </scstep>
  <scstep>
   <time name="dav">   22.43   22.49</time>
   <time name="total">   23.06   23.12</time>
   <energy>
    <i name="e_fr_energy">   -188.62931786 </i>
    <i name="e_wo_entrp">   -188.35233670 </i>
    <i name="e_0_energy">   -188.49082728 </i>
   </energy>
  </scstep>
  <scstep>
   <time name="dav">   19.38   19.43</time>
   <time name="total">   20.00   20.06</time>
   <energy>
    <i name="e_fr_energy">   -188.62952052 </i>
    <i name="e_wo_entrp">   -188.35248812 </i>
    <i name="e_0_energy">   -188.49100432 </i>
   </energy>
  </scstep>
  <scstep>
   <time name="dav">   21.99   22.04</time>
   <time name="total">   22.62   22.68</time>
   <energy>
    <i name="e_fr_energy">   -188.62962876 </i>
    <i name="e_wo_entrp">   -188.35258268 </i>
    <i name="e_0_energy">   -188.49110572 </i>
   </energy>
  </scstep>
  <scstep>
   <time name="dav">   19.34   19.39</time>
   <time name="total">   19.96   20.02</time>
   <energy>
    <i name="e_fr_energy">   -188.62981296 </i>
    <i name="e_wo_entrp">   -188.35275418 </i>
    <i name="e_0_energy">   -188.49128357 </i>
   </energy>
  </scstep>
  <scstep>
   <time name="dav">   19.85   19.89</time>
   <time name="total">   20.47   20.53</time>
   <energy>
    <i name="e_fr_energy">   -188.63005896 </i>
    <i name="e_wo_entrp">   -188.35301820 </i>
    <i name="e_0_energy">   -188.49153858 </i>
   </energy>
  </scstep>
  <scstep>
   <time name="dav">   19.25   19.29</time>
   <time name="total">   19.87   19.93</time>
   <energy>
    <i name="e_fr_energy">   -188.63025585 </i>
    <i name="e_wo_entrp">   -188.35322188 </i>
    <i name="e_0_energy">   -188.49173886 </i>
   </energy>
  </scstep>
  <scstep>
   <time name="dav">   22.51   22.57</time>
   <time name="total">   22.55   22.62</time>
   <energy>
    <i name="alphaZ">     78.88139700 </i>
    <i name="ewald">  39358.47610767 </i>
    <i name="hartreedc"> -45325.25470064 </i>
    <i name="XCdc">   -238.01386632 </i>
    <i name="pawpsdc">   3948.79242448 </i>
    <i name="pawaedc">  -3363.28084494 </i>
    <i name="eentropy">     -0.27703847 </i>
    <i name="bandstr">  -1409.39629656 </i>
    <i name="atom">   6761.44252427 </i>
    <i name="e_fr_energy">   -188.63029350 </i>
    <i name="e_wo_entrp">   -188.35325504 </i>
    <i name="e_0_energy">   -188.49177427 </i>
   </energy>
  </scstep>
  <structure>
   <crystal>
    <varray name="basis" >
     <v>       8.85811910       5.10692348       0.00000000 </v>
     <v>      -8.85771494       5.10622873       0.00000000 </v>
     <v>       0.00000000       0.00000000      30.00000000 </v>
    </varray>
    <i name="volume">   2714.01764019 </i>
    <varray name="rec_basis" >
     <v>       0.05644284       0.09791073       0.00000000 </v>
     <v>      -0.05645052       0.09791520       0.00000000 </v>
     <v>       0.00000000       0.00000000       0.03333333 </v>
    </varray>
   </crystal>
   <varray name="positions" >
    <v>       0.33392876      -0.00060273       0.00010996 </v>
    <v>      -0.00124432      -0.00059597       0.00010222 </v>
    <v>       0.33390892       0.33454210       0.00009791 </v>
    <v>       0.66516204       0.66821112      -0.00024450 </v>
    <v>       0.33625537       0.66803733      -0.00025574 </v>
    <v>       0.66530530      -0.00294706      -0.00025046 </v>
    <v>       1.00028411       0.33295474       0.00014257 </v>
    <v>       0.00018300       0.66721360       0.00016585 </v>
    <v>       0.66611829       0.33310131       0.00016606 </v>
    <v>       0.11273935       0.22033407       0.95304270 </v>
    <v>       0.22222687       0.11085189       0.04578081 </v>
    <v>       0.11040352       0.55510512       0.95079754 </v>
    <v>       0.22345933       0.44139944       0.04796256 </v>
    <v>       0.11249778       0.89229625       0.95311655 </v>
    <v>       0.22322234       0.78162094       0.04801878 </v>
    <v>       0.44086571       0.22062054       0.95311615 </v>
    <v>       0.55151060       0.10991860       0.04800950 </v>
    <v>       0.44220406       0.55109517       0.95190342 </v>
    <v>       0.55148644       0.44162246       0.04802190 </v>
    <v>       0.44200868       0.89115545       0.95196816 </v>
    <v>       0.55546329       0.77770105       0.04932906 </v>
    <v>       0.77805100       0.22275758       0.95079527 </v>
    <v>       0.89177677       0.10968189       0.04795649 </v>
    <v>       0.77803955       0.55511366       0.95080220 </v>
    <v>       0.88875788       0.44439543       0.04941960 </v>
    <v>       0.78205919       0.89095509       0.95189937 </v>
    <v>       0.89154064       0.78167538       0.04802596 </v>
   </varray>
  </structure>
  <varray name="forces" >
   <v>       0.20929960      -0.00010386       0.09223803 </v>
   <v>      -0.10552050      -0.18737021       0.08617069 </v>
   <v>      -0.10630880       0.18833016       0.08783509 </v>
   <v>      -0.59924122       0.00039237      -0.03940876 </v>
   <v>       0.30055462       0.51831741      -0.04317644 </v>
   <v>       0.30137323      -0.51905677      -0.04439762 </v>
   <v>      -0.26369512      -0.00152971      -0.02859736 </v>
   <v>       0.13215889      -0.22969397      -0.02333741 </v>
   <v>       0.13329850       0.22867719      -0.02250502 </v>
   <v>      -0.07531924       0.00227180       0.16877326 </v>
   <v>      -0.01445638       0.00159541      -0.27205304 </v>
   <v>      -0.06782351      -0.09473993       0.10471385 </v>
   <v>      -0.02060703      -0.09772718      -0.03945433 </v>
   <v>       0.04838300      -0.04736411       0.15140930 </v>
   <v>      -0.06913684      -0.04901585      -0.05956815 </v>
   <v>       0.04592209       0.04760393       0.15226216 </v>
   <v>      -0.06935659       0.04915446      -0.05697936 </v>
   <v>       0.02805638      -0.06741809      -0.19806369 </v>
   <v>       0.09614109      -0.04698305      -0.05991508 </v>
   <v>      -0.05830788       0.00066780      -0.20671625 </v>
   <v>       0.00336734       0.00048075       0.30040339 </v>
   <v>      -0.06794419       0.09579755       0.10237018 </v>
   <v>      -0.02338144       0.09716623      -0.03354966 </v>
   <v>       0.10072639       0.00035266       0.09675483 </v>
   <v>       0.01847235      -0.00032160       0.04255188 </v>
   <v>       0.02656640       0.06616584      -0.20086783 </v>
   <v>       0.09677884       0.04435078      -0.05689263 </v>
  </varray>
  <varray name="stress" >
   <v>     -19.93079111      -0.01051222       0.03464921 </v>
   <v>      -0.01051217     -19.52382020      -0.00390259 </v>
   <v>       0.03464909      -0.00390246      -1.69686746 </v>
  </varray>
  <energy>
   <i name="e_fr_energy">   -188.63029350 </i>
   <i name="e_wo_entrp">   -188.49177427 </i>
   <i name="e_0_energy">     -0.27703847 </i>
  </energy>
  <time name="totalsc">  571.80  573.33</time>
 </calculation>
 <calculation>
  <scstep>
   <time name="dav">   25.54   25.60</time>
   <time name="total">   26.15   26.22</time>
   <energy>
    <i name="alphaZ">     82.32295115 </i>
    <i name="ewald">  41291.86190908 </i>
    <i name="hartreedc"> -47289.66718074 </i>
    <i name="XCdc">   -233.86534016 </i>
    <i name="pawpsdc">   3948.75848843 </i>
    <i name="pawaedc">  -3363.24590719 </i>
    <i name="eentropy">     -0.23250405 </i>
    <i name="bandstr">  -1387.94682016 </i>
    <i name="atom">   6761.44252427 </i>
    <i name="e_fr_energy">   -190.57187938 </i>
    <i name="e_wo_entrp">   -190.33937533 </i>
    <i name="e_0_energy">   -190.45562735 </i>
   </energy>
  </scstep>
  <scstep>
   <time name="dav">   31.28   31.35</time>
   <time name="total">   31.83   31.92</time>
   <energy>
    <i name="e_fr_energy">   -190.52801623 </i>
    <i name="e_wo_entrp">   -190.31192794 </i>
    <i name="e_0_energy">   -190.41997209 </i>
   </energy>
  </scstep>
  <scstep>
   <time name="dav">   32.13   32.21</time>
   <time name="total">   32.67   32.75</time>
   <energy>
    <i name="e_fr_energy">   -190.04639811 </i>
    <i name="e_wo_entrp">   -189.79812654 </i>
    <i name="e_0_energy">   -189.92226233 </i>
   </energy>
  </scstep>
  <scstep>
   <time name="dav">   33.42   33.50</time>
   <time name="total">   34.04   34.13</time>
   <energy>
    <i name="e_fr_energy">   -189.83551982 </i>
    <i name="e_wo_entrp">   -189.61168972 </i>
    <i name="e_0_energy">   -189.72360477 </i>
   </energy>
  </scstep>
  <scstep>
   <time name="dav">   30.70   30.77</time>
   <time name="total">   31.31   31.39</time>
   <energy>
    <i name="e_fr_energy">   -189.74065040 </i>
    <i name="e_wo_entrp">   -189.50698335 </i>
    <i name="e_0_energy">   -189.62381687 </i>
   </energy>
  </scstep>
  <scstep>
   <time name="dav">   29.18   29.25</time>
   <time name="total">   29.79   29.87</time>
   <energy>
    <i name="e_fr_energy">   -189.73042047 </i>
    <i name="e_wo_entrp">   -189.49763056 </i>
    <i name="e_0_energy">   -189.61402552 </i>
   </energy>
  </scstep>
  <scstep>
   <time name="dav">   30.84   30.91</time>
   <time name="total">   31.45   31.54</time>
   <energy>
    <i name="e_fr_energy">   -189.73067792 </i>
    <i name="e_wo_entrp">   -189.49788903 </i>
    <i name="e_0_energy">   -189.61428347 </i>
   </energy>
  </scstep>
  <scstep>
   <time name="dav">   30.43   30.50</time>
   <time name="total">   31.05   31.13</time>
   <energy>
    <i name="e_fr_energy">   -189.72951719 </i>
    <i name="e_wo_entrp">   -189.49692542 </i>
    <i name="e_0_energy">   -189.61322130 </i>
   </energy>
  </scstep>
  <scstep>
   <time name="dav">   28.19   28.25</time>
   <time name="total">   28.80   28.88</time>
   <energy>
    <i name="e_fr_energy">   -189.72968828 </i>
    <i name="e_wo_entrp">   -189.49687916 </i>
    <i name="e_0_energy">   -189.61328372 </i>
   </energy>
  </scstep>
  <scstep>
   <time name="dav">   26.41   26.48</time>
   <time name="total">   27.03   27.10</time>
   <energy>
    <i name="e_fr_energy">   -189.72981976 </i>
    <i name="e_wo_entrp">   -189.49701784 </i>
    <i name="e_0_energy">   -189.61341880 </i>
   </energy>
  </scstep>
  <scstep>
   <time name="dav">   20.48   20.53</time>
   <time name="total">   21.09   21.15</time>
   <energy>
    <i name="e_fr_energy">   -189.72969009 </i>
    <i name="e_wo_entrp">   -189.49690081 </i>
    <i name="e_0_energy">   -189.61329545 </i>
   </energy>
  </scstep>
  <scstep>
   <time name="dav">   18.75   18.80</time>
   <time name="total">   18.79   18.84</time>
   <energy>
    <i name="alphaZ">     82.32295115 </i>
    <i name="ewald">  41291.86190908 </i>
    <i name="hartreedc"> -47263.83172204 </i>
    <i name="XCdc">   -235.25989705 </i>
    <i name="pawpsdc">   4038.61589588 </i>
    <i name="pawaedc">  -3454.31085631 </i>
    <i name="eentropy">     -0.23279471 </i>
    <i name="bandstr">  -1410.33771680 </i>
    <i name="atom">   6761.44252427 </i>
    <i name="e_fr_energy">   -189.72970653 </i>
    <i name="e_wo_entrp">   -189.49691183 </i>
    <i name="e_0_energy">   -189.61330918 </i>
   </energy>
  </scstep>
  <structure>
   <crystal>
    <varray name="basis" >
     <v>       8.66899567       5.00004832       0.00000000 </v>
     <v>      -8.66871510       4.99956753       0.00000000 </v>
     <v>       0.00000000       0.00000000      30.00000000 </v>
    </varray>
    <i name="volume">   2600.55670933 </i>
    <varray name="rec_basis" >
     <v>       0.05767497       0.10000222       0.00000000 </v>
     <v>      -0.05768051       0.10000546       0.00000000 </v>
     <v>       0.00000000       0.00000000       0.03333333 </v>
    </varray>
   </crystal>
   <varray name="positions" >
    <v>       0.33413023      -0.00080457       0.00016244 </v>
    <v>      -0.00165912      -0.00080745       0.00015124 </v>
    <v>       0.33412125       0.33495929       0.00014789 </v>
    <v>       0.66458537       0.66878918      -0.00026692 </v>
    <v>       0.33741117       0.66861400      -0.00028031 </v>
    <v>       0.66472818      -0.00410496      -0.00027572 </v>
    <v>       1.00002750       0.33320627       0.00012630 </v>
    <v>      -0.00007355       0.66670237       0.00015258 </v>
    <v>       0.66662888       0.33335506       0.00015326 </v>
    <v>       0.11267058       0.22041044       0.95313873 </v>
    <v>       0.22221561       0.11086849       0.04562602 </v>
    <v>       0.11017985       0.55501213       0.95085711 </v>
    <v>       0.22327615       0.44125596       0.04794011 </v>
    <v>       0.11246524       0.89217047       0.95320270 </v>
    <v>       0.22307381       0.78160563       0.04798489 </v>
    <v>       0.44098952       0.22065586       0.95320278 </v>
    <v>       0.55152592       0.11006758       0.04797708 </v>
    <v>       0.44211842       0.55095546       0.95179073 </v>
    <v>       0.55150055       0.44145130       0.04798781 </v>
    <v>       0.44195362       0.89121275       0.95185055 </v>
    <v>       0.55546734       0.77769861       0.04949998 </v>
    <v>       0.77814564       0.22298316       0.95085351 </v>
    <v>       0.89191663       0.10986682       0.04793740 </v>
    <v>       0.77813719       0.55501719       0.95085725 </v>
    <v>       0.88877514       0.44437709       0.04944381 </v>
    <v>       0.78219536       0.89104007       0.95178508 </v>
    <v>       0.89170800       0.78165625       0.04799359 </v>
   </varray>
  </structure>
  <varray name="forces" >
   <v>       0.23891603      -0.00172650       0.07710650 </v>
   <v>      -0.11988211      -0.21471161       0.07188249 </v>
   <v>      -0.12163339       0.21396161       0.07363714 </v>
   <v>      -0.59897254      -0.00235779      -0.00390389 </v>
   <v>       0.30149629       0.51844498      -0.00441666 </v>
   <v>       0.30123679      -0.52290809      -0.00614143 </v>
   <v>      -0.40826500      -0.00160599      -0.04236573 </v>
   <v>       0.20511496      -0.35506485      -0.04169891 </v>
   <v>       0.20509510       0.35190448      -0.04173099 </v>
   <v>       0.08627699       0.00248400      -0.27918349 </v>
   <v>      -0.01481690       0.00228660       0.13207209 </v>
   <v>      -0.01856960      -0.00973791      -0.43871748 </v>
   <v>       0.07808730      -0.01153104       0.44710110 </v>
   <v>      -0.03170581       0.09050554      -0.29512314 </v>
   <v>      -0.04537496       0.07966927       0.42816920 </v>
   <v>      -0.03334338      -0.08846500      -0.29388911 </v>
   <v>      -0.04628374      -0.07812411       0.43085456 </v>
   <v>       0.07113359      -0.13697091      -0.71259592 </v>
   <v>      -0.02936824      -0.08838333       0.42875404 </v>
   <v>      -0.14082893       0.00100963      -0.72111354 </v>
   <v>       0.00236599       0.00049430       0.85667277 </v>
   <v>      -0.01891439       0.01189001      -0.44067668 </v>
   <v>       0.07594941       0.01291868       0.45251737 </v>
   <v>       0.00319804       0.00066899      -0.44550380 </v>
   <v>       0.01766416       0.00031147       0.65260358 </v>
   <v>       0.07038337       0.13762188      -0.71547120 </v>
   <v>      -0.02895901       0.08741568       0.43116112 </v>
  </varray>
  <varray name="stress" >
   <v>     -10.16395811      -0.01138253       0.02129441 </v>
   <v>      -0.01138261      -9.84207793      -0.00357946 </v>
   <v>       0.02129448      -0.00357942       6.45847051 </v>
  </varray>
  <energy>
   <i name="e_fr_energy">   -189.72970653 </i>
   <i name="e_wo_entrp">   -189.61330918 </i>
   <i name="e_0_energy">     -0.23279471 </i>
  </energy>
  <time name="totalsc">  387.42  388.45</time>
 </calculation>
 <calculation>
  <scstep>
   <time name="dav">   22.78   22.84</time>
   <time name="total">   23.31   23.37</time>
   <energy>
    <i name="alphaZ">     85.81336474 </i>
    <i name="ewald">  42832.03204047 </i>
    <i name="hartreedc"> -48848.78481270 </i>
    <i name="XCdc">   -232.94947780 </i>
    <i name="pawpsdc">   4038.46645462 </i>
    <i name="pawaedc">  -3454.15377436 </i>
    <i name="eentropy">     -0.19508927 </i>
    <i name="bandstr">  -1372.98914848 </i>
    <i name="atom">   6761.44252427 </i>
    <i name="e_fr_energy">   -191.31791851 </i>
    <i name="e_wo_entrp">   -191.12282924 </i>
    <i name="e_0_energy">   -191.22037388 </i>
   </energy>
  </scstep>
  <scstep>
   <time name="dav">   34.52   34.61</time>
   <time name="total">   35.05   35.14</time>
   <energy>
    <i name="e_fr_energy">   -191.10849461 </i>
    <i name="e_wo_entrp">   -190.91909206 </i>
    <i name="e_0_energy">   -191.01379334 </i>
   </energy>
  </scstep>
  <scstep>
   <time name="dav">   32.08   32.16</time>
   <time name="total">   32.60   32.69</time>
   <energy>
    <i name="e_fr_energy">   -191.28944731 </i>
    <i name="e_wo_entrp">   -191.07046783 </i>
    <i name="e_0_energy">   -191.17995757 </i>
   </energy>
  </scstep>
  <scstep>
   <time name="dav">   33.22   33.30</time>
   <time name="total">   33.75   33.84</time>
   <energy>
    <i name="e_fr_energy">   -190.85889158 </i>
    <i name="e_wo_entrp">   -190.66857958 </i>
    <i name="e_0_energy">   -190.76373558 </i>
   </energy>
  </scstep>
  <scstep>
   <time name="dav">   29.96   30.03</time>
   <time name="total">   30.49   30.57</time>
   <energy>
    <i name="e_fr_energy">   -190.74366129 </i>
    <i name="e_wo_entrp">   -190.54604547 </i>
    <i name="e_0_energy">   -190.64485338 </i>
   </energy>
  </scstep>
  <scstep>
   <time name="dav">   31.54   31.61</time>
   <time name="total">   32.06   32.15</time>
   <energy>
    <i name="e_fr_energy">   -190.74137561 </i>
    <i name="e_wo_entrp">   -190.54211961 </i>
    <i name="e_0_energy">   -190.64174761 </i>
   </energy>
  </scstep>
  <scstep>
   <time name="dav">   29.79   29.86</time>
   <time name="total">   30.32   30.40</time>
   <energy>
    <i name="e_fr_energy">   -190.73782619 </i>
    <i name="e_wo_entrp">   -190.53877436 </i>
    <i name="e_0_energy">   -190.63830027 </i>
   </energy>
  </scstep>
  <scstep>
   <time name="dav">   31.96   32.04</time>
   <time name="total">   32.49   32.57</time>
   <energy>
    <i name="e_fr_energy">   -190.73089895 </i>
    <i name="e_wo_entrp">   -190.53229936 </i>
    <i name="e_0_energy">   -190.63159916 </i>
   </energy>
  </scstep>
  <scstep>
   <time name="dav">   27.06   27.13</time>
   <time name="total">   27.59   27.66</time>
   <energy>
    <i name="e_fr_energy">   -190.73119071 </i>
    <i name="e_wo_entrp">   -190.53251883 </i>
    <i name="e_0_energy">   -190.63185477 </i>
   </energy>
  </scstep>
  <scstep>
   <time name="dav">   30.20   30.27</time>
   <time name="total">   30.73   30.81</time>
   <energy>
    <i name="e_fr_energy">   -190.73130165 </i>
    <i name="e_wo_entrp">   -190.53259007 </i>
    <i name="e_0_energy">   -190.63194586 </i>
   </energy>
  </scstep>
  <scstep>
   <time name="dav">   24.83   24.89</time>
   <time name="total">   25.35   25.42</time>
   <energy>
    <i name="e_fr_energy">   -190.73118792 </i>
    <i name="e_wo_entrp">   -190.53246558 </i>
    <i name="e_0_energy">   -190.63182675 </i>
   </energy>
  </scstep>
  <scstep>
   <time name="dav">   19.18   19.22</time>
   <time name="total">   19.21   19.27</time>
   <energy>
    <i name="alphaZ">     85.81336474 </i>
    <i name="ewald">  42832.03204047 </i>
    <i name="hartreedc"> -48820.03072210 </i>
    <i name="XCdc">   -234.28219890 </i>
    <i name="pawpsdc">   4064.14677839 </i>
    <i name="pawaedc">  -3480.02603495 </i>
    <i name="eentropy">     -0.19873388 </i>
    <i name="bandstr">  -1399.62813902 </i>
    <i name="atom">   6761.44252427 </i>
    <i name="e_fr_energy">   -190.73112098 </i>
    <i name="e_wo_entrp">   -190.53238710 </i>
    <i name="e_0_energy">   -190.63175404 </i>
   </energy>
  </scstep>
  <structure>
   <crystal>
    <varray name="basis" >
     <v>       8.48624244       4.89948142       0.00000000 </v>
     <v>      -8.48639185       4.89974553       0.00000000 </v>
     <v>       0.00000000       0.00000000      30.00000000 </v>
    </varray>
    <i name="volume">   2494.78042942 </i>
    <varray name="rec_basis" >
     <v>       0.05891996       0.10204976       0.00000000 </v>
     <v>      -0.05891679       0.10204797       0.00000000 </v>
     <v>       0.00000000       0.00000000       0.03333333 </v>
    </varray>
   </crystal>
   <varray name="positions" >
    <v>       0.33502127      -0.00172538       0.00030933 </v>
    <v>      -0.00352613      -0.00176678       0.00028802 </v>
    <v>       0.33506393       0.33682514       0.00028838 </v>
    <v>       0.66239931       0.67093222      -0.00024500 </v>
    <v>       0.34175090       0.67077165      -0.00025670 </v>
    <v>       0.66253083      -0.00847959      -0.00025611 </v>
    <v>       0.99833479       0.33487862       0.00002693 </v>
    <v>      -0.00176372       0.66332058       0.00005071 </v>
    <v>       0.66998368       0.33502184       0.00005059 </v>
    <v>       0.11322974       0.21988341       0.95218202 </v>
    <v>       0.22217758       0.11093860       0.04624104 </v>
    <v>       0.11033320       0.55515876       0.94948936 </v>
    <v>       0.22384132       0.44097419       0.04927716 </v>
    <v>       0.11314534       0.89330903       0.95221419 </v>
    <v>       0.22376243       0.78255427       0.04928373 </v>
    <v>       0.43986352       0.21999774       0.95221715 </v>
    <v>       0.55058622       0.10939639       0.04928156 </v>
    <v>       0.44140630       0.54960580       0.94988025 </v>
    <v>       0.55055826       0.44108051       0.04928865 </v>
    <v>       0.44133372       0.89184706       0.94992254 </v>
    <v>       0.55547759       0.77769463       0.05174409 </v>
    <v>       0.77801365       0.22284756       0.94948203 </v>
    <v>       0.89220509       0.10932194       0.04928526 </v>
    <v>       0.77801416       0.55515019       0.94947643 </v>
    <v>       0.88884135       0.44431792       0.05131078 </v>
    <v>       0.78355211       0.89176265       0.94986859 </v>
    <v>       0.89207801       0.78259551       0.04929889 </v>
   </varray>
  </structure>
  <varray name="forces" >
   <v>       0.20682990      -0.00114069       0.01487476 </v>
   <v>      -0.10419309      -0.18338048       0.01294487 </v>
   <v>      -0.10365982       0.18001837       0.01309263 </v>
   <v>      -0.59635104      -0.00241825       0.01161641 </v>
   <v>       0.30111333       0.52012671       0.01731110 </v>
   <v>       0.29942653      -0.52231491       0.01759319 </v>
   <v>      -0.58152031      -0.00308860      -0.02102839 </v>
   <v>       0.28982231      -0.50676405      -0.02156054 </v>
   <v>       0.29032243       0.50143854      -0.02278764 </v>
   <v>       0.01469188       0.00172165      -0.14927610 </v>
   <v>      -0.01197261       0.00214211       0.17004544 </v>
   <v>       0.06217412       0.10679096      -0.30974904 </v>
   <v>      -0.01350026       0.03455844       0.25387508 </v>
   <v>       0.00444054       0.01351317      -0.15429694 </v>
   <v>       0.02996319       0.01607160       0.24749905 </v>
   <v>       0.00307801      -0.01245717      -0.15458156 </v>
   <v>       0.03058686      -0.01300762       0.24876681 </v>
   <v>       0.01395969      -0.02163937      -0.54358406 </v>
   <v>      -0.02887261       0.01935304       0.25098583 </v>
   <v>      -0.01303610       0.00057582      -0.54561446 </v>
   <v>      -0.00361058       0.00203151       0.67826100 </v>
   <v>       0.06210879      -0.10577471      -0.30968803 </v>
   <v>      -0.01470226      -0.03294668       0.25408847 </v>
   <v>      -0.12238611       0.00045661      -0.30998882 </v>
   <v>       0.00069973       0.00135312       0.64302915 </v>
   <v>       0.01372098       0.02232757      -0.54167586 </v>
   <v>      -0.02913352      -0.01754669       0.24984766 </v>
  </varray>
  <varray name="stress" >
   <v>      -5.67907787       0.00593682      -0.07465352 </v>
   <v>       0.00593680      -5.70907650       0.00573996 </v>
   <v>      -0.07465339       0.00574004       4.55679817 </v>
  </varray>
  <energy>
   <i name="e_fr_energy">   -190.73112098 </i>
   <i name="e_wo_entrp">   -190.63175404 </i>
   <i name="e_0_energy">     -0.19873388 </i>
  </energy>
  <time name="totalsc">  396.61  397.66</time>
 </calculation>
 <calculation>
  <scstep>
   <time name="dav">   22.75   22.80</time>
   <time name="total">   23.26   23.31</time>
   <energy>
    <i name="alphaZ">     90.04726942 </i>
    <i name="ewald">  44614.74918125 </i>
    <i name="hartreedc"> -50656.55607604 </i>
    <i name="XCdc">   -231.89322271 </i>
    <i name="pawpsdc">   4063.95278881 </i>
    <i name="pawaedc">  -3479.82342779 </i>
    <i name="eentropy">     -0.18422822 </i>
    <i name="bandstr">  -1353.83967582 </i>
    <i name="atom">   6761.44252427 </i>
    <i name="e_fr_energy">   -192.10486682 </i>
    <i name="e_wo_entrp">   -191.92063860 </i>
    <i name="e_0_energy">   -192.01275271 </i>
   </energy>
  </scstep>
  <scstep>
   <time name="dav">   27.19   27.25</time>
   <time name="total">   27.70   27.77</time>
   <energy>
    <i name="e_fr_energy">   -191.79459340 </i>
    <i name="e_wo_entrp">   -191.59690456 </i>
    <i name="e_0_energy">   -191.69574898 </i>
   </energy>
  </scstep>
  <scstep>
   <time name="dav">   28.59   28.65</time>
   <time name="total">   29.10   29.17</time>
   <energy>
    <i name="e_fr_energy">   -191.66122205 </i>
    <i name="e_wo_entrp">   -191.47787239 </i>
    <i name="e_0_energy">   -191.56954722 </i>
   </energy>
  </scstep>
  <scstep>
   <time name="dav">   31.71   31.78</time>
   <time name="total">   32.22   32.30</time>
   <energy>
    <i name="e_fr_energy">   -191.69494143 </i>
    <i name="e_wo_entrp">   -191.49414487 </i>
    <i name="e_0_energy">   -191.59454315 </i>
   </energy>
  </scstep>
  <scstep>
   <time name="dav">   32.03   32.11</time>
   <time name="total">   32.54   32.62</time>
   <energy>
    <i name="e_fr_energy">   -191.46066315 </i>
    <i name="e_wo_entrp">   -191.27085750 </i>
    <i name="e_0_energy">   -191.36576033 </i>
   </energy>
  </scstep>
  <scstep>
   <time name="dav">   32.51   32.59</time>
   <time name="total">   33.03   33.12</time>
   <energy>
    <i name="e_fr_energy">   -191.45236258 </i>
    <i name="e_wo_entrp">   -191.25894576 </i>
    <i name="e_0_energy">   -191.35565417 </i>
   </energy>
  </scstep>
  <scstep>
   <time name="dav">   32.76   32.84</time>
   <time name="total">   33.27   33.35</time>
   <energy>
    <i name="e_fr_energy">   -191.45608239 </i>
    <i name="e_wo_entrp">   -191.26285734 </i>
    <i name="e_0_energy">   -191.35946986 </i>
   </energy>
  </scstep>
  <scstep>
   <time name="dav">   30.01   30.08</time>
   <time name="total">   30.53   30.61</time>
   <energy>
    <i name="e_fr_energy">   -191.44614522 </i>
    <i name="e_wo_entrp">   -191.25357963 </i>
    <i name="e_0_energy">   -191.34986242 </i>
   </energy>
  </scstep>
  <scstep>
   <time name="dav">   30.42   30.49</time>
   <time name="total">   30.93   31.01</time>
   <energy>
    <i name="e_fr_energy">   -191.44701310 </i>
    <i name="e_wo_entrp">   -191.25450667 </i>
    <i name="e_0_energy">   -191.35075989 </i>
   </energy>
  </scstep>
  <scstep>
   <time name="dav">   29.11   29.18</time>
   <time name="total">   29.63   29.71</time>
   <energy>
    <i name="e_fr_energy">   -191.44629156 </i>
    <i name="e_wo_entrp">   -191.25379560 </i>
    <i name="e_0_energy">   -191.35004358 </i>
   </energy>
  </scstep>
  <scstep>
   <time name="dav">   18.91   18.95</time>
   <time name="total">   18.95   19.00</time>
   <energy>
    <i name="alphaZ">     90.04726942 </i>
    <i name="ewald">  44614.74918125 </i>
    <i name="hartreedc"> -50623.84987563 </i>
    <i name="XCdc">   -233.34458986 </i>
    <i name="pawpsdc">   4087.42356038 </i>
    <i name="pawaedc">  -3503.40942685 </i>
    <i name="eentropy">     -0.19256753 </i>
    <i name="bandstr">  -1384.31233178 </i>
    <i name="atom">   6761.44252427 </i>
    <i name="e_fr_energy">   -191.44625633 </i>
    <i name="e_wo_entrp">   -191.25368880 </i>
    <i name="e_0_energy">   -191.34997257 </i>
   </energy>
  </scstep>
  <structure>
   <crystal>
    <varray name="basis" >
     <v>       8.28484213       4.78289604       0.00000000 </v>
     <v>      -8.28474717       4.78273684       0.00000000 </v>
     <v>       0.00000000       0.00000000      30.00000000 </v>
    </varray>
    <i name="volume">   2377.47912089 </i>
    <varray name="rec_basis" >
     <v>       0.06035052       0.10454031       0.00000000 </v>
     <v>      -0.06035253       0.10454151       0.00000000 </v>
     <v>       0.00000000       0.00000000       0.03333333 </v>
    </varray>
   </crystal>
   <varray name="positions" >
    <v>       0.33650529      -0.00324736       0.00038492 </v>
    <v>      -0.00659785      -0.00332680       0.00035521 </v>
    <v>       0.33658331       0.33985605       0.00035704 </v>
    <v>       0.65824716       0.67501152      -0.00017457 </v>
    <v>       0.35004229       0.67490501      -0.00016423 </v>
    <v>       0.65834548      -0.01679875      -0.00016404 </v>
    <v>       0.99421925       0.33892451      -0.00007870 </v>
    <v>      -0.00588420       0.65512674      -0.00006066 </v>
    <v>       0.67811273       0.33907512      -0.00006575 </v>
    <v>       0.11367444       0.21948341       0.95111652 </v>
    <v>       0.22211953       0.11105209       0.04726078 </v>
    <v>       0.11208927       0.55604971       0.94771040 </v>
    <v>       0.22456397       0.44140308       0.05081831 </v>
    <v>       0.11367800       0.89409985       0.95112489 </v>
    <v>       0.22458330       0.78302506       0.05079475 </v>
    <v>       0.43908350       0.21949255       0.95112787 </v>
    <v>       0.55015531       0.10861176       0.05079833 </v>
    <v>       0.44099053       0.54875633       0.94719726 </v>
    <v>       0.55010678       0.44142480       0.05081263 </v>
    <v>       0.44100460       0.89219320       0.94722846 </v>
    <v>       0.55547845       0.77773749       0.05499524 </v>
    <v>       0.77713858       0.22110953       0.94770263 </v>
    <v>       0.89179227       0.10863165       0.05082944 </v>
    <v>       0.77713782       0.55603983       0.94769429 </v>
    <v>       0.88887672       0.44431504       0.05438868 </v>
    <v>       0.78441400       0.89219275       0.94719051 </v>
    <v>       0.89175392       0.78307030       0.05081968 </v>
   </varray>
  </structure>
  <varray name="forces" >
   <v>       0.07648929      -0.00081593      -0.01424467 </v>
   <v>      -0.03934718      -0.06760371      -0.00868216 </v>
   <v>      -0.03844541       0.06453716      -0.00836880 </v>
   <v>      -0.20265625      -0.00194616       0.01146225 </v>
   <v>       0.10300970       0.18016732       0.00381805 </v>
   <v>       0.10034303      -0.17909818       0.00364493 </v>
   <v>      -0.59367024      -0.00104271       0.00133318 </v>
   <v>       0.29329281      -0.51200390      -0.00091554 </v>
   <v>       0.29293934       0.50927075       0.00191145 </v>
   <v>      -0.17000075       0.00097683       0.08198333 </v>
   <v>      -0.00160019       0.00054281       0.03295619 </v>
   <v>       0.11681284       0.19958137      -0.06261992 </v>
   <v>      -0.13794540       0.03492358      -0.09450604 </v>
   <v>       0.08366255      -0.14887750       0.08238112 </v>
   <v>       0.09645700      -0.10641227      -0.08779135 </v>
   <v>       0.08342912       0.15057202       0.07993732 </v>
   <v>       0.09694222       0.10725520      -0.08709874 </v>
   <v>      -0.05654990       0.10067911      -0.13283105 </v>
   <v>       0.04096198       0.13929929      -0.09130666 </v>
   <v>       0.11877547       0.00032081      -0.13041305 </v>
   <v>       0.00504895      -0.00008053       0.33430663 </v>
   <v>       0.11760384      -0.19976140      -0.06537330 </v>
   <v>      -0.13651211      -0.03481405      -0.09508224 </v>
   <v>      -0.22839676       0.00056730      -0.06553071 </v>
   <v>      -0.00454793      -0.00039672       0.53403021 </v>
   <v>      -0.05590089      -0.09881752      -0.13067003 </v>
   <v>       0.03980486      -0.13702298      -0.09233039 </v>
  </varray>
  <varray name="stress" >
   <v>       0.16818239      -0.00308853      -0.00992160 </v>
   <v>      -0.00308869       0.21518598      -0.00244670 </v>
   <v>      -0.00992150      -0.00244671      -0.35853254 </v>
  </varray>
  <energy>
   <i name="e_fr_energy">   -191.44625633 </i>
   <i name="e_wo_entrp">   -191.34997257 </i>
   <i name="e_0_energy">     -0.19256753 </i>
  </energy>
  <time name="totalsc">  364.84  365.80</time>
 </calculation>
 <calculation>
  <scstep>
   <time name="dav">   22.79   22.84</time>
   <time name="total">   23.30   23.36</time>
   <energy>
    <i name="alphaZ">     89.92207517 </i>
    <i name="ewald">  44536.32174537 </i>
    <i name="hartreedc"> -50544.97562039 </i>
    <i name="XCdc">   -233.52391143 </i>
    <i name="pawpsdc">   4087.19606742 </i>
    <i name="pawaedc">  -3503.17066529 </i>
    <i name="eentropy">     -0.19227197 </i>
    <i name="bandstr">  -1384.55180683 </i>
    <i name="atom">   6761.44252427 </i>
    <i name="e_fr_energy">   -191.53186369 </i>
    <i name="e_wo_entrp">   -191.33959172 </i>
    <i name="e_0_energy">   -191.43572770 </i>
   </energy>
  </scstep>
  <scstep>
   <time name="dav">   34.59   34.67</time>
   <time name="total">   35.10   35.19</time>
   <energy>
    <i name="e_fr_energy">   -191.66577751 </i>
    <i name="e_wo_entrp">   -191.45635119 </i>
    <i name="e_0_energy">   -191.56106435 </i>
   </energy>
  </scstep>
  <scstep>
   <time name="dav">   32.42   32.50</time>
   <time name="total">   32.94   33.02</time>
   <energy>
    <i name="e_fr_energy">   -191.53871712 </i>
    <i name="e_wo_entrp">   -191.34420304 </i>
    <i name="e_0_energy">   -191.44146008 </i>
   </energy>
  </scstep>
  <scstep>
   <time name="dav">   31.80   31.88</time>
   <time name="total">   32.31   32.39</time>
   <energy>
    <i name="e_fr_energy">   -191.53749011 </i>
    <i name="e_wo_entrp">   -191.34192907 </i>
    <i name="e_0_energy">   -191.43970959 </i>
   </energy>
  </scstep>
  <scstep>
   <time name="dav">   31.92   32.00</time>
   <time name="total">   32.43   32.52</time>
   <energy>
    <i name="e_fr_energy">   -191.53728568 </i>
    <i name="e_wo_entrp">   -191.34192742 </i>
    <i name="e_0_energy">   -191.43960655 </i>
   </energy>
  </scstep>
  <scstep>
   <time name="dav">   31.42   31.49</time>
   <time name="total">   31.92   32.01</time>
   <energy>
    <i name="e_fr_energy">   -191.53828671 </i>
    <i name="e_wo_entrp">   -191.34294203 </i>
    <i name="e_0_energy">   -191.44061437 </i>
   </energy>
  </scstep>
  <scstep>
   <time name="dav">   28.54   28.61</time>
   <time name="total">   29.05   29.13</time>
   <energy>
    <i name="e_fr_energy">   -191.53658510 </i>
    <i name="e_wo_entrp">   -191.34129803 </i>
    <i name="e_0_energy">   -191.43894157 </i>
   </energy>
  </scstep>
  <scstep>
   <time name="dav">   18.30   18.35</time>
   <time name="total">   18.34   18.39</time>
   <energy>
    <i name="alphaZ">     89.92207517 </i>
    <i name="ewald">  44536.32174537 </i>
    <i name="hartreedc"> -50546.96470304 </i>
    <i name="XCdc">   -233.44317048 </i>
    <i name="pawpsdc">   4084.38715317 </i>
    <i name="pawaedc">  -3500.32028365 </i>
    <i name="eentropy">     -0.19524213 </i>
    <i name="bandstr">  -1382.68673344 </i>
    <i name="atom">   6761.44252427 </i>
    <i name="e_fr_energy">   -191.53663476 </i>
    <i name="e_wo_entrp">   -191.34139263 </i>
    <i name="e_0_energy">   -191.43901369 </i>
   </energy>
  </scstep>
  <structure>
   <crystal>
    <varray name="basis" >
     <v>       8.29006378       4.78644771       0.00000000 </v>
     <v>      -8.29004717       4.78642419       0.00000000 </v>
     <v>       0.00000000       0.00000000      30.00000000 </v>
    </varray>
    <i name="volume">   2380.78917253 </i>
    <varray name="rec_basis" >
     <v>       0.06031308       0.10446175       0.00000000 </v>
     <v>      -0.06031338       0.10446196       0.00000000 </v>
     <v>       0.00000000       0.00000000       0.03333333 </v>
    </varray>
   </crystal>
   <varray name="positions" >
    <v>       0.33669634      -0.00344579       0.00036131 </v>
    <v>      -0.00699614      -0.00352420       0.00034045 </v>
    <v>       0.33676881       0.34023725       0.00034274 </v>
    <v>       0.65772215       0.67551860      -0.00015787 </v>
    <v>       0.35110134       0.67543910      -0.00015983 </v>
    <v>       0.65780998      -0.01784444      -0.00015989 </v>
    <v>       0.99258829       0.34054622      -0.00007484 </v>
    <v>      -0.00750981       0.65189484      -0.00006021 </v>
    <v>       0.68133111       0.34068926      -0.00006079 </v>
    <v>       0.11318677       0.21998003       0.95126540 </v>
    <v>       0.22211851       0.11105761       0.04729414 </v>
    <v>       0.11337692       0.55668647       0.94764366 </v>
    <v>       0.22432950       0.44196123       0.05064223 </v>
    <v>       0.11317207       0.89311175       0.95127479 </v>
    <v>       0.22431761       0.78221592       0.05062969 </v>
    <v>       0.44007903       0.22000703       0.95127392 </v>
    <v>       0.55096940       0.10887965       0.05063426 </v>
    <v>       0.44133378       0.54942950       0.94703336 </v>
    <v>       0.55091979       0.44198964       0.05064188 </v>
    <v>       0.44135074       0.89184993       0.94706854 </v>
    <v>       0.55549237       0.77772220       0.05546653 </v>
    <v>       0.77650292       0.21981840       0.94763158 </v>
    <v>       0.89123845       0.10886209       0.05065239 </v>
    <v>       0.77650503       0.55667801       0.94762305 </v>
    <v>       0.88886120       0.44432619       0.05517611 </v>
    <v>       0.78375160       0.89185656       0.94702996 </v>
    <v>       0.89119670       0.78227142       0.05064735 </v>
   </varray>
  </structure>
  <varray name="forces" >
   <v>       0.04861949       0.00170157      -0.01489202 </v>
   <v>      -0.02227213      -0.03775682      -0.01676216 </v>
   <v>      -0.02172181       0.03974896      -0.01580538 </v>
   <v>      -0.27681996      -0.00418569       0.05058359 </v>
   <v>       0.13864887       0.24553596       0.05420712 </v>
   <v>       0.13375175      -0.24581939       0.05412589 </v>
   <v>      -0.52795997      -0.00084082      -0.01888246 </v>
   <v>       0.26267904      -0.45484494      -0.01927420 </v>
   <v>       0.26158234       0.45131562      -0.01977867 </v>
   <v>      -0.15693228       0.00156447       0.11287202 </v>
   <v>       0.00321556       0.00169979      -0.01821198 </v>
   <v>       0.06922934       0.11768894      -0.05133219 </v>
   <v>      -0.10068626       0.00130106      -0.10134760 </v>
   <v>       0.08129157      -0.13402015       0.11525839 </v>
   <v>       0.04723840      -0.08433230      -0.10253732 </v>
   <v>       0.07964933       0.13476512       0.11478333 </v>
   <v>       0.04785114       0.08456925      -0.10090259 </v>
   <v>      -0.03446123       0.06412837      -0.08718348 </v>
   <v>       0.04949832       0.08763979      -0.09780235 </v>
   <v>       0.07174112       0.00017674      -0.08711343 </v>
   <v>       0.00051988       0.00075745       0.18798308 </v>
   <v>       0.06921397      -0.11791700      -0.05246070 </v>
   <v>      -0.10160493      -0.00126813      -0.09944726 </v>
   <v>      -0.13408858      -0.00015585      -0.05331604 </v>
   <v>      -0.00349179       0.00035204       0.45125257 </v>
   <v>      -0.03466463      -0.06425198      -0.08649859 </v>
   <v>       0.04997345      -0.08755206      -0.09751755 </v>
  </varray>
  <varray name="stress" >
   <v>      -0.02894546       0.00300344      -0.01972864 </v>
   <v>       0.00300350      -0.03018642       0.00128916 </v>
   <v>      -0.01972848       0.00128914      -1.11992528 </v>
  </varray>
  <energy>
   <i name="e_fr_energy">   -191.53663476 </i>
   <i name="e_wo_entrp">   -191.43901369 </i>
   <i name="e_0_energy">     -0.19524213 </i>
  </energy>
  <time name="totalsc">  278.96  279.69</time>
 </calculation>
 <calculation>
  <scstep>
   <time name="dav">   22.77   22.83</time>
   <time name="total">   23.29   23.34</time>
   <energy>
    <i name="alphaZ">     89.91396024 </i>
    <i name="ewald">  44537.83787757 </i>
    <i name="hartreedc"> -50547.62030707 </i>
    <i name="XCdc">   -233.44602749 </i>
    <i name="pawpsdc">   4084.33597615 </i>
    <i name="pawaedc">  -3500.26847859 </i>
    <i name="eentropy">     -0.19072113 </i>
    <i name="bandstr">  -1383.66249470 </i>
    <i name="atom">   6761.44252427 </i>
    <i name="e_fr_energy">   -191.65769075 </i>
    <i name="e_wo_entrp">   -191.46696962 </i>
    <i name="e_0_energy">   -191.56233018 </i>
   </energy>
  </scstep>
  <scstep>
   <time name="dav">   33.52   33.60</time>
   <time name="total">   34.03   34.12</time>
   <energy>
    <i name="e_fr_energy">   -191.95182098 </i>
    <i name="e_wo_entrp">   -191.72159719 </i>
    <i name="e_0_energy">   -191.83670908 </i>
   </energy>
  </scstep>
  <scstep>
   <time name="dav">   31.78   31.86</time>
   <time name="total">   32.29   32.38</time>
   <energy>
    <i name="e_fr_energy">   -191.67680427 </i>
    <i name="e_wo_entrp">   -191.48200868 </i>
    <i name="e_0_energy">   -191.57940648 </i>
   </energy>
  </scstep>
  <scstep>
   <time name="dav">   32.35   32.43</time>
   <time name="total">   32.86   32.95</time>
   <energy>
    <i name="e_fr_energy">   -191.67124022 </i>
    <i name="e_wo_entrp">   -191.47343156 </i>
    <i name="e_0_energy">   -191.57233589 </i>
   </energy>
  </scstep>
  <scstep>
   <time name="dav">   31.70   31.77</time>
   <time name="total">   32.21   32.29</time>
   <energy>
    <i name="e_fr_energy">   -191.67797606 </i>
    <i name="e_wo_entrp">   -191.47956511 </i>
    <i name="e_0_energy">   -191.57877059 </i>
   </energy>
  </scstep>
  <scstep>
   <time name="dav">   30.86   30.94</time>
   <time name="total">   31.37   31.46</time>
   <energy>
    <i name="e_fr_energy">   -191.66861541 </i>
    <i name="e_wo_entrp">   -191.47072491 </i>
    <i name="e_0_energy">   -191.56967016 </i>
   </energy>
  </scstep>
  <scstep>
   <time name="dav">   29.77   29.84</time>
   <time name="total">   30.27   30.35</time>
   <energy>
    <i name="e_fr_energy">   -191.66807124 </i>
    <i name="e_wo_entrp">   -191.46984319 </i>
    <i name="e_0_energy">   -191.56895721 </i>
   </energy>
  </scstep>
  <scstep>
   <time name="dav">   28.10   28.17</time>
   <time name="total">   28.61   28.69</time>
   <energy>
    <i name="e_fr_energy">   -191.66786251 </i>
    <i name="e_wo_entrp">   -191.46968815 </i>
    <i name="e_0_energy">   -191.56877533 </i>
   </energy>
  </scstep>
  <scstep>
   <time name="dav">   24.08   24.14</time>
   <time name="total">   24.60   24.66</time>
   <energy>
    <i name="e_fr_energy">   -191.66768309 </i>
    <i name="e_wo_entrp">   -191.46964557 </i>
    <i name="e_0_energy">   -191.56866433 </i>
   </energy>
  </scstep>
  <scstep>
   <time name="dav">   19.69   19.74</time>
   <time name="total">   19.73   19.79</time>
   <energy>
    <i name="alphaZ">     89.91396024 </i>
    <i name="ewald">  44537.83787757 </i>
    <i name="hartreedc"> -50549.13628017 </i>
    <i name="XCdc">   -233.35265757 </i>
    <i name="pawpsdc">   4091.90231805 </i>
    <i name="pawaedc">  -3507.93890265 </i>
    <i name="eentropy">     -0.19815323 </i>
    <i name="bandstr">  -1382.13837230 </i>
    <i name="atom">   6761.44252427 </i>
    <i name="e_fr_energy">   -191.66768577 </i>
    <i name="e_wo_entrp">   -191.46953254 </i>
    <i name="e_0_energy">   -191.56860915 </i>
   </energy>
  </scstep>
  <structure>
   <crystal>
    <varray name="basis" >
     <v>       8.29056192       4.78678011       0.00000000 </v>
     <v>      -8.29038246       4.78647454       0.00000000 </v>
[...]
      <set comment="kpoint 31">
       <r>  -17.5019    1.0000 </r>
       <r>  -17.2246    1.0000 </r>
       <r>  -16.8828    1.0000 </r>
       <r>  -16.5075    1.0000 </r>
       <r>  -16.4658    1.0000 </r>
       <r>  -16.3979    1.0000 </r>
       <r>  -16.2073    1.0000 </r>
       <r>  -16.1712    1.0000 </r>
       <r>  -16.1276    1.0000 </r>
       <r>  -16.0335    1.0000 </r>
       <r>  -15.9482    1.0000 </r>
       <r>  -15.8263    1.0000 </r>
       <r>  -15.7289    1.0000 </r>
       <r>  -15.6674    1.0000 </r>
       <r>  -15.6032    1.0000 </r>
       <r>  -15.5844    1.0000 </r>
       <r>  -15.5135    1.0000 </r>
       <r>  -15.4670    1.0000 </r>
       <r>   -9.7198    1.0000 </r>
       <r>   -9.4021    1.0000 </r>
       <r>   -9.3398    1.0000 </r>
       <r>   -8.9949    1.0000 </r>
       <r>   -8.7835    1.0000 </r>
       <r>   -8.7370    1.0000 </r>
       <r>   -8.5720    1.0000 </r>
       <r>   -8.4782    1.0000 </r>
       <r>   -8.3835    1.0000 </r>
       <r>   -8.2762    1.0000 </r>
       <r>   -8.2424    1.0000 </r>
       <r>   -8.1720    1.0000 </r>
       <r>   -8.1081    1.0000 </r>
       <r>   -8.0652    1.0000 </r>
       <r>   -7.9248    1.0000 </r>
       <r>   -7.8953    1.0000 </r>
       <r>   -7.8014    1.0000 </r>
       <r>   -7.6494    1.0000 </r>
       <r>   -7.5392    1.0000 </r>
       <r>   -7.3797    1.0000 </r>
       <r>   -7.3011    1.0000 </r>
       <r>   -7.1941    1.0000 </r>
       <r>   -7.0697    1.0000 </r>
       <r>   -6.9982    1.0000 </r>
       <r>   -6.9471    1.0000 </r>
       <r>   -6.9049    1.0000 </r>
       <r>   -6.8726    1.0000 </r>
       <r>   -6.7746    1.0000 </r>
       <r>   -6.7139    1.0000 </r>
       <r>   -6.6241    1.0000 </r>
       <r>   -6.5924    1.0000 </r>
       <r>   -6.5586    1.0000 </r>
       <r>   -6.3912    1.0000 </r>
       <r>   -6.3342    1.0000 </r>
       <r>   -6.2481    1.0000 </r>
       <r>   -6.1833    1.0000 </r>
       <r>   -6.1159    1.0000 </r>
       <r>   -6.0774    1.0000 </r>
       <r>   -6.0121    1.0000 </r>
       <r>   -5.9462    1.0000 </r>
       <r>   -5.8892    1.0000 </r>
       <r>   -5.8414    1.0000 </r>
       <r>   -5.6974    1.0000 </r>
       <r>   -5.6530    1.0000 </r>
       <r>   -5.5714    1.0000 </r>
       <r>   -5.4934    1.0000 </r>
       <r>   -5.3232    1.0000 </r>
       <r>   -5.1283    1.0000 </r>
       <r>   -5.0467    1.0000 </r>
       <r>   -4.9406    1.0000 </r>
       <r>   -4.8109    1.0000 </r>
       <r>   -4.7492    1.0000 </r>
       <r>   -4.5220    1.0000 </r>
       <r>   -4.4718    1.0000 </r>
       <r>   -4.4153    1.0000 </r>
       <r>   -4.1968    1.0000 </r>
       <r>   -3.9553    1.0000 </r>
       <r>   -3.8989    1.0000 </r>
       <r>   -3.8058    1.0000 </r>
       <r>   -3.6575    0.9997 </r>
       <r>   -3.4568    0.9763 </r>
       <r>   -3.0902    0.2708 </r>
       <r>   -3.0102    0.1197 </r>
       <r>   -2.9179    0.0337 </r>
       <r>   -2.7801    0.0025 </r>
       <r>   -2.7027    0.0004 </r>
       <r>   -2.6394    0.0001 </r>
       <r>   -2.5573    0.0000 </r>
       <r>   -2.4974    0.0000 </r>
       <r>   -2.3765    0.0000 </r>
       <r>   -2.2147    0.0000 </r>
       <r>   -2.0853    0.0000 </r>
       <r>   -1.9072    0.0000 </r>
       <r>   -1.8846    0.0000 </r>
       <r>   -1.8220    0.0000 </r>
       <r>   -1.3341    0.0000 </r>
       <r>   -1.1703    0.0000 </r>
       <r>   -1.0839    0.0000 </r>
       <r>   -1.0011    0.0000 </r>
       <r>   -0.9371    0.0000 </r>
       <r>   -0.8630    0.0000 </r>
       <r>   -0.7757    0.0000 </r>
       <r>   -0.7607    0.0000 </r>
       <r>   -0.7048    0.0000 </r>
       <r>   -0.5349    0.0000 </r>
       <r>   -0.4803    0.0000 </r>
       <r>   -0.4081    0.0000 </r>
       <r>   -0.2781    0.0000 </r>
       <r>   -0.2201    0.0000 </r>
       <r>   -0.1664    0.0000 </r>
       <r>    0.0108    0.0000 </r>
       <r>    0.2693    0.0000 </r>
       <r>    0.3479    0.0000 </r>
       <r>    0.5587    0.0000 </r>
       <r>    0.6362    0.0000 </r>
       <r>    0.8519    0.0000 </r>
       <r>    1.1196    0.0000 </r>
       <r>    1.2925    0.0000 </r>
       <r>    1.3542    0.0000 </r>
       <r>    2.1362    0.0000 </r>
       <r>    2.3006    0.0000 </r>
       <r>    2.3928    0.0000 </r>
      </set>
      <set comment="kpoint 32">
       <r>  -17.5147    1.0000 </r>
       <r>  -17.1344    1.0000 </r>
       <r>  -17.0159    1.0000 </r>
       <r>  -16.5064    1.0000 </r>
       <r>  -16.3924    1.0000 </r>
       <r>  -16.3496    1.0000 </r>
       <r>  -16.2154    1.0000 </r>
       <r>  -16.1808    1.0000 </r>
       <r>  -16.1358    1.0000 </r>
       <r>  -16.0305    1.0000 </r>
       <r>  -15.9754    1.0000 </r>
       <r>  -15.8796    1.0000 </r>
       <r>  -15.7283    1.0000 </r>
       <r>  -15.6531    1.0000 </r>
       <r>  -15.6109    1.0000 </r>
       <r>  -15.5672    1.0000 </r>
       <r>  -15.5250    1.0000 </r>
       <r>  -15.4432    1.0000 </r>
       <r>   -9.6344    1.0000 </r>
       <r>   -9.5422    1.0000 </r>
       <r>   -9.3942    1.0000 </r>
       <r>   -8.9841    1.0000 </r>
       <r>   -8.7004    1.0000 </r>
       <r>   -8.6009    1.0000 </r>
       <r>   -8.4950    1.0000 </r>
       <r>   -8.4640    1.0000 </r>
       <r>   -8.3631    1.0000 </r>
       <r>   -8.3219    1.0000 </r>
       <r>   -8.2448    1.0000 </r>
       <r>   -8.1912    1.0000 </r>
       <r>   -8.1449    1.0000 </r>
       <r>   -8.1365    1.0000 </r>
       <r>   -8.0446    1.0000 </r>
       <r>   -7.8766    1.0000 </r>
       <r>   -7.8700    1.0000 </r>
       <r>   -7.6076    1.0000 </r>
       <r>   -7.4574    1.0000 </r>
       <r>   -7.3788    1.0000 </r>
       <r>   -7.2779    1.0000 </r>
       <r>   -7.2382    1.0000 </r>
       <r>   -7.1138    1.0000 </r>
       <r>   -7.0351    1.0000 </r>
       <r>   -6.9512    1.0000 </r>
       <r>   -6.8995    1.0000 </r>
       <r>   -6.8511    1.0000 </r>
       <r>   -6.7548    1.0000 </r>
       <r>   -6.7159    1.0000 </r>
       <r>   -6.6265    1.0000 </r>
       <r>   -6.5330    1.0000 </r>
       <r>   -6.5092    1.0000 </r>
       <r>   -6.4481    1.0000 </r>
       <r>   -6.3860    1.0000 </r>
       <r>   -6.3009    1.0000 </r>
       <r>   -6.2040    1.0000 </r>
       <r>   -6.1272    1.0000 </r>
       <r>   -6.0917    1.0000 </r>
       <r>   -6.0258    1.0000 </r>
       <r>   -5.8955    1.0000 </r>
       <r>   -5.8478    1.0000 </r>
       <r>   -5.7549    1.0000 </r>
       <r>   -5.6857    1.0000 </r>
       <r>   -5.5622    1.0000 </r>
       <r>   -5.4574    1.0000 </r>
       <r>   -5.3981    1.0000 </r>
       <r>   -5.3380    1.0000 </r>
       <r>   -5.2823    1.0000 </r>
       <r>   -5.1210    1.0000 </r>
       <r>   -5.0196    1.0000 </r>
       <r>   -4.9351    1.0000 </r>
       <r>   -4.6921    1.0000 </r>
       <r>   -4.5489    1.0000 </r>
       <r>   -4.4617    1.0000 </r>
       <r>   -4.3638    1.0000 </r>
       <r>   -4.2022    1.0000 </r>
       <r>   -3.9612    1.0000 </r>
       <r>   -3.8815    1.0000 </r>
       <r>   -3.8036    1.0000 </r>
       <r>   -3.6897    0.9999 </r>
       <r>   -3.3934    0.9375 </r>
       <r>   -3.0715    0.2288 </r>
       <r>   -2.9759    0.0780 </r>
       <r>   -2.9384    0.0461 </r>
       <r>   -2.7933    0.0034 </r>
       <r>   -2.7119    0.0005 </r>
       <r>   -2.6711    0.0002 </r>
       <r>   -2.5497    0.0000 </r>
       <r>   -2.5102    0.0000 </r>
       <r>   -2.3440    0.0000 </r>
       <r>   -2.2601    0.0000 </r>
       <r>   -2.0650    0.0000 </r>
       <r>   -1.9122    0.0000 </r>
       <r>   -1.8671    0.0000 </r>
       <r>   -1.8434    0.0000 </r>
       <r>   -1.3255    0.0000 </r>
       <r>   -1.1890    0.0000 </r>
       <r>   -1.0623    0.0000 </r>
       <r>   -1.0145    0.0000 </r>
       <r>   -0.9097    0.0000 </r>
       <r>   -0.8969    0.0000 </r>
       <r>   -0.7848    0.0000 </r>
       <r>   -0.7423    0.0000 </r>
       <r>   -0.7085    0.0000 </r>
       <r>   -0.5208    0.0000 </r>
       <r>   -0.4852    0.0000 </r>
       <r>   -0.3289    0.0000 </r>
       <r>   -0.2876    0.0000 </r>
       <r>   -0.2463    0.0000 </r>
       <r>   -0.1321    0.0000 </r>
       <r>    0.0524    0.0000 </r>
       <r>    0.1597    0.0000 </r>
       <r>    0.3215    0.0000 </r>
       <r>    0.5777    0.0000 </r>
       <r>    0.6662    0.0000 </r>
       <r>    0.8206    0.0000 </r>
       <r>    1.1878    0.0000 </r>
       <r>    1.2042    0.0000 </r>
       <r>    1.3513    0.0000 </r>
       <r>    2.1047    0.0000 </r>
       <r>    2.2713    0.0000 </r>
       <r>    2.5693    0.0000 </r>
      </set>
      <set comment="kpoint 33">
       <r>  -17.5019    1.0000 </r>
       <r>  -17.2243    1.0000 </r>
       <r>  -16.8832    1.0000 </r>
       <r>  -16.5075    1.0000 </r>
       <r>  -16.4662    1.0000 </r>
       <r>  -16.3980    1.0000 </r>
       <r>  -16.2075    1.0000 </r>
       <r>  -16.1710    1.0000 </r>
       <r>  -16.1273    1.0000 </r>
       <r>  -16.0336    1.0000 </r>
       <r>  -15.9482    1.0000 </r>
       <r>  -15.8262    1.0000 </r>
       <r>  -15.7290    1.0000 </r>
       <r>  -15.6672    1.0000 </r>
       <r>  -15.6031    1.0000 </r>
       <r>  -15.5847    1.0000 </r>
       <r>  -15.5132    1.0000 </r>
       <r>  -15.4670    1.0000 </r>
       <r>   -9.7196    1.0000 </r>
       <r>   -9.4024    1.0000 </r>
       <r>   -9.3401    1.0000 </r>
       <r>   -8.9949    1.0000 </r>
       <r>   -8.7834    1.0000 </r>
       <r>   -8.7373    1.0000 </r>
       <r>   -8.5724    1.0000 </r>
       <r>   -8.4782    1.0000 </r>
       <r>   -8.3837    1.0000 </r>
       <r>   -8.2759    1.0000 </r>
       <r>   -8.2425    1.0000 </r>
       <r>   -8.1722    1.0000 </r>
       <r>   -8.1076    1.0000 </r>
       <r>   -8.0650    1.0000 </r>
       <r>   -7.9244    1.0000 </r>
       <r>   -7.8952    1.0000 </r>
       <r>   -7.8014    1.0000 </r>
       <r>   -7.6489    1.0000 </r>
       <r>   -7.5397    1.0000 </r>
       <r>   -7.3805    1.0000 </r>
       <r>   -7.3011    1.0000 </r>
       <r>   -7.1943    1.0000 </r>
       <r>   -7.0696    1.0000 </r>
       <r>   -6.9978    1.0000 </r>
       <r>   -6.9467    1.0000 </r>
       <r>   -6.9047    1.0000 </r>
       <r>   -6.8725    1.0000 </r>
       <r>   -6.7751    1.0000 </r>
       <r>   -6.7140    1.0000 </r>
       <r>   -6.6240    1.0000 </r>
       <r>   -6.5925    1.0000 </r>
       <r>   -6.5590    1.0000 </r>
       <r>   -6.3911    1.0000 </r>
       <r>   -6.3341    1.0000 </r>
       <r>   -6.2485    1.0000 </r>
       <r>   -6.1834    1.0000 </r>
       <r>   -6.1160    1.0000 </r>
       <r>   -6.0769    1.0000 </r>
       <r>   -6.0114    1.0000 </r>
       <r>   -5.9459    1.0000 </r>
       <r>   -5.8885    1.0000 </r>
       <r>   -5.8414    1.0000 </r>
       <r>   -5.6969    1.0000 </r>
       <r>   -5.6529    1.0000 </r>
       <r>   -5.5711    1.0000 </r>
       <r>   -5.4939    1.0000 </r>
       <r>   -5.3232    1.0000 </r>
       <r>   -5.1287    1.0000 </r>
       <r>   -5.0472    1.0000 </r>
       <r>   -4.9405    1.0000 </r>
       <r>   -4.8110    1.0000 </r>
       <r>   -4.7495    1.0000 </r>
       <r>   -4.5223    1.0000 </r>
       <r>   -4.4729    1.0000 </r>
       <r>   -4.4160    1.0000 </r>
       <r>   -4.1970    1.0000 </r>
       <r>   -3.9548    1.0000 </r>
       <r>   -3.8986    1.0000 </r>
       <r>   -3.8053    1.0000 </r>
       <r>   -3.6570    0.9997 </r>
       <r>   -3.4562    0.9760 </r>
       <r>   -3.0906    0.2717 </r>
       <r>   -3.0100    0.1195 </r>
       <r>   -2.9186    0.0341 </r>
       <r>   -2.7802    0.0025 </r>
       <r>   -2.7028    0.0004 </r>
       <r>   -2.6390    0.0001 </r>
       <r>   -2.5572    0.0000 </r>
       <r>   -2.4981    0.0000 </r>
       <r>   -2.3771    0.0000 </r>
       <r>   -2.2150    0.0000 </r>
       <r>   -2.0856    0.0000 </r>
       <r>   -1.9072    0.0000 </r>
       <r>   -1.8843    0.0000 </r>
       <r>   -1.8227    0.0000 </r>
       <r>   -1.3329    0.0000 </r>
       <r>   -1.1702    0.0000 </r>
       <r>   -1.0840    0.0000 </r>
       <r>   -1.0005    0.0000 </r>
       <r>   -0.9367    0.0000 </r>
       <r>   -0.8632    0.0000 </r>
       <r>   -0.7759    0.0000 </r>
       <r>   -0.7603    0.0000 </r>
       <r>   -0.7051    0.0000 </r>
       <r>   -0.5348    0.0000 </r>
       <r>   -0.4806    0.0000 </r>
       <r>   -0.4077    0.0000 </r>
       <r>   -0.2788    0.0000 </r>
       <r>   -0.2199    0.0000 </r>
       <r>   -0.1666    0.0000 </r>
       <r>    0.0106    0.0000 </r>
       <r>    0.2683    0.0000 </r>
       <r>    0.3483    0.0000 </r>
       <r>    0.5583    0.0000 </r>
       <r>    0.6357    0.0000 </r>
       <r>    0.8517    0.0000 </r>
       <r>    1.1199    0.0000 </r>
       <r>    1.2934    0.0000 </r>
       <r>    1.3547    0.0000 </r>
       <r>    2.1363    0.0000 </r>
       <r>    2.3006    0.0000 </r>
       <r>    2.3930    0.0000 </r>
      </set>
      <set comment="kpoint 34">
       <r>  -17.4857    1.0000 </r>
       <r>  -17.2800    1.0000 </r>
       <r>  -16.7075    1.0000 </r>
       <r>  -16.6501    1.0000 </r>
       <r>  -16.5002    1.0000 </r>
       <r>  -16.4049    1.0000 </r>
       <r>  -16.1698    1.0000 </r>
       <r>  -16.1672    1.0000 </r>
       <r>  -16.1646    1.0000 </r>
       <r>  -16.0270    1.0000 </r>
       <r>  -15.9336    1.0000 </r>
       <r>  -15.7414    1.0000 </r>
       <r>  -15.7283    1.0000 </r>
       <r>  -15.6750    1.0000 </r>
       <r>  -15.6612    1.0000 </r>
       <r>  -15.5435    1.0000 </r>
       <r>  -15.5289    1.0000 </r>
       <r>  -15.4903    1.0000 </r>
       <r>   -9.7611    1.0000 </r>
       <r>   -9.2744    1.0000 </r>
       <r>   -9.2634    1.0000 </r>
       <r>   -9.0350    1.0000 </r>
       <r>   -8.8953    1.0000 </r>
       <r>   -8.8571    1.0000 </r>
       <r>   -8.5824    1.0000 </r>
       <r>   -8.5079    1.0000 </r>
       <r>   -8.3857    1.0000 </r>
       <r>   -8.2832    1.0000 </r>
       <r>   -8.2386    1.0000 </r>
       <r>   -8.1470    1.0000 </r>
       <r>   -8.0813    1.0000 </r>
       <r>   -7.9621    1.0000 </r>
       <r>   -7.9610    1.0000 </r>
       <r>   -7.8045    1.0000 </r>
       <r>   -7.7371    1.0000 </r>
       <r>   -7.6699    1.0000 </r>
       <r>   -7.6016    1.0000 </r>
       <r>   -7.3346    1.0000 </r>
       <r>   -7.3220    1.0000 </r>
       <r>   -7.2727    1.0000 </r>
       <r>   -7.0390    1.0000 </r>
       <r>   -7.0132    1.0000 </r>
       <r>   -6.9136    1.0000 </r>
       <r>   -6.8987    1.0000 </r>
       <r>   -6.8756    1.0000 </r>
       <r>   -6.7486    1.0000 </r>
       <r>   -6.6849    1.0000 </r>
       <r>   -6.6348    1.0000 </r>
       <r>   -6.6142    1.0000 </r>
       <r>   -6.5731    1.0000 </r>
       <r>   -6.3482    1.0000 </r>
       <r>   -6.3244    1.0000 </r>
       <r>   -6.2300    1.0000 </r>
       <r>   -6.1650    1.0000 </r>
       <r>   -6.1370    1.0000 </r>
       <r>   -6.0934    1.0000 </r>
       <r>   -6.0646    1.0000 </r>
       <r>   -5.9418    1.0000 </r>
       <r>   -5.9283    1.0000 </r>
       <r>   -5.8226    1.0000 </r>
       <r>   -5.7953    1.0000 </r>
       <r>   -5.6495    1.0000 </r>
       <r>   -5.5646    1.0000 </r>
       <r>   -5.5065    1.0000 </r>
       <r>   -5.4953    1.0000 </r>
       <r>   -5.0328    1.0000 </r>
       <r>   -4.9621    1.0000 </r>
       <r>   -4.8134    1.0000 </r>
       <r>   -4.7420    1.0000 </r>
       <r>   -4.7145    1.0000 </r>
       <r>   -4.6169    1.0000 </r>
       <r>   -4.5557    1.0000 </r>
       <r>   -4.3293    1.0000 </r>
       <r>   -4.2375    1.0000 </r>
       <r>   -3.9579    1.0000 </r>
       <r>   -3.8923    1.0000 </r>
       <r>   -3.8160    1.0000 </r>
       <r>   -3.5978    0.9986 </r>
       <r>   -3.5526    0.9961 </r>
       <r>   -3.0684    0.2223 </r>
       <r>   -3.0593    0.2036 </r>
       <r>   -2.9286    0.0398 </r>
       <r>   -2.7404    0.0010 </r>
       <r>   -2.7263    0.0007 </r>
       <r>   -2.5855    0.0000 </r>
       <r>   -2.5640    0.0000 </r>
       <r>   -2.4900    0.0000 </r>
       <r>   -2.4072    0.0000 </r>
       <r>   -2.1487    0.0000 </r>
       <r>   -2.1366    0.0000 </r>
       <r>   -1.8995    0.0000 </r>
       <r>   -1.8962    0.0000 </r>
       <r>   -1.8098    0.0000 </r>
       <r>   -1.3356    0.0000 </r>
       <r>   -1.1571    0.0000 </r>
       <r>   -1.1012    0.0000 </r>
       <r>   -0.9853    0.0000 </r>
       <r>   -0.9613    0.0000 </r>
       <r>   -0.8321    0.0000 </r>
       <r>   -0.7698    0.0000 </r>
       <r>   -0.7673    0.0000 </r>
       <r>   -0.7087    0.0000 </r>
       <r>   -0.5369    0.0000 </r>
       <r>   -0.4820    0.0000 </r>
       <r>   -0.4691    0.0000 </r>
       <r>   -0.2861    0.0000 </r>
       <r>   -0.2642    0.0000 </r>
       <r>   -0.1429    0.0000 </r>
       <r>    0.0184    0.0000 </r>
       <r>    0.3182    0.0000 </r>
       <r>    0.3856    0.0000 </r>
       <r>    0.5455    0.0000 </r>
       <r>    0.6025    0.0000 </r>
       <r>    0.8777    0.0000 </r>
       <r>    1.0954    0.0000 </r>
       <r>    1.3415    0.0000 </r>
       <r>    1.3558    0.0000 </r>
       <r>    2.2257    0.0000 </r>
       <r>    2.2387    0.0000 </r>
       <r>    2.3664    0.0000 </r>
      </set>
     </set>
    </set>
   </array>
  </eigenvalues>
  <separator name="orbital magnetization" >
   <v name="MAGDIPOLOUT">      0.00000000      0.00000000      0.00000000</v>
  </separator>
 </calculation>
 <structure name="finalpos" >
  <crystal>
   <varray name="basis" >
    <v>       8.34845535       4.82070383       0.00000000 </v>
    <v>      -8.34849312       4.82077445       0.00000000 </v>
    <v>       0.00000000       0.00000000      30.00000000 </v>
   </varray>
   <i name="volume">   2414.74899187 </i>
   <varray name="rec_basis" >
    <v>       0.05989162       0.10371877       0.00000000 </v>
    <v>      -0.05989074       0.10371830       0.00000000 </v>
    <v>       0.00000000       0.00000000       0.03333333 </v>
   </varray>
  </crystal>
  <varray name="positions" >
   <v>       0.33713581      -0.00354261       0.00030334 </v>
   <v>      -0.00745055      -0.00381301       0.00026499 </v>
   <v>       0.33714709       0.34055203       0.00028899 </v>
   <v>       0.65401705       0.67932147       0.00011861 </v>
   <v>       0.35876117       0.67938239       0.00011639 </v>
   <v>       0.65394112      -0.02544977       0.00011646 </v>
   <v>       0.98650695       0.34641748      -0.00020883 </v>
   <v>      -0.01355609       0.64003076      -0.00020669 </v>
   <v>       0.69302893       0.34654117      -0.00021714 </v>
   <v>       0.11062756       0.22255082       0.95266928 </v>
   <v>       0.22215407       0.11102689       0.04671731 </v>
   <v>       0.11699145       0.55847329       0.94773437 </v>
   <v>       0.22278490       0.44295554       0.04931597 </v>
   <v>       0.11066960       0.88802573       0.95266904 </v>
   <v>       0.22277326       0.77977961       0.04931823 </v>
   <v>       0.44513051       0.22249986       0.95260948 </v>
   <v>       0.55341410       0.11038541       0.04936585 </v>
   <v>       0.44239494       0.55147613       0.94682228 </v>
   <v>       0.55342013       0.44298127       0.04937807 </v>
   <v>       0.44236721       0.89087756       0.94681226 </v>
   <v>       0.55552175       0.77770468       0.05726062 </v>
   <v>       0.77468483       0.21619608       0.94768995 </v>
   <v>       0.89026104       0.11037196       0.04936409 </v>
   <v>       0.77469169       0.55843045       0.94766599 </v>
   <v>       0.88875942       0.44435861       0.05784740 </v>
   <v>       0.78177105       0.89085059       0.94680147 </v>
   <v>       0.89026544       0.77983005       0.04938212 </v>
  </varray>
 </structure>
</modeling>
