unknown system                          
           1
     8.858119    5.106923    0.000000
    -8.857715    5.106229    0.000000
     0.000000    0.000000   30.000000
   V    Mo   W    S 
   3   3   3  18
Direct configuration=     1
   0.33333334  0.00000000  0.00000000
   0.00000000  0.00000000  0.00000000
   0.33333334  0.33333334  0.00000000
   0.66666669  0.66666669  0.00000000
   0.33333334  0.66666669  0.00000000
   0.66666669  0.00000000  0.00000000
   1.00000000  0.33333334  0.00000000
   0.00000000  0.66666669  0.00000000
   0.66666669  0.33333334  0.00000000
   0.11068511  0.22244981  0.95539999
   0.22244981  0.11068511  0.04460000
   0.11068511  0.55578315  0.95539999
   0.22244981  0.44401845  0.04460000
   0.11068511  0.88911647  0.95539999
   0.22244981  0.77735180  0.04460000
   0.44401845  0.22244981  0.95539999
   0.55578315  0.11068511  0.04460000
   0.44401845  0.55578315  0.95539999
   0.55578315  0.44401845  0.04460000
   0.44401845  0.88911647  0.95539999
   0.55578315  0.77735180  0.04460000
   0.77735180  0.22244981  0.95539999
   0.88911647  0.11068511  0.04460000
   0.77735180  0.55578315  0.95539999
   0.88911647  0.44401845  0.04460000
   0.77735180  0.88911647  0.95539999
   0.88911647  0.77735180  0.04460000
unknown system                          
           1
     8.668996    5.000048    0.000000
    -8.668715    4.999568    0.000000
     0.000000    0.000000   30.000000
   V    Mo   W    S 
   3   3   3  18
Direct configuration=     2
   0.33392876 -0.00060273  0.00010996
  -0.00124432 -0.00059597  0.00010222
   0.33390892  0.33454210  0.00009791
   0.66516204  0.66821112 -0.00024450
   0.33625537  0.66803733 -0.00025574
   0.66530530 -0.00294706 -0.00025046
   1.00028411  0.33295474  0.00014257
   0.00018300  0.66721360  0.00016585
   0.66611829  0.33310131  0.00016606
   0.11273935  0.22033407  0.95304270
   0.22222687  0.11085189  0.04578081
   0.11040352  0.55510512  0.95079754
   0.22345933  0.44139944  0.04796256
   0.11249778  0.89229625  0.95311655
   0.22322234  0.78162094  0.04801878
   0.44086571  0.22062054  0.95311615
   0.55151060  0.10991860  0.04800950
   0.44220406  0.55109517  0.95190342
   0.55148644  0.44162246  0.04802190
   0.44200868  0.89115545  0.95196816
   0.55546329  0.77770105  0.04932906
   0.77805100  0.22275758  0.95079527
   0.89177677  0.10968189  0.04795649
   0.77803955  0.55511366  0.95080220
   0.88875788  0.44439543  0.04941960
   0.78205919  0.89095509  0.95189937
   0.89154064  0.78167538  0.04802596
unknown system                          
           1
     8.486242    4.899481    0.000000
    -8.486392    4.899746    0.000000
     0.000000    0.000000   30.000000
   V    Mo   W    S 
   3   3   3  18
Direct configuration=     3
   0.33413023 -0.00080457  0.00016244
  -0.00165912 -0.00080745  0.00015124
   0.33412125  0.33495929  0.00014789
   0.66458537  0.66878918 -0.00026692
   0.33741117  0.66861400 -0.00028031
   0.66472818 -0.00410496 -0.00027572
   1.00002750  0.33320627  0.00012630
  -0.00007355  0.66670237  0.00015258
   0.66662888  0.33335506  0.00015326
   0.11267058  0.22041044  0.95313873
   0.22221561  0.11086849  0.04562602
   0.11017985  0.55501213  0.95085711
   0.22327615  0.44125596  0.04794011
   0.11246524  0.89217047  0.95320270
   0.22307381  0.78160563  0.04798489
   0.44098952  0.22065586  0.95320278
   0.55152592  0.11006758  0.04797708
   0.44211842  0.55095546  0.95179073
   0.55150055  0.44145130  0.04798781
   0.44195362  0.89121275  0.95185055
   0.55546734  0.77769861  0.04949998
   0.77814564  0.22298316  0.95085351
   0.89191663  0.10986682  0.04793740
   0.77813719  0.55501719  0.95085725
   0.88877514  0.44437709  0.04944381
   0.78219536  0.89104007  0.95178508
   0.89170800  0.78165625  0.04799359
unknown system                          
           1
     8.284842    4.782896    0.000000
    -8.284747    4.782737    0.000000
     0.000000    0.000000   30.000000
   V    Mo   W    S 
   3   3   3  18
Direct configuration=     4
   0.33502127 -0.00172538  0.00030933
  -0.00352613 -0.00176678  0.00028802
   0.33506393  0.33682514  0.00028838
   0.66239931  0.67093222 -0.00024500
   0.34175090  0.67077165 -0.00025670
   0.66253083 -0.00847959 -0.00025611
   0.99833479  0.33487862  0.00002693
  -0.00176372  0.66332058  0.00005071
   0.66998368  0.33502184  0.00005059
   0.11322974  0.21988341  0.95218202
   0.22217758  0.11093860  0.04624104
   0.11033320  0.55515876  0.94948936
   0.22384132  0.44097419  0.04927716
   0.11314534  0.89330903  0.95221419
   0.22376243  0.78255427  0.04928373
   0.43986352  0.21999774  0.95221715
   0.55058622  0.10939639  0.04928156
   0.44140630  0.54960580  0.94988025
   0.55055826  0.44108051  0.04928865
   0.44133372  0.89184706  0.94992254
   0.55547759  0.77769463  0.05174409
   0.77801365  0.22284756  0.94948203
   0.89220509  0.10932194  0.04928526
   0.77801416  0.55515019  0.94947643
   0.88884135  0.44431792  0.05131078
   0.78355211  0.89176265  0.94986859
   0.89207801  0.78259551  0.04929889
unknown system                          
           1
     8.290064    4.786448    0.000000
    -8.290047    4.786424    0.000000
     0.000000    0.000000   30.000000
   V    Mo   W    S 
   3   3   3  18
Direct configuration=     5
   0.33650529 -0.00324736  0.00038492
  -0.00659785 -0.00332680  0.00035521
   0.33658331  0.33985605  0.00035704
   0.65824716  0.67501152 -0.00017457
   0.35004229  0.67490501 -0.00016423
   0.65834548 -0.01679875 -0.00016404
   0.99421925  0.33892451 -0.00007870
  -0.00588420  0.65512674 -0.00006066
   0.67811273  0.33907512 -0.00006575
   0.11367444  0.21948341  0.95111652
   0.22211953  0.11105209  0.04726078
   0.11208927  0.55604971  0.94771040
   0.22456397  0.44140308  0.05081831
   0.11367800  0.89409985  0.95112489
   0.22458330  0.78302506  0.05079475
   0.43908350  0.21949255  0.95112787
   0.55015531  0.10861176  0.05079833
   0.44099053  0.54875633  0.94719726
   0.55010678  0.44142480  0.05081263
   0.44100460  0.89219320  0.94722846
   0.55547845  0.77773749  0.05499524
   0.77713858  0.22110953  0.94770263
   0.89179227  0.10863165  0.05082944
   0.77713782  0.55603983  0.94769429
   0.88887672  0.44431504  0.05438868
   0.78441400  0.89219275  0.94719051
   0.89175392  0.78307030  0.05081968
unknown system                          
           1
     8.290562    4.786780    0.000000
    -8.290382    4.786475    0.000000
     0.000000    0.000000   30.000000
   V    Mo   W    S 
   3   3   3  18
Direct configuration=     6
   0.33669634 -0.00344579  0.00036131
  -0.00699614 -0.00352420  0.00034045
   0.33676881  0.34023725  0.00034274
   0.65772215  0.67551860 -0.00015787
   0.35110134  0.67543910 -0.00015983
   0.65780998 -0.01784444 -0.00015989
   0.99258829  0.34054622 -0.00007484
  -0.00750981  0.65189484 -0.00006021
   0.68133111  0.34068926 -0.00006079
   0.11318677  0.21998003  0.95126540
   0.22211851  0.11105761  0.04729414
   0.11337692  0.55668647  0.94764366
   0.22432950  0.44196123  0.05064223
   0.11317207  0.89311175  0.95127479
   0.22431761  0.78221592  0.05062969
   0.44007903  0.22000703  0.95127392
   0.55096940  0.10887965  0.05063426
   0.44133378  0.54942950  0.94703336
   0.55091979  0.44198964  0.05064188
   0.44135074  0.89184993  0.94706854
   0.55549237  0.77772220  0.05546653
   0.77650292  0.21981840  0.94763158
   0.89123845  0.10886209  0.05065239
   0.77650503  0.55667801  0.94762305
   0.88886120  0.44432619  0.05517611
   0.78375160  0.89185656  0.94702996
   0.89119670  0.78227142  0.05064735
unknown system                          
           1
     8.307246    4.796637    0.000000
    -8.307127    4.796438    0.000000
     0.000000    0.000000   30.000000
   V    Mo   W    S 
   3   3   3  18
Direct configuration=     7
   0.33698529 -0.00369717  0.00030940
  -0.00747557 -0.00375907  0.00028203
   0.33702958  0.34073583  0.00028756
   0.65604324  0.67710941  0.00001376
   0.35443313  0.67713405  0.00002421
   0.65608265 -0.02114864  0.00002390
   0.98941769  0.34370014 -0.00013769
  -0.01065376  0.64560415 -0.00012417
   0.68757855  0.34380352 -0.00012653
   0.11223187  0.22096753  0.95167205
   0.22215777  0.11105380  0.04720937
   0.11500549  0.55748856  0.94750601
   0.22370815  0.44257814  0.05026712
   0.11223707  0.89117296  0.95169004
   0.22369285  0.78102521  0.05025075
   0.44201515  0.22095947  0.95168765
   0.55216565  0.10950243  0.05026080
   0.44180960  0.55033395  0.94679055
   0.55215964  0.44260386  0.05027914
   0.44179661  0.89140745  0.94682608
   0.55550331  0.77772691  0.05603641
   0.77569793  0.21818721  0.94749020
   0.89061575  0.10948901  0.05028375
   0.77570405  0.55747524  0.94747880
   0.88884298  0.44435155  0.05664370
   0.78284397  0.89138018  0.94678935
   0.89058581  0.78102877  0.05028567
unknown system                          
           1
     8.305948    4.795982    0.000000
    -8.305804    4.795738    0.000000
     0.000000    0.000000   30.000000
   V    Mo   W    S 
   3   3   3  18
Direct configuration=     8
   0.33696893 -0.00368454  0.00031976
  -0.00746152 -0.00375492  0.00029696
   0.33701720  0.34070845  0.00030141
   0.65607589  0.67711645 -0.00005206
   0.35439387  0.67711206 -0.00004979
   0.65612008 -0.02112058 -0.00005086
   0.98947116  0.34363260 -0.00013667
  -0.01060298  0.64572512 -0.00012739
   0.68746607  0.34374955 -0.00012977
   0.11213980  0.22105309  0.95171073
   0.22214486  0.11105898  0.04717623
   0.11507196  0.55752454  0.94747865
   0.22363896  0.44248394  0.05025105
   0.11213668  0.89099612  0.95172494
   0.22362346  0.78103922  0.05023973
   0.44219392  0.22105620  0.95171949
   0.55215000  0.10957375  0.05025179
   0.44179139  0.55031392  0.94677978
   0.55212808  0.44250447  0.05026261
   0.44179075  0.89141089  0.94681037
   0.55550736  0.77772019  0.05628518
   0.77566474  0.21812507  0.94746267
   0.89071541  0.10955326  0.05026475
   0.77567525  0.55750546  0.94745081
   0.88884048  0.44434474  0.05671205
   0.78286641  0.89139900  0.94678293
   0.89068622  0.78106742  0.05026453
unknown system                          
           1
     8.314253    4.800787    0.000000
    -8.314106    4.800539    0.000000
     0.000000    0.000000   30.000000
   V    Mo   W    S 
   3   3   3  18
Direct configuration=     9
   0.33701267 -0.00372486  0.00032348
  -0.00755250 -0.00380469  0.00030022
   0.33705969  0.34078038  0.00030442
   0.65555461  0.67766373  0.00000281
   0.35547833  0.67766713  0.00000547
   0.65557749 -0.02220531  0.00000532
   0.98861659  0.34447010 -0.00014859
  -0.01145117  0.64404162 -0.00013974
   0.68914445  0.34458655 -0.00014177
   0.11180182  0.22138386  0.95190186
   0.22213842  0.11105561  0.04707879
   0.11546298  0.55771664  0.94749282
   0.22342285  0.44259218  0.05007004
   0.11179984  0.89033011  0.95191387
   0.22340582  0.78072102  0.05006042
   0.44286331  0.22139149  0.95190361
   0.55246852  0.10979175  0.05007455
   0.44192230  0.55056983  0.94676149
   0.55244533  0.44260758  0.05008488
   0.44192065  0.89128145  0.94678622
   0.55550943  0.77771868  0.05645417
   0.77547169  0.21773454  0.94747438
   0.89061481  0.10976415  0.05008215
   0.77548227  0.55769615  0.94746040
   0.88883246  0.44434837  0.05703843
   0.78262103  0.89127394  0.94676665
   0.89059078  0.78076245  0.05008355
unknown system                          
           1
     8.323036    4.805737    0.000000
    -8.323012    4.805700    0.000000
     0.000000    0.000000   30.000000
   V    Mo   W    S 
   3   3   3  18
Direct configuration=    10
   0.33700933 -0.00372995  0.00032038
  -0.00761698 -0.00383588  0.00029783
   0.33705766  0.34078708  0.00030188
   0.65533148  0.67796583  0.00002322
   0.35600567  0.67792655  0.00002534
   0.65535656 -0.02273545  0.00002617
   0.98823348  0.34483372 -0.00016151
  -0.01183672  0.64329594 -0.00015366
   0.68989032  0.34496246 -0.00015424
   0.11159219  0.22157135  0.95201780
   0.22211736  0.11105215  0.04702554
   0.11572424  0.55784549  0.94749654
   0.22329963  0.44264749  0.04996970
   0.11158223  0.88992885  0.95202663
   0.22327840  0.78053889  0.04996289
   0.44327226  0.22160218  0.95201102
   0.55264929  0.10991916  0.04997698
   0.44199481  0.55070828  0.94674636
   0.55261737  0.44265661  0.04998489
   0.44199647  0.89120895  0.94676682
   0.55551008  0.77771696  0.05660470
   0.77534275  0.21747595  0.94747524
   0.89057146  0.10987751  0.04997995
   0.77535479  0.55782082  0.94746048
   0.88882678  0.44435036  0.05723639
   0.78250149  0.89121262  0.94675066
   0.89055205  0.78061053  0.04998189
unknown system                          
           1
     8.330510    4.810302    0.000000
    -8.330339    4.810012    0.000000
     0.000000    0.000000   30.000000
   V    Mo   W    S 
   3   3   3  18
Direct configuration=    11
   0.33709027 -0.00374804  0.00031661
  -0.00763171 -0.00385816  0.00028482
   0.33712204  0.34082780  0.00029712
   0.65464087  0.67854506  0.00006273
   0.35732689  0.67863216  0.00006022
   0.65460767 -0.02402859  0.00006314
   0.98732318  0.34575064 -0.00018157
  -0.01273090  0.64148810 -0.00017558
   0.69166504  0.34584243 -0.00017303
   0.11114141  0.22206881  0.95230698
   0.22214902  0.11105548  0.04687644
   0.11625079  0.55810480  0.94757458
   0.22301910  0.44276557  0.04969058
   0.11114798  0.88899632  0.95231766
   0.22301093  0.78017305  0.04967945
   0.44418626  0.22204844  0.95230454
   0.55301968  0.11017615  0.04969480
   0.44218945  0.55106172  0.94677145
   0.55301126  0.44278201  0.04970818
   0.44217992  0.89105190  0.94679214
   0.55551966  0.77771413  0.05689820
   0.77507019  0.21693371  0.94754535
   0.89043492  0.11017646  0.04972166
   0.77508204  0.55808259  0.94752644
   0.88881764  0.44435673  0.05756184
   0.78214794  0.89103073  0.94675027
   0.89042293  0.78018447  0.04972487
unknown system                          
           1
     8.331315    4.810722    0.000000
    -8.331195    4.810520    0.000000
     0.000000    0.000000   30.000000
   V    Mo   W    S 
   3   3   3  18
Direct configuration=    12
   0.33706899 -0.00372972  0.00031300
  -0.00763486 -0.00385643  0.00028616
   0.33710550  0.34080400  0.00029555
   0.65472821  0.67853311  0.00006440
   0.35721039  0.67855258  0.00006781
   0.65472061 -0.02392302  0.00006717
   0.98741317  0.34563258 -0.00018108
  -0.01265014  0.64169161 -0.00017781
   0.69146889  0.34575119 -0.00018174
   0.11114861  0.22204546  0.95229117
   0.22213837  0.11105464  0.04689414
   0.11630109  0.55813158  0.94754764
   0.22303495  0.44276961  0.04971016
   0.11114897  0.88902178  0.95229899
   0.22302034  0.78017451  0.04970421
   0.44416318  0.22204119  0.95228117
   0.55301737  0.11017002  0.04972364
   0.44216461  0.55102651  0.94674412
   0.55299742  0.44277954  0.04973337
   0.44215659  0.89106452  0.94675845
   0.55551897  0.77771518  0.05692499
   0.77504803  0.21689459  0.94752254
   0.89043891  0.11014991  0.04973347
   0.77506321  0.55809894  0.94750553
   0.88881657  0.44435647  0.05759575
   0.78217685  0.89104767  0.94673860
   0.89042963  0.78021645  0.04973852
unknown system                          
           1
     8.334177    4.812352    0.000000
    -8.334083    4.812195    0.000000
     0.000000    0.000000   30.000000
   V    Mo   W    S 
   3   3   3  18
Direct configuration=    13
   0.33708408 -0.00371222  0.00031121
  -0.00762135 -0.00385109  0.00028313
   0.33711988  0.34079963  0.00029469
   0.65449269  0.67875196  0.00007967
   0.35767288  0.67877958  0.00008052
   0.65448711 -0.02438151  0.00008149
   0.98712334  0.34590984 -0.00018850
  -0.01294053  0.64112838 -0.00018513
   0.69202108  0.34602919 -0.00018807
   0.11099984  0.22219634  0.95240246
   0.22213863  0.11105679  0.04683428
   0.11646916  0.55821434  0.94759805
   0.22295436  0.44281300  0.04960100
   0.11099792  0.88872173  0.95240750
   0.22293884  0.78005164  0.04959629
   0.44445808  0.22219077  0.95238557
   0.55314186  0.11024875  0.04961888
   0.44222874  0.55115081  0.94676827
   0.55311807  0.44282226  0.04962828
   0.44222152  0.89100320  0.94678068
   0.55552267  0.77771526  0.05700315
   0.77496373  0.21672419  0.94756995
   0.89039294  0.11022787  0.04962684
   0.77497877  0.55818189  0.94755112
   0.88880591  0.44435697  0.05766342
   0.78205559  0.89098711  0.94676225
   0.89038865  0.78009777  0.04963288
unknown system                          
           1
     8.343696    4.817827    0.000000
    -8.343159    4.816902    0.000000
     0.000000    0.000000   30.000000
   V    Mo   W    S 
   3   3   3  18
Direct configuration=    14
   0.33708427 -0.00367385  0.00030935
  -0.00759720 -0.00382802  0.00028071
   0.33714340  0.34082995  0.00029483
   0.65437563  0.67878950  0.00008557
   0.35783062  0.67880747  0.00008531
   0.65442329 -0.02453217  0.00008701
   0.98703427  0.34600251 -0.00019048
  -0.01303994  0.64094196 -0.00018619
   0.69219423  0.34612377 -0.00018952
   0.11096243  0.22226599  0.95244267
   0.22214671  0.11108386  0.04681770
   0.11654619  0.55825193  0.94761246
   0.22293335  0.44282165  0.04956041
   0.11093059  0.88859905  0.95244000
   0.22290146  0.77999152  0.04956176
   0.44456597  0.22226689  0.95242035
   0.55320312  0.11028320  0.04958747
   0.44224569  0.55118290  0.94677268
   0.55314542  0.44283033  0.04958979
   0.44225041  0.89097450  0.94678174
   0.55552336  0.77771538  0.05704161
   0.77492200  0.21664133  0.94758275
   0.89037071  0.11025730  0.04959335
   0.77493906  0.55821885  0.94756247
   0.88880096  0.44435688  0.05769356
   0.78200755  0.89096231  0.94676412
   0.89037088  0.78004945  0.04959840
unknown system                          
           1
     8.346112    4.819421    0.000000
    -8.346422    4.819962    0.000000
     0.000000    0.000000   30.000000
   V    Mo   W    S 
   3   3   3  18
Direct configuration=    15
   0.33710434 -0.00367001  0.00031377
  -0.00755557 -0.00385846  0.00027797
   0.33709990  0.34062385  0.00028323
   0.65430938  0.67921979  0.00010768
   0.35835621  0.67930275  0.00010660
   0.65409706 -0.02508335  0.00010216
   0.98672793  0.34619960 -0.00021062
  -0.01328437  0.64048438 -0.00020154
   0.69264600  0.34630821 -0.00021455
   0.11070422  0.22241475  0.95257789
   0.22213357  0.11100549  0.04674300
   0.11682047  0.55838885  0.94767762
   0.22279702  0.44291317  0.04943963
   0.11077952  0.88824925  0.95260273
   0.22284188  0.77989343  0.04939358
   0.44493992  0.22237571  0.95254602
   0.55329551  0.11034056  0.04943373
   0.44233828  0.55135310  0.94676461
   0.55337066  0.44293033  0.04948140
   0.44230384  0.89089787  0.94681699
   0.55552116  0.77770627  0.05718921
   0.77478513  0.21638145  0.94764681
   0.89032822  0.11033847  0.04944768
   0.77479136  0.55835155  0.94761848
   0.88878202  0.44435239  0.05781449
   0.78186646  0.89087231  0.94679021
   0.89031435  0.77992273  0.04945113
unknown system                          
           1
     8.348455    4.820704    0.000000
    -8.348493    4.820774    0.000000
     0.000000    0.000000   30.000000
   V    Mo   W    S 
   3   3   3  18
Direct configuration=    16
   0.33713623 -0.00359246  0.00030560
  -0.00749125 -0.00382784  0.00026899
   0.33715095  0.34061732  0.00029096
   0.65401685  0.67927893  0.00011376
   0.35871513  0.67935226  0.00011428
   0.65394864 -0.02540675  0.00012707
   0.98653916  0.34642796 -0.00017888
  -0.01353101  0.64005271 -0.00020427
   0.69302706  0.34654821 -0.00019063
   0.11064251  0.22251903  0.95264523
   0.22214879  0.11101344  0.04671858
   0.11695823  0.55846835  0.94772199
   0.22278878  0.44295147  0.04933470
   0.11070294  0.88808323  0.95265604
   0.22279408  0.77980489  0.04933590
   0.44508686  0.22246447  0.95259772
   0.55338332  0.11037107  0.04937431
   0.44240065  0.55148391  0.94682857
   0.55341390  0.44297350  0.04939020
   0.44234764  0.89088575  0.94681161
   0.55552279  0.77770613  0.05722971
   0.77469642  0.21621609  0.94766878
   0.89027129  0.11036523  0.04937709
   0.77472537  0.55842446  0.94765969
   0.88876117  0.44433918  0.05780664
   0.78178980  0.89085284  0.94679913
   0.89026814  0.77984106  0.04939711
unknown system                          
           1
     8.348455    4.820704    0.000000
    -8.348493    4.820774    0.000000
     0.000000    0.000000   30.000000
   V    Mo   W    S 
   3   3   3  18
Direct configuration=    17
   0.33713581 -0.00354261  0.00030334
  -0.00745055 -0.00381301  0.00026499
   0.33714709  0.34055203  0.00028899
   0.65401705  0.67932147  0.00011861
   0.35876117  0.67938239  0.00011639
   0.65394112 -0.02544977  0.00011646
   0.98650695  0.34641748 -0.00020883
  -0.01355609  0.64003076 -0.00020669
   0.69302893  0.34654117 -0.00021714
   0.11062756  0.22255082  0.95266928
   0.22215407  0.11102689  0.04671731
   0.11699145  0.55847329  0.94773437
   0.22278490  0.44295554  0.04931597
   0.11066960  0.88802573  0.95266904
   0.22277326  0.77977961  0.04931823
   0.44513051  0.22249986  0.95260948
   0.55341410  0.11038541  0.04936585
   0.44239494  0.55147613  0.94682228
   0.55342013  0.44298127  0.04937807
   0.44236721  0.89087756  0.94681226
   0.55552175  0.77770468  0.05726062
   0.77468483  0.21619608  0.94768995
   0.89026104  0.11037196  0.04936409
   0.77469169  0.55843045  0.94766599
   0.88875942  0.44435861  0.05784740
   0.78177105  0.89085059  0.94680147
   0.89026544  0.77983005  0.04938212
