   27   27  100    1
  0.9710400E+02  0.1002848E-08  0.1002848E-08  0.3000000E-08  0.5000000E-15
  1.000000000000000E-004
  CAR 
 unknown system                          
    159     34    120
 
  0.0000000E+00  0.0000000E+00  0.0000000E+00  0.1562500E-01
    1      -17.833279   1.000000
    2      -16.738984   1.000000
    3      -16.645196   1.000000
    4      -16.610901   1.000000
    5      -16.536583   1.000000
    6      -16.423797   1.000000
    7      -16.371921   1.000000
    8      -16.345849   1.000000
    9      -16.188816   1.000000
   10      -16.142132   1.000000
   11      -16.080972   1.000000
   12      -15.958666   1.000000
   13      -15.941374   1.000000
   14      -15.744925   1.000000
   15      -15.560874   1.000000
   16      -15.499930   1.000000
   17      -15.254162   1.000000
   18      -15.125164   1.000000
   19       -9.309647   1.000000
   20       -9.068559   1.000000
   21       -8.843553   1.000000
   22       -8.822368   1.000000
   23       -8.766267   1.000000
   24       -8.744758   1.000000
   25       -8.742361   1.000000
   26       -8.603857   1.000000
   27       -8.580737   1.000000
   28       -8.425763   1.000000
   29       -8.407035   1.000000
   30       -8.364828   1.000000
   31       -8.300598   1.000000
   32       -8.268213   1.000000
   33       -8.173059   1.000000
   34       -8.161756   1.000000
   35       -7.760010   1.000000
   36       -7.689594   1.000000
   37       -7.685071   1.000000
   38       -7.586453   1.000000
   39       -7.513622   1.000000
   40       -7.382840   1.000000
   41       -7.215095   1.000000
   42       -7.183700   1.000000
   43       -7.124235   1.000000
   44       -6.895042   1.000000
   45       -6.806063   1.000000
   46       -6.768273   1.000000
   47       -6.756895   1.000000
   48       -6.699384   1.000000
   49       -6.628811   1.000000
   50       -6.543710   1.000000
   51       -6.530854   1.000000
   52       -6.250543   1.000000
   53       -6.206542   1.000000
   54       -6.119298   1.000000
   55       -6.053869   1.000000
   56       -6.029808   1.000000
   57       -5.934238   1.000000
   58       -5.916722   1.000000
   59       -5.835566   1.000000
   60       -5.825754   1.000000
   61       -5.639234   1.000000
   62       -5.368611   1.000000
   63       -5.325388   1.000000
   64       -5.047972   1.000000
   65       -4.985243   1.000000
   66       -4.915115   1.000000
   67       -4.803664   1.000000
   68       -4.779094   1.000000
   69       -4.762581   1.000000
   70       -4.657725   1.000000
   71       -4.622295   1.000000
   72       -4.616088   1.000000
   73       -4.521863   1.000000
   74       -4.377099   1.000000
   75       -4.318632   1.000000
   76       -3.982454   1.000000
   77       -3.763312   0.999871
   78       -3.635161   0.997006
   79       -3.511475   0.969521
   80       -3.152686   0.253598
   81       -3.129514   0.204100
   82       -2.731087   0.000134
   83       -2.714644   0.000085
   84       -2.619318   0.000005
   85       -2.494986   0.000000
   86       -2.438098   0.000000
   87       -2.252466   0.000000
   88       -2.167463   0.000000
   89       -2.153081   0.000000
   90       -1.980779   0.000000
   91       -1.969500   0.000000
   92       -1.640873   0.000000
   93       -1.392021   0.000000
   94       -1.288634   0.000000
   95       -1.228686   0.000000
   96       -0.966398   0.000000
   97       -0.903431   0.000000
   98       -0.837118   0.000000
   99       -0.834570   0.000000
  100       -0.642635   0.000000
  101       -0.639994   0.000000
  102       -0.548609   0.000000
  103       -0.254567   0.000000
  104       -0.180533   0.000000
  105       -0.131161   0.000000
  106       -0.021887   0.000000
  107       -0.008496   0.000000
  108        0.053713   0.000000
  109        0.125147   0.000000
  110        0.138987   0.000000
  111        0.190803   0.000000
  112        0.307794   0.000000
  113        0.525420   0.000000
  114        0.915952   0.000000
  115        0.951830   0.000000
  116        1.237858   0.000000
  117        1.281500   0.000000
  118        1.661199   0.000000
  119        1.850057   0.000000
  120        2.184034   0.000000
 
  0.1250000E+00  0.2775558E-16  0.0000000E+00  0.3125000E-01
    1      -17.807859   1.000000
    2      -16.799577   1.000000
    3      -16.703030   1.000000
    4      -16.635062   1.000000
    5      -16.572966   1.000000
    6      -16.386427   1.000000
    7      -16.344074   1.000000
    8      -16.319877   1.000000
    9      -16.181628   1.000000
   10      -16.128608   1.000000
   11      -16.041841   1.000000
   12      -15.933491   1.000000
   13      -15.927324   1.000000
   14      -15.735627   1.000000
   15      -15.576492   1.000000
   16      -15.512935   1.000000
   17      -15.256552   1.000000
   18      -15.128519   1.000000
   19       -9.308829   1.000000
   20       -9.255490   1.000000
   21       -8.978859   1.000000
   22       -8.923012   1.000000
   23       -8.814927   1.000000
   24       -8.776236   1.000000
   25       -8.704020   1.000000
   26       -8.521029   1.000000
   27       -8.486052   1.000000
   28       -8.405850   1.000000
   29       -8.400137   1.000000
   30       -8.292397   1.000000
   31       -8.240827   1.000000
   32       -8.220529   1.000000
   33       -8.084209   1.000000
   34       -8.071700   1.000000
   35       -7.733355   1.000000
   36       -7.649499   1.000000
   37       -7.639861   1.000000
   38       -7.595958   1.000000
   39       -7.548661   1.000000
   40       -7.409419   1.000000
   41       -7.212391   1.000000
   42       -7.207863   1.000000
   43       -7.162424   1.000000
   44       -6.984431   1.000000
   45       -6.839583   1.000000
   46       -6.758250   1.000000
   47       -6.718822   1.000000
   48       -6.679844   1.000000
   49       -6.563355   1.000000
   50       -6.481808   1.000000
   51       -6.477015   1.000000
   52       -6.305661   1.000000
   53       -6.225325   1.000000
   54       -6.202185   1.000000
   55       -6.050458   1.000000
   56       -6.042628   1.000000
   57       -5.999661   1.000000
   58       -5.870858   1.000000
   59       -5.773746   1.000000
   60       -5.747587   1.000000
   61       -5.601263   1.000000
   62       -5.466744   1.000000
   63       -5.438894   1.000000
   64       -5.135897   1.000000
   65       -5.065102   1.000000
   66       -4.916061   1.000000
   67       -4.833090   1.000000
   68       -4.793373   1.000000
   69       -4.697018   1.000000
   70       -4.638476   1.000000
   71       -4.575335   1.000000
   72       -4.533919   1.000000
   73       -4.489303   1.000000
   74       -4.334738   1.000000
   75       -4.306233   1.000000
   76       -4.046947   1.000000
   77       -3.768879   0.999890
   78       -3.704075   0.999393
   79       -3.558790   0.986391
   80       -3.121465   0.188354
   81       -3.094052   0.140558
   82       -2.698901   0.000054
   83       -2.681909   0.000033
   84       -2.614532   0.000004
   85       -2.485389   0.000000
   86       -2.428725   0.000000
   87       -2.232818   0.000000
   88       -2.136190   0.000000
   89       -2.125934   0.000000
   90       -1.974518   0.000000
   91       -1.963787   0.000000
   92       -1.630642   0.000000
   93       -1.391528   0.000000
   94       -1.293179   0.000000
   95       -1.246878   0.000000
   96       -0.979434   0.000000
   97       -0.922417   0.000000
   98       -0.824749   0.000000
   99       -0.803521   0.000000
  100       -0.707553   0.000000
  101       -0.701552   0.000000
  102       -0.639299   0.000000
  103       -0.379373   0.000000
  104       -0.330083   0.000000
  105       -0.166943   0.000000
  106       -0.079326   0.000000
  107       -0.049553   0.000000
  108        0.063675   0.000000
  109        0.131524   0.000000
  110        0.234330   0.000000
  111        0.306845   0.000000
  112        0.377242   0.000000
  113        0.641062   0.000000
  114        0.905126   0.000000
  115        0.960381   0.000000
  116        1.196625   0.000000
  117        1.215276   0.000000
  118        1.704243   0.000000
  119        1.892256   0.000000
  120        2.219034   0.000000
 
  0.2500000E+00  0.5551115E-16  0.0000000E+00  0.3125000E-01
    1      -17.732765   1.000000
    2      -17.006694   1.000000
    3      -16.720166   1.000000
    4      -16.679488   1.000000
    5      -16.600608   1.000000
    6      -16.400014   1.000000
    7      -16.286556   1.000000
    8      -16.274165   1.000000
    9      -16.144702   1.000000
   10      -16.137253   1.000000
   11      -15.948247   1.000000
   12      -15.910521   1.000000
   13      -15.851143   1.000000
   14      -15.708900   1.000000
   15      -15.617432   1.000000
   16      -15.543572   1.000000
   17      -15.263353   1.000000
   18      -15.137948   1.000000
   19       -9.589031   1.000000
   20       -9.219965   1.000000
   21       -9.161763   1.000000
   22       -9.069742   1.000000
   23       -8.857262   1.000000
   24       -8.851486   1.000000
   25       -8.651726   1.000000
   26       -8.475711   1.000000
   27       -8.460059   1.000000
   28       -8.355254   1.000000
   29       -8.338248   1.000000
   30       -8.201060   1.000000
   31       -8.195343   1.000000
   32       -8.126674   1.000000
   33       -7.898283   1.000000
   34       -7.840806   1.000000
   35       -7.811796   1.000000
   36       -7.675351   1.000000
   37       -7.599059   1.000000
   38       -7.538836   1.000000
   39       -7.444064   1.000000
   40       -7.375961   1.000000
   41       -7.276100   1.000000
   42       -7.249971   1.000000
   43       -7.118469   1.000000
   44       -7.046539   1.000000
   45       -6.830933   1.000000
   46       -6.777257   1.000000
   47       -6.736676   1.000000
   48       -6.612644   1.000000
   49       -6.522397   1.000000
   50       -6.456873   1.000000
   51       -6.368995   1.000000
   52       -6.311217   1.000000
   53       -6.252062   1.000000
   54       -6.230960   1.000000
   55       -6.094800   1.000000
   56       -6.076410   1.000000
   57       -6.041160   1.000000
   58       -5.825026   1.000000
   59       -5.740593   1.000000
   60       -5.719565   1.000000
   61       -5.636955   1.000000
   62       -5.612372   1.000000
   63       -5.475422   1.000000
   64       -5.341949   1.000000
   65       -5.287233   1.000000
   66       -4.949219   1.000000
   67       -4.783458   1.000000
   68       -4.777288   1.000000
   69       -4.692561   1.000000
   70       -4.525591   1.000000
   71       -4.520298   1.000000
   72       -4.431218   1.000000
   73       -4.389877   1.000000
   74       -4.376092   1.000000
   75       -4.261383   1.000000
   76       -4.171905   1.000000
   77       -3.845608   0.999989
   78       -3.761539   0.999865
   79       -3.596252   0.993306
   80       -3.079468   0.118813
   81       -3.029531   0.062509
   82       -2.669341   0.000022
   83       -2.648983   0.000012
   84       -2.555216   0.000001
   85       -2.446437   0.000000
   86       -2.393810   0.000000
   87       -2.192239   0.000000
   88       -2.062427   0.000000
   89       -2.052058   0.000000
   90       -1.956218   0.000000
   91       -1.890547   0.000000
   92       -1.617649   0.000000
   93       -1.405746   0.000000
   94       -1.320078   0.000000
   95       -1.311396   0.000000
   96       -1.037717   0.000000
   97       -0.951960   0.000000
   98       -0.880789   0.000000
   99       -0.837781   0.000000
  100       -0.792179   0.000000
  101       -0.754974   0.000000
  102       -0.748264   0.000000
  103       -0.571462   0.000000
  104       -0.561523   0.000000
  105       -0.219354   0.000000
  106       -0.168762   0.000000
  107       -0.144383   0.000000
  108        0.098695   0.000000
  109        0.114892   0.000000
  110        0.302804   0.000000
  111        0.373179   0.000000
  112        0.584054   0.000000
  113        0.790094   0.000000
  114        0.920427   0.000000
  115        0.975237   0.000000
  116        1.114949   0.000000
  117        1.126450   0.000000
  118        1.824239   0.000000
  119        2.011420   0.000000
  120        2.322431   0.000000
 
  0.3750000E+00  0.0000000E+00  0.0000000E+00  0.3125000E-01
    1      -17.612754   1.000000
    2      -17.225921   1.000000
    3      -16.732591   1.000000
    4      -16.713745   1.000000
    5      -16.608458   1.000000
    6      -16.415752   1.000000
    7      -16.276860   1.000000
    8      -16.246209   1.000000
    9      -16.131643   1.000000
   10      -16.083247   1.000000
   11      -15.889991   1.000000
   12      -15.870959   1.000000
   13      -15.792986   1.000000
   14      -15.690924   1.000000
   15      -15.665713   1.000000
   16      -15.555385   1.000000
   17      -15.271591   1.000000
   18      -15.149849   1.000000
   19       -9.801958   1.000000
   20       -9.285686   1.000000
   21       -9.248309   1.000000
   22       -9.068916   1.000000
   23       -8.918964   1.000000
   24       -8.883200   1.000000
   25       -8.556821   1.000000
   26       -8.470540   1.000000
   27       -8.439729   1.000000
   28       -8.329462   1.000000
   29       -8.276326   1.000000
   30       -8.216052   1.000000
   31       -8.150803   1.000000
   32       -8.112219   1.000000
   33       -7.914085   1.000000
   34       -7.841109   1.000000
   35       -7.758872   1.000000
   36       -7.669640   1.000000
   37       -7.535571   1.000000
   38       -7.500439   1.000000
   39       -7.335412   1.000000
   40       -7.250157   1.000000
   41       -7.246804   1.000000
   42       -7.189820   1.000000
   43       -7.073994   1.000000
   44       -7.032839   1.000000
   45       -6.795563   1.000000
   46       -6.738701   1.000000
   47       -6.720682   1.000000
   48       -6.611501   1.000000
   49       -6.513845   1.000000
   50       -6.455941   1.000000
   51       -6.354131   1.000000
   52       -6.323739   1.000000
   53       -6.232665   1.000000
   54       -6.226299   1.000000
   55       -6.121764   1.000000
   56       -6.070890   1.000000
   57       -6.057836   1.000000
   58       -5.890514   1.000000
   59       -5.864775   1.000000
   60       -5.748094   1.000000
   61       -5.676428   1.000000
   62       -5.630096   1.000000
   63       -5.510048   1.000000
   64       -5.472544   1.000000
   65       -5.332161   1.000000
   66       -4.997460   1.000000
   67       -4.807279   1.000000
   68       -4.790911   1.000000
   69       -4.697251   1.000000
   70       -4.653384   1.000000
   71       -4.487017   1.000000
   72       -4.403404   1.000000
   73       -4.374474   1.000000
   74       -4.314879   1.000000
   75       -4.217845   1.000000
   76       -4.108787   1.000000
   77       -3.963107   1.000000
   78       -3.732452   0.999705
   79       -3.583618   0.991436
   80       -3.060626   0.094394
   81       -2.979729   0.029634
   82       -2.670328   0.000023
   83       -2.641614   0.000009
   84       -2.514383   0.000000
   85       -2.403990   0.000000
   86       -2.311515   0.000000
   87       -2.125651   0.000000
   88       -2.013087   0.000000
   89       -1.956716   0.000000
   90       -1.899391   0.000000
   91       -1.746093   0.000000
   92       -1.621281   0.000000
   93       -1.469040   0.000000
   94       -1.446982   0.000000
   95       -1.354691   0.000000
   96       -1.129161   0.000000
   97       -1.008914   0.000000
   98       -0.994227   0.000000
   99       -0.923724   0.000000
  100       -0.868332   0.000000
  101       -0.811475   0.000000
  102       -0.749504   0.000000
  103       -0.661461   0.000000
  104       -0.627811   0.000000
  105       -0.284665   0.000000
  106       -0.248942   0.000000
  107       -0.194617   0.000000
  108        0.061669   0.000000
  109        0.070433   0.000000
  110        0.338408   0.000000
  111        0.401011   0.000000
  112        0.715325   0.000000
  113        0.815572   0.000000
  114        0.897407   0.000000
  115        0.976730   0.000000
  116        1.126919   0.000000
  117        1.160858   0.000000
  118        2.003968   0.000000
  119        2.192526   0.000000
  120        2.389759   0.000000
 
  0.5000000E+00  0.1110223E-15  0.0000000E+00  0.1562500E-01
    1      -17.494560   1.000000
    2      -17.379099   1.000000
    3      -16.738711   1.000000
    4      -16.726120   1.000000
    5      -16.607938   1.000000
    6      -16.422896   1.000000
    7      -16.276186   1.000000
    8      -16.242829   1.000000
    9      -16.123776   1.000000
   10      -16.051457   1.000000
   11      -15.882146   1.000000
   12      -15.826200   1.000000
   13      -15.782136   1.000000
   14      -15.705256   1.000000
   15      -15.689347   1.000000
   16      -15.542525   1.000000
   17      -15.275431   1.000000
   18      -15.155807   1.000000
   19       -9.877879   1.000000
   20       -9.328645   1.000000
   21       -9.284706   1.000000
   22       -9.027355   1.000000
   23       -8.943517   1.000000
   24       -8.886349   1.000000
   25       -8.533024   1.000000
   26       -8.464916   1.000000
   27       -8.424957   1.000000
   28       -8.326764   1.000000
   29       -8.253522   1.000000
   30       -8.231938   1.000000
   31       -8.117465   1.000000
   32       -8.091283   1.000000
   33       -7.952142   1.000000
   34       -7.890408   1.000000
   35       -7.811749   1.000000
   36       -7.711483   1.000000
   37       -7.487561   1.000000
   38       -7.362251   1.000000
   39       -7.326813   1.000000
   40       -7.234685   1.000000
   41       -7.128313   1.000000
   42       -7.123803   1.000000
   43       -7.064217   1.000000
   44       -7.052656   1.000000
   45       -6.801388   1.000000
   46       -6.749033   1.000000
   47       -6.659699   1.000000
   48       -6.564182   1.000000
   49       -6.559144   1.000000
   50       -6.446856   1.000000
   51       -6.323328   1.000000
   52       -6.312671   1.000000
   53       -6.245731   1.000000
   54       -6.237269   1.000000
   55       -6.159832   1.000000
   56       -6.141376   1.000000
   57       -6.089682   1.000000
   58       -5.901835   1.000000
   59       -5.880299   1.000000
   60       -5.792720   1.000000
   61       -5.695101   1.000000
   62       -5.567508   1.000000
   63       -5.538584   1.000000
   64       -5.407014   1.000000
   65       -5.270827   1.000000
   66       -5.228257   1.000000
   67       -4.908643   1.000000
   68       -4.792984   1.000000
   69       -4.719012   1.000000
   70       -4.639159   1.000000
   71       -4.471761   1.000000
   72       -4.353011   1.000000
   73       -4.338616   1.000000
   74       -4.324335   1.000000
   75       -4.211110   1.000000
   76       -4.071308   1.000000
   77       -4.001633   1.000000
   78       -3.717296   0.999564
   79       -3.565439   0.987946
   80       -3.057815   0.091094
   81       -2.961621   0.021992
   82       -2.671938   0.000024
   83       -2.642172   0.000010
   84       -2.505868   0.000000
   85       -2.391188   0.000000
   86       -2.263204   0.000000
   87       -2.080578   0.000000
   88       -2.001370   0.000000
   89       -1.929358   0.000000
   90       -1.815584   0.000000
   91       -1.656768   0.000000
   92       -1.631754   0.000000
   93       -1.575496   0.000000
   94       -1.480501   0.000000
   95       -1.392512   0.000000
   96       -1.177864   0.000000
   97       -1.059060   0.000000
   98       -1.009096   0.000000
   99       -0.970422   0.000000
  100       -0.900535   0.000000
  101       -0.853052   0.000000
  102       -0.745444   0.000000
  103       -0.668506   0.000000
  104       -0.618337   0.000000
  105       -0.337041   0.000000
  106       -0.242047   0.000000
  107       -0.225949   0.000000
  108        0.032565   0.000000
  109        0.047047   0.000000
  110        0.346859   0.000000
  111        0.407381   0.000000
  112        0.740793   0.000000
  113        0.820573   0.000000
  114        0.872616   0.000000
  115        0.974836   0.000000
  116        1.159919   0.000000
  117        1.196200   0.000000
  118        2.200741   0.000000
  119        2.253010   0.000000
  120        2.377336   0.000000
 
  0.0000000E+00  0.1250000E+00  0.0000000E+00  0.3125000E-01
    1      -17.807680   1.000000
    2      -16.779113   1.000000
    3      -16.736738   1.000000
    4      -16.603230   1.000000
    5      -16.557069   1.000000
    6      -16.440867   1.000000
    7      -16.377264   1.000000
    8      -16.281473   1.000000
    9      -16.207652   1.000000
   10      -16.085408   1.000000
   11      -16.040282   1.000000
   12      -15.988368   1.000000
   13      -15.875418   1.000000
   14      -15.739970   1.000000
   15      -15.565068   1.000000
   16      -15.503845   1.000000
   17      -15.269162   1.000000
   18      -15.132978   1.000000
   19       -9.288711   1.000000
   20       -9.182890   1.000000
   21       -9.045315   1.000000
   22       -8.968174   1.000000
   23       -8.819921   1.000000
   24       -8.720911   1.000000
   25       -8.677524   1.000000
   26       -8.579088   1.000000
   27       -8.518856   1.000000
   28       -8.471859   1.000000
   29       -8.415199   1.000000
   30       -8.354143   1.000000
   31       -8.276334   1.000000
   32       -8.086244   1.000000
   33       -8.018965   1.000000
   34       -7.986278   1.000000
   35       -7.828267   1.000000
   36       -7.720194   1.000000
   37       -7.684854   1.000000
   38       -7.525236   1.000000
   39       -7.445889   1.000000
   40       -7.366757   1.000000
   41       -7.259215   1.000000
   42       -7.196554   1.000000
   43       -7.157577   1.000000
   44       -6.926997   1.000000
   45       -6.884548   1.000000
   46       -6.824619   1.000000
   47       -6.753340   1.000000
   48       -6.653543   1.000000
   49       -6.608649   1.000000
   50       -6.545055   1.000000
   51       -6.493383   1.000000
   52       -6.262112   1.000000
   53       -6.229498   1.000000
   54       -6.122115   1.000000
   55       -6.091936   1.000000
   56       -6.041486   1.000000
   57       -5.936862   1.000000
   58       -5.866586   1.000000
   59       -5.827277   1.000000
   60       -5.700646   1.000000
   61       -5.584055   1.000000
   62       -5.398399   1.000000
   63       -5.341840   1.000000
   64       -5.127518   1.000000
   65       -5.071935   1.000000
   66       -4.979734   1.000000
   67       -4.969600   1.000000
   68       -4.876697   1.000000
   69       -4.779963   1.000000
   70       -4.690054   1.000000
   71       -4.531632   1.000000
   72       -4.421737   1.000000
   73       -4.389935   1.000000
   74       -4.363737   1.000000
   75       -4.290333   1.000000
   76       -3.900397   0.999998
   77       -3.812386   0.999969
   78       -3.715474   0.999544
   79       -3.494546   0.960294
   80       -3.392678   0.849382
   81       -2.908145   0.008370
   82       -2.791558   0.000648
   83       -2.712594   0.000080
   84       -2.636100   0.000008
   85       -2.504942   0.000000
   86       -2.455522   0.000000
   87       -2.225452   0.000000
   88       -2.120566   0.000000
   89       -2.081835   0.000000
   90       -1.981148   0.000000
   91       -1.939855   0.000000
   92       -1.644596   0.000000
   93       -1.392142   0.000000
   94       -1.299163   0.000000
   95       -1.216563   0.000000
   96       -0.976231   0.000000
   97       -0.912615   0.000000
   98       -0.834753   0.000000
   99       -0.808976   0.000000
  100       -0.708257   0.000000
  101       -0.669778   0.000000
  102       -0.603743   0.000000
  103       -0.345190   0.000000
  104       -0.291007   0.000000
  105       -0.220658   0.000000
  106       -0.124942   0.000000
  107       -0.026762   0.000000
  108       -0.006508   0.000000
  109        0.101424   0.000000
  110        0.189468   0.000000
  111        0.257434   0.000000
  112        0.458287   0.000000
  113        0.620254   0.000000
  114        0.767191   0.000000
  115        1.057886   0.000000
  116        1.237114   0.000000
  117        1.317562   0.000000
  118        1.706193   0.000000
  119        1.889674   0.000000
  120        2.219590   0.000000
 
  0.1250000E+00  0.1250000E+00  0.0000000E+00  0.3125000E-01
    1      -17.757511   1.000000
    2      -16.909148   1.000000
    3      -16.804933   1.000000
    4      -16.658384   1.000000
    5      -16.526986   1.000000
    6      -16.396592   1.000000
    7      -16.359698   1.000000
    8      -16.264220   1.000000
    9      -16.193614   1.000000
   10      -16.062900   1.000000
   11      -16.000474   1.000000
   12      -15.943983   1.000000
   13      -15.842871   1.000000
   14      -15.721911   1.000000
   15      -15.595716   1.000000
   16      -15.521189   1.000000
   17      -15.273607   1.000000
   18      -15.137809   1.000000
   19       -9.450786   1.000000
   20       -9.305111   1.000000
   21       -9.156435   1.000000
   22       -9.030432   1.000000
   23       -8.841691   1.000000
   24       -8.764152   1.000000
   25       -8.658214   1.000000
   26       -8.506627   1.000000
   27       -8.448488   1.000000
   28       -8.406400   1.000000
   29       -8.364663   1.000000
   30       -8.292093   1.000000
   31       -8.150037   1.000000
   32       -8.118935   1.000000
   33       -7.973103   1.000000
   34       -7.890323   1.000000
   35       -7.802657   1.000000
   36       -7.684826   1.000000
   37       -7.614848   1.000000
   38       -7.547961   1.000000
   39       -7.428761   1.000000
   40       -7.372103   1.000000
   41       -7.271542   1.000000
   42       -7.206904   1.000000
   43       -7.155056   1.000000
   44       -6.996499   1.000000
   45       -6.850833   1.000000
   46       -6.810454   1.000000
   47       -6.776947   1.000000
   48       -6.646825   1.000000
   49       -6.568997   1.000000
   50       -6.433776   1.000000
   51       -6.393867   1.000000
   52       -6.337737   1.000000
   53       -6.259274   1.000000
   54       -6.186587   1.000000
   55       -6.105356   1.000000
   56       -6.038893   1.000000
   57       -5.986493   1.000000
   58       -5.847543   1.000000
   59       -5.797192   1.000000
   60       -5.640701   1.000000
   61       -5.560058   1.000000
   62       -5.525908   1.000000
   63       -5.490298   1.000000
   64       -5.254991   1.000000
   65       -5.145323   1.000000
   66       -5.087191   1.000000
   67       -4.875825   1.000000
   68       -4.862712   1.000000
   69       -4.733093   1.000000
   70       -4.602843   1.000000
   71       -4.500392   1.000000
   72       -4.382611   1.000000
   73       -4.349492   1.000000
   74       -4.293886   1.000000
   75       -4.267263   1.000000
   76       -4.083249   1.000000
   77       -3.914319   0.999999
   78       -3.710409   0.999482
   79       -3.540298   0.981128
   80       -3.281324   0.597313
   81       -2.892511   0.006159
   82       -2.770368   0.000380
   83       -2.674430   0.000026
   84       -2.582982   0.000001
   85       -2.492251   0.000000
   86       -2.434454   0.000000
   87       -2.166562   0.000000
   88       -2.083307   0.000000
   89       -2.031396   0.000000
   90       -1.962881   0.000000
   91       -1.931310   0.000000
   92       -1.627930   0.000000
   93       -1.393699   0.000000
   94       -1.324555   0.000000
   95       -1.246601   0.000000
   96       -1.001388   0.000000
   97       -0.937442   0.000000
   98       -0.858013   0.000000
   99       -0.808986   0.000000
  100       -0.772954   0.000000
  101       -0.744000   0.000000
  102       -0.721091   0.000000
  103       -0.550711   0.000000
  104       -0.438163   0.000000
  105       -0.266518   0.000000
  106       -0.157110   0.000000
  107       -0.077720   0.000000
  108        0.035928   0.000000
  109        0.112703   0.000000
  110        0.215009   0.000000
  111        0.406161   0.000000
  112        0.485511   0.000000
  113        0.765356   0.000000
  114        0.819597   0.000000
  115        1.026969   0.000000
  116        1.179821   0.000000
  117        1.240410   0.000000
  118        1.787963   0.000000
  119        1.970505   0.000000
  120        2.289063   0.000000
 
  0.2500000E+00  0.1250000E+00  0.0000000E+00  0.3125000E-01
    1      -17.659706   1.000000
    2      -17.111147   1.000000
    3      -16.878873   1.000000
    4      -16.663579   1.000000
    5      -16.519426   1.000000
    6      -16.392635   1.000000
    7      -16.280646   1.000000
    8      -16.266331   1.000000
    9      -16.173183   1.000000
   10      -16.070899   1.000000
   11      -15.966174   1.000000
   12      -15.845264   1.000000
   13      -15.814391   1.000000
   14      -15.696244   1.000000
   15      -15.647043   1.000000
   16      -15.529809   1.000000
   17      -15.280790   1.000000
   18      -15.146335   1.000000
   19       -9.700132   1.000000
   20       -9.403100   1.000000
   21       -9.217298   1.000000
   22       -9.080499   1.000000
   23       -8.885278   1.000000
   24       -8.730718   1.000000
   25       -8.566738   1.000000
   26       -8.492259   1.000000
   27       -8.422376   1.000000
   28       -8.333254   1.000000
   29       -8.290888   1.000000
   30       -8.228157   1.000000
   31       -8.184980   1.000000
   32       -8.134989   1.000000
   33       -7.961672   1.000000
   34       -7.844535   1.000000
   35       -7.757178   1.000000
   36       -7.680094   1.000000
   37       -7.567650   1.000000
   38       -7.525376   1.000000
   39       -7.396353   1.000000
   40       -7.323071   1.000000
   41       -7.200893   1.000000
   42       -7.165967   1.000000
   43       -7.139998   1.000000
   44       -6.938530   1.000000
   45       -6.845105   1.000000
   46       -6.798813   1.000000
   47       -6.732129   1.000000