       N       E                     dE             d eps       ncg     rms          rms(c)
DAV:   1     0.112367438452E+04    0.11237E+04   -0.35870E+04  8160   0.577E+02
DAV:   2    -0.601391101436E+00   -0.11243E+04   -0.10808E+04 11000   0.173E+02
DAV:   3    -0.199437528085E+03   -0.19884E+03   -0.19048E+03 10840   0.822E+01
DAV:   4    -0.208963208346E+03   -0.95257E+01   -0.92051E+01 12040   0.264E+01
DAV:   5    -0.209302513639E+03   -0.33931E+00   -0.33802E+00 11520   0.375E+00    0.275E+01
DAV:   6    -0.237864862429E+03   -0.28562E+02   -0.10791E+02 12640   0.601E+01    0.595E+01
DAV:   7    -0.196571006268E+03    0.41294E+02   -0.17508E+02 13440   0.152E+02    0.200E+01
DAV:   8    -0.189471378868E+03    0.70996E+01   -0.17619E+01 11760   0.127E+01    0.125E+01
DAV:   9    -0.188127416498E+03    0.13440E+01   -0.30291E+00 13480   0.635E+00    0.912E+00
DAV:  10    -0.186935990464E+03    0.11914E+01   -0.17255E+00 13400   0.760E+00    0.215E+00
DAV:  11    -0.187024371448E+03   -0.88381E-01   -0.58810E-01 13560   0.255E+00    0.369E+00
DAV:  12    -0.186947678358E+03    0.76693E-01   -0.69788E-01 12920   0.384E+00    0.326E+00
DAV:  13    -0.186865602078E+03    0.82076E-01   -0.24505E-01 13120   0.297E+00    0.183E+00
DAV:  14    -0.186827144069E+03    0.38458E-01   -0.91367E-02 13040   0.164E+00    0.610E-01
DAV:  15    -0.186823452526E+03    0.36915E-02   -0.10759E-02 11960   0.368E-01    0.345E-01
DAV:  16    -0.186825175816E+03   -0.17233E-02   -0.11816E-02 13120   0.593E-01    0.656E-01
DAV:  17    -0.186821470463E+03    0.37054E-02   -0.86475E-03 12920   0.498E-01    0.197E-01
DAV:  18    -0.186821092341E+03    0.37812E-03   -0.13442E-03 12320   0.175E-01    0.656E-02
DAV:  19    -0.186821671221E+03   -0.57888E-03   -0.81472E-04 10640   0.826E-02    0.794E-02
DAV:  20    -0.186821987790E+03   -0.31657E-03   -0.30653E-04  8280   0.494E-02    0.573E-02
DAV:  21    -0.186823171863E+03   -0.11841E-02   -0.30541E-04  8200   0.586E-02    0.255E-02
DAV:  22    -0.186823950666E+03   -0.77880E-03   -0.80271E-05  6800   0.251E-02    0.242E-02
DAV:  23    -0.186824782414E+03   -0.83175E-03   -0.87555E-05  7480   0.232E-02    0.868E-03
DAV:  24    -0.186825393834E+03   -0.61142E-03   -0.24760E-05  6240   0.129E-02    0.586E-03
DAV:  25    -0.186825839235E+03   -0.44540E-03   -0.17274E-05  6080   0.114E-02    0.316E-03
DAV:  26    -0.186826011834E+03   -0.17260E-03   -0.67992E-06  6960   0.638E-03    0.182E-03
DAV:  27    -0.186826116605E+03   -0.10477E-03   -0.39163E-06  6640   0.407E-03    0.126E-03
DAV:  28    -0.186826167158E+03   -0.50553E-04   -0.21493E-06  7200   0.285E-03
   1 F= -.18682617E+03 E0= -.18665559E+03  d E =-.186826E+03
       N       E                     dE             d eps       ncg     rms          rms(c)
DAV:   1    -0.187491782541E+03   -0.66567E+00   -0.27406E+02  8160   0.351E+01    0.461E+00
DAV:   2    -0.189351181987E+03   -0.18594E+01   -0.20007E+01 12280   0.151E+01    0.845E+00
DAV:   3    -0.189347679264E+03    0.35027E-02   -0.35685E+00 12480   0.119E+01    0.660E+00
DAV:   4    -0.188742906980E+03    0.60477E+00   -0.63171E-01 12760   0.472E+00    0.170E+00
DAV:   5    -0.188726201831E+03    0.16705E-01   -0.28809E-01 10480   0.144E+00    0.194E+00
DAV:   6    -0.188692701343E+03    0.33500E-01   -0.26307E-01 12200   0.181E+00    0.175E+00
DAV:   7    -0.188700724911E+03   -0.80236E-02   -0.18875E-01 13000   0.237E+00    0.220E+00
DAV:   8    -0.188657968408E+03    0.42757E-01   -0.65346E-02 13280   0.149E+00    0.361E-01
DAV:   9    -0.188656462488E+03    0.15059E-02   -0.65108E-03 10560   0.296E-01    0.248E-01
DAV:  10    -0.188657306456E+03   -0.84397E-03   -0.49823E-03 13400   0.385E-01    0.443E-01
DAV:  11    -0.188655908704E+03    0.13978E-02   -0.41526E-03 12960   0.349E-01    0.147E-01
DAV:  12    -0.188655846139E+03    0.62565E-04   -0.82832E-04 11800   0.102E-01
   2 F= -.18865585E+03 E0= -.18851778E+03  d E =-.182968E+01
       N       E                     dE             d eps       ncg     rms          rms(c)
DAV:   1    -0.190583831971E+03   -0.19279E+01   -0.31275E+01  9240   0.142E+01    0.444E+00
DAV:   2    -0.190519546265E+03    0.64286E-01   -0.27400E+00 11640   0.937E+00    0.711E+00
DAV:   3    -0.190071426144E+03    0.44812E+00   -0.12939E+00 12480   0.859E+00    0.426E+00
DAV:   4    -0.189855925970E+03    0.21550E+00   -0.67493E-01 12920   0.431E+00    0.247E+00
DAV:   5    -0.189765901418E+03    0.90025E-01   -0.28762E-01 11520   0.197E+00    0.935E-01
DAV:   6    -0.189755362240E+03    0.10539E-01   -0.48884E-02 11960   0.113E+00    0.719E-01
DAV:   7    -0.189751723976E+03    0.36383E-02   -0.12773E-02 12320   0.649E-01    0.251E-01
DAV:   8    -0.189751285059E+03    0.43892E-03   -0.19404E-03 11640   0.171E-01    0.122E-01
DAV:   9    -0.189752197920E+03   -0.91286E-03   -0.15940E-03 10840   0.234E-01    0.290E-01
DAV:  10    -0.189751531142E+03    0.66678E-03   -0.14719E-03 10680   0.248E-01    0.818E-02
DAV:  11    -0.189751489048E+03    0.42094E-04   -0.19606E-04  6600   0.677E-02
   3 F= -.18975149E+03 E0= -.18963572E+03  d E =-.109564E+01
       N       E                     dE             d eps       ncg     rms          rms(c)
DAV:   1    -0.191343613324E+03   -0.15921E+01   -0.77985E+01  8160   0.201E+01    0.458E+00
DAV:   2    -0.191129039337E+03    0.21457E+00   -0.53327E+00 13400   0.729E+00    0.415E+00
DAV:   3    -0.191324471283E+03   -0.19543E+00   -0.14783E+00 12240   0.896E+00    0.678E+00
DAV:   4    -0.190907726278E+03    0.41675E+00   -0.13027E+00 13000   0.788E+00    0.276E+00
DAV:   5    -0.190807241375E+03    0.10048E+00   -0.30117E-01 11000   0.253E+00    0.160E+00
DAV:   6    -0.190796254607E+03    0.10987E-01   -0.13763E-01 12720   0.249E+00    0.155E+00
DAV:   7    -0.190776571354E+03    0.19683E-01   -0.50702E-02 12080   0.148E+00    0.491E-01
DAV:   8    -0.190772468461E+03    0.41029E-02   -0.70031E-03 10200   0.370E-01    0.152E-01
DAV:   9    -0.190772904769E+03   -0.43631E-03   -0.19052E-03 10680   0.137E-01    0.139E-01
DAV:  10    -0.190772625122E+03    0.27965E-03   -0.93995E-04 10640   0.112E-01    0.470E-02
DAV:  11    -0.190772642944E+03   -0.17823E-04   -0.12110E-04  7280   0.538E-02
   4 F= -.19077264E+03 E0= -.19067625E+03  d E =-.102115E+01
       N       E                     dE             d eps       ncg     rms          rms(c)
DAV:   1    -0.192227400076E+03   -0.14548E+01   -0.18698E+02  8160   0.303E+01    0.571E+00
DAV:   2    -0.191947135058E+03    0.28027E+00   -0.97273E+00 10160   0.759E+00    0.311E+00
DAV:   3    -0.191759768824E+03    0.18737E+00   -0.12533E+00 10880   0.398E+00    0.254E+00
DAV:   4    -0.191794240703E+03   -0.34472E-01   -0.59394E-01 11680   0.512E+00    0.450E+00
DAV:   5    -0.191629107714E+03    0.16513E+00   -0.63745E-01 11680   0.559E+00    0.191E+00
DAV:   6    -0.191604971274E+03    0.24136E-01   -0.14654E-01 12200   0.258E+00    0.148E+00
DAV:   7    -0.191586794662E+03    0.18177E-01   -0.66203E-02 12400   0.196E+00    0.702E-01
DAV:   8    -0.191579792276E+03    0.70024E-02   -0.13114E-02 12440   0.730E-01    0.208E-01
DAV:   9    -0.191580992112E+03   -0.11998E-02   -0.42731E-03 12320   0.455E-01    0.379E-01
DAV:  10    -0.191579718852E+03    0.12733E-02   -0.28678E-03 11680   0.367E-01    0.595E-02
DAV:  11    -0.191579745552E+03   -0.26700E-04   -0.16955E-04  6480   0.577E-02
   5 F= -.19157975E+03 E0= -.19149356E+03  d E =-.807103E+00
       N       E                     dE             d eps       ncg     rms          rms(c)
DAV:   1    -0.191689697944E+03   -0.10998E+00   -0.90973E+00  8160   0.637E+00    0.764E-01
DAV:   2    -0.191760299092E+03   -0.70601E-01   -0.39116E-01 13080   0.327E+00    0.216E+00
DAV:   3    -0.191708624512E+03    0.51675E-01   -0.10291E-01 12560   0.247E+00    0.420E-01
DAV:   4    -0.191709295630E+03   -0.67112E-03   -0.10904E-02 11520   0.710E-01    0.628E-01
DAV:   5    -0.191705971379E+03    0.33243E-02   -0.86765E-03 11720   0.710E-01    0.275E-01
DAV:   6    -0.191705445334E+03    0.52605E-03   -0.32823E-03 11560   0.272E-01    0.107E-01
DAV:   7    -0.191705164860E+03    0.28047E-03   -0.72987E-04 11040   0.108E-01    0.359E-02
DAV:   8    -0.191705196371E+03   -0.31511E-04   -0.14223E-04  6320   0.699E-02
   6 F= -.19170520E+03 E0= -.19161990E+03  d E =-.125451E+00
       N       E                     dE             d eps       ncg     rms          rms(c)
DAV:   1    -0.191834486055E+03   -0.12932E+00   -0.17342E+01  8160   0.878E+00    0.887E-01
DAV:   2    -0.191903176325E+03   -0.68690E-01   -0.51888E-01 12400   0.306E+00    0.192E+00
DAV:   3    -0.191865090073E+03    0.38086E-01   -0.11279E-01 12520   0.254E+00    0.706E-01
DAV:   4    -0.191863972290E+03    0.11178E-02   -0.19697E-02 12440   0.996E-01    0.785E-01
DAV:   5    -0.191858552581E+03    0.54197E-02   -0.14094E-02 12400   0.934E-01    0.357E-01
DAV:   6    -0.191857876813E+03    0.67577E-03   -0.54504E-03 12480   0.359E-01    0.169E-01
DAV:   7    -0.191857260330E+03    0.61648E-03   -0.17797E-03 10600   0.181E-01    0.801E-02
DAV:   8    -0.191857321115E+03   -0.60785E-04   -0.52184E-04  9680   0.162E-01
   7 F= -.19185732E+03 E0= -.19177565E+03  d E =-.152125E+00
       N       E                     dE             d eps       ncg     rms          rms(c)
DAV:   1    -0.191976788134E+03   -0.11953E+00   -0.24426E+01  8160   0.105E+01    0.109E+00
DAV:   2    -0.192058664569E+03   -0.81876E-01   -0.82963E-01 12480   0.348E+00    0.179E+00
DAV:   3    -0.192032453848E+03    0.26211E-01   -0.12447E-01 12320   0.273E+00    0.975E-01
DAV:   4    -0.192022163943E+03    0.10290E-01   -0.28018E-02 11320   0.121E+00    0.751E-01
DAV:   5    -0.192019912676E+03    0.22513E-02   -0.21265E-02 12400   0.114E+00    0.630E-01
DAV:   6    -0.192016985908E+03    0.29268E-02   -0.13013E-02 12440   0.682E-01    0.254E-01
DAV:   7    -0.192015574321E+03    0.14116E-02   -0.33321E-03 10560   0.253E-01    0.105E-01
DAV:   8    -0.192015663541E+03   -0.89221E-04   -0.82339E-04 11120   0.206E-01
   8 F= -.19201566E+03 E0= -.19193548E+03  d E =-.158342E+00
       N       E                     dE             d eps       ncg     rms          rms(c)
DAV:   1    -0.192074236118E+03   -0.58662E-01   -0.70023E+00  8160   0.559E+00    0.639E-01
DAV:   2    -0.192104298790E+03   -0.30063E-01   -0.29779E-01 11960   0.193E+00    0.981E-01
DAV:   3    -0.192096716071E+03    0.75827E-02   -0.43653E-02 12200   0.160E+00    0.676E-01
DAV:   4    -0.192093772576E+03    0.29435E-02   -0.14198E-02 11840   0.873E-01    0.501E-01
DAV:   5    -0.192091748708E+03    0.20239E-02   -0.68770E-03 11680   0.666E-01    0.301E-01
DAV:   6    -0.192091179212E+03    0.56950E-03   -0.33129E-03 12720   0.364E-01    0.156E-01
DAV:   7    -0.192090807002E+03    0.37221E-03   -0.13646E-03 11240   0.161E-01    0.673E-02
DAV:   8    -0.192090802787E+03    0.42149E-05   -0.25062E-04  9280   0.119E-01
   9 F= -.19209080E+03 E0= -.19201108E+03  d E =-.751392E-01
       N       E                     dE             d eps       ncg     rms          rms(c)
DAV:   1    -0.192147571817E+03   -0.56765E-01   -0.22077E+01  8160   0.101E+01    0.105E+00
DAV:   2    -0.192197713210E+03   -0.50141E-01   -0.75401E-01 12000   0.242E+00    0.824E-01
DAV:   3    -0.192212463352E+03   -0.14750E-01   -0.80620E-02 12600   0.210E+00    0.150E+00
DAV:   4    -0.192188005208E+03    0.24458E-01   -0.43606E-02 12320   0.172E+00    0.574E-01
DAV:   5    -0.192187289619E+03    0.71559E-03   -0.15058E-02 10480   0.898E-01    0.588E-01
DAV:   6    -0.192185282201E+03    0.20074E-02   -0.14093E-02 12760   0.906E-01    0.361E-01
DAV:   7    -0.192182985882E+03    0.22963E-02   -0.42021E-03 11640   0.374E-01    0.612E-02
DAV:   8    -0.192183036128E+03   -0.50247E-04   -0.52526E-04 10920   0.111E-01
  10 F= -.19218304E+03 E0= -.19210017E+03  d E =-.922333E-01
       N       E                     dE             d eps       ncg     rms          rms(c)
DAV:   1    -0.192210603557E+03   -0.27618E-01   -0.44468E+00  8160   0.447E+00    0.566E-01
DAV:   2    -0.192235429656E+03   -0.24826E-01   -0.21180E-01 12520   0.169E+00    0.107E+00
DAV:   3    -0.192224754785E+03    0.10675E-01   -0.40234E-02 11880   0.155E+00    0.593E-01
DAV:   4    -0.192222455404E+03    0.22994E-02   -0.98641E-03 12560   0.738E-01    0.403E-01
DAV:   5    -0.192220914594E+03    0.15408E-02   -0.47965E-03 11480   0.578E-01    0.226E-01
DAV:   6    -0.192220635162E+03    0.27943E-03   -0.21612E-03 12400   0.284E-01    0.137E-01
DAV:   7    -0.192220592648E+03    0.42513E-04   -0.13754E-03 11640   0.245E-01    0.160E-01
DAV:   8    -0.192220323376E+03    0.26927E-03   -0.48371E-04  9080   0.185E-01    0.402E-02
DAV:   9    -0.192220308553E+03    0.14824E-04   -0.61844E-05  6600   0.440E-02
  11 F= -.19222031E+03 E0= -.19213747E+03  d E =-.372724E-01
       N       E                     dE             d eps       ncg     rms          rms(c)
DAV:   1    -0.192239506608E+03   -0.19183E-01   -0.18963E+00  8160   0.293E+00    0.409E-01
DAV:   2    -0.192254403399E+03   -0.14897E-01   -0.97749E-02 11560   0.147E+00    0.949E-01
DAV:   3    -0.192244048722E+03    0.10355E-01   -0.22113E-02 11560   0.118E+00    0.303E-01
DAV:   4    -0.192244247556E+03   -0.19883E-03   -0.45791E-03 12520   0.515E-01    0.344E-01
DAV:   5    -0.192243060759E+03    0.11868E-02   -0.28826E-03 11360   0.460E-01    0.159E-01
DAV:   6    -0.192242894175E+03    0.16658E-03   -0.10919E-03 11440   0.177E-01    0.796E-02
DAV:   7    -0.192242779229E+03    0.11495E-03   -0.42444E-04  9520   0.821E-02    0.342E-02
DAV:   8    -0.192242779952E+03   -0.72329E-06   -0.64051E-05  7960   0.631E-02
  12 F= -.19224278E+03 E0= -.19216108E+03  d E =-.224714E-01
       N       E                     dE             d eps       ncg     rms          rms(c)
DAV:   1    -0.192253763642E+03   -0.10984E-01   -0.61219E-01  8160   0.168E+00    0.227E-01
DAV:   2    -0.192257051959E+03   -0.32883E-02   -0.25920E-02 11240   0.664E-01    0.457E-01
DAV:   3    -0.192254946548E+03    0.21054E-02   -0.64523E-03 11920   0.627E-01    0.214E-01
DAV:   4    -0.192254721818E+03    0.22473E-03   -0.14498E-03 10880   0.287E-01    0.168E-01
DAV:   5    -0.192254452382E+03    0.26944E-03   -0.82311E-04 10640   0.248E-01    0.924E-02
DAV:   6    -0.192254375840E+03    0.76543E-04   -0.29434E-04  8280   0.105E-01
  13 F= -.19225438E+03 E0= -.19217364E+03  d E =-.115959E-01
       N       E                     dE             d eps       ncg     rms          rms(c)
DAV:   1    -0.192263543098E+03   -0.90907E-02   -0.40621E-01  8160   0.136E+00    0.207E-01
DAV:   2    -0.192266773887E+03   -0.32308E-02   -0.21831E-02 10600   0.740E-01    0.467E-01
DAV:   3    -0.192264290198E+03    0.24837E-02   -0.52840E-03 12080   0.588E-01    0.143E-01
DAV:   4    -0.192264376663E+03   -0.86466E-04   -0.11377E-03 10360   0.257E-01    0.175E-01
DAV:   5    -0.192264092650E+03    0.28401E-03   -0.76313E-04  9960   0.242E-01    0.897E-02
DAV:   6    -0.192264025447E+03    0.67203E-04   -0.29555E-04  7880   0.998E-02
  14 F= -.19226403E+03 E0= -.19218436E+03  d E =-.964961E-02
       N       E                     dE             d eps       ncg     rms          rms(c)
DAV:   1    -0.192281346002E+03   -0.17253E-01   -0.21111E+00  8160   0.309E+00    0.422E-01
DAV:   2    -0.192293573335E+03   -0.12227E-01   -0.91290E-02 11400   0.133E+00    0.852E-01
DAV:   3    -0.192285280456E+03    0.82929E-02   -0.19644E-02 11960   0.114E+00    0.309E-01
DAV:   4    -0.192285234398E+03    0.46058E-04   -0.43277E-03 12560   0.498E-01    0.330E-01
DAV:   5    -0.192284173105E+03    0.10613E-02   -0.28018E-03 11800   0.461E-01    0.162E-01
DAV:   6    -0.192284015433E+03    0.15767E-03   -0.11401E-03 10680   0.187E-01    0.813E-02
DAV:   7    -0.192283869466E+03    0.14597E-03   -0.39517E-04  9720   0.823E-02    0.276E-02
DAV:   8    -0.192283881054E+03   -0.11588E-04   -0.64948E-05  8160   0.670E-02
  15 F= -.19228388E+03 E0= -.19220688E+03  d E =-.198556E-01
       N       E                     dE             d eps       ncg     rms          rms(c)
DAV:   1    -0.192290056409E+03   -0.61869E-02   -0.22108E+01  8160   0.101E+01    0.128E+00
DAV:   2    -0.192383380474E+03   -0.93324E-01   -0.91470E-01 12080   0.352E+00    0.197E+00
DAV:   3    -0.192343082659E+03    0.40298E-01   -0.13395E-01 12160   0.309E+00    0.104E+00
DAV:   4    -0.192331164530E+03    0.11918E-01   -0.34845E-02 11920   0.137E+00    0.634E-01
DAV:   5    -0.192330086340E+03    0.10782E-02   -0.19339E-02 12760   0.120E+00    0.644E-01
DAV:   6    -0.192326667098E+03    0.34192E-02   -0.13227E-02 12760   0.854E-01    0.297E-01
DAV:   7    -0.192324787353E+03    0.18797E-02   -0.39866E-03 11840   0.294E-01    0.541E-02
DAV:   8    -0.192324801104E+03   -0.13751E-04   -0.48669E-04 11720   0.887E-02
  16 F= -.19232480E+03 E0= -.19225583E+03  d E =-.409200E-01
       N       E                     dE             d eps       ncg     rms          rms(c)
DAV:   1    -0.192325642071E+03   -0.85472E-03   -0.16541E-01  8160   0.884E-01    0.130E-01
DAV:   2    -0.192327392731E+03   -0.17507E-02   -0.69471E-03 12600   0.513E-01    0.371E-01
DAV:   3    -0.192325744569E+03    0.16482E-02   -0.24590E-03 11880   0.444E-01    0.771E-02
DAV:   4    -0.192325742342E+03    0.22271E-05   -0.29602E-04  9000   0.128E-01
  17 F= -.19232574E+03 E0= -.19225646E+03  d E =-.941238E-03
       N       E                     dE             d eps       ncg     rms          rms(c)
DAV:   1    -0.192328538393E+03   -0.27938E-02   -0.83242E-01  8160   0.192E+00    0.238E-01
DAV:   2    -0.192332726032E+03   -0.41876E-02   -0.40888E-02 11360   0.738E-01    0.373E-01
DAV:   3    -0.192331337610E+03    0.13884E-02   -0.48843E-03 12720   0.596E-01    0.199E-01
DAV:   4    -0.192330793991E+03    0.54362E-03   -0.93358E-04 10480   0.240E-01    0.875E-02
DAV:   5    -0.192330931586E+03   -0.13759E-03   -0.61554E-04 11080   0.207E-01    0.145E-01
DAV:   6    -0.192330755503E+03    0.17608E-03   -0.52363E-04  9280   0.197E-01    0.609E-02
DAV:   7    -0.192330691239E+03    0.64264E-04   -0.12397E-04  6680   0.665E-02
  18 F= -.19233069E+03 E0= -.19226265E+03  d E =-.494890E-02
       N       E                     dE             d eps       ncg     rms          rms(c)
DAV:   1    -0.192332408304E+03   -0.16528E-02   -0.56362E-01  8160   0.159E+00    0.193E-01
DAV:   2    -0.192334619951E+03   -0.22116E-02   -0.26931E-02 10560   0.505E-01    0.214E-01
DAV:   3    -0.192334625562E+03   -0.56116E-05   -0.27485E-03 13200   0.452E-01    0.223E-01
DAV:   4    -0.192333977842E+03    0.64772E-03   -0.85837E-04 10840   0.258E-01    0.714E-02
DAV:   5    -0.192334077407E+03   -0.99566E-04   -0.40903E-04  9160   0.176E-01
  19 F= -.19233408E+03 E0= -.19226696E+03  d E =-.338617E-02
       N       E                     dE             d eps       ncg     rms          rms(c)
DAV:   1    -0.192335231909E+03   -0.12541E-02   -0.23688E-01  8160   0.104E+00    0.133E-01
DAV:   2    -0.192336381507E+03   -0.11496E-02   -0.11975E-02 11960   0.396E-01    0.198E-01
DAV:   3    -0.192336082762E+03    0.29875E-03   -0.14315E-03 11640   0.337E-01    0.133E-01
DAV:   4    -0.192335892859E+03    0.18990E-03   -0.36724E-04  9000   0.171E-01    0.666E-02
DAV:   5    -0.192335879311E+03    0.13548E-04   -0.16324E-04  7160   0.117E-01
  20 F= -.19233588E+03 E0= -.19226926E+03  d E =-.180190E-02
       N       E                     dE             d eps       ncg     rms          rms(c)
DAV:   1    -0.192336806690E+03   -0.91383E-03   -0.52592E-01  8160   0.154E+00    0.191E-01
DAV:   2    -0.192339140473E+03   -0.23338E-02   -0.24813E-02 11760   0.559E-01    0.268E-01
DAV:   3    -0.192338547420E+03    0.59305E-03   -0.32091E-03 12280   0.476E-01    0.189E-01
DAV:   4    -0.192338176526E+03    0.37089E-03   -0.92225E-04 10240   0.245E-01    0.101E-01
DAV:   5    -0.192338111422E+03    0.65105E-04   -0.40564E-04  9360   0.160E-01
  21 F= -.19233811E+03 E0= -.19227225E+03  d E =-.223211E-02
       N       E                     dE             d eps       ncg     rms          rms(c)
DAV:   1    -0.192338666260E+03   -0.48973E-03   -0.35846E-01  8160   0.128E+00    0.158E-01
DAV:   2    -0.192340066314E+03   -0.14001E-02   -0.15792E-02 12240   0.425E-01    0.206E-01
DAV:   3    -0.192339758820E+03    0.30749E-03   -0.18831E-03 12440   0.369E-01    0.153E-01
DAV:   4    -0.192339456167E+03    0.30265E-03   -0.46617E-04  9040   0.183E-01    0.580E-02
DAV:   5    -0.192339522746E+03   -0.66578E-04   -0.31157E-04  8720   0.137E-01
  22 F= -.19233952E+03 E0= -.19227416E+03  d E =-.141132E-02
       N       E                     dE             d eps       ncg     rms          rms(c)
DAV:   1    -0.192339743981E+03   -0.28781E-03   -0.16667E-02  8160   0.318E-01    0.577E-02
DAV:   2    -0.192339891311E+03   -0.14733E-03   -0.91287E-04 11200   0.147E-01    0.110E-01
DAV:   3    -0.192339743056E+03    0.14825E-03   -0.38000E-04  9040   0.164E-01    0.619E-02
DAV:   4    -0.192339705694E+03    0.37362E-04   -0.90999E-05  5880   0.803E-02
  23 F= -.19233971E+03 E0= -.19227418E+03  d E =-.182948E-03
