 vasp.5.4.1 05Feb16 (build Jul 05 2020 17:13:04) complex                        
  
 executed on           IFC91_ompi date 2024.04.24  09:14:08
 running on   40 total cores
 distrk:  each k-point on   40 cores,    1 groups
 distr:  one band on NCORES_PER_BAND=   1 cores,   40 groups


--------------------------------------------------------------------------------------------------------


 INCAR:
 POTCAR:   PAW_PBE V 08Apr2002                    
 POTCAR:   PAW_PBE Mo 08Apr2002                   
 POTCAR:   PAW_PBE W 08Apr2002                    
 POTCAR:    PAW_PBE S 17Jan2003                   

 ----------------------------------------------------------------------------- 
|                                                                             |
|           W    W    AA    RRRRR   N    N  II  N    N   GGGG   !!!           |
|           W    W   A  A   R    R  NN   N  II  NN   N  G    G  !!!           |
|           W    W  A    A  R    R  N N  N  II  N N  N  G       !!!           |
|           W WW W  AAAAAA  RRRRR   N  N N  II  N  N N  G  GGG   !            |
|           WW  WW  A    A  R   R   N   NN  II  N   NN  G    G                |
|           W    W  A    A  R    R  N    N  II  N    N   GGGG   !!!           |
|                                                                             |
|      For optimal performance we recommend to set                            |
|        NCORE= 4 - approx SQRT( number of cores)                             |
|      NCORE specifies how many cores store one orbital (NPAR=cpu/NCORE).     |
|      This setting can  greatly improve the performance of VASP for DFT.     |
|      The default, NPAR=number of cores might be grossly inefficient         |
|      on modern multi-core architectures or massively parallel machines.     |
|      Do your own testing !!!!                                               |
|      Unfortunately you need to use the default for GW and RPA calculations. |
|      (for HF NCORE is supported but not extensively tested yet)             |
|                                                                             |
 ----------------------------------------------------------------------------- 

 POTCAR:   PAW_PBE V 08Apr2002                    
   VRHFIN =V: p6 d4 s1                                                          
   LEXCH  = PE                                                                  
   EATOM  =   170.8679 eV,   12.5584 Ry                                         
                                                                                
   TITEL  = PAW_PBE V 08Apr2002                                                 
   LULTRA =        F    use ultrasoft PP ?                                      
   IUNSCR =        1    unscreen: 0-lin 1-nonlin 2-no                           
   RPACOR =    2.000    partial core radius                                     
   POMASS =   50.941; ZVAL   =    5.000    mass and valenz                      
   RCORE  =    2.700    outmost cutoff radius                                   
   RWIGS  =    2.500; RWIGS  =    1.323    wigner-seitz radius (au A)           
   ENMAX  =  192.543; ENMIN  =  144.408 eV                                      
   RCLOC  =    1.779    cutoff for local pot                                    
   LCOR   =        T    correct aug charges                                     
   LPAW   =        T    paw PP                                                  
   EAUG   =  358.662                                                            
   DEXC   =    -.034                                                            
   RMAX   =    3.323    core radius for proj-oper                               
   RAUG   =    1.300    factor for augmentation sphere                          
   RDEP   =    2.762    radius for radial grids                                 
   QCUT   =   -3.762; QGAM   =    7.524    optimization parameters              
                                                                                
   Description                                                                  
     l     E      TYP  RCUT    TYP  RCUT                                        
     2   .000     23  2.700                                                     
     2   .000     23  2.700                                                     
     0   .000     23  2.700                                                     
     0  2.000     23  2.700                                                     
     1   .000     23  2.700                                                     
     1  2.000     23  2.700                                                     
     3   .000      7   .000                                                     
  local pseudopotential read in
  partial core-charges read in
  atomic valenz-charges read in
  non local Contribution for L=           2  read in
    real space projection operators read in
  non local Contribution for L=           2  read in
    real space projection operators read in
  non local Contribution for L=           0  read in
    real space projection operators read in
  non local Contribution for L=           0  read in
    real space projection operators read in
  non local Contribution for L=           1  read in
    real space projection operators read in
  non local Contribution for L=           1  read in
    real space projection operators read in
    PAW grid and wavefunctions read in
 
   number of l-projection  operators is LMAX  =           6
   number of lm-projection operators is LMMAX =          18
 
 POTCAR:   PAW_PBE Mo 08Apr2002                   
   VRHFIN =Mo: 4p5s4d                                                           
   LEXCH  = PE                                                                  
   EATOM  =   217.5180 eV,   15.9871 Ry                                         
                                                                                
   TITEL  = PAW_PBE Mo 08Apr2002                                                
   LULTRA =        F    use ultrasoft PP ?                                      
   IUNSCR =        1    unscreen: 0-lin 1-nonlin 2-no                           
   RPACOR =    2.200    partial core radius                                     
   POMASS =   95.940; ZVAL   =    6.000    mass and valenz                      
   RCORE  =    2.750    outmost cutoff radius                                   
   RWIGS  =    2.750; RWIGS  =    1.455    wigner-seitz radius (au A)           
   ENMAX  =  224.584; ENMIN  =  168.438 eV                                      
   RCLOC  =    2.111    cutoff for local pot                                    
   LCOR   =        T    correct aug charges                                     
   LPAW   =        T    paw PP                                                  
   EAUG   =  345.278                                                            
   DEXC   =    -.088                                                            
   RMAX   =    3.077    core radius for proj-oper                               
   RAUG   =    1.300    factor for augmentation sphere                          
   RDEP   =    2.815    radius for radial grids                                 
   QCUT   =   -4.063; QGAM   =    8.126    optimization parameters              
                                                                                
   Description                                                                  
     l     E      TYP  RCUT    TYP  RCUT                                        
     2   .000     23  2.500                                                     
     2   .000     23  2.500                                                     
     0   .000     23  2.600                                                     
     0  1.000     23  2.600                                                     
     1   .400     23  2.750                                                     
     1  2.000     23  2.750                                                     
     3   .000      7   .000                                                     
  local pseudopotential read in
  partial core-charges read in
  atomic valenz-charges read in
  non local Contribution for L=           2  read in
    real space projection operators read in
  non local Contribution for L=           2  read in
    real space projection operators read in
  non local Contribution for L=           0  read in
    real space projection operators read in
  non local Contribution for L=           0  read in
    real space projection operators read in
  non local Contribution for L=           1  read in
    real space projection operators read in
  non local Contribution for L=           1  read in
    real space projection operators read in
    PAW grid and wavefunctions read in
 
   number of l-projection  operators is LMAX  =           6
   number of lm-projection operators is LMMAX =          18
 
 POTCAR:   PAW_PBE W 08Apr2002                    
   VRHFIN =W : 6s5d                                                             
   LEXCH  = PE                                                                  
   EATOM  =   204.6100 eV,   15.0384 Ry                                         
                                                                                
   TITEL  = PAW_PBE W 08Apr2002                                                 
   LULTRA =        F    use ultrasoft PP ?                                      
   IUNSCR =        1    unscreen: 0-lin 1-nonlin 2-no                           
   RPACOR =    2.330    partial core radius                                     
   POMASS =  183.850; ZVAL   =    6.000    mass and valenz                      
   RCORE  =    2.750    outmost cutoff radius                                   
   RWIGS  =    2.750; RWIGS  =    1.455    wigner-seitz radius (au A)           
   ENMAX  =  223.057; ENMIN  =  167.293 eV                                      
   RCLOC  =    2.147    cutoff for local pot                                    
   LCOR   =        T    correct aug charges                                     
   LPAW   =        T    paw PP                                                  
   EAUG   =  373.438                                                            
   DEXC   =    -.060                                                            
   RMAX   =    3.087    core radius for proj-oper                               
   RAUG   =    1.300    factor for augmentation sphere                          
   RDEP   =    2.886    radius for radial grids                                 
   QCUT   =   -4.049; QGAM   =    8.098    optimization parameters              
                                                                                
   Description                                                                  
     l     E      TYP  RCUT    TYP  RCUT                                        
     2   .000     23  2.500                                                     
     2   .000     23  2.500                                                     
     0   .000     23  2.500                                                     
     0   .000     23  2.500                                                     
     1   .200     23  2.750                                                     
     1  2.000     23  2.750                                                     
     3   .000      7   .000                                                     
  local pseudopotential read in
  partial core-charges read in
  atomic valenz-charges read in
  non local Contribution for L=           2  read in
    real space projection operators read in
  non local Contribution for L=           2  read in
    real space projection operators read in
  non local Contribution for L=           0  read in
    real space projection operators read in
  non local Contribution for L=           0  read in
    real space projection operators read in
  non local Contribution for L=           1  read in
    real space projection operators read in
  non local Contribution for L=           1  read in
    real space projection operators read in
    PAW grid and wavefunctions read in
 
   number of l-projection  operators is LMAX  =           6
   number of lm-projection operators is LMMAX =          18
 
 POTCAR:    PAW_PBE S 17Jan2003                   
   VRHFIN =S : s2p4                                                             
   LEXCH  = PE                                                                  
   EATOM  =   276.8230 eV,   20.3459 Ry                                         
                                                                                
   TITEL  = PAW_PBE S 17Jan2003                                                 
   LULTRA =        F    use ultrasoft PP ?                                      
   IUNSCR =        1    unscreen: 0-lin 1-nonlin 2-no                           
   RPACOR =    1.500    partial core radius                                     
   POMASS =   32.066; ZVAL   =    6.000    mass and valenz                      
   RCORE  =    1.900    outmost cutoff radius                                   
   RWIGS  =    2.200; RWIGS  =    1.164    wigner-seitz radius (au A)           
   ENMAX  =  280.000; ENMIN  =  194.016 eV                                      
   ICORE  =        2    local potential                                         
   LCOR   =        T    correct aug charges                                     
   LPAW   =        T    paw PP                                                  
   EAUG   =  335.092                                                            
   DEXC   =     .000                                                            
   RMAX   =    2.867    core radius for proj-oper                               
   RAUG   =    1.300    factor for augmentation sphere                          
   RDEP   =    1.954    radius for radial grids                                 
   QCUT   =   -4.360; QGAM   =    8.721    optimization parameters              
                                                                                
   Description                                                                  
     l     E      TYP  RCUT    TYP  RCUT                                        
     0   .000     23  1.900                                                     
     0   .000     23  1.900                                                     
     1   .000     23  1.900                                                     
     1   .000     23  1.900                                                     
     2   .000     23  1.900                                                     
  local pseudopotential read in
  partial core-charges read in
  atomic valenz-charges read in
  non local Contribution for L=           0  read in
    real space projection operators read in
  non local Contribution for L=           0  read in
    real space projection operators read in
  non local Contribution for L=           1  read in
    real space projection operators read in
  non local Contribution for L=           1  read in
    real space projection operators read in
    PAW grid and wavefunctions read in
 
   number of l-projection  operators is LMAX  =           4
   number of lm-projection operators is LMMAX =           8
 

 ----------------------------------------------------------------------------- 
|                                                                             |
|  ADVICE TO THIS USER RUNNING 'VASP/VAMP'   (HEAR YOUR MASTER'S VOICE ...):  |
|                                                                             |
|      You have a (more or less) 'large supercell' and for larger cells       |
|      it might be more efficient to use real space projection operators      |
|      So try LREAL= Auto  in the INCAR   file.                               |
|      Mind: If you want to do a very accurate calculations keep the          |
|      reciprocal projection scheme          (i.e. LREAL=.FALSE.)             |
|                                                                             |
 ----------------------------------------------------------------------------- 

 PAW_PBE V 08Apr2002                    :
 energy of atom  1       EATOM= -170.8679
 kinetic energy error for atom=    0.0047 (will be added to EATOM!!)
 PAW_PBE Mo 08Apr2002                   :
 energy of atom  2       EATOM= -217.5180
 kinetic energy error for atom=    0.0215 (will be added to EATOM!!)
 PAW_PBE W 08Apr2002                    :
 energy of atom  3       EATOM= -204.6100
 kinetic energy error for atom=    0.0205 (will be added to EATOM!!)
  PAW_PBE S 17Jan2003                   :
 energy of atom  4       EATOM= -276.8230
 kinetic energy error for atom=    0.0122 (will be added to EATOM!!)
 
 
 POSCAR: crystal structure from VMoWS2 with Hexag
  positions in cartesian coordinates
  No initial velocities read in
 exchange correlation table for  LEXCH =        8
   RHO(1)=    0.500       N(1)  =     2000
   RHO(2)=  100.500       N(2)  =     4000
 


--------------------------------------------------------------------------------------------------------


 ion  position               nearest neighbor table
   1  0.333  0.667  0.000-  15 2.34  18 2.34  20 2.36  21 2.36  13 2.36  12 2.36
   2  1.000  0.333  0.000-  25 2.34  10 2.34  13 2.36  12 2.36  22 2.36  23 2.36
   3  0.333  0.333  0.000-  13 2.34  16 2.34  19 2.36  18 2.36  11 2.36  10 2.36
   4  0.667  0.000  0.000-  17 2.34  26 2.34  23 2.36  22 2.36  21 2.36  20 2.36   7 3.34   6 3.34
                             5 3.34   9 3.34
   5  0.667  0.333  0.000-  19 2.34  22 2.34  25 2.36  24 2.36  17 2.36  16 2.36   6 3.34   4 3.34
                             8 3.36   9 3.36
   6  0.667  0.667  0.000-  21 2.34  24 2.34  27 2.36  26 2.36  19 2.36  18 2.36   8 3.34   4 3.34
                             5 3.34   7 3.36
   7  0.000  0.000  0.000-  23 2.34  14 2.34  11 2.36  10 2.36  27 2.36  26 2.36   4 3.34   8 3.34
                             9 3.34   6 3.36
   8  0.000  0.667  0.000-  27 2.34  12 2.34  14 2.36  15 2.36  24 2.36  25 2.36   6 3.34   7 3.34
                             9 3.36   5 3.36
   9  0.333  0.000  0.000-  11 2.34  20 2.34  17 2.36  16 2.36  15 2.36  14 2.36   4 3.34   7 3.34
                             8 3.36   5 3.36
  10  0.111  0.222  0.955-   2 2.34   7 2.36   3 2.36
  11  0.222  0.111  0.045-   9 2.34   7 2.36   3 2.36
  12  0.111  0.556  0.955-   8 2.34   2 2.36   1 2.36
  13  0.222  0.444  0.045-   3 2.34   2 2.36   1 2.36
  14  0.111  0.889  0.955-   7 2.34   8 2.36   9 2.36
  15  0.222  0.777  0.045-   1 2.34   8 2.36   9 2.36
  16  0.444  0.222  0.955-   3 2.34   9 2.36   5 2.36
  17  0.556  0.111  0.045-   4 2.34   9 2.36   5 2.36
  18  0.444  0.556  0.955-   1 2.34   3 2.36   6 2.36
  19  0.556  0.444  0.045-   5 2.34   3 2.36   6 2.36
  20  0.444  0.889  0.955-   9 2.34   1 2.36   4 2.36
  21  0.556  0.777  0.045-   6 2.34   1 2.36   4 2.36
  22  0.777  0.222  0.955-   5 2.34   4 2.36   2 2.36
  23  0.889  0.111  0.045-   7 2.34   4 2.36   2 2.36
  24  0.777  0.556  0.955-   6 2.34   5 2.36   8 2.36
  25  0.889  0.444  0.045-   2 2.34   5 2.36   8 2.36
  26  0.777  0.889  0.955-   4 2.34   6 2.36   7 2.36
  27  0.889  0.777  0.045-   8 2.34   6 2.36   7 2.36
 

IMPORTANT INFORMATION: All symmetrisations will be switched off!
NOSYMM: (Re-)initialisation of all symmetry stuff for point group C_1.

 
 
 KPOINTS: K-POINTS 	#supercell of CrS2 in hexagona

Automatic generation of k-mesh.
Space group operators:
 irot       det(A)        alpha          n_x          n_y          n_z        tau_x        tau_y        tau_z
    1     1.000000     0.000000     1.000000     0.000000     0.000000     0.000000     0.000000     0.000000
 
 Subroutine IBZKPT returns following result:
 ===========================================
 
 Found     34 irreducible k-points:
 
 Following reciprocal coordinates:
            Coordinates               Weight
  0.000000  0.000000  0.000000      1.000000
  0.125000  0.000000  0.000000      2.000000
  0.250000  0.000000  0.000000      2.000000
  0.375000  0.000000  0.000000      2.000000
  0.500000  0.000000  0.000000      1.000000
  0.000000  0.125000  0.000000      2.000000
  0.125000  0.125000  0.000000      2.000000
  0.250000  0.125000  0.000000      2.000000
  0.375000  0.125000  0.000000      2.000000
  0.500000  0.125000  0.000000      2.000000
 -0.375000  0.125000  0.000000      2.000000
 -0.250000  0.125000  0.000000      2.000000
 -0.125000  0.125000  0.000000      2.000000
  0.000000  0.250000  0.000000      2.000000
  0.125000  0.250000  0.000000      2.000000
  0.250000  0.250000  0.000000      2.000000
  0.375000  0.250000  0.000000      2.000000
  0.500000  0.250000  0.000000      2.000000
 -0.375000  0.250000  0.000000      2.000000
 -0.250000  0.250000  0.000000      2.000000
 -0.125000  0.250000  0.000000      2.000000
 -0.000000  0.375000  0.000000      2.000000
  0.125000  0.375000  0.000000      2.000000
  0.250000  0.375000  0.000000      2.000000
  0.375000  0.375000  0.000000      2.000000
  0.500000  0.375000  0.000000      2.000000
 -0.375000  0.375000  0.000000      2.000000
 -0.250000  0.375000  0.000000      2.000000
 -0.125000  0.375000  0.000000      2.000000
  0.000000  0.500000  0.000000      1.000000
  0.125000  0.500000  0.000000      2.000000
  0.250000  0.500000  0.000000      2.000000
  0.375000  0.500000  0.000000      2.000000
  0.500000  0.500000  0.000000      1.000000
 
 Following cartesian coordinates:
            Coordinates               Weight
  0.000000  0.000000  0.000000      1.000000
  0.007209  0.012401  0.000000      2.000000
  0.014418  0.024802  0.000000      2.000000
  0.021626  0.037202  0.000000      2.000000
  0.028835  0.049603  0.000000      1.000000
 -0.007209  0.012401  0.000000      2.000000
  0.000000  0.024802  0.000000      2.000000
  0.007209  0.037202  0.000000      2.000000
  0.014418  0.049603  0.000000      2.000000
  0.021626  0.062004  0.000000      2.000000
 -0.028835 -0.024802  0.000000      2.000000
 -0.021626 -0.012401  0.000000      2.000000
 -0.014418  0.000000  0.000000      2.000000
 -0.014418  0.024802  0.000000      2.000000
 -0.007209  0.037202  0.000000      2.000000
  0.000000  0.049603  0.000000      2.000000
  0.007209  0.062004  0.000000      2.000000
  0.014418  0.074405  0.000000      2.000000
 -0.036044 -0.012401  0.000000      2.000000
 -0.028835  0.000000  0.000000      2.000000
 -0.021626  0.012401  0.000000      2.000000
 -0.021626  0.037202  0.000000      2.000000
 -0.014418  0.049603  0.000000      2.000000
 -0.007209  0.062004  0.000000      2.000000
  0.000000  0.074405  0.000000      2.000000
  0.007209  0.086806  0.000000      2.000000
 -0.043253  0.000000  0.000000      2.000000
 -0.036044  0.012401  0.000000      2.000000
 -0.028835  0.024802  0.000000      2.000000
 -0.028835  0.049603  0.000000      1.000000
 -0.021626  0.062004  0.000000      2.000000
 -0.014418  0.074405  0.000000      2.000000
 -0.007209  0.086806  0.000000      2.000000
  0.000000  0.099206  0.000000      1.000000
 


--------------------------------------------------------------------------------------------------------




 Dimension of arrays:
   k-points           NKPTS =     34   k-points in BZ     NKDIM =     34   number of bands    NBANDS=    120
   number of dos      NEDOS =    301   number of ions     NIONS =     27
   non local maximal  LDIM  =      6   non local SUM 2l+1 LMDIM =     18
   total plane-waves  NPLWV = 222264
   max r-space proj   IRMAX =      1   max aug-charges    IRDMAX=   5642
   dimension x,y,z NGX =    42 NGY =   42 NGZ =  126
   dimension x,y,z NGXF=    84 NGYF=   84 NGZF=  252
   support grid    NGXF=    84 NGYF=   84 NGZF=  252
   ions per type =               3   3   3  18
 NGX,Y,Z   is equivalent  to a cutoff of   6.96,  6.96,  6.98 a.u.
 NGXF,Y,Z  is equivalent  to a cutoff of  13.92, 13.92, 13.96 a.u.


 I would recommend the setting:
   dimension x,y,z NGX =    41 NGY =   41 NGZ =  123
 SYSTEM =  unknown system                          
 POSCAR =  crystal structure from VMoWS2 with Hexag

 Startparameter for this run:
   NWRITE =      2    write-flag & timer
   PREC   = normal    normal or accurate (medium, high low for compatibility)
   ISTART =      0    job   : 0-new  1-cont  2-samecut
   ICHARG =      2    charge: 1-file 2-atom 10-const
   ISPIN  =      1    spin polarized calculation?
   LNONCOLLINEAR =      F non collinear calculations
   LSORBIT =      F    spin-orbit coupling
   INIWAV =      1    electr: 0-lowe 1-rand  2-diag
   LASPH  =      F    aspherical Exc in radial PAW
   METAGGA=      F    non-selfconsistent MetaGGA calc.

 Electronic Relaxation 1
   ENCUT  =  280.0 eV  20.58 Ry    4.54 a.u.  13.68 13.68 40.93*2*pi/ulx,y,z
   ENINI  =  280.0     initial cutoff
   ENAUG  =  373.4 eV  augmentation charge cutoff
   NELM   =     60;   NELMIN=  2; NELMDL= -5     # of ELM steps 
   EDIFF  = 0.1E-03   stopping-criterion for ELM
   LREAL  =      F    real-space projection
   NLSPLINE    = F    spline interpolate recip. space projectors
   LCOMPAT=      F    compatible to vasp.4.4
   GGA_COMPAT  = T    GGA compatible to vasp.4.4-vasp.4.6
   LMAXPAW     = -100 max onsite density
   LMAXMIX     =    2 max onsite mixed and CHGCAR
   VOSKOWN=      0    Vosko Wilk Nusair interpolation
   ROPT   =    0.00000   0.00000   0.00000   0.00000
 Ionic relaxation
   EDIFFG = 0.1E-02   stopping-criterion for IOM
   NSW    =    100    number of steps for IOM
   NBLOCK =      1;   KBLOCK =    100    inner block; outer block 
   IBRION =      1    ionic relax: 0-MD 1-quasi-New 2-CG
   NFREE  =      0    steps in history (QN), initial steepest desc. (CG)
   ISIF   =      3    stress and relaxation
   IWAVPR =     11    prediction:  0-non 1-charg 2-wave 3-comb
   ISYM   =      0    0-nonsym 1-usesym 2-fastsym
   LCORR  =      T    Harris-Foulkes like correction to forces

   POTIM  = 0.5000    time-step for ionic-motion
   TEIN   =    0.0    initial temperature
   TEBEG  =    0.0;   TEEND  =   0.0 temperature during run
   SMASS  =  -3.00    Nose mass-parameter (am)
   estimated Nose-frequenzy (Omega)   =  0.10E-29 period in steps =****** mass=  -0.230E-26a.u.
   SCALEE = 1.0000    scale energy and forces
   NPACO  =    256;   APACO  = 16.0  distance and # of slots for P.C.
   PSTRESS=    0.0 pullay stress

  Mass of Ions in am
   POMASS =  50.94 95.94183.85 32.07
  Ionic Valenz
   ZVAL   =   5.00  6.00  6.00  6.00
  Atomic Wigner-Seitz radii
   RWIGS  =  -1.00 -1.00 -1.00 -1.00
  virtual crystal weights 
   VCA    =   1.00  1.00  1.00  1.00
   NELECT =     159.0000    total number of electrons
   NUPDOWN=      -1.0000    fix difference up-down

 DOS related values:
   EMIN   =  10.00;   EMAX   =-10.00  energy-range for DOS
   EFERMI =   0.00
   ISMEAR =     0;   SIGMA  =   0.20  broadening in eV -4-tet -1-fermi 0-gaus

 Electronic relaxation 2 (details)
   IALGO  =     38    algorithm
   LDIAG  =      T    sub-space diagonalisation (order eigenvalues)
   LSUBROT=      F    optimize rotation matrix (better conditioning)
   TURBO    =      0    0=normal 1=particle mesh
   IRESTART =      0    0=no restart 2=restart with 2 vectors
   NREBOOT  =      0    no. of reboots
   NMIN     =      0    reboot dimension
   EREF     =   0.00    reference energy to select bands
   IMIX   =      4    mixing-type and parameters
     AMIX     =   0.40;   BMIX     =  1.00
     AMIX_MAG =   1.60;   BMIX_MAG =  1.00
     AMIN     =   0.10
     WC   =   100.;   INIMIX=   1;  MIXPRE=   1;  MAXMIX= -45

 Intra band minimization:
   WEIMIN = 0.0010     energy-eigenvalue tresh-hold
   EBREAK =  0.21E-06  absolut break condition
   DEPER  =   0.30     relativ break condition  

   TIME   =   0.40     timestep for ELM

  volume/ion in A,a.u.               =      97.10       655.29
  Fermi-wavevector in a.u.,A,eV,Ry     =   0.643191  1.215456  5.628665  0.413695
  Thomas-Fermi vector in A             =   1.710110
 
 Write flags
   LWAVE  =      F    write WAVECAR
   LCHARG =      F    write CHGCAR
   LVTOT  =      F    write LOCPOT, total local potential
   LVHAR  =      F    write LOCPOT, Hartree potential only
   LELF   =      F    write electronic localiz. function (ELF)
   LORBIT =      0    0 simple, 1 ext, 2 COOP (PROOUT)


 Dipole corrections
   LMONO  =      F    monopole corrections only (constant potential shift)
   LDIPOL =      F    correct potential (dipole corrections)
   IDIPOL =      0    1-x, 2-y, 3-z, 4-all directions 
   EPSILON=  1.0000000 bulk dielectric constant

 Exchange correlation treatment:
   GGA     =    --    GGA type
   LEXCH   =     8    internal setting for exchange type
   VOSKOWN=      0    Vosko Wilk Nusair interpolation
   LHFCALC =     F    Hartree Fock is set to
   LHFONE  =     F    Hartree Fock one center treatment
   AEXX    =    0.0000 exact exchange contribution

 Linear response parameters
   LEPSILON=     F    determine dielectric tensor
   LRPA    =     F    only Hartree local field effects (RPA)
   LNABLA  =     F    use nabla operator in PAW spheres
   LVEL    =     F    velocity operator in full k-point grid
   LINTERFAST=   F  fast interpolation
   KINTER  =     0    interpolate to denser k-point grid
   CSHIFT  =0.1000    complex shift for real part using Kramers Kronig
   OMEGAMAX=  -1.0    maximum frequency
   DEG_THRESHOLD= 0.2000000E-02 threshold for treating states as degnerate
   RTIME   =    0.100 relaxation time in fs

 Orbital magnetization related:
   ORBITALMAG=     F  switch on orbital magnetization
   LCHIMAG   =     F  perturbation theory with respect to B field
   DQ        =  0.001000  dq finite difference perturbation B field



--------------------------------------------------------------------------------------------------------


 quasi-Newton-method for relaxation of ions
 charge density and potential will be updated during run
 non-spin polarized calculation
 Variant of blocked Davidson
 Davidson routine will perform the subspace rotation
 perform sub-space diagonalisation
    after iterative eigenvector-optimisation
 modified Broyden-mixing scheme, WC =      100.0
 initial mixing is a Kerker type mixing with AMIX =  0.4000 and BMIX =      1.0000
 Hartree-type preconditioning will be used
 using additional bands           40
 reciprocal scheme for non local part
 use partial core corrections
 calculate Harris-corrections to forces 
   (improved forces if not selfconsistent)
 use gradient corrections 
 use of overlap-Matrix (Vanderbilt PP)
 Gauss-broadening in eV      SIGMA  =   0.20


--------------------------------------------------------------------------------------------------------


  energy-cutoff  :      280.00
  volume of cell :     2621.81
      direct lattice vectors                 reciprocal lattice vectors
     8.669999960  5.039999894  0.000000000     0.057670129  0.099206348  0.000000000
    -8.669999821  5.040000133  0.000000000    -0.057670126  0.099206350  0.000000000
     0.000000000  0.000000000 30.000000000     0.000000000  0.000000000  0.033333333

  length of vectors
    10.028484344 10.028484344 30.000000000     0.114750788  0.114750788  0.033333333


 
 k-points in units of 2pi/SCALE and weight: K-POINTS 	#supercell of CrS2 in hexagona
   0.00000000  0.00000000  0.00000000       0.016
   0.00720877  0.01240079  0.00000000       0.031
   0.01441753  0.02480159  0.00000000       0.031
   0.02162630  0.03720238  0.00000000       0.031
   0.02883506  0.04960317  0.00000000       0.016
  -0.00720877  0.01240079  0.00000000       0.031
   0.00000000  0.02480159  0.00000000       0.031
   0.00720877  0.03720238  0.00000000       0.031
   0.01441753  0.04960317  0.00000000       0.031
   0.02162630  0.06200397  0.00000000       0.031
  -0.02883506 -0.02480159  0.00000000       0.031
  -0.02162630 -0.01240079  0.00000000       0.031
  -0.01441753  0.00000000  0.00000000       0.031
  -0.01441753  0.02480159  0.00000000       0.031
  -0.00720877  0.03720238  0.00000000       0.031
   0.00000000  0.04960317  0.00000000       0.031
   0.00720877  0.06200397  0.00000000       0.031
   0.01441753  0.07440476  0.00000000       0.031
  -0.03604383 -0.01240079  0.00000000       0.031
  -0.02883506  0.00000000  0.00000000       0.031
  -0.02162630  0.01240079  0.00000000       0.031
  -0.02162630  0.03720238  0.00000000       0.031
  -0.01441753  0.04960317  0.00000000       0.031
  -0.00720877  0.06200397  0.00000000       0.031
   0.00000000  0.07440476  0.00000000       0.031
   0.00720877  0.08680556  0.00000000       0.031
  -0.04325260  0.00000000  0.00000000       0.031
  -0.03604383  0.01240079  0.00000000       0.031
  -0.02883506  0.02480159  0.00000000       0.031
  -0.02883506  0.04960317  0.00000000       0.016
  -0.02162630  0.06200397  0.00000000       0.031
  -0.01441753  0.07440476  0.00000000       0.031
  -0.00720876  0.08680556  0.00000000       0.031
   0.00000000  0.09920635  0.00000000       0.016
 
 k-points in reciprocal lattice and weights: K-POINTS 	#supercell of CrS2 in hexagona
   0.00000000  0.00000000  0.00000000       0.016
   0.12500000  0.00000000  0.00000000       0.031
   0.25000000  0.00000000  0.00000000       0.031
   0.37500000  0.00000000  0.00000000       0.031
   0.50000000  0.00000000  0.00000000       0.016
   0.00000000  0.12500000  0.00000000       0.031
   0.12500000  0.12500000  0.00000000       0.031
   0.25000000  0.12500000  0.00000000       0.031
   0.37500000  0.12500000  0.00000000       0.031
   0.50000000  0.12500000  0.00000000       0.031
  -0.37500000  0.12500000  0.00000000       0.031
  -0.25000000  0.12500000  0.00000000       0.031
  -0.12500000  0.12500000  0.00000000       0.031
   0.00000000  0.25000000  0.00000000       0.031
   0.12500000  0.25000000  0.00000000       0.031
   0.25000000  0.25000000  0.00000000       0.031
   0.37500000  0.25000000  0.00000000       0.031
   0.50000000  0.25000000  0.00000000       0.031
  -0.37500000  0.25000000  0.00000000       0.031
  -0.25000000  0.25000000  0.00000000       0.031
  -0.12500000  0.25000000  0.00000000       0.031
  -0.00000000  0.37500000  0.00000000       0.031
   0.12500000  0.37500000  0.00000000       0.031
   0.25000000  0.37500000  0.00000000       0.031
   0.37500000  0.37500000  0.00000000       0.031
   0.50000000  0.37500000  0.00000000       0.031
  -0.37500000  0.37500000  0.00000000       0.031
  -0.25000000  0.37500000  0.00000000       0.031
  -0.12500000  0.37500000  0.00000000       0.031
   0.00000000  0.50000000  0.00000000       0.016
   0.12500000  0.50000000  0.00000000       0.031
   0.25000000  0.50000000  0.00000000       0.031
   0.37500000  0.50000000  0.00000000       0.031
   0.50000000  0.50000000  0.00000000       0.016
 
 position of ions in fractional coordinates (direct lattice) 
   0.33333334  0.66666669  0.00000000
   1.00000000  0.33333334  0.00000000
   0.33333334  0.33333334  0.00000000
   0.66666669  0.00000000  0.00000000
   0.66666669  0.33333334  0.00000000
   0.66666669  0.66666669  0.00000000
   0.00000000  0.00000000  0.00000000
   0.00000000  0.66666669  0.00000000
   0.33333334  0.00000000  0.00000000
   0.11068511  0.22244981  0.95539999
   0.22244981  0.11068511  0.04460000
   0.11068511  0.55578315  0.95539999
   0.22244981  0.44401845  0.04460000
   0.11068511  0.88911647  0.95539999
   0.22244981  0.77735180  0.04460000
   0.44401845  0.22244981  0.95539999
   0.55578315  0.11068511  0.04460000
   0.44401845  0.55578315  0.95539999
   0.55578315  0.44401845  0.04460000
   0.44401845  0.88911647  0.95539999
   0.55578315  0.77735180  0.04460000
   0.77735180  0.22244981  0.95539999
   0.88911647  0.11068511  0.04460000
   0.77735180  0.55578315  0.95539999
   0.88911647  0.44401845  0.04460000
   0.77735180  0.88911647  0.95539999
   0.88911647  0.77735180  0.04460000
 
 position of ions in cartesian coordinates  (Angst):
  -2.88999998  5.04000020  0.00000000
   5.77999993  6.71999999  0.00000000
   0.00000005  3.36000011  0.00000000
   5.78000015  3.36000003  0.00000000
   2.89000012  5.04000012  0.00000000
   0.00000009  6.72000022  0.00000000
   0.00000000  0.00000000  0.00000000
  -5.78000005  3.36000019  0.00000000
   2.89000007  1.68000002  0.00000000
  -0.96899991  1.67900001 28.66199970
   0.96899995  1.67899998  1.33799996
  -3.85899993  3.35900011 28.66199970
  -1.92100007  3.35900008  1.33799996
  -6.74899970  5.03900005 28.66199970
  -4.81100010  5.03900017  1.33799996
   1.92100017  3.35900003 28.66199970
   3.85900003  3.35900000  1.33799996
  -0.96899986  5.03900012 28.66199970
   0.96900000  5.03900009  1.33799996
  -3.85899963  6.71900006 28.66199970
  -1.92100003  6.71900019  1.33799996
   4.81100024  5.03900004 28.66199970
   6.74899984  5.03899987  1.33799996
   1.92100021  6.71900014 28.66199970
   3.85899981  6.71899996  1.33799996
  -0.96899956  8.39900008 28.66199970
   0.96899979  8.39900005  1.33799996
 


--------------------------------------------------------------------------------------------------------


 k-point  1 :   0.0000 0.0000 0.0000  plane waves:   27959
 k-point  2 :   0.1250 0.0000 0.0000  plane waves:   27889
 k-point  3 :   0.2500 0.0000 0.0000  plane waves:   27875
 k-point  4 :   0.3750 0.0000 0.0000  plane waves:   27893
 k-point  5 :   0.5000 0.0000 0.0000  plane waves:   27932
 k-point  6 :   0.0000 0.1250 0.0000  plane waves:   27889
 k-point  7 :   0.1250 0.1250 0.0000  plane waves:   27906
 k-point  8 :   0.2500 0.1250 0.0000  plane waves:   27898
 k-point  9 :   0.3750 0.1250 0.0000  plane waves:   27888
 k-point 10 :   0.5000 0.1250 0.0000  plane waves:   27873
 k-point 11 :  -0.3750 0.1250 0.0000  plane waves:   27874
 k-point 12 :  -0.2500 0.1250 0.0000  plane waves:   27895
 k-point 13 :  -0.1250 0.1250 0.0000  plane waves:   27879
 k-point 14 :   0.0000 0.2500 0.0000  plane waves:   27875
 k-point 15 :   0.1250 0.2500 0.0000  plane waves:   27898
 k-point 16 :   0.2500 0.2500 0.0000  plane waves:   27920
 k-point 17 :   0.3750 0.2500 0.0000  plane waves:   27901
 k-point 18 :   0.5000 0.2500 0.0000  plane waves:   27875
 k-point 19 :  -0.3750 0.2500 0.0000  plane waves:   27894
 k-point 20 :  -0.2500 0.2500 0.0000  plane waves:   27870
 k-point 21 :  -0.1250 0.2500 0.0000  plane waves:   27895
 k-point 22 :  -0.0000 0.3750 0.0000  plane waves:   27893
 k-point 23 :   0.1250 0.3750 0.0000  plane waves:   27888
 k-point 24 :   0.2500 0.3750 0.0000  plane waves:   27901
 k-point 25 :   0.3750 0.3750 0.0000  plane waves:   27860
 k-point 26 :   0.5000 0.3750 0.0000  plane waves:   27895
 k-point 27 :  -0.3750 0.3750 0.0000  plane waves:   27858
 k-point 28 :  -0.2500 0.3750 0.0000  plane waves:   27894
 k-point 29 :  -0.1250 0.3750 0.0000  plane waves:   27874
 k-point 30 :   0.0000 0.5000 0.0000  plane waves:   27932
 k-point 31 :   0.1250 0.5000 0.0000  plane waves:   27873
 k-point 32 :   0.2500 0.5000 0.0000  plane waves:   27875
 k-point 33 :   0.3750 0.5000 0.0000  plane waves:   27895
 k-point 34 :   0.5000 0.5000 0.0000  plane waves:   27910

 maximum and minimum number of plane-waves per node :     27959    27858

 maximum number of plane-waves:     27959
 maximum index in each direction: 
   IXMAX=   14   IYMAX=   13   IZMAX=   40
   IXMIN=  -14   IYMIN=  -14   IZMIN=  -40

 WARNING: aliasing errors must be expected set NGX to  58 to avoid them
 WARNING: aliasing errors must be expected set NGY to  56 to avoid them
 WARNING: aliasing errors must be expected set NGZ to 162 to avoid them
 aliasing errors are usually negligible using standard VASP settings
 and one can safely disregard these warnings

 serial   3D FFT for wavefunctions

 total amount of memory used by VASP on root node   650782. kBytes
========================================================================

   base      :      30000. kBytes
   nonl-proj :     559647. kBytes
   fftplans  :       2414. kBytes
   grid      :      12150. kBytes
   one-center:        419. kBytes
   wavefun   :      46152. kBytes
 
     INWAV:  cpu time    0.0000: real time    0.0000
 Broyden mixing: mesh for mixing (old mesh)
   NGX = 27   NGY = 27   NGZ = 81
  (NGX  = 84   NGY  = 84   NGZ  =252)
  gives a total of  59049 points

 initial charge density was supplied:
 charge density of overlapping atoms calculated
 number of electron     159.0000000 magnetization 
 keeping initial charge density in first step


--------------------------------------------------------------------------------------------------------


 Maximum index for augmentation-charges          139 (set IRDMAX)


--------------------------------------------------------------------------------------------------------


 First call to EWALD:  gamma=   0.129
 Maximum number of real-space cells 4x 4x 2
 Maximum number of reciprocal cells 2x 2x 5

 FEWALD executed in parallel
    FEWALD:  cpu time    0.0016: real time    0.0017


----------------------------------------- Iteration    1(   1)  ---------------------------------------


    POTLOK:  cpu time    0.0384: real time    0.0386
    SETDIJ:  cpu time    0.0035: real time    0.0036
     EDDAV:  cpu time   23.1510: real time   23.2097
       DOS:  cpu time    0.0026: real time    0.0027
    --------------------------------------------
      LOOP:  cpu time   23.1990: real time   23.2632

 eigenvalue-minimisations  :  8160
 total energy-change (2. order) : 0.1123674E+04  (-0.3586955E+04)
 number of electron     159.0000000 magnetization 
 augmentation part      159.0000000 magnetization 

 Free energy of the ion-electron system (eV)
  ---------------------------------------------------
  alpha Z        PSCENC =        81.65567618
  Ewald energy   TEWEN  =     41891.17179523
  -Hartree energ DENC   =    -47723.81769150
  -exchange      EXHF   =         0.00000000
  -V(xc)+E(xc)   XCENC  =      -242.92468708
  PAW double counting   =      3467.42045192    -2871.19716117
  entropy T*S    EENTRO =        -0.52827155
  eigenvalues    EBANDS =      -239.54825177
  atomic energy  EATOM  =      6761.44252427
  Solvation  Ediel_sol  =         0.00000000
  ---------------------------------------------------
  free energy    TOTEN  =      1123.67438452 eV

  energy without entropy =     1124.20265607  energy(sigma->0) =     1123.93852030


--------------------------------------------------------------------------------------------------------




----------------------------------------- Iteration    1(   2)  ---------------------------------------


     EDDAV:  cpu time   29.4463: real time   29.5174
       DOS:  cpu time    0.0010: real time    0.0010
    --------------------------------------------
      LOOP:  cpu time   29.4481: real time   29.5253

 eigenvalue-minimisations  : 11000
 total energy-change (2. order) :-0.1124276E+04  (-0.1080778E+04)
 number of electron     159.0000000 magnetization 
 augmentation part      159.0000000 magnetization 

 Free energy of the ion-electron system (eV)
  ---------------------------------------------------
  alpha Z        PSCENC =        81.65567618
  Ewald energy   TEWEN  =     41891.17179523
  -Hartree energ DENC   =    -47723.81769150
  -exchange      EXHF   =         0.00000000
  -V(xc)+E(xc)   XCENC  =      -242.92468708
  PAW double counting   =      3467.42045192    -2871.19716117
  entropy T*S    EENTRO =        -0.17914529
  eigenvalues    EBANDS =     -1364.17315366
  atomic energy  EATOM  =      6761.44252427
  Solvation  Ediel_sol  =         0.00000000
  ---------------------------------------------------
  free energy    TOTEN  =        -0.60139110 eV

  energy without entropy =       -0.42224581  energy(sigma->0) =       -0.51181846


--------------------------------------------------------------------------------------------------------




----------------------------------------- Iteration    1(   3)  ---------------------------------------


     EDDAV:  cpu time   29.1433: real time   29.2137
       DOS:  cpu time    0.0010: real time    0.0010
    --------------------------------------------
      LOOP:  cpu time   29.1454: real time   29.2216

 eigenvalue-minimisations  : 10840
 total energy-change (2. order) :-0.1988361E+03  (-0.1904761E+03)
 number of electron     159.0000000 magnetization 
 augmentation part      159.0000000 magnetization 

 Free energy of the ion-electron system (eV)
  ---------------------------------------------------
  alpha Z        PSCENC =        81.65567618
  Ewald energy   TEWEN  =     41891.17179523
  -Hartree energ DENC   =    -47723.81769150
  -exchange      EXHF   =         0.00000000
  -V(xc)+E(xc)   XCENC  =      -242.92468708
  PAW double counting   =      3467.42045192    -2871.19716117
  entropy T*S    EENTRO =        -0.25458933
  eigenvalues    EBANDS =     -1562.93384660
  atomic energy  EATOM  =      6761.44252427
  Solvation  Ediel_sol  =         0.00000000
  ---------------------------------------------------
  free energy    TOTEN  =      -199.43752809 eV

  energy without entropy =     -199.18293875  energy(sigma->0) =     -199.31023342


--------------------------------------------------------------------------------------------------------




----------------------------------------- Iteration    1(   4)  ---------------------------------------


     EDDAV:  cpu time   31.7139: real time   31.7901
       DOS:  cpu time    0.0010: real time    0.0010
    --------------------------------------------
      LOOP:  cpu time   31.7161: real time   31.7982

 eigenvalue-minimisations  : 12040
 total energy-change (2. order) :-0.9525680E+01  (-0.9205102E+01)
 number of electron     159.0000000 magnetization 
 augmentation part      159.0000000 magnetization 

 Free energy of the ion-electron system (eV)
  ---------------------------------------------------
  alpha Z        PSCENC =        81.65567618
  Ewald energy   TEWEN  =     41891.17179523
  -Hartree energ DENC   =    -47723.81769150
  -exchange      EXHF   =         0.00000000
  -V(xc)+E(xc)   XCENC  =      -242.92468708
  PAW double counting   =      3467.42045192    -2871.19716117
  entropy T*S    EENTRO =        -0.29127907
  eigenvalues    EBANDS =     -1572.42283712
  atomic energy  EATOM  =      6761.44252427
  Solvation  Ediel_sol  =         0.00000000
  ---------------------------------------------------
  free energy    TOTEN  =      -208.96320835 eV

  energy without entropy =     -208.67192928  energy(sigma->0) =     -208.81756881


--------------------------------------------------------------------------------------------------------




----------------------------------------- Iteration    1(   5)  ---------------------------------------


     EDDAV:  cpu time   30.5125: real time   30.5862
       DOS:  cpu time    0.0010: real time    0.0010
    CHARGE:  cpu time    0.4678: real time    0.4690
    MIXING:  cpu time    0.0016: real time    0.0021
    --------------------------------------------
      LOOP:  cpu time   30.9842: real time   31.0673

 eigenvalue-minimisations  : 11520
 total energy-change (2. order) :-0.3393053E+00  (-0.3380238E+00)
 number of electron     159.0000110 magnetization 
 augmentation part       -9.8022343 magnetization 

 Broyden mixing:
  rms(total) = 0.27507E+01    rms(broyden)= 0.27503E+01
  rms(prec ) = 0.29366E+01
  weight for this iteration     100.00

 Free energy of the ion-electron system (eV)
  ---------------------------------------------------
  alpha Z        PSCENC =        81.65567618
  Ewald energy   TEWEN  =     41891.17179523
  -Hartree energ DENC   =    -47723.81769150
  -exchange      EXHF   =         0.00000000
  -V(xc)+E(xc)   XCENC  =      -242.92468708
  PAW double counting   =      3467.42045192    -2871.19716117
  entropy T*S    EENTRO =        -0.28822186
  eigenvalues    EBANDS =     -1572.76519962
  atomic energy  EATOM  =      6761.44252427
  Solvation  Ediel_sol  =         0.00000000
  ---------------------------------------------------
  free energy    TOTEN  =      -209.30251364 eV

  energy without entropy =     -209.01429178  energy(sigma->0) =     -209.15840271


--------------------------------------------------------------------------------------------------------




----------------------------------------- Iteration    1(   6)  ---------------------------------------


    POTLOK:  cpu time    0.0342: real time    0.0355
    SETDIJ:  cpu time    0.0028: real time    0.0028
     EDDAV:  cpu time   32.8444: real time   32.9236
       DOS:  cpu time    0.0011: real time    0.0011
    CHARGE:  cpu time    0.4578: real time    0.4590
    MIXING:  cpu time    0.0017: real time    0.0022
    --------------------------------------------
      LOOP:  cpu time   33.3443: real time   33.4332

 eigenvalue-minimisations  : 12640
 total energy-change (2. order) :-0.2856235E+02  (-0.1079068E+02)
 number of electron     159.0000107 magnetization 
 augmentation part        7.0777637 magnetization 

 Broyden mixing:
  rms(total) = 0.59485E+01    rms(broyden)= 0.59478E+01
  rms(prec ) = 0.65597E+01
  weight for this iteration     100.00

 eigenvalues of (default mixing * dielectric matrix)
  average eigenvalue GAMMA=   0.2937
  0.2937

 Free energy of the ion-electron system (eV)
  ---------------------------------------------------
  alpha Z        PSCENC =        81.65567618
  Ewald energy   TEWEN  =     41891.17179523
  -Hartree energ DENC   =    -47702.18265165
  -exchange      EXHF   =         0.00000000
  -V(xc)+E(xc)   XCENC  =      -233.61818061
  PAW double counting   =      3676.51792198    -3082.60926011
  entropy T*S    EENTRO =        -0.25234787
  eigenvalues    EBANDS =     -1629.99033984
  atomic energy  EATOM  =      6761.44252427
  Solvation  Ediel_sol  =         0.00000000
  ---------------------------------------------------
  free energy    TOTEN  =      -237.86486243 eV

  energy without entropy =     -237.61251456  energy(sigma->0) =     -237.73868849


--------------------------------------------------------------------------------------------------------




----------------------------------------- Iteration    1(   7)  ---------------------------------------


    POTLOK:  cpu time    0.0334: real time    0.0338
    SETDIJ:  cpu time    0.0027: real time    0.0027
     EDDAV:  cpu time   34.6804: real time   34.7639
       DOS:  cpu time    0.0011: real time    0.0011
    CHARGE:  cpu time    0.4718: real time    0.4730
    MIXING:  cpu time    0.0013: real time    0.0013
    --------------------------------------------
      LOOP:  cpu time   35.1920: real time   35.2845

 eigenvalue-minimisations  : 13440
 total energy-change (2. order) : 0.4129386E+02  (-0.1750770E+02)
 number of electron     159.0000088 magnetization 
 augmentation part       -6.2625528 magnetization 

 Broyden mixing:
  rms(total) = 0.20021E+01    rms(broyden)= 0.20001E+01
  rms(prec ) = 0.22237E+01
  weight for this iteration     100.00

 eigenvalues of (default mixing * dielectric matrix)
  average eigenvalue GAMMA=   0.5522
  0.8932  0.2112

 Free energy of the ion-electron system (eV)
  ---------------------------------------------------
  alpha Z        PSCENC =        81.65567618
  Ewald energy   TEWEN  =     41891.17179523
  -Hartree energ DENC   =    -47739.18890109
  -exchange      EXHF   =         0.00000000
  -V(xc)+E(xc)   XCENC  =      -234.98852319
  PAW double counting   =      3763.78258116    -3177.81707686
  entropy T*S    EENTRO =        -0.35592466
  eigenvalues    EBANDS =     -1542.27315732
  atomic energy  EATOM  =      6761.44252427
  Solvation  Ediel_sol  =         0.00000000
  ---------------------------------------------------
  free energy    TOTEN  =      -196.57100627 eV

  energy without entropy =     -196.21508161  energy(sigma->0) =     -196.39304394


--------------------------------------------------------------------------------------------------------




----------------------------------------- Iteration    1(   8)  ---------------------------------------


    POTLOK:  cpu time    0.0320: real time    0.0320
    SETDIJ:  cpu time    0.0026: real time    0.0026
     EDDAV:  cpu time   31.0524: real time   31.1266
       DOS:  cpu time    0.0010: real time    0.0010
    CHARGE:  cpu time    0.4744: real time    0.4755
    MIXING:  cpu time    0.0013: real time    0.0013
    --------------------------------------------
      LOOP:  cpu time   31.5646: real time   31.6479

 eigenvalue-minimisations  : 11760
 total energy-change (2. order) : 0.7099627E+01  (-0.1761903E+01)
 number of electron     159.0000095 magnetization 
 augmentation part       -6.3731567 magnetization 

 Broyden mixing:
  rms(total) = 0.12522E+01    rms(broyden)= 0.12519E+01
  rms(prec ) = 0.13526E+01
  weight for this iteration     100.00

 eigenvalues of (default mixing * dielectric matrix)
  average eigenvalue GAMMA=   0.5862
  1.1357  0.2312  0.3918

 Free energy of the ion-electron system (eV)
  ---------------------------------------------------
  alpha Z        PSCENC =        81.65567618
  Ewald energy   TEWEN  =     41891.17179523
  -Hartree energ DENC   =    -47762.32717838
  -exchange      EXHF   =         0.00000000
  -V(xc)+E(xc)   XCENC  =      -235.00357428
  PAW double counting   =      3907.14813198    -3322.81441017
  entropy T*S    EENTRO =        -0.31140361
  eigenvalues    EBANDS =     -1510.43294010
  atomic energy  EATOM  =      6761.44252427
  Solvation  Ediel_sol  =         0.00000000
  ---------------------------------------------------
  free energy    TOTEN  =      -189.47137887 eV

  energy without entropy =     -189.15997526  energy(sigma->0) =     -189.31567706


--------------------------------------------------------------------------------------------------------




----------------------------------------- Iteration    1(   9)  ---------------------------------------


    POTLOK:  cpu time    0.0330: real time    0.0333
    SETDIJ:  cpu time    0.0027: real time    0.0027
     EDDAV:  cpu time   34.7895: real time   34.8733
       DOS:  cpu time    0.0010: real time    0.0010
    CHARGE:  cpu time    0.4876: real time    0.4888
    MIXING:  cpu time    0.0013: real time    0.0013
    --------------------------------------------
      LOOP:  cpu time   35.3164: real time   35.4097

 eigenvalue-minimisations  : 13480
 total energy-change (2. order) : 0.1343962E+01  (-0.3029059E+00)
 number of electron     159.0000091 magnetization 
 augmentation part       -5.5498551 magnetization 

 Broyden mixing:
  rms(total) = 0.91165E+00    rms(broyden)= 0.91142E+00
  rms(prec ) = 0.98893E+00
  weight for this iteration     100.00

 eigenvalues of (default mixing * dielectric matrix)
  average eigenvalue GAMMA=   0.7415
  1.8137  0.6218  0.2200  0.3103

 Free energy of the ion-electron system (eV)
  ---------------------------------------------------
  alpha Z        PSCENC =        81.65567618
  Ewald energy   TEWEN  =     41891.17179523
  -Hartree energ DENC   =    -47766.98072296
  -exchange      EXHF   =         0.00000000
  -V(xc)+E(xc)   XCENC  =      -234.10860540
  PAW double counting   =      3977.22134684    -3393.75999021
  entropy T*S    EENTRO =        -0.32135456
  eigenvalues    EBANDS =     -1504.44808590
  atomic energy  EATOM  =      6761.44252427
  Solvation  Ediel_sol  =         0.00000000
  ---------------------------------------------------
  free energy    TOTEN  =      -188.12741650 eV

  energy without entropy =     -187.80606194  energy(sigma->0) =     -187.96673922


--------------------------------------------------------------------------------------------------------




----------------------------------------- Iteration    1(  10)  ---------------------------------------


    POTLOK:  cpu time    0.0325: real time    0.0325
    SETDIJ:  cpu time    0.0026: real time    0.0026
     EDDAV:  cpu time   34.6446: real time   34.7274
       DOS:  cpu time    0.0002: real time    0.0011
    CHARGE:  cpu time    0.4975: real time    0.4987
    MIXING:  cpu time    0.0015: real time    0.0014
    --------------------------------------------
      LOOP:  cpu time   35.1807: real time   35.2726

 eigenvalue-minimisations  : 13400
 total energy-change (2. order) : 0.1191426E+01  (-0.1725496E+00)
 number of electron     159.0000092 magnetization 
 augmentation part       -4.2541551 magnetization 

 Broyden mixing:
  rms(total) = 0.21511E+00    rms(broyden)= 0.21453E+00
  rms(prec ) = 0.22702E+00
  weight for this iteration     100.00

 eigenvalues of (default mixing * dielectric matrix)
  average eigenvalue GAMMA=   0.8384
  1.8538  1.1876  0.6412  0.2205  0.2889

 Free energy of the ion-electron system (eV)
  ---------------------------------------------------
  alpha Z        PSCENC =        81.65567618
  Ewald energy   TEWEN  =     41891.17179523
  -Hartree energ DENC   =    -47780.20791012
  -exchange      EXHF   =         0.00000000
  -V(xc)+E(xc)   XCENC  =      -232.57210715
  PAW double counting   =      4105.46131075    -3523.60512106
  entropy T*S    EENTRO =        -0.35108079
  eigenvalues    EBANDS =     -1489.93107776
  atomic energy  EATOM  =      6761.44252427
  Solvation  Ediel_sol  =         0.00000000
  ---------------------------------------------------
  free energy    TOTEN  =      -186.93599046 eV

  energy without entropy =     -186.58490967  energy(sigma->0) =     -186.76045007


--------------------------------------------------------------------------------------------------------




----------------------------------------- Iteration    1(  11)  ---------------------------------------


    POTLOK:  cpu time    0.0323: real time    0.0324
    SETDIJ:  cpu time    0.0026: real time    0.0026
     EDDAV:  cpu time   34.9471: real time   35.0314
       DOS:  cpu time    0.0011: real time    0.0011
    CHARGE:  cpu time    0.5021: real time    0.5033
    MIXING:  cpu time    0.0015: real time    0.0015
    --------------------------------------------
      LOOP:  cpu time   35.4877: real time   35.5809

 eigenvalue-minimisations  : 13560
 total energy-change (2. order) :-0.8838098E-01  (-0.5881039E-01)
 number of electron     159.0000090 magnetization 
 augmentation part       -4.4483703 magnetization 

 Broyden mixing:
  rms(total) = 0.36882E+00    rms(broyden)= 0.36860E+00
  rms(prec ) = 0.40832E+00
  weight for this iteration     100.00

 eigenvalues of (default mixing * dielectric matrix)
  average eigenvalue GAMMA=   0.8539
  1.8612  1.8612  0.6390  0.2186  0.2839  0.2594

 Free energy of the ion-electron system (eV)
  ---------------------------------------------------
  alpha Z        PSCENC =        81.65567618
  Ewald energy   TEWEN  =     41891.17179523
  -Hartree energ DENC   =    -47790.09700579
  -exchange      EXHF   =         0.00000000
  -V(xc)+E(xc)   XCENC  =      -232.24358377
  PAW double counting   =      4151.62896358    -3569.88922862
  entropy T*S    EENTRO =        -0.33819441
  eigenvalues    EBANDS =     -1480.35531812
  atomic energy  EATOM  =      6761.44252427
  Solvation  Ediel_sol  =         0.00000000
  ---------------------------------------------------
  free energy    TOTEN  =      -187.02437145 eV

  energy without entropy =     -186.68617704  energy(sigma->0) =     -186.85527424


--------------------------------------------------------------------------------------------------------




----------------------------------------- Iteration    1(  12)  ---------------------------------------


    POTLOK:  cpu time    0.0327: real time    0.0330
    SETDIJ:  cpu time    0.0028: real time    0.0028
     EDDAV:  cpu time   33.6028: real time   33.6835
       DOS:  cpu time    0.0010: real time    0.0010
    CHARGE:  cpu time    0.4972: real time    0.4984
    MIXING:  cpu time    0.0015: real time    0.0015
    --------------------------------------------
      LOOP:  cpu time   34.1393: real time   34.2290

 eigenvalue-minimisations  : 12920
 total energy-change (2. order) : 0.7669309E-01  (-0.6978824E-01)
 number of electron     159.0000088 magnetization 
 augmentation part       -4.4530120 magnetization 

 Broyden mixing:
  rms(total) = 0.32574E+00    rms(broyden)= 0.32553E+00
  rms(prec ) = 0.36094E+00
  weight for this iteration     100.00

 eigenvalues of (default mixing * dielectric matrix)
  average eigenvalue GAMMA=   0.8070
  1.9642  1.9642  0.6386  0.3982  0.2983  0.2197  0.1654

 Free energy of the ion-electron system (eV)
  ---------------------------------------------------
  alpha Z        PSCENC =        81.65567618
  Ewald energy   TEWEN  =     41891.17179523
  -Hartree energ DENC   =    -47797.34311824
  -exchange      EXHF   =         0.00000000
  -V(xc)+E(xc)   XCENC  =      -232.04098744
  PAW double counting   =      4179.54841922    -3597.79004135
  entropy T*S    EENTRO =        -0.33227751
  eigenvalues    EBANDS =     -1473.25966872
  atomic energy  EATOM  =      6761.44252427
  Solvation  Ediel_sol  =         0.00000000
  ---------------------------------------------------
  free energy    TOTEN  =      -186.94767836 eV

  energy without entropy =     -186.61540084  energy(sigma->0) =     -186.78153960


--------------------------------------------------------------------------------------------------------




----------------------------------------- Iteration    1(  13)  ---------------------------------------


    POTLOK:  cpu time    0.0320: real time    0.0324
    SETDIJ:  cpu time    0.0026: real time    0.0026
     EDDAV:  cpu time   33.9688: real time   34.0500
       DOS:  cpu time    0.0002: real time    0.0010
    CHARGE:  cpu time    0.5035: real time    0.5047
    MIXING:  cpu time    0.0016: real time    0.0016
    --------------------------------------------
      LOOP:  cpu time   34.5108: real time   34.6013

 eigenvalue-minimisations  : 13120
 total energy-change (2. order) : 0.8207628E-01  (-0.2450517E-01)
 number of electron     159.0000088 magnetization 
 augmentation part       -4.3720899 magnetization 

 Broyden mixing:
  rms(total) = 0.18300E+00    rms(broyden)= 0.18286E+00
  rms(prec ) = 0.20530E+00
  weight for this iteration     100.00

 eigenvalues of (default mixing * dielectric matrix)
  average eigenvalue GAMMA=   0.7915
  2.2286  1.7371  0.8116  0.6357  0.2994  0.2200  0.2563  0.1430

 Free energy of the ion-electron system (eV)
  ---------------------------------------------------
  alpha Z        PSCENC =        81.65567618
  Ewald energy   TEWEN  =     41891.17179523
  -Hartree energ DENC   =    -47800.44226265
  -exchange      EXHF   =         0.00000000
  -V(xc)+E(xc)   XCENC  =      -231.95906604
  PAW double counting   =      4187.95809654    -3606.16919083
  entropy T*S    EENTRO =        -0.33549594
  eigenvalues    EBANDS =     -1470.18767883
  atomic energy  EATOM  =      6761.44252427
  Solvation  Ediel_sol  =         0.00000000
  ---------------------------------------------------
  free energy    TOTEN  =      -186.86560208 eV

  energy without entropy =     -186.53010613  energy(sigma->0) =     -186.69785411


--------------------------------------------------------------------------------------------------------




----------------------------------------- Iteration    1(  14)  ---------------------------------------


    POTLOK:  cpu time    0.0348: real time    0.0349
    SETDIJ:  cpu time    0.0027: real time    0.0027
     EDDAV:  cpu time   33.8302: real time   33.9119
       DOS:  cpu time    0.0011: real time    0.0011
    CHARGE:  cpu time    0.4991: real time    0.5003
    MIXING:  cpu time    0.0016: real time    0.0016
    --------------------------------------------
      LOOP:  cpu time   34.3705: real time   34.4613

 eigenvalue-minimisations  : 13040
 total energy-change (2. order) : 0.3845801E-01  (-0.9136724E-02)
 number of electron     159.0000089 magnetization 
 augmentation part       -4.1395966 magnetization 

 Broyden mixing:
  rms(total) = 0.60951E-01    rms(broyden)= 0.60757E-01
  rms(prec ) = 0.68756E-01
  weight for this iteration     100.00

 eigenvalues of (default mixing * dielectric matrix)
  average eigenvalue GAMMA=   0.7788
  2.2357  1.7964  0.9556  0.5888  0.5211  0.2981  0.2203  0.2520  0.1411

 Free energy of the ion-electron system (eV)
  ---------------------------------------------------
  alpha Z        PSCENC =        81.65567618
  Ewald energy   TEWEN  =     41891.17179523
  -Hartree energ DENC   =    -47804.05640367
  -exchange      EXHF   =         0.00000000
  -V(xc)+E(xc)   XCENC  =      -231.87454844
  PAW double counting   =      4191.92479823    -3610.07835107
  entropy T*S    EENTRO =        -0.34340421
  eigenvalues    EBANDS =     -1466.66923059
  atomic energy  EATOM  =      6761.44252427
  Solvation  Ediel_sol  =         0.00000000
  ---------------------------------------------------
  free energy    TOTEN  =      -186.82714407 eV

  energy without entropy =     -186.48373986  energy(sigma->0) =     -186.65544197


--------------------------------------------------------------------------------------------------------




----------------------------------------- Iteration    1(  15)  ---------------------------------------


    POTLOK:  cpu time    0.0327: real time    0.0331
    SETDIJ:  cpu time    0.0026: real time    0.0026
     EDDAV:  cpu time   31.4483: real time   31.5245
       DOS:  cpu time    0.0011: real time    0.0011
    CHARGE:  cpu time    0.5013: real time    0.5025
    MIXING:  cpu time    0.0018: real time    0.0018
    --------------------------------------------
      LOOP:  cpu time   31.9891: real time   32.0746

 eigenvalue-minimisations  : 11960
 total energy-change (2. order) : 0.3691543E-02  (-0.1075924E-02)
 number of electron     159.0000089 magnetization 
 augmentation part       -4.1620802 magnetization 

 Broyden mixing:
  rms(total) = 0.34537E-01    rms(broyden)= 0.34517E-01
  rms(prec ) = 0.39635E-01
  weight for this iteration     100.00

 eigenvalues of (default mixing * dielectric matrix)
  average eigenvalue GAMMA=   0.7938
  2.2652  1.9377  1.1717  0.6610  0.6610  0.3332  0.2981  0.2202  0.2490  0.1412

 Free energy of the ion-electron system (eV)
  ---------------------------------------------------
  alpha Z        PSCENC =        81.65567618
  Ewald energy   TEWEN  =     41891.17179523
  -Hartree energ DENC   =    -47806.89305548
  -exchange      EXHF   =         0.00000000
  -V(xc)+E(xc)   XCENC  =      -231.83251732
  PAW double counting   =      4193.04081943    -3611.15411427
  entropy T*S    EENTRO =        -0.34229998
  eigenvalues    EBANDS =     -1463.91228059
  atomic energy  EATOM  =      6761.44252427
  Solvation  Ediel_sol  =         0.00000000
  ---------------------------------------------------
  free energy    TOTEN  =      -186.82345253 eV

  energy without entropy =     -186.48115255  energy(sigma->0) =     -186.65230254


--------------------------------------------------------------------------------------------------------




----------------------------------------- Iteration    1(  16)  ---------------------------------------


    POTLOK:  cpu time    0.0328: real time    0.0333
    SETDIJ:  cpu time    0.0028: real time    0.0028
     EDDAV:  cpu time   34.0106: real time   34.0926
       DOS:  cpu time    0.0010: real time    0.0010
    CHARGE:  cpu time    0.5011: real time    0.5023
    MIXING:  cpu time    0.0019: real time    0.0019
    --------------------------------------------
      LOOP:  cpu time   34.5514: real time   34.6427

 eigenvalue-minimisations  : 13120
 total energy-change (2. order) :-0.1723290E-02  (-0.1181642E-02)
 number of electron     159.0000089 magnetization 
 augmentation part       -4.1931643 magnetization 

 Broyden mixing:
  rms(total) = 0.65564E-01    rms(broyden)= 0.65539E-01
  rms(prec ) = 0.72849E-01
  weight for this iteration     100.00

 eigenvalues of (default mixing * dielectric matrix)
  average eigenvalue GAMMA=   0.7996
  2.4123  2.1294  1.3945  0.7616  0.6558  0.4010  0.2985  0.2202  0.2506  0.1413
  0.1309

 Free energy of the ion-electron system (eV)
  ---------------------------------------------------
  alpha Z        PSCENC =        81.65567618
  Ewald energy   TEWEN  =     41891.17179523
  -Hartree energ DENC   =    -47810.56267273
  -exchange      EXHF   =         0.00000000
  -V(xc)+E(xc)   XCENC  =      -231.78412708
  PAW double counting   =      4194.21778190    -3612.29114102
  entropy T*S    EENTRO =        -0.34141000
  eigenvalues    EBANDS =     -1460.33360255
  atomic energy  EATOM  =      6761.44252427
  Solvation  Ediel_sol  =         0.00000000
  ---------------------------------------------------
  free energy    TOTEN  =      -186.82517582 eV

  energy without entropy =     -186.48376581  energy(sigma->0) =     -186.65447081


--------------------------------------------------------------------------------------------------------




----------------------------------------- Iteration    1(  17)  ---------------------------------------


    POTLOK:  cpu time    0.0338: real time    0.0339
    SETDIJ:  cpu time    0.0027: real time    0.0027
     EDDAV:  cpu time   33.5003: real time   33.5811
       DOS:  cpu time    0.0010: real time    0.0010
    CHARGE:  cpu time    0.5015: real time    0.5028
    MIXING:  cpu time    0.0019: real time    0.0019
    --------------------------------------------
      LOOP:  cpu time   34.0422: real time   34.1322

 eigenvalue-minimisations  : 12920
 total energy-change (2. order) : 0.3705354E-02  (-0.8647455E-03)
 number of electron     159.0000089 magnetization 
 augmentation part       -4.2157097 magnetization 

 Broyden mixing:
  rms(total) = 0.19735E-01    rms(broyden)= 0.19682E-01
  rms(prec ) = 0.23090E-01
  weight for this iteration     100.00

 eigenvalues of (default mixing * dielectric matrix)
  average eigenvalue GAMMA=   0.8204
  2.3048  2.3048  1.3587  1.1483  0.6586  0.6586  0.3773  0.2975  0.2202  0.2505
  0.1413  0.1240

 Free energy of the ion-electron system (eV)
  ---------------------------------------------------
  alpha Z        PSCENC =        81.65567618
  Ewald energy   TEWEN  =     41891.17179523
  -Hartree energ DENC   =    -47813.85017008
  -exchange      EXHF   =         0.00000000
  -V(xc)+E(xc)   XCENC  =      -231.74249214
  PAW double counting   =      4195.05708342    -3613.09779428
  entropy T*S    EENTRO =        -0.34092515
  eigenvalues    EBANDS =     -1457.11716791
  atomic energy  EATOM  =      6761.44252427
  Solvation  Ediel_sol  =         0.00000000
  ---------------------------------------------------
  free energy    TOTEN  =      -186.82147046 eV

  energy without entropy =     -186.48054531  energy(sigma->0) =     -186.65100789


--------------------------------------------------------------------------------------------------------




----------------------------------------- Iteration    1(  18)  ---------------------------------------


    POTLOK:  cpu time    0.0324: real time    0.0324
    SETDIJ:  cpu time    0.0025: real time    0.0026
     EDDAV:  cpu time   32.2259: real time   32.3029
       DOS:  cpu time    0.0011: real time    0.0011
    CHARGE:  cpu time    0.5007: real time    0.5019
    MIXING:  cpu time    0.0021: real time    0.0021
    --------------------------------------------
      LOOP:  cpu time   32.7667: real time   32.8507

 eigenvalue-minimisations  : 12320
 total energy-change (2. order) : 0.3781218E-03  (-0.1344150E-03)
 number of electron     159.0000089 magnetization 
 augmentation part       -4.1859640 magnetization 

 Broyden mixing:
  rms(total) = 0.65598E-02    rms(broyden)= 0.65475E-02
  rms(prec ) = 0.94365E-02
  weight for this iteration     100.00

 eigenvalues of (default mixing * dielectric matrix)
  average eigenvalue GAMMA=   0.8884
  2.5185  2.5185  1.5638  1.2718  0.9861  0.6411  0.6411  0.3753  0.2976  0.2202
  0.2505  0.1413  0.1239

 Free energy of the ion-electron system (eV)
  ---------------------------------------------------
  alpha Z        PSCENC =        81.65567618
  Ewald energy   TEWEN  =     41891.17179523
  -Hartree energ DENC   =    -47817.24347035
  -exchange      EXHF   =         0.00000000
  -V(xc)+E(xc)   XCENC  =      -231.70987669
  PAW double counting   =      4194.69704675    -3612.71712097
  entropy T*S    EENTRO =        -0.34159251
  eigenvalues    EBANDS =     -1453.77607425
  atomic energy  EATOM  =      6761.44252427
  Solvation  Ediel_sol  =         0.00000000
  ---------------------------------------------------
  free energy    TOTEN  =      -186.82109234 eV

  energy without entropy =     -186.47949983  energy(sigma->0) =     -186.65029609


--------------------------------------------------------------------------------------------------------




----------------------------------------- Iteration    1(  19)  ---------------------------------------


    POTLOK:  cpu time    0.0330: real time    0.0333
    SETDIJ:  cpu time    0.0027: real time    0.0027
     EDDAV:  cpu time   28.4701: real time   28.5387
       DOS:  cpu time    0.0012: real time    0.0012
    CHARGE:  cpu time    0.5024: real time    0.5037
    MIXING:  cpu time    0.0020: real time    0.0020
    --------------------------------------------
      LOOP:  cpu time   29.0116: real time   29.0905

 eigenvalue-minimisations  : 10640
 total energy-change (2. order) :-0.5788799E-03  (-0.8147223E-04)
 number of electron     159.0000089 magnetization 
 augmentation part       -4.1973323 magnetization 

 Broyden mixing:
  rms(total) = 0.79428E-02    rms(broyden)= 0.79373E-02
  rms(prec ) = 0.98512E-02
  weight for this iteration     100.00

 eigenvalues of (default mixing * dielectric matrix)
  average eigenvalue GAMMA=   0.8767
  2.6286  2.6286  1.6310  1.3519  1.0016  0.6453  0.6453  0.3755  0.2202  0.2976
  0.2505  0.3323  0.1413  0.1239

 Free energy of the ion-electron system (eV)
  ---------------------------------------------------
  alpha Z        PSCENC =        81.65567618
  Ewald energy   TEWEN  =     41891.17179523
  -Hartree energ DENC   =    -47822.49270327
  -exchange      EXHF   =         0.00000000
  -V(xc)+E(xc)   XCENC  =      -231.66682212
  PAW double counting   =      4193.46090162    -3611.46049226
  entropy T*S    EENTRO =        -0.34114787
  eigenvalues    EBANDS =     -1448.59140299
  atomic energy  EATOM  =      6761.44252427
  Solvation  Ediel_sol  =         0.00000000
  ---------------------------------------------------
  free energy    TOTEN  =      -186.82167122 eV

  energy without entropy =     -186.48052335  energy(sigma->0) =     -186.65109729


--------------------------------------------------------------------------------------------------------




----------------------------------------- Iteration    1(  20)  ---------------------------------------


    POTLOK:  cpu time    0.0324: real time    0.0325
    SETDIJ:  cpu time    0.0026: real time    0.0026
     EDDAV:  cpu time   23.5727: real time   23.6290
       DOS:  cpu time    0.0010: real time    0.0010
    CHARGE:  cpu time    0.4988: real time    0.5000
    MIXING:  cpu time    0.0021: real time    0.0022
    --------------------------------------------
      LOOP:  cpu time   24.1107: real time   24.1753

 eigenvalue-minimisations  :  8280
 total energy-change (2. order) :-0.3165689E-03  (-0.3065266E-04)
 number of electron     159.0000089 magnetization 
 augmentation part       -4.1976173 magnetization 

 Broyden mixing:
  rms(total) = 0.57333E-02    rms(broyden)= 0.57268E-02
  rms(prec ) = 0.72026E-02
  weight for this iteration     100.00

 eigenvalues of (default mixing * dielectric matrix)
  average eigenvalue GAMMA=   0.9544
  3.2969  2.5288  1.8082  1.7282  1.0027  1.0027  0.6429  0.6429  0.3755  0.2976
  0.2202  0.1413  0.2505  0.2543  0.1239

 Free energy of the ion-electron system (eV)
  ---------------------------------------------------
  alpha Z        PSCENC =        81.65567618
  Ewald energy   TEWEN  =     41891.17179523
  -Hartree energ DENC   =    -47824.42601671
  -exchange      EXHF   =         0.00000000
  -V(xc)+E(xc)   XCENC  =      -231.65209612
  PAW double counting   =      4193.06626920    -3611.06119279
  entropy T*S    EENTRO =        -0.34108062
  eigenvalues    EBANDS =     -1446.67786643
  atomic energy  EATOM  =      6761.44252427
  Solvation  Ediel_sol  =         0.00000000
  ---------------------------------------------------
  free energy    TOTEN  =      -186.82198779 eV

  energy without entropy =     -186.48090717  energy(sigma->0) =     -186.65144748


--------------------------------------------------------------------------------------------------------




----------------------------------------- Iteration    1(  21)  ---------------------------------------


    POTLOK:  cpu time    0.0377: real time    0.0378
    SETDIJ:  cpu time    0.0027: real time    0.0027
     EDDAV:  cpu time   23.2499: real time   23.3079
       DOS:  cpu time    0.0003: real time    0.0011
    CHARGE:  cpu time    0.5023: real time    0.5035
    MIXING:  cpu time    0.0023: real time    0.0023
    --------------------------------------------
      LOOP:  cpu time   23.7969: real time   23.8642

 eigenvalue-minimisations  :  8200
 total energy-change (2. order) :-0.1184073E-02  (-0.3054141E-04)
 number of electron     159.0000089 magnetization 
 augmentation part       -4.1892544 magnetization 

 Broyden mixing:
  rms(total) = 0.25510E-02    rms(broyden)= 0.25465E-02
  rms(prec ) = 0.33978E-02
  weight for this iteration     100.00

 eigenvalues of (default mixing * dielectric matrix)
  average eigenvalue GAMMA=   0.9934
  3.7600  2.4784  2.1403  1.6620  1.0805  1.0805  0.7599  0.6348  0.6348  0.3755
  0.2976  0.2202  0.1413  0.2505  0.2534  0.1239

 Free energy of the ion-electron system (eV)
  ---------------------------------------------------
  alpha Z        PSCENC =        81.65567618
  Ewald energy   TEWEN  =     41891.17179523
  -Hartree energ DENC   =    -47828.45537469
  -exchange      EXHF   =         0.00000000
  -V(xc)+E(xc)   XCENC  =      -231.62447488
  PAW double counting   =      4192.44887950    -3610.44148883
  entropy T*S    EENTRO =        -0.34118874
  eigenvalues    EBANDS =     -1442.67951990
  atomic energy  EATOM  =      6761.44252427
  Solvation  Ediel_sol  =         0.00000000
  ---------------------------------------------------
  free energy    TOTEN  =      -186.82317186 eV

  energy without entropy =     -186.48198312  energy(sigma->0) =     -186.65257749


--------------------------------------------------------------------------------------------------------




----------------------------------------- Iteration    1(  22)  ---------------------------------------


    POTLOK:  cpu time    0.0334: real time    0.0334
    SETDIJ:  cpu time    0.0026: real time    0.0026
     EDDAV:  cpu time   20.3562: real time   20.4052
       DOS:  cpu time    0.0010: real time    0.0010
    CHARGE:  cpu time    0.5000: real time    0.5012
    MIXING:  cpu time    0.0023: real time    0.0023
    --------------------------------------------
      LOOP:  cpu time   20.8964: real time   20.9543

 eigenvalue-minimisations  :  6800
 total energy-change (2. order) :-0.7788028E-03  (-0.8027124E-05)
 number of electron     159.0000089 magnetization 
 augmentation part       -4.1897573 magnetization 

 Broyden mixing:
  rms(total) = 0.24206E-02    rms(broyden)= 0.24187E-02
  rms(prec ) = 0.30249E-02
  weight for this iteration     100.00

 eigenvalues of (default mixing * dielectric matrix)
  average eigenvalue GAMMA=   1.0692
  4.7688  2.4937  2.4937  1.6315  1.4308  1.0136  1.0136  0.6396  0.6396  0.3756
  0.3885  0.2976  0.2202  0.2505  0.2532  0.1413  0.1239

 Free energy of the ion-electron system (eV)
  ---------------------------------------------------
  alpha Z        PSCENC =        81.65567618
  Ewald energy   TEWEN  =     41891.17179523
  -Hartree energ DENC   =    -47830.22308147
[...]
    104      -0.5606      0.00000
    105      -0.4799      0.00000
    106      -0.4049      0.00000
    107      -0.3440      0.00000
    108      -0.1119      0.00000
    109       0.0125      0.00000
    110       0.1374      0.00000
    111       0.3550      0.00000
    112       0.5881      0.00000
    113       0.7512      0.00000
    114       0.9853      0.00000
    115       1.1793      0.00000
    116       1.3063      0.00000
    117       1.5711      0.00000
    118       2.1627      0.00000
    119       2.3111      0.00000
    120       2.4215      0.00000

 k-point    34 :       0.5000    0.5000    0.0000
  band No.  band energies     occupation 
      1     -17.5056      2.00000
      2     -17.3495      2.00000
      3     -16.7428      2.00000
      4     -16.7162      2.00000
      5     -16.5826      2.00000
      6     -16.5554      2.00000
      7     -16.2759      2.00000
      8     -16.1972      2.00000
      9     -16.1188      2.00000
     10     -16.0802      2.00000
     11     -15.8763      2.00000
     12     -15.8371      2.00000
     13     -15.7706      2.00000
     14     -15.6965      2.00000
     15     -15.6395      2.00000
     16     -15.4309      2.00000
     17     -15.3385      2.00000
     18     -15.2054      2.00000
     19      -9.8151      2.00000
     20      -9.3527      2.00000
     21      -9.3036      2.00000
     22      -9.0067      2.00000
     23      -8.9372      2.00000
     24      -8.8313      2.00000
     25      -8.6818      2.00000
     26      -8.6626      2.00000
     27      -8.4393      2.00000
     28      -8.2911      2.00000
     29      -8.2263      2.00000
     30      -8.1320      2.00000
     31      -8.0807      2.00000
     32      -8.0089      2.00000
     33      -7.9171      2.00000
     34      -7.8447      2.00000
     35      -7.7499      2.00000
     36      -7.6824      2.00000
     37      -7.6417      2.00000
     38      -7.6009      2.00000
     39      -7.4695      2.00000
     40      -7.3367      2.00000
     41      -7.0898      2.00000
     42      -7.0755      2.00000
     43      -6.9963      2.00000
     44      -6.8560      2.00000
     45      -6.8228      2.00000
     46      -6.7127      2.00000
     47      -6.6528      2.00000
     48      -6.5889      2.00000
     49      -6.5229      2.00000
     50      -6.4601      2.00000
     51      -6.4120      2.00000
     52      -6.3422      2.00000
     53      -6.2679      2.00000
     54      -6.1832      2.00000
     55      -6.1071      2.00000
     56      -6.0936      2.00000
     57      -6.0105      2.00000
     58      -5.8466      2.00000
     59      -5.8161      2.00000
     60      -5.7883      2.00000
     61      -5.6262      2.00000
     62      -5.5930      2.00000
     63      -5.5298      2.00000
     64      -5.4070      2.00000
     65      -5.2181      2.00000
     66      -5.0689      2.00000
     67      -4.9955      2.00000
     68      -4.9521      2.00000
     69      -4.8319      2.00000
     70      -4.6291      2.00000
     71      -4.5851      2.00000
     72      -4.4529      2.00000
     73      -4.3296      2.00000
     74      -4.1778      2.00000
     75      -4.0306      2.00000
     76      -4.0158      2.00000
     77      -3.8579      1.99998
     78      -3.6902      1.99830
     79      -3.4876      1.91183
     80      -3.3263      1.42771
     81      -2.9852      0.06468
     82      -2.9567      0.04047
     83      -2.6549      0.00003
     84      -2.6103      0.00001
     85      -2.4608      0.00000
     86      -2.3300      0.00000
     87      -2.1917      0.00000
     88      -2.1011      0.00000
     89      -1.9228      0.00000
     90      -1.8442      0.00000
     91      -1.6606      0.00000
     92      -1.5697      0.00000
     93      -1.3842      0.00000
     94      -1.3558      0.00000
     95      -1.1955      0.00000
     96      -1.0898      0.00000
     97      -1.0712      0.00000
     98      -0.9988      0.00000
     99      -0.9270      0.00000
    100      -0.8924      0.00000
    101      -0.8245      0.00000
    102      -0.7097      0.00000
    103      -0.6336      0.00000
    104      -0.6036      0.00000
    105      -0.4831      0.00000
    106      -0.4067      0.00000
    107      -0.2928      0.00000
    108      -0.1245      0.00000
    109       0.0230      0.00000
    110       0.1969      0.00000
    111       0.2746      0.00000
    112       0.5876      0.00000
    113       0.7719      0.00000
    114       1.0436      0.00000
    115       1.1393      0.00000
    116       1.3269      0.00000
    117       1.5671      0.00000
    118       2.2521      0.00000
    119       2.2666      0.00000
    120       2.4061      0.00000


--------------------------------------------------------------------------------------------------------


 soft charge-density along one line, spin component           1
         0         1         2         3         4         5         6         7         8         9
 total charge-density along one line
 
 pseudopotential strength for first ion, spin component:           1
 -7.211   0.004  -0.008   0.003   0.001   0.671  -0.002   0.002
  0.004  -7.096  -0.001   0.005  -0.003  -0.002   0.637   0.000
 -0.008  -0.001  -7.068   0.006   0.024   0.002   0.000   0.630
  0.003   0.005   0.006  -7.133   0.020  -0.001  -0.002  -0.002
  0.001  -0.003   0.024   0.020  -7.210  -0.000   0.001  -0.007
  0.671  -0.002   0.002  -0.001  -0.000   0.334   0.001  -0.001
 -0.002   0.637   0.000  -0.002   0.001   0.001   0.344   0.000
  0.002   0.000   0.630  -0.002  -0.007  -0.001   0.000   0.345
 -0.001  -0.002  -0.002   0.647  -0.005   0.000   0.000   0.001
 -0.000   0.001  -0.007  -0.005   0.671   0.000  -0.000   0.002
 -0.002  -0.001  -0.021  -0.004   0.007   0.000   0.000   0.005
 -0.001  -0.000  -0.007  -0.001   0.002   0.000   0.000   0.002
  0.003   0.004  -0.002   0.003  -0.007   0.000  -0.001  -0.001
  0.003   0.010   0.002   0.005  -0.002  -0.000  -0.000  -0.001
  0.007   0.003  -0.000   0.000   0.003   0.001  -0.000  -0.000
  0.001   0.002  -0.001   0.003  -0.005  -0.000  -0.000   0.000
  0.003   0.008   0.000   0.004  -0.002  -0.000  -0.001  -0.000
  0.004   0.003   0.001  -0.001   0.001  -0.001  -0.000  -0.000
 total augmentation occupancy for first ion, spin component:           1
  0.795   0.156  -0.019   0.019   0.028   0.437   0.210  -0.001   0.012   0.006   0.027  -0.002  -0.007   0.052  -0.023  -0.001
  0.156   1.057   0.017  -0.011   0.002   0.207   0.643   0.035  -0.011  -0.006   0.016   0.004   0.057   0.065   0.061   0.002
 -0.019   0.017   0.864   0.031   0.051  -0.001   0.035   0.348   0.021   0.003   0.146   0.005   0.066   0.002   0.043   0.003
  0.019  -0.011   0.031   1.082  -0.143   0.011  -0.011   0.021   0.650  -0.215  -0.003   0.002   0.050   0.052  -0.026   0.002
  0.028   0.002   0.051  -0.143   0.845   0.006  -0.005   0.005  -0.218   0.445  -0.020  -0.000   0.002  -0.041   0.002   0.003
  0.437   0.207  -0.001   0.011   0.006   0.372   0.216   0.006   0.011  -0.008  -0.013  -0.002   0.016   0.065   0.025  -0.000
  0.210   0.643   0.035  -0.011  -0.005   0.216   0.578   0.024  -0.003  -0.005   0.039   0.005   0.045   0.087   0.060   0.004
 -0.001   0.035   0.348   0.021   0.005   0.006   0.024   0.277   0.014  -0.000   0.040   0.010   0.021   0.005   0.012   0.004
  0.012  -0.011   0.021   0.650  -0.218   0.011  -0.003   0.014   0.579  -0.218   0.005   0.002   0.063   0.053  -0.027   0.005
  0.006  -0.006   0.003  -0.215   0.445  -0.008  -0.005  -0.000  -0.218   0.370   0.006  -0.000  -0.022  -0.037   0.017   0.001
  0.027   0.016   0.146  -0.003  -0.020  -0.013   0.039   0.040   0.005   0.006   1.387   0.139   0.029   0.017   0.034   0.002
 -0.002   0.004   0.005   0.002  -0.000  -0.002   0.005   0.010   0.002  -0.000   0.139   0.026   0.009   0.001   0.005   0.001
 -0.007   0.057   0.066   0.050   0.002   0.016   0.045   0.021   0.063  -0.022   0.029   0.009   0.359   0.009   0.005   0.027
  0.052   0.065   0.002   0.052  -0.041   0.065   0.087   0.005   0.053  -0.037   0.017   0.001   0.009   0.420   0.000   0.000
 -0.023   0.061   0.043  -0.026   0.002   0.025   0.060   0.012  -0.027   0.017   0.034   0.005   0.005   0.000   0.350  -0.000
 -0.001   0.002   0.003   0.002   0.003  -0.000   0.004   0.004   0.005   0.001   0.002   0.001   0.027   0.000  -0.000   0.003
  0.002  -0.002   0.000  -0.000  -0.002   0.005   0.005   0.000   0.003  -0.003   0.001   0.000   0.000   0.029  -0.000   0.000
 -0.003   0.002   0.001  -0.000  -0.001  -0.001   0.005   0.002  -0.002  -0.000   0.001   0.000  -0.000  -0.000   0.027  -0.000


------------------------ aborting loop because EDIFF is reached ----------------------------------------


    CHARGE:  cpu time    0.4580: real time    0.4591
    FORLOC:  cpu time    0.0090: real time    0.0090
    FORNL :  cpu time    6.8466: real time    6.8630
    STRESS:  cpu time   33.1062: real time   33.1878
    FORCOR:  cpu time    0.0381: real time    0.0382
    FORHAR:  cpu time    0.0150: real time    0.0150
    MIXING:  cpu time    0.0012: real time    0.0012
    OFIELD:  cpu time    0.0000: real time    0.0000

  FORCE on cell =-STRESS in cart. coord.  units (eV):
  Direction    XX          YY          ZZ          XY          YZ          ZX
  --------------------------------------------------------------------------------------
  Alpha Z    89.53402    89.53402    89.53402
  Ewald   49362.99104 49316.09191-54278.60186   -39.65132    22.38187    12.47210
  Hartree 50069.25648 50039.24779-49699.81811   -25.55993    12.47764     7.11484
  E(xc)    -609.56204  -610.63550  -617.85092    -0.93415    -0.96497    -0.54413
  Local  ************************101415.89037    58.36860   -42.97142   -24.21020
  n-local  1213.56674  1215.49794  1248.83603     1.66957    -2.33985    -1.45446
  augment  -213.29689  -212.79768  -214.60173     0.48191     1.01430     0.57697
  Kinetic  2008.34502  2014.95814  2054.68520     5.66983    10.24664     5.95402
  Fock        0.00000     0.00000     0.00000     0.00000     0.00000     0.00000
  -------------------------------------------------------------------------------------
  Total       0.08559     0.16617    -1.92701     0.04451    -0.15579    -0.09086
  in kB       0.05735     0.11134    -1.29120     0.02983    -0.10439    -0.06088
  external pressure =       -0.37 kB  Pullay stress =        0.00 kB


 VOLUME and BASIS-vectors are now :
 -----------------------------------------------------------------------------
  energy-cutoff  :      280.00
  volume of cell :     2391.11
      direct lattice vectors                 reciprocal lattice vectors
     8.306155272  4.819564299  0.000000000     0.060060736  0.103977490  0.000000000
    -8.287380362  4.787056922  0.000000000    -0.060468589  0.104213049  0.000000000
     0.000000000  0.000000000 30.000000000     0.000000000  0.000000000  0.033333333

  length of vectors
     9.603146121  9.570610599 30.000000000     0.120077519  0.120485725  0.033333333


 FORCES acting on ions
    electron-ion (+dipol)            ewald-force                    non-local-force                 convergence-correction
 -----------------------------------------------------------------------------------------------
   0.113E+02 0.221E+02 0.179E+02   -.118E+02 -.236E+02 -.177E+02   0.501E+00 0.148E+01 -.208E+00   -.202E-01 -.171E-01 -.570E-02
   -.131E+02 -.230E+02 -.159E+02   0.139E+02 0.243E+02 0.156E+02   -.767E+00 -.134E+01 0.257E+00   0.459E-02 -.700E-03 0.828E-02
   0.130E+02 0.204E+02 0.178E+02   -.140E+02 -.216E+02 -.176E+02   0.104E+01 0.119E+01 -.214E+00   -.286E-02 -.280E-01 -.646E-02
   -.511E+01 0.211E+01 0.202E+01   0.493E+01 -.207E+01 -.205E+01   0.226E+00 -.815E-01 0.277E-01   -.111E-01 0.310E-01 0.416E-02
   0.608E+01 -.436E+01 0.212E+01   -.591E+01 0.420E+01 -.214E+01   -.195E+00 0.153E+00 0.284E-01   0.322E-01 -.277E-02 0.354E-02
   0.478E+01 0.122E+02 0.295E+01   -.472E+01 -.120E+02 -.293E+01   -.103E+00 -.189E+00 -.219E-01   0.676E-02 0.218E-01 0.106E-02
   -.146E+02 -.302E+02 -.248E+02   0.149E+02 0.310E+02 0.246E+02   -.316E+00 -.835E+00 0.208E+00   -.360E-02 0.291E-01 0.486E-02
   -.185E+02 -.269E+02 -.253E+02   0.191E+02 0.276E+02 0.251E+02   -.593E+00 -.720E+00 0.218E+00   0.200E-01 0.101E-01 0.613E-02
   0.175E+02 0.298E+02 0.208E+02   -.179E+02 -.305E+02 -.207E+02   0.392E+00 0.665E+00 -.159E+00   -.497E-02 -.203E-04 0.232E-02
   -.558E+01 -.130E+02 0.487E+03   0.536E+01 0.132E+02 -.492E+03   0.227E+00 -.243E+00 0.490E+01   -.148E-01 -.151E-01 0.154E-01
   0.753E+01 0.552E+01 -.496E+03   -.740E+01 -.490E+01 0.501E+03   -.124E+00 -.599E+00 -.506E+01   -.155E-02 -.163E-01 0.179E-03
   -.797E+01 -.108E+02 0.487E+03   0.831E+01 0.108E+02 -.492E+03   -.340E+00 0.924E-01 0.488E+01   -.455E-02 -.282E-01 0.746E-02
   0.355E+01 0.647E+01 -.478E+03   -.342E+01 -.621E+01 0.483E+03   -.108E+00 -.211E+00 -.460E+01   -.156E-01 -.447E-01 -.323E-03
   -.635E+01 -.106E+02 0.504E+03   0.617E+01 0.103E+02 -.510E+03   0.188E+00 0.297E+00 0.526E+01   -.405E-02 0.104E-02 0.119E-01
   0.151E+01 0.966E+01 -.496E+03   -.101E+01 -.925E+01 0.501E+03   -.468E+00 -.398E+00 -.507E+01   -.233E-01 -.769E-02 0.575E-02
   0.174E+02 0.179E+02 0.611E+03   -.179E+02 -.185E+02 -.615E+03   0.505E+00 0.653E+00 0.367E+01   0.120E-01 -.941E-02 -.126E-02
   0.760E+01 0.128E+02 -.620E+03   -.834E+01 -.140E+02 0.623E+03   0.728E+00 0.115E+01 -.347E+01   0.449E-02 0.820E-02 -.611E-02
   0.111E+02 0.207E+02 0.588E+03   -.117E+02 -.217E+02 -.591E+03   0.595E+00 0.102E+01 0.325E+01   -.366E-02 -.269E-01 -.304E-01
   0.100E+02 0.116E+02 -.588E+03   -.111E+02 -.133E+02 0.591E+03   0.102E+01 0.163E+01 -.309E+01   0.272E-01 -.175E-01 0.300E-01
   0.753E+01 0.238E+02 0.612E+03   -.783E+01 -.246E+02 -.616E+03   0.317E+00 0.769E+00 0.364E+01   -.192E-01 0.169E-01 -.720E-02
   0.552E+01 0.155E+02 -.591E+03   -.633E+01 -.172E+02 0.594E+03   0.830E+00 0.167E+01 -.310E+01   -.233E-01 0.255E-01 0.333E-01
   -.857E+01 -.151E+02 0.606E+03   0.923E+01 0.164E+02 -.609E+03   -.662E+00 -.125E+01 0.319E+01   0.734E-02 0.759E-02 0.148E-01
   -.106E+02 -.217E+02 -.608E+03   0.108E+02 0.225E+02 0.612E+03   -.282E+00 -.835E+00 -.367E+01   -.965E-02 0.141E-01 -.164E-01
   -.694E+01 -.697E+01 0.611E+03   0.741E+01 0.829E+01 -.614E+03   -.505E+00 -.132E+01 0.351E+01   0.369E-01 0.391E-02 -.159E-01
   -.129E+02 -.201E+02 -.608E+03   0.134E+02 0.207E+02 0.611E+03   -.575E+00 -.648E+00 -.368E+01   0.191E-01 -.530E-03 -.115E-01
   -.325E+01 -.102E+02 0.614E+03   0.418E+01 0.112E+02 -.618E+03   -.908E+00 -.101E+01 0.349E+01   -.152E-01 0.368E-01 -.833E-02
   -.114E+02 -.186E+02 -.634E+03   0.116E+02 0.189E+02 0.638E+03   -.207E+00 -.353E+00 -.404E+01   0.182E-01 0.325E-01 0.136E-01
 -----------------------------------------------------------------------------------------------
   -.428E+00 -.749E+00 -.187E+00   -.249E-13 0.142E-13 0.227E-12   0.415E+00 0.726E+00 0.142E+00   0.111E-01 0.237E-01 0.530E-01
 
 
 POSITION                                       TOTAL-FORCE (eV/Angst)
 -----------------------------------------------------------------------------------
     -2.61852      5.05300     -0.06462         0.002860     -0.014893     -0.017100
      5.40757      6.17702      0.05953         0.001671     -0.001782      0.014548
      0.15816      3.45028     -0.06359        -0.012254      0.003189     -0.012976
      5.49806      3.23171     -0.00592         0.031072     -0.011132      0.007410
      2.82556      4.77586     -0.00605         0.011604     -0.004215      0.006051
      0.03641      6.47718     -0.00888        -0.036280      0.024429     -0.002893
     -0.14745     -0.29065      0.07557        -0.001117      0.008608      0.011252
     -5.70481      2.91640      0.07669         0.000449     -0.001174      0.012663
      2.93639      1.89349     -0.06623         0.000464     -0.002510     -0.011933
     -0.93002      1.60318     28.72138        -0.005847     -0.002970      0.003806
      0.91808      1.61642      1.30679         0.001306      0.007036     -0.011376
     -3.67250      3.18618     28.72358        -0.004026     -0.009473      0.007431
     -1.83108      3.20953      1.25046         0.004515      0.004849      0.000955
     -6.44043      4.79465     28.67279         0.001932     -0.000013      0.004923
     -4.58428      4.79374      1.30769         0.004154      0.001459     -0.006093
      1.83990      3.24207     28.32605         0.005400      0.002807     -0.002644
      3.71510      3.24266      1.66328        -0.000003     -0.009468     -0.007919
     -0.91689      4.79617     28.39749         0.005235      0.011690     -0.017118
      0.92317      4.78667      1.57004        -0.014004     -0.008618     -0.021006
     -3.63673      6.40422     28.32511         0.002817      0.001885     -0.005529
     -1.84478      6.38127      1.57769        -0.004460     -0.019659      0.004529
      4.63983      4.84554     28.37842         0.010860      0.009384      0.033093
      6.42354      4.82423      1.66356        -0.000983     -0.007897     -0.002467
      1.84216      6.36541     28.35891         0.002238      0.007611      0.018533
      3.72691      6.38011      1.66298        -0.006960     -0.008931     -0.002001
     -0.93476      7.97530     28.35010         0.006638      0.020670     -0.006070
      0.90282      7.95020      1.74716        -0.007279     -0.000882      0.001933
 -----------------------------------------------------------------------------------
    total drift:                               -0.001107      0.000342      0.008472


--------------------------------------------------------------------------------------------------------



  FREE ENERGIE OF THE ION-ELECTRON SYSTEM (eV)
  ---------------------------------------------------
  free  energy   TOTEN  =      -192.33970569 eV

  energy  without entropy=     -192.20866363  energy(sigma->0) =     -192.27418466
 
 d Force = 0.2797581E-03[ 0.241E-03, 0.319E-03]  d Energy = 0.1829483E-03 0.968E-04
 d Force = 0.2378519E+00[ 0.238E+00, 0.238E+00]  d Ewald  = 0.1576829E+02-0.155E+02


--------------------------------------------------------------------------------------------------------


    POTLOK:  cpu time    0.0359: real time    0.0360


--------------------------------------------------------------------------------------------------------


 Quasi-Newton relaxation of ions (Broydens 2nd method)
  g(Force)  = 0.467E-03   g(Stress)= 0.695E-04

 retain information from N=  2 steps
 eigenvalues of (default step * inverse Hessian matrix)
  average eigenvalue of G=   2.7496
 eigenvalue spectrum of G is  0.9110  4.5881


--------------------------------------------------------------------------------------------------------


  
 reached required accuracy - stopping structural energy minimisation
     LOOP+:  cpu time  138.2003: real time  138.5490
    4ORBIT:  cpu time    0.0000: real time    0.0000

 total amount of memory used by VASP on root node   650782. kBytes
========================================================================

   base      :      30000. kBytes
   nonl-proj :     559647. kBytes
   fftplans  :       2414. kBytes
   grid      :      12150. kBytes
   one-center:        419. kBytes
   wavefun   :      46152. kBytes
 
  
  
 General timing and accounting informations for this job:
 ========================================================
  
                  Total CPU time used (sec):     6668.778
                            User time (sec):     6608.345
                          System time (sec):       60.433
                         Elapsed time (sec):     6686.361
  
                   Maximum memory used (kb):      735172.
                   Average memory used (kb):           0.
  
                          Minor page faults:      1011403
                          Major page faults:            1
                 Voluntary context switches:         4849
