<?xml version="1.0" encoding="ISO-8859-1"?>
<modeling>
 <generator>
  <i name="program" type="string">vasp </i>
  <i name="version" type="string">5.4.1  </i>
  <i name="subversion" type="string">05Feb16 (build Jul 05 2020 17:13:04) complex                          parallel </i>
  <i name="platform" type="string">IFC91_ompi </i>
  <i name="date" type="string">2024 04 24 </i>
  <i name="time" type="string">09:14:08 </i>
 </generator>
 <incar>
  <i type="int" name="ISTART">     0</i>
  <i type="string" name="PREC">normal</i>
  <i type="string" name="ALGO"> Normal</i>
  <i type="int" name="ISPIN">     1</i>
  <i type="int" name="ICHARG">     2</i>
  <i type="int" name="IBRION">     1</i>
  <i type="int" name="NSW">   100</i>
  <i type="int" name="ISIF">     3</i>
  <i type="int" name="ISYM">     0</i>
  <i name="SYMPREC">      0.00000001</i>
  <i name="POTIM">      0.50000000</i>
  <i type="logical" name="LREAL"> F  </i>
  <i type="logical" name="LPLANE"> F  </i>
  <i type="int" name="ISMEAR">     0</i>
  <i type="logical" name="LWAVE"> F  </i>
  <i type="logical" name="LCHARG"> F  </i>
  <v type="int" name="KPOINT_BSE">    -1     0     0     0</v>
 </incar>
 <kpoints>
  <generation param="Gamma">
   <v type="int" name="divisions">       8        8        1 </v>
   <v name="usershift">      0.00000000       0.00000000       0.00000000 </v>
   <v name="genvec1">      0.12500000       0.00000000       0.00000000 </v>
   <v name="genvec2">     -0.00000000       0.12500000       0.00000000 </v>
   <v name="genvec3">      0.00000000       0.00000000       1.00000000 </v>
   <v name="shift">      0.00000000       0.00000000       0.00000000 </v>
  </generation>
  <varray name="kpointlist" >
   <v>       0.00000000       0.00000000       0.00000000 </v>
   <v>       0.12500000       0.00000000       0.00000000 </v>
   <v>       0.25000000       0.00000000       0.00000000 </v>
   <v>       0.37500000       0.00000000       0.00000000 </v>
   <v>       0.50000000       0.00000000       0.00000000 </v>
   <v>       0.00000000       0.12500000       0.00000000 </v>
   <v>       0.12500000       0.12500000       0.00000000 </v>
   <v>       0.25000000       0.12500000       0.00000000 </v>
   <v>       0.37500000       0.12500000       0.00000000 </v>
   <v>       0.50000000       0.12500000       0.00000000 </v>
   <v>      -0.37500000       0.12500000       0.00000000 </v>
   <v>      -0.25000000       0.12500000       0.00000000 </v>
   <v>      -0.12500000       0.12500000       0.00000000 </v>
   <v>       0.00000000       0.25000000       0.00000000 </v>
   <v>       0.12500000       0.25000000       0.00000000 </v>
   <v>       0.25000000       0.25000000       0.00000000 </v>
   <v>       0.37500000       0.25000000       0.00000000 </v>
   <v>       0.50000000       0.25000000       0.00000000 </v>
   <v>      -0.37500000       0.25000000       0.00000000 </v>
   <v>      -0.25000000       0.25000000       0.00000000 </v>
   <v>      -0.12500000       0.25000000       0.00000000 </v>
   <v>      -0.00000000       0.37500000       0.00000000 </v>
   <v>       0.12500000       0.37500000       0.00000000 </v>
   <v>       0.25000000       0.37500000       0.00000000 </v>
   <v>       0.37500000       0.37500000       0.00000000 </v>
   <v>       0.50000000       0.37500000       0.00000000 </v>
   <v>      -0.37500000       0.37500000       0.00000000 </v>
   <v>      -0.25000000       0.37500000       0.00000000 </v>
   <v>      -0.12500000       0.37500000       0.00000000 </v>
   <v>       0.00000000       0.50000000       0.00000000 </v>
   <v>       0.12500000       0.50000000       0.00000000 </v>
   <v>       0.25000000       0.50000000       0.00000000 </v>
   <v>       0.37500000       0.50000000       0.00000000 </v>
   <v>       0.50000000       0.50000000       0.00000000 </v>
  </varray>
  <varray name="weights" >
   <v>       0.01562500 </v>
   <v>       0.03125000 </v>
   <v>       0.03125000 </v>
   <v>       0.03125000 </v>
   <v>       0.01562500 </v>
   <v>       0.03125000 </v>
   <v>       0.03125000 </v>
   <v>       0.03125000 </v>
   <v>       0.03125000 </v>
   <v>       0.03125000 </v>
   <v>       0.03125000 </v>
   <v>       0.03125000 </v>
   <v>       0.03125000 </v>
   <v>       0.03125000 </v>
   <v>       0.03125000 </v>
   <v>       0.03125000 </v>
   <v>       0.03125000 </v>
   <v>       0.03125000 </v>
   <v>       0.03125000 </v>
   <v>       0.03125000 </v>
   <v>       0.03125000 </v>
   <v>       0.03125000 </v>
   <v>       0.03125000 </v>
   <v>       0.03125000 </v>
   <v>       0.03125000 </v>
   <v>       0.03125000 </v>
   <v>       0.03125000 </v>
   <v>       0.03125000 </v>
   <v>       0.03125000 </v>
   <v>       0.01562500 </v>
   <v>       0.03125000 </v>
   <v>       0.03125000 </v>
   <v>       0.03125000 </v>
   <v>       0.01562500 </v>
  </varray>
 </kpoints>
 <parameters>
  <separator name="general" >
   <i type="string" name="SYSTEM">unknown system</i>
   <i type="logical" name="LCOMPAT"> F  </i>
  </separator>
  <separator name="electronic" >
   <i type="string" name="PREC">normal</i>
   <i name="ENMAX">    280.00000000</i>
   <i name="ENAUG">    373.43800000</i>
   <i name="EDIFF">      0.00010000</i>
   <i type="int" name="IALGO">    38</i>
   <i type="int" name="IWAVPR">    11</i>
   <i type="int" name="NBANDS">   120</i>
   <i name="NELECT">    159.00000000</i>
   <i type="int" name="TURBO">     0</i>
   <i type="int" name="IRESTART">     0</i>
   <i type="int" name="NREBOOT">     0</i>
   <i type="int" name="NMIN">     0</i>
   <i name="EREF">      0.00000000</i>
   <separator name="electronic smearing" >
    <i type="int" name="ISMEAR">     0</i>
    <i name="SIGMA">      0.20000000</i>
    <i name="KSPACING">      0.50000000</i>
    <i type="logical" name="KGAMMA"> T  </i>
   </separator>
   <separator name="electronic projectors" >
    <i type="logical" name="LREAL"> F  </i>
    <v name="ROPT">      0.00000000      0.00000000      0.00000000      0.00000000</v>
    <i type="int" name="LMAXPAW">  -100</i>
    <i type="int" name="LMAXMIX">     2</i>
    <i type="logical" name="NLSPLINE"> F  </i>
   </separator>
   <separator name="electronic startup" >
    <i type="int" name="ISTART">     0</i>
    <i type="int" name="ICHARG">     2</i>
    <i type="int" name="INIWAV">     1</i>
   </separator>
   <separator name="electronic spin" >
    <i type="int" name="ISPIN">     1</i>
    <i type="logical" name="LNONCOLLINEAR"> F  </i>
    <v name="MAGMOM">      1.00000000      1.00000000      1.00000000      1.00000000      1.00000000      1.00000000      1.00000000      1.00000000      1.00000000      1.00000000      1.00000000      1.00000000      1.00000000      1.00000000      1.00000000      1.00000000      1.00000000      1.00000000      1.00000000      1.00000000
      1.00000000      1.00000000      1.00000000      1.00000000      1.00000000      1.00000000      1.00000000</v>
    <i name="NUPDOWN">     -1.00000000</i>
    <i type="logical" name="LSORBIT"> F  </i>
    <v name="SAXIS">      0.00000000      0.00000000      1.00000000</v>
    <i type="logical" name="LSPIRAL"> F  </i>
    <v name="QSPIRAL">      0.00000000      0.00000000      0.00000000</v>
    <i type="logical" name="LZEROZ"> F  </i>
   </separator>
   <separator name="electronic exchange-correlation" >
    <i type="logical" name="LASPH"> F  </i>
    <i type="logical" name="LMETAGGA"> F  </i>
   </separator>
   <separator name="electronic convergence" >
    <i type="int" name="NELM">    60</i>
    <i type="int" name="NELMDL">    -5</i>
    <i type="int" name="NELMIN">     2</i>
    <i name="ENINI">    280.00000000</i>
    <separator name="electronic convergence detail" >
     <i type="logical" name="LDIAG"> T  </i>
     <i type="logical" name="LSUBROT"> F  </i>
     <i name="WEIMIN">      0.00100000</i>
     <i name="EBREAK">      0.00000021</i>
     <i name="DEPER">      0.30000000</i>
     <i type="int" name="NRMM">     4</i>
     <i name="TIME">      0.40000000</i>
    </separator>
   </separator>
   <separator name="electronic mixer" >
    <i name="AMIX">      0.40000000</i>
    <i name="BMIX">      1.00000000</i>
    <i name="AMIN">      0.10000000</i>
    <i name="AMIX_MAG">      1.60000000</i>
    <i name="BMIX_MAG">      1.00000000</i>
    <separator name="electronic mixer details" >
     <i type="int" name="IMIX">     4</i>
     <i type="logical" name="MIXFIRST"> F  </i>
     <i type="int" name="MAXMIX">   -45</i>
     <i name="WC">    100.00000000</i>
     <i type="int" name="INIMIX">     1</i>
     <i type="int" name="MIXPRE">     1</i>
     <i type="int" name="MREMOVE">     5</i>
    </separator>
   </separator>
   <separator name="electronic dipolcorrection" >
    <i type="logical" name="LDIPOL"> F  </i>
    <i type="logical" name="LMONO"> F  </i>
    <i type="int" name="IDIPOL">     0</i>
    <i name="EPSILON">      1.00000000</i>
    <v name="DIPOL">   -100.00000000   -100.00000000   -100.00000000</v>
    <i name="EFIELD">      0.00000000</i>
   </separator>
  </separator>
  <separator name="grids" >
   <i type="int" name="NGX">    42</i>
   <i type="int" name="NGY">    42</i>
   <i type="int" name="NGZ">   126</i>
   <i type="int" name="NGXF">    84</i>
   <i type="int" name="NGYF">    84</i>
   <i type="int" name="NGZF">   252</i>
   <i type="logical" name="ADDGRID"> F  </i>
  </separator>
  <separator name="ionic" >
   <i type="int" name="NSW">   100</i>
   <i type="int" name="IBRION">     1</i>
   <i type="int" name="ISIF">     3</i>
   <i name="PSTRESS">      0.00000000</i>
   <i name="EDIFFG">      0.00100000</i>
   <i type="int" name="NFREE">     0</i>
   <i name="POTIM">      0.50000000</i>
   <i name="SMASS">     -3.00000000</i>
   <i name="SCALEE">      1.00000000</i>
  </separator>
  <separator name="ionic md" >
   <i name="TEBEG">      0.00010000</i>
   <i name="TEEND">      0.00010000</i>
   <i type="int" name="NBLOCK">     1</i>
   <i type="int" name="KBLOCK">   100</i>
   <i type="int" name="NPACO">   256</i>
   <i name="APACO">     16.00000000</i>
  </separator>
  <separator name="symmetry" >
   <i type="int" name="ISYM">     0</i>
   <i name="SYMPREC">      0.00000001</i>
  </separator>
  <separator name="dos" >
   <i type="logical" name="LORBIT"> F  </i>
   <v name="RWIGS">     -1.00000000     -1.00000000     -1.00000000     -1.00000000</v>
   <i type="int" name="NEDOS">   301</i>
   <i name="EMIN">     10.00000000</i>
   <i name="EMAX">    -10.00000000</i>
   <i name="EFERMI">      0.00000000</i>
  </separator>
  <separator name="writing" >
   <i type="int" name="NWRITE">     2</i>
   <i type="logical" name="LWAVE"> F  </i>
   <i type="logical" name="LCHARG"> F  </i>
   <i type="logical" name="LPARD"> F  </i>
   <i type="logical" name="LVTOT"> F  </i>
   <i type="logical" name="LVHAR"> F  </i>
   <i type="logical" name="LELF"> F  </i>
   <i type="logical" name="LOPTICS"> F  </i>
   <v name="STM">      0.00000000      0.00000000      0.00000000      0.00000000      0.00000000      0.00000000      0.00000000</v>
  </separator>
  <separator name="performance" >
   <i type="int" name="NPAR">    40</i>
   <i type="int" name="NSIM">     4</i>
   <i type="int" name="NBLK">    -1</i>
   <i type="logical" name="LPLANE"> F  </i>
   <i type="logical" name="LSCALAPACK"> T  </i>
   <i type="logical" name="LSCAAWARE"> F  </i>
   <i type="logical" name="LSCALU"> F  </i>
   <i type="logical" name="LASYNC"> F  </i>
   <i type="logical" name="LORBITALREAL"> F  </i>
  </separator>
  <separator name="miscellaneous" >
   <i type="int" name="IDIOT">     3</i>
   <i type="logical" name="LMUSIC"> F  </i>
   <v name="POMASS">     50.94100000     95.94000000    183.85000000     32.06600000</v>
   <v name="DARWINR">      0.00000000      0.00000000      0.00000000      0.00000000</v>
   <v name="DARWINV">      1.00000000      1.00000000      1.00000000      1.00000000</v>
   <i type="logical" name="LCORR"> T  </i>
  </separator>
  <i type="logical" name="GGA_COMPAT"> T  </i>
  <i type="logical" name="LBERRY"> F  </i>
  <i type="int" name="ICORELEVEL">     0</i>
  <i type="logical" name="LDAU"> F  </i>
  <i type="int" name="I_CONSTRAINED_M">     0</i>
  <separator name="electronic exchange-correlation" >
   <i type="string" name="GGA">--</i>
   <i type="int" name="VOSKOWN">     0</i>
   <i type="logical" name="LHFCALC"> F  </i>
   <i type="string" name="PRECFOCK"></i>
   <i type="logical" name="LSYMGRAD"> F  </i>
   <i type="logical" name="LHFONE"> F  </i>
   <i type="logical" name="LRHFCALC"> F  </i>
   <i type="logical" name="LTHOMAS"> F  </i>
   <i type="logical" name="LMODELHF"> F  </i>
   <i name="ENCUT4O">     -1.00000000</i>
   <i type="int" name="EXXOEP">     0</i>
   <i type="int" name="FOURORBIT">     0</i>
   <i name="AEXX">      0.00000000</i>
   <i name="HFALPHA">      0.00000000</i>
   <i name="MCALPHA">      0.00000000</i>
   <i name="ALDAX">      1.00000000</i>
   <i name="AGGAX">      1.00000000</i>
   <i name="ALDAC">      1.00000000</i>
   <i name="AGGAC">      1.00000000</i>
   <i type="int" name="NKREDX">     1</i>
   <i type="int" name="NKREDY">     1</i>
   <i type="int" name="NKREDZ">     1</i>
   <i type="logical" name="SHIFTRED"> F  </i>
   <i type="logical" name="ODDONLY"> F  </i>
   <i type="logical" name="EVENONLY"> F  </i>
   <i type="int" name="LMAXFOCK">     0</i>
   <i type="int" name="NMAXFOCKAE">     0</i>
   <i type="logical" name="LFOCKAEDFT"> F  </i>
   <i name="HFSCREEN">      0.00000000</i>
   <i name="HFSCREENC">      0.00000000</i>
   <i type="int" name="NBANDSGWLOW">     0</i>
  </separator>
  <separator name="vdW DFT" >
   <i type="logical" name="LUSE_VDW"> F  </i>
   <i name="Zab_VDW">     -0.84910000</i>
   <i name="PARAM1">      0.12340000</i>
   <i name="PARAM2">      1.00000000</i>
   <i name="PARAM3">      0.00000000</i>
  </separator>
  <separator name="model GW" >
   <i type="int" name="MODEL_GW">     0</i>
   <i name="MODEL_EPS0">     58.26239943</i>
   <i name="MODEL_ALPHA">      1.00000000</i>
  </separator>
  <separator name="linear response parameters" >
   <i type="logical" name="LEPSILON"> F  </i>
   <i type="logical" name="LRPA"> F  </i>
   <i type="logical" name="LNABLA"> F  </i>
   <i type="logical" name="LVEL"> F  </i>
   <i type="int" name="KINTER">     0</i>
   <i name="CSHIFT">      0.10000000</i>
   <i name="OMEGAMAX">     -1.00000000</i>
   <i name="DEG_THRESHOLD">      0.00200000</i>
  </separator>
  <separator name="orbital magnetization" >
   <i type="logical" name="NUCIND"> F  </i>
   <v name="MAGPOS">      0.00000000      0.00000000      0.00000000</v>
   <i type="logical" name="LNICSALL"> T  </i>
   <i type="logical" name="ORBITALMAG"> F  </i>
   <i type="logical" name="LMAGBLOCH"> F  </i>
   <i type="logical" name="LCHIMAG"> F  </i>
   <i type="logical" name="LGAUGE"> T  </i>
   <i type="int" name="MAGATOM">     0</i>
   <v name="MAGDIPOL">      0.00000000      0.00000000      0.00000000</v>
   <v name="AVECCONST">      0.00000000      0.00000000      0.00000000</v>
  </separator>
  <separator name="response functions" >
   <i type="logical" name="LADDER"> F  </i>
   <i type="logical" name="LFXC"> F  </i>
   <i type="logical" name="LHARTREE"> T  </i>
   <i type="int" name="IBSE">     0</i>
   <v type="int" name="KPOINT">    -1     0     0     0</v>
   <i type="logical" name="LTCTE"> F  </i>
   <i type="logical" name="LTETE"> F  </i>
   <i type="logical" name="LTRIPLET"> F  </i>
   <i type="logical" name="LFXCEPS"> F  </i>
   <i type="logical" name="LFXHEG"> F  </i>
   <i type="int" name="NATURALO">     0</i>
   <i type="logical" name="L2ORDER"> F  </i>
   <i type="logical" name="LUSEW"> F  </i>
   <i name="ENCUTGW">     -2.00000000</i>
   <i name="ENCUTGWSOFT">     -2.00000000</i>
   <i name="ENCUTLF">     -1.00000000</i>
   <i type="int" name="LMAXMP2">    -1</i>
   <i name="SCISSOR">      0.00000000</i>
   <i type="int" name="NOMEGA">     0</i>
   <i type="int" name="NOMEGAR">     0</i>
   <i type="int" name="NBANDSGW">    -1</i>
   <i type="int" name="NBANDSO">    -1</i>
   <i type="int" name="NBANDSV">    -1</i>
   <i type="int" name="NELM">     1</i>
   <i type="int" name="NELMHF">     1</i>
   <i type="int" name="DIM">     3</i>
   <i type="int" name="ANTIRES">     0</i>
   <i name="OMEGAMAX">    -30.00000000</i>
   <i name="OMEGAMIN">    -30.00000000</i>
   <i name="OMEGATL">   -200.00000000</i>
   <i type="int" name="OMEGAGRID">     0</i>
   <i name="CSHIFT">     -0.10000000</i>
   <i type="logical" name="SELFENERGY"> F  </i>
   <i type="logical" name="LSPECTRAL"> F  </i>
   <i type="logical" name="LSPECTRALGW"> F  </i>
   <i type="logical" name="LSINGLES"> F  </i>
   <i type="logical" name="LFERMIGW"> F  </i>
   <i type="logical" name="ODDONLYGW"> F  </i>
   <i type="logical" name="EVENONLYGW"> F  </i>
   <i type="int" name="NKREDLFX">     1</i>
   <i type="int" name="NKREDLFY">     1</i>
   <i type="int" name="NKREDLFZ">     1</i>
   <i type="int" name="MAXMEM">  1800</i>
   <i type="int" name="TELESCOPE">     0</i>
   <i type="int" name="TAUPAR">     1</i>
   <i type="int" name="OMEGAPAR">    -1</i>
   <i name="LAMBDA">      1.00000000</i>
  </separator>
  <separator name="External order field" >
   <i name="OFIELD_KAPPA">      0.00000000</i>
   <v name="OFIELD_K">      0.00000000      0.00000000      0.00000000</v>
   <i name="OFIELD_Q6_NEAR">      0.00000000</i>
   <i name="OFIELD_Q6_FAR">      0.00000000</i>
   <i name="OFIELD_A">      0.00000000</i>
  </separator>
 </parameters>
 <atominfo>
  <atoms>      27 </atoms>
  <types>       4 </types>
  <array name="atoms" >
   <dimension dim="1">ion</dimension>
   <field type="string">element</field>
   <field type="int">atomtype</field>
   <set>
    <rc><c>V </c><c>   1</c></rc>
    <rc><c>V </c><c>   1</c></rc>
    <rc><c>V </c><c>   1</c></rc>
    <rc><c>Mo</c><c>   2</c></rc>
    <rc><c>Mo</c><c>   2</c></rc>
    <rc><c>Mo</c><c>   2</c></rc>
    <rc><c>W </c><c>   3</c></rc>
    <rc><c>W </c><c>   3</c></rc>
    <rc><c>W </c><c>   3</c></rc>
    <rc><c>S </c><c>   4</c></rc>
    <rc><c>S </c><c>   4</c></rc>
    <rc><c>S </c><c>   4</c></rc>
    <rc><c>S </c><c>   4</c></rc>
    <rc><c>S </c><c>   4</c></rc>
    <rc><c>S </c><c>   4</c></rc>
    <rc><c>S </c><c>   4</c></rc>
    <rc><c>S </c><c>   4</c></rc>
    <rc><c>S </c><c>   4</c></rc>
    <rc><c>S </c><c>   4</c></rc>
    <rc><c>S </c><c>   4</c></rc>
    <rc><c>S </c><c>   4</c></rc>
    <rc><c>S </c><c>   4</c></rc>
    <rc><c>S </c><c>   4</c></rc>
    <rc><c>S </c><c>   4</c></rc>
    <rc><c>S </c><c>   4</c></rc>
    <rc><c>S </c><c>   4</c></rc>
    <rc><c>S </c><c>   4</c></rc>
   </set>
  </array>
  <array name="atomtypes" >
   <dimension dim="1">type</dimension>
   <field type="int">atomspertype</field>
   <field type="string">element</field>
   <field>mass</field>
   <field>valence</field>
   <field type="string">pseudopotential</field>
   <set>
    <rc><c>   3</c><c>V </c><c>     50.94100000</c><c>      5.00000000</c><c> PAW_PBE V 08Apr2002                    </c></rc>
    <rc><c>   3</c><c>Mo</c><c>     95.94000000</c><c>      6.00000000</c><c> PAW_PBE Mo 08Apr2002                   </c></rc>
    <rc><c>   3</c><c>W </c><c>    183.85000000</c><c>      6.00000000</c><c> PAW_PBE W 08Apr2002                    </c></rc>
    <rc><c>  18</c><c>S </c><c>     32.06600000</c><c>      6.00000000</c><c>  PAW_PBE S 17Jan2003                   </c></rc>
   </set>
  </array>
 </atominfo>
 <structure name="initialpos" >
  <crystal>
   <varray name="basis" >
    <v>       8.66999996       5.03999989       0.00000000 </v>
    <v>      -8.66999982       5.04000013       0.00000000 </v>
    <v>       0.00000000       0.00000000      30.00000000 </v>
   </varray>
   <i name="volume">   2621.80797419 </i>
   <varray name="rec_basis" >
    <v>       0.05767013       0.09920635       0.00000000 </v>
    <v>      -0.05767013       0.09920635       0.00000000 </v>
    <v>       0.00000000       0.00000000       0.03333333 </v>
   </varray>
  </crystal>
  <varray name="positions" >
   <v>       0.33333334       0.66666669       0.00000000 </v>
   <v>       1.00000000       0.33333334       0.00000000 </v>
   <v>       0.33333334       0.33333334       0.00000000 </v>
   <v>       0.66666669       0.00000000       0.00000000 </v>
   <v>       0.66666669       0.33333334       0.00000000 </v>
   <v>       0.66666669       0.66666669       0.00000000 </v>
   <v>       0.00000000       0.00000000       0.00000000 </v>
   <v>       0.00000000       0.66666669       0.00000000 </v>
   <v>       0.33333334       0.00000000       0.00000000 </v>
   <v>       0.11068511       0.22244981       0.95539999 </v>
   <v>       0.22244981       0.11068511       0.04460000 </v>
   <v>       0.11068511       0.55578315       0.95539999 </v>
   <v>       0.22244981       0.44401845       0.04460000 </v>
   <v>       0.11068511       0.88911647       0.95539999 </v>
   <v>       0.22244981       0.77735180       0.04460000 </v>
   <v>       0.44401845       0.22244981       0.95539999 </v>
   <v>       0.55578315       0.11068511       0.04460000 </v>
   <v>       0.44401845       0.55578315       0.95539999 </v>
   <v>       0.55578315       0.44401845       0.04460000 </v>
   <v>       0.44401845       0.88911647       0.95539999 </v>
   <v>       0.55578315       0.77735180       0.04460000 </v>
   <v>       0.77735180       0.22244981       0.95539999 </v>
   <v>       0.88911647       0.11068511       0.04460000 </v>
   <v>       0.77735180       0.55578315       0.95539999 </v>
   <v>       0.88911647       0.44401845       0.04460000 </v>
   <v>       0.77735180       0.88911647       0.95539999 </v>
   <v>       0.88911647       0.77735180       0.04460000 </v>
  </varray>
 </structure>
 <calculation>
  <scstep>
   <time name="dav">   23.15   23.21</time>
   <time name="total">   23.20   23.26</time>
   <energy>
    <i name="alphaZ">     81.65567618 </i>
    <i name="ewald">  41891.17179523 </i>
    <i name="hartreedc"> -47723.81769150 </i>
    <i name="XCdc">   -242.92468708 </i>
    <i name="pawpsdc">   3467.42045192 </i>
    <i name="pawaedc">  -2871.19716117 </i>
    <i name="eentropy">     -0.52827155 </i>
    <i name="bandstr">   -239.54825177 </i>
    <i name="atom">   6761.44252427 </i>
    <i name="e_fr_energy">   1123.67438452 </i>
    <i name="e_wo_entrp">   1124.20265607 </i>
    <i name="e_0_energy">   1123.93852030 </i>
   </energy>
  </scstep>
  <scstep>
   <time name="dav">   29.45   29.52</time>
   <time name="total">   29.45   29.53</time>
   <energy>
    <i name="e_fr_energy">     -0.60139110 </i>
    <i name="e_wo_entrp">     -0.42224581 </i>
    <i name="e_0_energy">     -0.51181846 </i>
   </energy>
  </scstep>
  <scstep>
   <time name="dav">   29.14   29.21</time>
   <time name="total">   29.15   29.22</time>
   <energy>
    <i name="e_fr_energy">   -199.43752809 </i>
    <i name="e_wo_entrp">   -199.18293875 </i>
    <i name="e_0_energy">   -199.31023342 </i>
   </energy>
  </scstep>
  <scstep>
   <time name="dav">   31.71   31.79</time>
   <time name="total">   31.72   31.80</time>
   <energy>
    <i name="e_fr_energy">   -208.96320835 </i>
    <i name="e_wo_entrp">   -208.67192928 </i>
    <i name="e_0_energy">   -208.81756881 </i>
   </energy>
  </scstep>
  <scstep>
   <time name="dav">   30.51   30.59</time>
   <time name="total">   30.98   31.07</time>
   <energy>
    <i name="e_fr_energy">   -209.30251364 </i>
    <i name="e_wo_entrp">   -209.01429178 </i>
    <i name="e_0_energy">   -209.15840271 </i>
   </energy>
  </scstep>
  <scstep>
   <time name="dav">   32.84   32.92</time>
   <time name="total">   33.34   33.43</time>
   <energy>
    <i name="e_fr_energy">   -237.86486243 </i>
    <i name="e_wo_entrp">   -237.61251456 </i>
    <i name="e_0_energy">   -237.73868849 </i>
   </energy>
  </scstep>
  <scstep>
   <time name="dav">   34.68   34.76</time>
   <time name="total">   35.19   35.28</time>
   <energy>
    <i name="e_fr_energy">   -196.57100627 </i>
    <i name="e_wo_entrp">   -196.21508161 </i>
    <i name="e_0_energy">   -196.39304394 </i>
   </energy>
  </scstep>
  <scstep>
   <time name="dav">   31.05   31.13</time>
   <time name="total">   31.56   31.65</time>
   <energy>
    <i name="e_fr_energy">   -189.47137887 </i>
    <i name="e_wo_entrp">   -189.15997526 </i>
    <i name="e_0_energy">   -189.31567706 </i>
   </energy>
  </scstep>
  <scstep>
   <time name="dav">   34.79   34.87</time>
   <time name="total">   35.32   35.41</time>
   <energy>
    <i name="e_fr_energy">   -188.12741650 </i>
    <i name="e_wo_entrp">   -187.80606194 </i>
    <i name="e_0_energy">   -187.96673922 </i>
   </energy>
  </scstep>
  <scstep>
   <time name="dav">   34.64   34.73</time>
   <time name="total">   35.18   35.27</time>
   <energy>
    <i name="e_fr_energy">   -186.93599046 </i>
    <i name="e_wo_entrp">   -186.58490967 </i>
    <i name="e_0_energy">   -186.76045007 </i>
   </energy>
  </scstep>
  <scstep>
   <time name="dav">   34.95   35.03</time>
   <time name="total">   35.49   35.58</time>
   <energy>
    <i name="e_fr_energy">   -187.02437145 </i>
    <i name="e_wo_entrp">   -186.68617704 </i>
    <i name="e_0_energy">   -186.85527424 </i>
   </energy>
  </scstep>
  <scstep>
   <time name="dav">   33.60   33.68</time>
   <time name="total">   34.14   34.23</time>
   <energy>
    <i name="e_fr_energy">   -186.94767836 </i>
    <i name="e_wo_entrp">   -186.61540084 </i>
    <i name="e_0_energy">   -186.78153960 </i>
   </energy>
  </scstep>
  <scstep>
   <time name="dav">   33.97   34.05</time>
   <time name="total">   34.51   34.60</time>
   <energy>
    <i name="e_fr_energy">   -186.86560208 </i>
    <i name="e_wo_entrp">   -186.53010613 </i>
    <i name="e_0_energy">   -186.69785411 </i>
   </energy>
  </scstep>
  <scstep>
   <time name="dav">   33.83   33.91</time>
   <time name="total">   34.37   34.46</time>
   <energy>
    <i name="e_fr_energy">   -186.82714407 </i>
    <i name="e_wo_entrp">   -186.48373986 </i>
    <i name="e_0_energy">   -186.65544197 </i>
   </energy>
  </scstep>
  <scstep>
   <time name="dav">   31.45   31.52</time>
   <time name="total">   31.99   32.07</time>
   <energy>
    <i name="e_fr_energy">   -186.82345253 </i>
    <i name="e_wo_entrp">   -186.48115255 </i>
    <i name="e_0_energy">   -186.65230254 </i>
   </energy>
  </scstep>
  <scstep>
   <time name="dav">   34.01   34.09</time>
   <time name="total">   34.55   34.64</time>
   <energy>
    <i name="e_fr_energy">   -186.82517582 </i>
    <i name="e_wo_entrp">   -186.48376581 </i>
    <i name="e_0_energy">   -186.65447081 </i>
   </energy>
  </scstep>
  <scstep>
   <time name="dav">   33.50   33.58</time>
   <time name="total">   34.04   34.13</time>
   <energy>
    <i name="e_fr_energy">   -186.82147046 </i>
    <i name="e_wo_entrp">   -186.48054531 </i>
    <i name="e_0_energy">   -186.65100789 </i>
   </energy>
  </scstep>
  <scstep>
   <time name="dav">   32.23   32.30</time>
   <time name="total">   32.77   32.85</time>
   <energy>
    <i name="e_fr_energy">   -186.82109234 </i>
    <i name="e_wo_entrp">   -186.47949983 </i>
    <i name="e_0_energy">   -186.65029609 </i>
   </energy>
  </scstep>
  <scstep>
   <time name="dav">   28.47   28.54</time>
   <time name="total">   29.01   29.09</time>
   <energy>
    <i name="e_fr_energy">   -186.82167122 </i>
    <i name="e_wo_entrp">   -186.48052335 </i>
    <i name="e_0_energy">   -186.65109729 </i>
   </energy>
  </scstep>
  <scstep>
   <time name="dav">   23.57   23.63</time>
   <time name="total">   24.11   24.18</time>
   <energy>
    <i name="e_fr_energy">   -186.82198779 </i>
    <i name="e_wo_entrp">   -186.48090717 </i>
    <i name="e_0_energy">   -186.65144748 </i>
   </energy>
  </scstep>
  <scstep>
   <time name="dav">   23.25   23.31</time>
   <time name="total">   23.80   23.86</time>
   <energy>
    <i name="e_fr_energy">   -186.82317186 </i>
    <i name="e_wo_entrp">   -186.48198312 </i>
    <i name="e_0_energy">   -186.65257749 </i>
   </energy>
  </scstep>
  <scstep>
   <time name="dav">   20.36   20.41</time>
   <time name="total">   20.90   20.95</time>
   <energy>
    <i name="e_fr_energy">   -186.82395067 </i>
    <i name="e_wo_entrp">   -186.48277635 </i>
    <i name="e_0_energy">   -186.65336351 </i>
   </energy>
  </scstep>
  <scstep>
   <time name="dav">   21.71   21.76</time>
   <time name="total">   22.25   22.31</time>
   <energy>
    <i name="e_fr_energy">   -186.82478241 </i>
    <i name="e_wo_entrp">   -186.48366517 </i>
    <i name="e_0_energy">   -186.65422379 </i>
   </energy>
  </scstep>
  <scstep>
   <time name="dav">   19.11   19.16</time>
   <time name="total">   19.65   19.71</time>
   <energy>
    <i name="e_fr_energy">   -186.82539383 </i>
    <i name="e_wo_entrp">   -186.48423948 </i>
    <i name="e_0_energy">   -186.65481666 </i>
   </energy>
  </scstep>
  <scstep>
   <time name="dav">   18.79   18.83</time>
   <time name="total">   19.33   19.39</time>
   <energy>
    <i name="e_fr_energy">   -186.82583924 </i>
    <i name="e_wo_entrp">   -186.48467385 </i>
    <i name="e_0_energy">   -186.65525654 </i>
   </energy>
  </scstep>
  <scstep>
   <time name="dav">   20.71   20.76</time>
   <time name="total">   21.25   21.31</time>
   <energy>
    <i name="e_fr_energy">   -186.82601183 </i>
    <i name="e_wo_entrp">   -186.48485161 </i>
    <i name="e_0_energy">   -186.65543172 </i>
   </energy>
  </scstep>
  <scstep>
   <time name="dav">   19.98   20.03</time>
   <time name="total">   20.52   20.58</time>
   <energy>
    <i name="e_fr_energy">   -186.82611660 </i>
    <i name="e_wo_entrp">   -186.48496063 </i>
    <i name="e_0_energy">   -186.65553862 </i>
   </energy>
  </scstep>
  <scstep>
   <time name="dav">   21.27   21.32</time>
   <time name="total">   21.31   21.36</time>
   <energy>
    <i name="alphaZ">     81.65567618 </i>
    <i name="ewald">  41891.17179523 </i>
    <i name="hartreedc"> -47833.71109087 </i>
    <i name="XCdc">   -231.60907977 </i>
    <i name="pawpsdc">   4192.07023710 </i>
    <i name="pawaedc">  -3610.06640189 </i>
    <i name="eentropy">     -0.34115718 </i>
    <i name="bandstr">  -1437.43867022 </i>
    <i name="atom">   6761.44252427 </i>
    <i name="e_fr_energy">   -186.82616716 </i>
    <i name="e_wo_entrp">   -186.48500998 </i>
    <i name="e_0_energy">   -186.65558857 </i>
   </energy>
  </scstep>
  <structure>
   <crystal>
    <varray name="basis" >
     <v>       8.66999996       5.03999989       0.00000000 </v>
     <v>      -8.66999982       5.04000013       0.00000000 </v>
     <v>       0.00000000       0.00000000      30.00000000 </v>
    </varray>
    <i name="volume">   2621.80797419 </i>
    <varray name="rec_basis" >
     <v>       0.05767013       0.09920635       0.00000000 </v>
     <v>      -0.05767013       0.09920635       0.00000000 </v>
     <v>       0.00000000       0.00000000       0.03333333 </v>
    </varray>
   </crystal>
   <varray name="positions" >
    <v>       0.33333334       0.66666669       0.00000000 </v>
    <v>       1.00000000       0.33333334       0.00000000 </v>
    <v>       0.33333334       0.33333334       0.00000000 </v>
    <v>       0.66666669       0.00000000       0.00000000 </v>
    <v>       0.66666669       0.33333334       0.00000000 </v>
    <v>       0.66666669       0.66666669       0.00000000 </v>
    <v>       0.00000000       0.00000000       0.00000000 </v>
    <v>       0.00000000       0.66666669       0.00000000 </v>
    <v>       0.33333334       0.00000000       0.00000000 </v>
    <v>       0.11068511       0.22244981       0.95539999 </v>
    <v>       0.22244981       0.11068511       0.04460000 </v>
    <v>       0.11068511       0.55578315       0.95539999 </v>
    <v>       0.22244981       0.44401845       0.04460000 </v>
    <v>       0.11068511       0.88911647       0.95539999 </v>
    <v>       0.22244981       0.77735180       0.04460000 </v>
    <v>       0.44401845       0.22244981       0.95539999 </v>
    <v>       0.55578315       0.11068511       0.04460000 </v>
    <v>       0.44401845       0.55578315       0.95539999 </v>
    <v>       0.55578315       0.44401845       0.04460000 </v>
    <v>       0.44401845       0.88911647       0.95539999 </v>
    <v>       0.55578315       0.77735180       0.04460000 </v>
    <v>       0.77735180       0.22244981       0.95539999 </v>
    <v>       0.88911647       0.11068511       0.04460000 </v>
    <v>       0.77735180       0.55578315       0.95539999 </v>
    <v>       0.88911647       0.44401845       0.04460000 </v>
    <v>       0.77735180       0.88911647       0.95539999 </v>
    <v>       0.88911647       0.77735180       0.04460000 </v>
   </varray>
  </structure>
  <varray name="forces" >
   <v>       0.30599828       0.20095317       0.03384219 </v>
   <v>      -0.11899798      -0.20276085       0.00904490 </v>
   <v>       0.01991863       0.35210975       0.04449606 </v>
   <v>      -0.00497709      -0.00692831      -0.11826615 </v>
   <v>       0.00440704      -0.01437461      -0.11691430 </v>
   <v>      -0.01645605      -0.01189772       0.13090892 </v>
   <v>      -0.36051628      -0.38801563       0.08260948 </v>
   <v>      -0.15468395      -0.48508411       0.06928660 </v>
   <v>       0.29273767       0.47940643      -0.13188768 </v>
   <v>      -0.23597605       0.52843329      -1.40071593 </v>
   <v>      -0.47196828       0.54850991       2.12848319 </v>
   <v>       0.74753465       0.00303722      -1.44413185 </v>
   <v>      -0.05913897       0.00993175       0.76438843 </v>
   <v>       0.15751513       0.04056501      -2.86291146 </v>
   <v>       0.58236572      -0.01301440       2.08499077 </v>
   <v>      -0.64594969      -0.15187531      -2.14406266 </v>
   <v>      -0.20439537      -0.13874089       2.88942507 </v>
   <v>      -0.32784983      -0.67692429      -1.42607256 </v>
   <v>      -0.54427876      -0.67765311       2.13296041 </v>
   <v>       0.35220310      -0.68447771      -2.18772611 </v>
   <v>      -0.50191522      -0.70104402       2.13708788 </v>
   <v>       0.51308085       0.68029117      -2.15103588 </v>
   <v>      -0.34132483       0.71119880       2.16776455 </v>
   <v>       0.22016545       0.12426728      -2.89261373 </v>
   <v>       0.66224232       0.17928174       2.12007793 </v>
   <v>       0.17477918       0.14964799      -2.89773538 </v>
   <v>      -0.04451968       0.14515744       2.97870734 </v>
  </varray>
  <varray name="stress" >
   <v>       7.25592952       0.12904045      -1.53279866 </v>
   <v>       0.12904034       4.49069473       0.04154984 </v>
   <v>      -1.53279873       0.04154980      30.31848507 </v>
  </varray>
  <energy>
   <i name="e_fr_energy">   -186.82616716 </i>
   <i name="e_wo_entrp">   -186.65558857 </i>
   <i name="e_0_energy">     -0.34115718 </i>
  </energy>
  <time name="totalsc">  853.29  855.56</time>
 </calculation>
 <calculation>
  <scstep>
   <time name="dav">   23.18   23.24</time>
   <time name="total">   23.73   23.79</time>
   <energy>
    <i name="alphaZ">     78.92304496 </i>
    <i name="ewald">  39379.95070535 </i>
    <i name="hartreedc"> -45337.29306279 </i>
    <i name="XCdc">   -239.07353831 </i>
    <i name="pawpsdc">   4192.05562340 </i>
    <i name="pawaedc">  -3610.05177568 </i>
    <i name="eentropy">     -0.27823522 </i>
    <i name="bandstr">  -1413.16706853 </i>
    <i name="atom">   6761.44252427 </i>
    <i name="e_fr_energy">   -187.49178254 </i>
    <i name="e_wo_entrp">   -187.21354732 </i>
    <i name="e_0_energy">   -187.35266493 </i>
   </energy>
  </scstep>
  <scstep>
   <time name="dav">   32.27   32.35</time>
   <time name="total">   32.81   32.90</time>
   <energy>
    <i name="e_fr_energy">   -189.35118199 </i>
    <i name="e_wo_entrp">   -189.03478823 </i>
    <i name="e_0_energy">   -189.19298511 </i>
   </energy>
  </scstep>
  <scstep>
   <time name="dav">   32.47   32.55</time>
   <time name="total">   33.03   33.11</time>
   <energy>
    <i name="e_fr_energy">   -189.34767926 </i>
    <i name="e_wo_entrp">   -189.08850662 </i>
    <i name="e_0_energy">   -189.21809294 </i>
   </energy>
  </scstep>
  <scstep>
   <time name="dav">   33.16   33.24</time>
   <time name="total">   33.71   33.80</time>
   <energy>
    <i name="e_fr_energy">   -188.74290698 </i>
    <i name="e_wo_entrp">   -188.46233509 </i>
    <i name="e_0_energy">   -188.60262103 </i>
   </energy>
  </scstep>
  <scstep>
   <time name="dav">   28.16   28.22</time>
   <time name="total">   28.70   28.78</time>
   <energy>
    <i name="e_fr_energy">   -188.72620183 </i>
    <i name="e_wo_entrp">   -188.44984198 </i>
    <i name="e_0_energy">   -188.58802191 </i>
   </energy>
  </scstep>
  <scstep>
   <time name="dav">   31.96   32.03</time>
   <time name="total">   32.50   32.59</time>
   <energy>
    <i name="e_fr_energy">   -188.69270134 </i>
    <i name="e_wo_entrp">   -188.41272423 </i>
    <i name="e_0_energy">   -188.55271279 </i>
   </energy>
  </scstep>
  <scstep>
   <time name="dav">   33.68   33.76</time>
   <time name="total">   34.23   34.32</time>
   <energy>
    <i name="e_fr_energy">   -188.70072491 </i>
    <i name="e_wo_entrp">   -188.42013441 </i>
    <i name="e_0_energy">   -188.56042966 </i>
   </energy>
  </scstep>
  <scstep>
   <time name="dav">   34.34   34.42</time>
   <time name="total">   34.88   34.97</time>
   <energy>
    <i name="e_fr_energy">   -188.65796841 </i>
    <i name="e_wo_entrp">   -188.38038051 </i>
    <i name="e_0_energy">   -188.51917446 </i>
   </energy>
  </scstep>
  <scstep>
   <time name="dav">   28.34   28.41</time>
   <time name="total">   28.89   28.97</time>
   <energy>
    <i name="e_fr_energy">   -188.65646249 </i>
    <i name="e_wo_entrp">   -188.37952494 </i>
    <i name="e_0_energy">   -188.51799371 </i>
   </energy>
  </scstep>
  <scstep>
   <time name="dav">   34.64   34.72</time>
   <time name="total">   35.18   35.27</time>
   <energy>
    <i name="e_fr_energy">   -188.65730646 </i>
    <i name="e_wo_entrp">   -188.38094990 </i>
    <i name="e_0_energy">   -188.51912818 </i>
   </energy>
  </scstep>
  <scstep>
   <time name="dav">   33.59   33.67</time>
   <time name="total">   34.13   34.22</time>
   <energy>
    <i name="e_fr_energy">   -188.65590870 </i>
    <i name="e_wo_entrp">   -188.37967618 </i>
    <i name="e_0_energy">   -188.51779244 </i>
   </energy>
  </scstep>
  <scstep>
   <time name="dav">   31.10   31.18</time>
   <time name="total">   31.14   31.22</time>
   <energy>
    <i name="alphaZ">     78.92304496 </i>
    <i name="ewald">  39379.95070535 </i>
    <i name="hartreedc"> -45348.35785639 </i>
    <i name="XCdc">   -237.97532162 </i>
    <i name="pawpsdc">   3952.64913660 </i>
    <i name="pawaedc">  -3367.17483279 </i>
    <i name="eentropy">     -0.27613900 </i>
    <i name="bandstr">  -1407.83710752 </i>
    <i name="atom">   6761.44252427 </i>
    <i name="e_fr_energy">   -188.65584614 </i>
    <i name="e_wo_entrp">   -188.37970714 </i>
    <i name="e_0_energy">   -188.51777664 </i>
   </energy>
  </scstep>
  <structure>
   <crystal>
    <varray name="basis" >
     <v>       8.85583887       5.10944725       0.00000000 </v>
     <v>      -8.85203558       5.10290516       0.00000000 </v>
     <v>       0.00000000       0.00000000      30.00000000 </v>
    </varray>
    <i name="volume">   2712.58544379 </i>
    <varray name="rec_basis" >
     <v>       0.05643588       0.09789961       0.00000000 </v>
     <v>      -0.05650824       0.09794168       0.00000000 </v>
     <v>       0.00000000       0.00000000       0.03333333 </v>
    </varray>
   </crystal>
   <varray name="positions" >
    <v>       0.33514644       0.66677711       0.00005442 </v>
    <v>       0.99869852       0.33269401       0.00001454 </v>
    <v>       0.33507395       0.33496312       0.00007155 </v>
    <v>       0.66661968      -0.00001931      -0.00019018 </v>
    <v>       0.66661015       0.33325229      -0.00018801 </v>
    <v>       0.66656396       0.66665553       0.00021051 </v>
    <v>      -0.00286005      -0.00085402       0.00013284 </v>
    <v>      -0.00275196       0.66477544       0.00011142 </v>
    <v>       0.33644221       0.00147999      -0.00021209 </v>
    <v>       0.11255766       0.22563540       0.95314751 </v>
    <v>       0.22376187       0.11462336       0.04802279 </v>
    <v>       0.11277941       0.55371793       0.95307770 </v>
    <v>       0.22233281       0.44423052       0.04582920 </v>
    <v>       0.11131749       0.88887238       0.95079618 </v>
    <v>       0.22400776       0.77566928       0.04795285 </v>
    <v>       0.44149445       0.22352007       0.95195215 </v>
    <v>       0.55455048       0.11058976       0.04924645 </v>
    <v>       0.43986658       0.55345554       0.95310674 </v>
    <v>       0.55102565       0.44228949       0.04802999 </v>
    <v>       0.44172244       0.88486069       0.95188193 </v>
    <v>       0.55103156       0.77539302       0.04803663 </v>
    <v>       0.78203513       0.22427819       0.95194093 </v>
    <v>       0.89157063       0.11503851       0.04808596 </v>
    <v>       0.77855907       0.55576536       0.95074841 </v>
    <v>       0.89181697       0.44303403       0.04800927 </v>
    <v>       0.77855427       0.88934641       0.95074018 </v>
    <v>       0.88968733       0.77817038       0.04939002 </v>
   </varray>
  </structure>
  <varray name="forces" >
   <v>       0.19039074       0.22962176       0.08640671 </v>
   <v>      -0.11676961      -0.20348206      -0.09814066 </v>
   <v>       0.09965795       0.28286049       0.09323081 </v>
   <v>      -0.06040109      -0.01971739      -0.03077010 </v>
   <v>       0.01193660      -0.06179433      -0.03120621 </v>
   <v>       0.19490382       0.33572706       0.05875714 </v>
   <v>      -0.18059332      -0.59780706      -0.05467020 </v>
   <v>      -0.42157004      -0.45777415      -0.05874315 </v>
   <v>       0.31864167       0.55493243       0.05551205 </v>
   <v>       0.04605586      -0.06293818       0.23385237 </v>
   <v>       0.05631206      -0.07672158      -0.26493732 </v>
   <v>      -0.08942778      -0.00797715       0.25335087 </v>
   <v>      -0.01139291       0.00464040      -0.20164451 </v>
   <v>      -0.01434029       0.00306037       0.26418598 </v>
   <v>      -0.10334500      -0.00960000      -0.24094979 </v>
   <v>       0.01476367      -0.09143014      -0.11597191 </v>
   <v>      -0.05386604      -0.10239664       0.09492193 </v>
   <v>      -0.01011699      -0.05320054       0.00715835 </v>
   <v>      -0.03297707      -0.07001197       0.05449869 </v>
   <v>      -0.09390945      -0.04807102      -0.10041853 </v>
   <v>      -0.02861240      -0.07423252       0.05741961 </v>
   <v>       0.03257798       0.07662381      -0.09450897 </v>
   <v>       0.10051805       0.05174381       0.05198120 </v>
   <v>       0.05195755       0.10253280      -0.13687369 </v>
   <v>      -0.02081769       0.10363115       0.06993909 </v>
   <v>       0.05305269       0.10261796      -0.14032005 </v>
   <v>       0.06737105       0.08916267       0.18794030 </v>
  </varray>
  <varray name="stress" >
   <v>     -19.99843659      -0.01388245      -0.01434450 </v>
   <v>      -0.01388239     -19.59496407      -0.10000781 </v>
   <v>      -0.01434453      -0.10000785      -1.84777726 </v>
  </varray>
  <energy>
   <i name="e_fr_energy">   -188.65584614 </i>
   <i name="e_wo_entrp">   -188.51777664 </i>
   <i name="e_0_energy">     -0.27613900 </i>
  </energy>
  <time name="totalsc">  427.08  428.20</time>
 </calculation>
 <calculation>
  <scstep>
   <time name="dav">   25.44   25.50</time>
   <time name="total">   25.98   26.04</time>
   <energy>
    <i name="alphaZ">     82.34928920 </i>
    <i name="ewald">  41304.27260289 </i>
    <i name="hartreedc"> -47303.22822774 </i>
    <i name="XCdc">   -233.85426533 </i>
    <i name="pawpsdc">   3950.51300991 </i>
    <i name="pawaedc">  -3365.01459609 </i>
    <i name="eentropy">     -0.23139234 </i>
    <i name="bandstr">  -1386.83277675 </i>
    <i name="atom">   6761.44252427 </i>
    <i name="e_fr_energy">   -190.58383197 </i>
    <i name="e_wo_entrp">   -190.35243963 </i>
    <i name="e_0_energy">   -190.46813580 </i>
   </energy>
  </scstep>
  <scstep>
   <time name="dav">   30.71   30.78</time>
   <time name="total">   31.23   31.32</time>
   <energy>
    <i name="e_fr_energy">   -190.51954626 </i>
    <i name="e_wo_entrp">   -190.30313917 </i>
    <i name="e_0_energy">   -190.41134272 </i>
   </energy>
  </scstep>
  <scstep>
   <time name="dav">   32.46   32.54</time>
   <time name="total">   32.99   33.08</time>
   <energy>
    <i name="e_fr_energy">   -190.07142614 </i>
    <i name="e_wo_entrp">   -189.82371243 </i>
    <i name="e_0_energy">   -189.94756928 </i>
   </energy>
  </scstep>
  <scstep>
   <time name="dav">   33.53   33.61</time>
   <time name="total">   34.07   34.16</time>
   <energy>
    <i name="e_fr_energy">   -189.85592597 </i>
    <i name="e_wo_entrp">   -189.63326180 </i>
    <i name="e_0_energy">   -189.74459388 </i>
   </energy>
  </scstep>
  <scstep>
   <time name="dav">   30.38   30.46</time>
   <time name="total">   30.92   31.00</time>
   <energy>
    <i name="e_fr_energy">   -189.76590142 </i>
    <i name="e_wo_entrp">   -189.53348711 </i>
    <i name="e_0_energy">   -189.64969426 </i>
   </energy>
  </scstep>
  <scstep>
   <time name="dav">   31.43   31.51</time>
   <time name="total">   31.97   32.06</time>
   <energy>
    <i name="e_fr_energy">   -189.75536224 </i>
    <i name="e_wo_entrp">   -189.52354309 </i>
    <i name="e_0_energy">   -189.63945267 </i>
   </energy>
  </scstep>
  <scstep>
   <time name="dav">   32.13   32.21</time>
   <time name="total">   32.66   32.75</time>
   <energy>
    <i name="e_fr_energy">   -189.75172398 </i>
    <i name="e_wo_entrp">   -189.52038833 </i>
    <i name="e_0_energy">   -189.63605615 </i>
   </energy>
  </scstep>
  <scstep>
   <time name="dav">   30.70   30.78</time>
   <time name="total">   31.23   31.32</time>
   <energy>
    <i name="e_fr_energy">   -189.75128506 </i>
    <i name="e_wo_entrp">   -189.51996493 </i>
    <i name="e_0_energy">   -189.63562499 </i>
   </energy>
  </scstep>
  <scstep>
   <time name="dav">   28.92   28.99</time>
   <time name="total">   29.46   29.54</time>
   <energy>
    <i name="e_fr_energy">   -189.75219792 </i>
    <i name="e_wo_entrp">   -189.52059414 </i>
    <i name="e_0_energy">   -189.63639603 </i>
   </energy>
  </scstep>
  <scstep>
   <time name="dav">   28.66   28.73</time>
   <time name="total">   29.20   29.28</time>
   <energy>
    <i name="e_fr_energy">   -189.75153114 </i>
    <i name="e_wo_entrp">   -189.51994305 </i>
    <i name="e_0_energy">   -189.63573710 </i>
   </energy>
  </scstep>
  <scstep>
   <time name="dav">   19.94   19.99</time>
   <time name="total">   19.98   20.04</time>
   <energy>
    <i name="alphaZ">     82.34928920 </i>
    <i name="ewald">  41304.27260289 </i>
    <i name="hartreedc"> -47276.33733658 </i>
    <i name="XCdc">   -235.24657945 </i>
    <i name="pawpsdc">   4038.45577166 </i>
    <i name="pawaedc">  -3454.15217185 </i>
    <i name="eentropy">     -0.23154503 </i>
    <i name="bandstr">  -1410.30404417 </i>
    <i name="atom">   6761.44252427 </i>
    <i name="e_fr_energy">   -189.75148905 </i>
    <i name="e_wo_entrp">   -189.51994401 </i>
    <i name="e_0_energy">   -189.63571653 </i>
   </energy>
  </scstep>
  <structure>
   <crystal>
    <varray name="basis" >
     <v>       8.66768016       5.00298981       0.00000000 </v>
     <v>      -8.66410821       4.99684493       0.00000000 </v>
     <v>       0.00000000       0.00000000      30.00000000 </v>
    </varray>
    <i name="volume">   2599.72496432 </i>
    <varray name="rec_basis" >
     <v>       0.05766200       0.09998106       0.00000000 </v>
     <v>      -0.05773291       0.10002227       0.00000000 </v>
     <v>       0.00000000       0.00000000       0.03333333 </v>
    </varray>
   </crystal>
   <varray name="positions" >
    <v>       0.33570914       0.66697578       0.00010320 </v>
    <v>       0.99824953       0.33246823      -0.00004086 </v>
    <v>       0.33563820       0.33533694       0.00012419 </v>
    <v>       0.66652926       0.00000579      -0.00020755 </v>
    <v>       0.66651910       0.33313836      -0.00020563 </v>
    <v>       0.66730690       0.66702589       0.00024368 </v>
    <v>      -0.00402385      -0.00167280       0.00010198 </v>
    <v>      -0.00391391       0.66441956       0.00007826 </v>
    <v>       0.33766688       0.00209553      -0.00018075 </v>
    <v>       0.11249732       0.22548693       0.95327953 </v>
    <v>       0.22368849       0.11444220       0.04787322 </v>
    <v>       0.11268070       0.55379028       0.95322072 </v>
    <v>       0.22232961       0.44424912       0.04571537 </v>
    <v>       0.11130885       0.88889118       0.95094532 </v>
    <v>       0.22389306       0.77575226       0.04781682 </v>
    <v>       0.44135696       0.22335428       0.95188668 </v>
    <v>       0.55432922       0.11047146       0.04930004 </v>
    <v>       0.43976870       0.55337697       0.95311078 </v>
    <v>       0.55087805       0.44220492       0.04806075 </v>
    <v>       0.44155298       0.88487082       0.95182524 </v>
    <v>       0.55088113       0.77529727       0.04806904 </v>
    <v>       0.78219331       0.22437412       0.95188758 </v>
    <v>       0.89175250       0.11502814       0.04811530 </v>
    <v>       0.77877874       0.55588571       0.95067114 </v>
    <v>       0.89196890       0.44322585       0.04804875 </v>
    <v>       0.77877513       0.88946586       0.95066096 </v>
    <v>       0.88989956       0.77825380       0.04949612 </v>
   </varray>
  </structure>
  <varray name="forces" >
   <v>       0.13516807       0.26828897       0.07773590 </v>
   <v>      -0.12875159      -0.23057274      -0.10105270 </v>
   <v>       0.16408076       0.25341970       0.08048538 </v>
   <v>      -0.08921291      -0.03301422      -0.00410025 </v>
   <v>       0.01431327      -0.09656115      -0.00483434 </v>
   <v>       0.26034926       0.44711730       0.02766590 </v>
   <v>      -0.11765639      -0.66873682      -0.06793677 </v>
   <v>      -0.51384842      -0.43927821      -0.06795871 </v>
   <v>       0.32630118       0.57337729       0.08381831 </v>
   <v>      -0.02270278       0.07125143      -0.20061418 </v>
   <v>      -0.02058021       0.03368643       0.20424158 </v>
   <v>       0.06507612       0.00108401      -0.18368823 </v>
   <v>      -0.01773575      -0.00322173       0.20069577 </v>
   <v>      -0.00715547       0.01612949      -0.25460462 </v>
   <v>       0.03091106      -0.01588218       0.22483420 </v>
   <v>      -0.11169853      -0.01376512      -0.63896992 </v>
   <v>      -0.00340202      -0.01548828       0.65889022 </v>
   <v>      -0.03869292      -0.10121641      -0.42943476 </v>
   <v>      -0.06785393      -0.12517461       0.53931892 </v>
   <v>       0.03951838      -0.11697092      -0.62306513 </v>
   <v>      -0.06308600      -0.12884247       0.54005876 </v>
   <v>       0.07293761       0.14237597      -0.58898656 </v>
   <v>      -0.02965789       0.10870387       0.55916803 </v>
   <v>      -0.00146834       0.01610673      -0.70015831 </v>
   <v>       0.09404922       0.02105907       0.57654761 </v>
   <v>       0.00596626       0.01396550      -0.70099381 </v>
   <v>       0.02483197       0.02215912       0.79293772 </v>
  </varray>
  <varray name="stress" >
   <v>     -10.15792073      -0.03052033      -0.04742406 </v>
   <v>      -0.03052048      -9.87408506      -0.11957212 </v>
   <v>      -0.04742397      -0.11957215       6.51021246 </v>
  </varray>
  <energy>
   <i name="e_fr_energy">   -189.75148905 </i>
   <i name="e_wo_entrp">   -189.63571653 </i>
   <i name="e_0_energy">     -0.23154503 </i>
  </energy>
  <time name="totalsc">  374.07  375.05</time>
 </calculation>
 <calculation>
  <scstep>
   <time name="dav">   23.14   23.20</time>
   <time name="total">   23.67   23.72</time>
   <energy>
    <i name="alphaZ">     85.81582588 </i>
    <i name="ewald">  42831.34828440 </i>
    <i name="hartreedc"> -48847.75915459 </i>
    <i name="XCdc">   -232.96822169 </i>
    <i name="pawpsdc">   4038.94421134 </i>
    <i name="pawaedc">  -3454.64167890 </i>
    <i name="eentropy">     -0.18914661 </i>
    <i name="bandstr">  -1373.33625743 </i>
    <i name="atom">   6761.44252427 </i>
    <i name="e_fr_energy">   -191.34361332 </i>
    <i name="e_wo_entrp">   -191.15446672 </i>
    <i name="e_0_energy">   -191.24904002 </i>
   </energy>
  </scstep>
  <scstep>
   <time name="dav">   34.56   34.65</time>
   <time name="total">   35.08   35.17</time>
   <energy>
    <i name="e_fr_energy">   -191.12903934 </i>
    <i name="e_wo_entrp">   -190.94581945 </i>
    <i name="e_0_energy">   -191.03742940 </i>
   </energy>
  </scstep>
  <scstep>
   <time name="dav">   31.96   32.04</time>
   <time name="total">   32.48   32.56</time>
   <energy>
    <i name="e_fr_energy">   -191.32447128 </i>
    <i name="e_wo_entrp">   -191.10621592 </i>
    <i name="e_0_energy">   -191.21534360 </i>
   </energy>
  </scstep>
  <scstep>
   <time name="dav">   33.66   33.74</time>
   <time name="total">   34.19   34.28</time>
   <energy>
    <i name="e_fr_energy">   -190.90772628 </i>
    <i name="e_wo_entrp">   -190.72462785 </i>
    <i name="e_0_energy">   -190.81617706 </i>
   </energy>
  </scstep>
  <scstep>
   <time name="dav">   29.24   29.31</time>
   <time name="total">   29.76   29.84</time>
   <energy>
    <i name="e_fr_energy">   -190.80724137 </i>
    <i name="e_wo_entrp">   -190.61429357 </i>
    <i name="e_0_energy">   -190.71076747 </i>
   </energy>
  </scstep>
  <scstep>
   <time name="dav">   33.02   33.10</time>
   <time name="total">   33.54   33.63</time>
   <energy>
    <i name="e_fr_energy">   -190.79625461 </i>
    <i name="e_wo_entrp">   -190.60166958 </i>
    <i name="e_0_energy">   -190.69896209 </i>
   </energy>
  </scstep>
  <scstep>
   <time name="dav">   31.61   31.68</time>
   <time name="total">   32.13   32.21</time>
   <energy>
    <i name="e_fr_energy">   -190.77657135 </i>
    <i name="e_wo_entrp">   -190.58499504 </i>
    <i name="e_0_energy">   -190.68078320 </i>
   </energy>
  </scstep>
  <scstep>
   <time name="dav">   27.52   27.59</time>
   <time name="total">   28.04   28.12</time>
   <energy>
    <i name="e_fr_energy">   -190.77246846 </i>
    <i name="e_wo_entrp">   -190.57988896 </i>
    <i name="e_0_energy">   -190.67617871 </i>
   </energy>
  </scstep>
  <scstep>
   <time name="dav">   28.59   28.66</time>
   <time name="total">   29.12   29.19</time>
   <energy>
    <i name="e_fr_energy">   -190.77290477 </i>
    <i name="e_wo_entrp">   -190.58000808 </i>
    <i name="e_0_energy">   -190.67645642 </i>
   </energy>
  </scstep>
  <scstep>
   <time name="dav">   28.48   28.54</time>
   <time name="total">   29.00   29.08</time>
   <energy>
    <i name="e_fr_energy">   -190.77262512 </i>
    <i name="e_wo_entrp">   -190.57987853 </i>
    <i name="e_0_energy">   -190.67625182 </i>
   </energy>
  </scstep>
  <scstep>
   <time name="dav">   21.45   21.50</time>
   <time name="total">   21.48   21.54</time>
   <energy>
    <i name="alphaZ">     85.81582588 </i>
    <i name="ewald">  42831.34828440 </i>
    <i name="hartreedc"> -48819.29982893 </i>
    <i name="XCdc">   -234.28978770 </i>
    <i name="pawpsdc">   4064.25271356 </i>
    <i name="pawaedc">  -3480.12819379 </i>
    <i name="eentropy">     -0.19278822 </i>
    <i name="bandstr">  -1399.72139242 </i>
    <i name="atom">   6761.44252427 </i>
    <i name="e_fr_energy">   -190.77264294 </i>
    <i name="e_wo_entrp">   -190.57985472 </i>
    <i name="e_0_energy">   -190.67624883 </i>
   </energy>
  </scstep>
  <structure>
   <crystal>
    <varray name="basis" >
     <v>       8.48657063       4.90176341       0.00000000 </v>
     <v>      -8.48444425       4.89811799       0.00000000 </v>
     <v>       0.00000000       0.00000000      30.00000000 </v>
    </varray>
    <i name="volume">   2494.70888079 </i>
    <varray name="rec_basis" >
     <v>       0.05890208       0.10202927       0.00000000 </v>
     <v>      -0.05894592       0.10205484       0.00000000 </v>
     <v>       0.00000000       0.00000000       0.03333333 </v>
    </varray>
   </crystal>
   <varray name="positions" >
    <v>       0.33788939       0.66834007       0.00025642 </v>
    <v>       0.99626060       0.33144157      -0.00025203 </v>
    <v>       0.33783190       0.33616339       0.00027964 </v>
    <v>       0.66592725       0.00012960      -0.00019348 </v>
    <v>       0.66588450       0.33239345      -0.00019332 </v>
    <v>       0.67140875       0.66906391       0.00027454 </v>
    <v>      -0.00871189      -0.00569432      -0.00004955 </v>
    <v>      -0.00859631       0.66370623      -0.00006989 </v>
    <v>       0.34248181       0.00453670       0.00001629 </v>
    <v>       0.11309538       0.22644595       0.95249798 </v>
    <v>       0.22398883       0.11511138       0.04869161 </v>
    <v>       0.11316559       0.55336337       0.95247195 </v>
    <v>       0.22221697       0.44428254       0.04646994 </v>
    <v>       0.11142656       0.88903997       0.94998098 </v>
    <v>       0.22408176       0.77533348       0.04867487 </v>
    <v>       0.44088025       0.22404536       0.95012494 </v>
    <v>       0.55450815       0.11053046       0.05113755 </v>
    <v>       0.43883681       0.55280567       0.95185483 </v>
    <v>       0.54966462       0.44158037       0.04958441 </v>
    <v>       0.44098451       0.88363485       0.95009665 </v>
    <v>       0.54966393       0.77463339       0.04959238 </v>
    <v>       0.78356666       0.22510628       0.95025318 </v>
    <v>       0.89227987       0.11614255       0.04969886 </v>
    <v>       0.77858308       0.55585359       0.94874898 </v>
    <v>       0.89239880       0.44264847       0.04966772 </v>
    <v>       0.77859642       0.88937892       0.94873927 </v>
    <v>       0.88990028       0.77819725       0.05164517 </v>
   </varray>
  </structure>
  <varray name="forces" >
   <v>       0.12871212       0.27872233       0.02604536 </v>
   <v>      -0.11142756      -0.20016061      -0.07004746 </v>
   <v>       0.18241309       0.25124713       0.02463195 </v>
   <v>      -0.14586001      -0.04563788       0.02530421 </v>
   <v>       0.03207410      -0.15591851       0.02619862 </v>
   <v>       0.32099815       0.55468406      -0.03414380 </v>
   <v>      -0.11986928      -0.78161489      -0.02605113 </v>
   <v>      -0.61452597      -0.49447776      -0.02517064 </v>
   <v>       0.40299420       0.70538518       0.03553774 </v>
   <v>       0.01907725      -0.01951106      -0.07922003 </v>
   <v>      -0.01821758      -0.03660675       0.02375587 </v>
   <v>      -0.02317852      -0.00358830      -0.07450854 </v>
   <v>      -0.01290303      -0.00510472       0.20088148 </v>
   <v>       0.02126258       0.03901853      -0.04101805 </v>
   <v>      -0.03502569      -0.03384676       0.02936299 </v>
   <v>      -0.02935988       0.03261166      -0.47971451 </v>
   <v>       0.04873789       0.08648022       0.53601790 </v>
   <v>       0.02756291       0.02471154      -0.29384956 </v>
   <v>      -0.02698817       0.01317910       0.37918013 </v>
   <v>       0.04719470      -0.01732405      -0.47414897 </v>
   <v>       0.02304731      -0.01483294       0.37957571 </v>
   <v>       0.01526531       0.02580477      -0.44658621 </v>
   <v>      -0.02322156       0.00427513       0.36425085 </v>
   <v>      -0.03013632      -0.09341585      -0.54229350 </v>
   <v>       0.00130402      -0.01693298       0.36666757 </v>
   <v>      -0.06549480      -0.07357653      -0.54392746 </v>
   <v>      -0.01443525      -0.02357008       0.71326950 </v>
  </varray>
  <varray name="stress" >
   <v>      -5.84818453       0.15712274      -0.02796988 </v>
   <v>       0.15712295      -5.66568657       0.07302547 </v>
   <v>      -0.02797017       0.07302546       4.55369988 </v>
  </varray>
  <energy>
   <i name="e_fr_energy">   -190.77264294 </i>
   <i name="e_wo_entrp">   -190.67624883 </i>
   <i name="e_0_energy">     -0.19278822 </i>
  </energy>
  <time name="totalsc">  372.83  373.81</time>
 </calculation>
 <calculation>
  <scstep>
   <time name="dav">   23.13   23.19</time>
   <time name="total">   23.65   23.71</time>
   <energy>
    <i name="alphaZ">     90.13277978 </i>
    <i name="ewald">  44648.70821896 </i>
    <i name="hartreedc"> -50691.16205707 </i>
    <i name="XCdc">   -231.86292402 </i>
    <i name="pawpsdc">   4064.25226360 </i>
    <i name="pawaedc">  -3480.12631663 </i>
    <i name="eentropy">     -0.16452624 </i>
    <i name="bandstr">  -1353.44736273 </i>
    <i name="atom">   6761.44252427 </i>
    <i name="e_fr_energy">   -192.22740008 </i>
    <i name="e_wo_entrp">   -192.06287383 </i>
    <i name="e_0_energy">   -192.14513695 </i>
   </energy>
  </scstep>
  <scstep>
   <time name="dav">   27.49   27.56</time>
   <time name="total">   28.00   28.07</time>
   <energy>
    <i name="e_fr_energy">   -191.94713506 </i>
    <i name="e_wo_entrp">   -191.77091191 </i>
    <i name="e_0_energy">   -191.85902349 </i>
   </energy>
  </scstep>
  <scstep>
   <time name="dav">   28.96   29.03</time>
   <time name="total">   29.47   29.55</time>
   <energy>
    <i name="e_fr_energy">   -191.75976882 </i>
    <i name="e_wo_entrp">   -191.59868918 </i>
    <i name="e_0_energy">   -191.67922900 </i>
   </energy>
  </scstep>
  <scstep>
   <time name="dav">   30.81   30.89</time>
   <time name="total">   31.32   31.40</time>
   <energy>
    <i name="e_fr_energy">   -191.79424070 </i>
    <i name="e_wo_entrp">   -191.60341552 </i>
    <i name="e_0_energy">   -191.69882811 </i>
   </energy>
  </scstep>
  <scstep>
   <time name="dav">   30.69   30.76</time>
   <time name="total">   31.20   31.29</time>
   <energy>
    <i name="e_fr_energy">   -191.62910771 </i>
    <i name="e_wo_entrp">   -191.45341116 </i>
    <i name="e_0_energy">   -191.54125944 </i>
   </energy>
  </scstep>
  <scstep>
   <time name="dav">   31.87   31.95</time>
   <time name="total">   32.38   32.46</time>
   <energy>
    <i name="e_fr_energy">   -191.60497127 </i>
    <i name="e_wo_entrp">   -191.43924431 </i>
    <i name="e_0_energy">   -191.52210779 </i>
   </energy>
  </scstep>
  <scstep>
   <time name="dav">   32.26   32.34</time>
   <time name="total">   32.78   32.86</time>
   <energy>
    <i name="e_fr_energy">   -191.58679466 </i>
    <i name="e_wo_entrp">   -191.41265017 </i>
    <i name="e_0_energy">   -191.49972241 </i>
   </energy>
  </scstep>
  <scstep>
   <time name="dav">   32.39   32.47</time>
   <time name="total">   32.90   32.98</time>
   <energy>
    <i name="e_fr_energy">   -191.57979228 </i>
    <i name="e_wo_entrp">   -191.40775152 </i>
    <i name="e_0_energy">   -191.49377190 </i>
   </energy>
  </scstep>
  <scstep>
   <time name="dav">   32.19   32.27</time>
   <time name="total">   32.71   32.79</time>
   <energy>
    <i name="e_fr_energy">   -191.58099211 </i>
    <i name="e_wo_entrp">   -191.40874352 </i>
    <i name="e_0_energy">   -191.49486782 </i>
   </energy>
  </scstep>
  <scstep>
   <time name="dav">   30.77   30.85</time>
   <time name="total">   31.28   31.36</time>
   <energy>
    <i name="e_fr_energy">   -191.57971885 </i>
    <i name="e_wo_entrp">   -191.40717186 </i>
    <i name="e_0_energy">   -191.49344535 </i>
   </energy>
  </scstep>
  <scstep>
   <time name="dav">   19.69   19.74</time>
   <time name="total">   19.73   19.79</time>
   <energy>
    <i name="alphaZ">     90.13277978 </i>
    <i name="ewald">  44648.70821896 </i>
    <i name="hartreedc"> -50657.85350040 </i>
    <i name="XCdc">   -233.34267596 </i>
    <i name="pawpsdc">   4088.73363071 </i>
    <i name="pawaedc">  -3504.71650027 </i>
    <i name="eentropy">     -0.17236218 </i>
    <i name="bandstr">  -1384.51186048 </i>
    <i name="atom">   6761.44252427 </i>
    <i name="e_fr_energy">   -191.57974555 </i>
    <i name="e_wo_entrp">   -191.40738337 </i>
    <i name="e_0_energy">   -191.49356446 </i>
   </energy>
  </scstep>
  <structure>
   <crystal>
    <varray name="basis" >
     <v>       8.28060139       4.79305199       0.00000000 </v>
     <v>      -8.26989427       4.77454281       0.00000000 </v>
     <v>       0.00000000       0.00000000      30.00000000 </v>
    </varray>
    <i name="volume">   2375.22356970 </i>
    <varray name="rec_basis" >
     <v>       0.06030434       0.10445199       0.00000000 </v>
     <v>      -0.06053812       0.10458722       0.00000000 </v>
     <v>       0.00000000       0.00000000       0.03333333 </v>
    </varray>
   </crystal>
   <varray name="positions" >
    <v>       0.34219351       0.67100459       0.00037834 </v>
    <v>       0.99288023       0.32969828      -0.00054884 </v>
    <v>       0.34217860       0.33777091       0.00039420 </v>
    <v>       0.66433626       0.00057628      -0.00008273 </v>
    <v>       0.66419777       0.33028100      -0.00008016 </v>
    <v>       0.68060385       0.67364930       0.00014139 </v>
    <v>      -0.01897725      -0.01448747      -0.00018754 </v>
    <v>      -0.01884401       0.66220655      -0.00020095 </v>
    <v>       0.35367399       0.01018619       0.00020976 </v>
    <v>       0.11336834       0.22675425       0.95170113 </v>
    <v>       0.22371480       0.11534932       0.04933282 </v>
    <v>       0.11332766       0.55318025       0.95169769 </v>
    <v>       0.22203010       0.44430681       0.04765484 </v>
    <v>       0.11203559       0.88938017       0.94920615 </v>
    <v>       0.22371652       0.77489758       0.04934287 </v>
    <v>       0.44093163       0.22507772       0.94763447 </v>
    <v>       0.55601683       0.11128739       0.05387187 </v>
    <v>       0.43888137       0.55268067       0.95019728 </v>
    <v>       0.54915874       0.44164448       0.05163976 </v>
    <v>       0.44095871       0.88252368       0.94763399 </v>
    <v>       0.54916799       0.77408785       0.05164738 </v>
    <v>       0.78448388       0.22556889       0.94793043 </v>
    <v>       0.89228129       0.11690824       0.05173474 </v>
    <v>       0.77710745       0.55492203       0.94597216 </v>
    <v>       0.89230440       0.44198581       0.05172044 </v>
    <v>       0.77712230       0.88884475       0.94595891 </v>
    <v>       0.88936389       0.77792895       0.05509953 </v>
   </varray>
  </structure>
  <varray name="forces" >
   <v>       0.24270723       0.27122588       0.01984494 </v>
   <v>      -0.09091228      -0.15759773      -0.01754039 </v>
   <v>       0.11642648       0.34598949       0.01857491 </v>
   <v>      -0.16522082       0.02270648       0.01126663 </v>
   <v>       0.10657720      -0.12992371       0.01278874 </v>
   <v>       0.08001631       0.13797944      -0.13332946 </v>
   <v>      -0.13833345      -0.51132253       0.11948572 </v>
   <v>      -0.37879790      -0.37961545       0.11848800 </v>
   <v>       0.31200972       0.53356071      -0.11107256 </v>
   <v>       0.11775166      -0.21559625       0.17713444 </v>
   <v>       0.06253624      -0.19140153      -0.34106844 </v>
   <v>      -0.24331513      -0.00393549       0.17553100 </v>
   <v>       0.01623506       0.02475899      -0.03084330 </v>
   <v>       0.06012936       0.10025103       0.34096324 </v>
   <v>      -0.19979161      -0.03476636      -0.34507036 </v>
   <v>       0.08053020       0.05566029      -0.15476561 </v>
   <v>       0.12161904       0.21210237       0.36589874 </v>
   <v>       0.08530457       0.15376022      -0.04495851 </v>
   <v>       0.00747375       0.17330736       0.05018734 </v>
   <v>       0.00882235       0.09612337      -0.15296804 </v>
   <v>       0.14322258       0.09499638       0.04755375 </v>
   <v>      -0.04547264      -0.08041729      -0.12940018 </v>
   <v>       0.02932089      -0.09369111       0.05415094 </v>
   <v>      -0.05111239      -0.21465754      -0.25286202 </v>
   <v>      -0.09650901      -0.02309889       0.05026278 </v>
   <v>      -0.15921619      -0.15501484      -0.25506012 </v>
   <v>      -0.02200123      -0.03138328       0.40680780 </v>
  </varray>
  <varray name="stress" >
   <v>      -0.01874252       0.38624384       0.24365079 </v>
   <v>       0.38624402       0.45448584       0.45792761 </v>
   <v>       0.24365081       0.45792747      -0.39520559 </v>
  </varray>
  <energy>
   <i name="e_fr_energy">   -191.57974555 </i>
   <i name="e_wo_entrp">   -191.49356446 </i>
   <i name="e_0_energy">     -0.17236218 </i>
  </energy>
  <time name="totalsc">  369.62  370.60</time>
 </calculation>
 <calculation>
  <scstep>
   <time name="dav">   23.13   23.19</time>
   <time name="total">   23.64   23.70</time>
   <energy>
    <i name="alphaZ">     90.00372251 </i>
    <i name="ewald">  44568.34471712 </i>
    <i name="hartreedc"> -50576.86605300 </i>
    <i name="XCdc">   -233.52686428 </i>
    <i name="pawpsdc">   4088.69673002 </i>
    <i name="pawaedc">  -3504.67490279 </i>
    <i name="eentropy">     -0.16703350 </i>
    <i name="bandstr">  -1384.94253830 </i>
    <i name="atom">   6761.44252427 </i>
    <i name="e_fr_energy">   -191.68969794 </i>
    <i name="e_wo_entrp">   -191.52266445 </i>
    <i name="e_0_energy">   -191.60618120 </i>
   </energy>
  </scstep>
  <scstep>
   <time name="dav">   33.88   33.96</time>
   <time name="total">   34.40   34.49</time>
   <energy>
    <i name="e_fr_energy">   -191.76029909 </i>
    <i name="e_wo_entrp">   -191.57430596 </i>
    <i name="e_0_energy">   -191.66730253 </i>
   </energy>
  </scstep>
  <scstep>
   <time name="dav">   32.66   32.74</time>
   <time name="total">   33.16   33.25</time>
   <energy>
    <i name="e_fr_energy">   -191.70862451 </i>
    <i name="e_wo_entrp">   -191.53984779 </i>
    <i name="e_0_energy">   -191.62423615 </i>
   </energy>
  </scstep>
  <scstep>
   <time name="dav">   30.37   30.44</time>
   <time name="total">   30.88   30.96</time>
   <energy>
    <i name="e_fr_energy">   -191.70929563 </i>
    <i name="e_wo_entrp">   -191.53975799 </i>
    <i name="e_0_energy">   -191.62452681 </i>
   </energy>
  </scstep>
  <scstep>
   <time name="dav">   30.88   30.95</time>
   <time name="total">   31.38   31.47</time>
   <energy>
    <i name="e_fr_energy">   -191.70597138 </i>
    <i name="e_wo_entrp">   -191.53453990 </i>
    <i name="e_0_energy">   -191.62025564 </i>
   </energy>
  </scstep>
  <scstep>
   <time name="dav">   30.48   30.55</time>
   <time name="total">   30.98   31.07</time>
   <energy>
    <i name="e_fr_energy">   -191.70544533 </i>
    <i name="e_wo_entrp">   -191.53455983 </i>
    <i name="e_0_energy">   -191.62000258 </i>
   </energy>
  </scstep>
  <scstep>
   <time name="dav">   29.42   29.49</time>
   <time name="total">   29.92   30.00</time>
   <energy>
    <i name="e_fr_energy">   -191.70516486 </i>
    <i name="e_wo_entrp">   -191.53467789 </i>
    <i name="e_0_energy">   -191.61992137 </i>
   </energy>
  </scstep>
  <scstep>
   <time name="dav">   19.34   19.39</time>
   <time name="total">   19.38   19.43</time>
   <energy>
    <i name="alphaZ">     90.00372251 </i>
    <i name="ewald">  44568.34471712 </i>
    <i name="hartreedc"> -50579.01936548 </i>
    <i name="XCdc">   -233.45285220 </i>
    <i name="pawpsdc">   4085.61971143 </i>
    <i name="pawaedc">  -3501.54623121 </i>
    <i name="eentropy">     -0.17058485 </i>
    <i name="bandstr">  -1382.92683796 </i>
    <i name="atom">   6761.44252427 </i>
    <i name="e_fr_energy">   -191.70519637 </i>
    <i name="e_wo_entrp">   -191.53461152 </i>
    <i name="e_0_energy">   -191.61990395 </i>
   </energy>
  </scstep>
  <structure>
   <crystal>
    <varray name="basis" >
     <v>       8.28626485       4.80766780       0.00000000 </v>
     <v>      -8.26602176       4.77264022       0.00000000 </v>
     <v>       0.00000000       0.00000000      30.00000000 </v>
    </varray>
    <i name="volume">   2378.62942740 </i>
    <varray name="rec_basis" >
     <v>       0.06019399       0.10425359       0.00000000 </v>
     <v>      -0.06063577       0.10450890       0.00000000 </v>
     <v>       0.00000000       0.00000000       0.03333333 </v>
    </varray>
   </crystal>
   <varray name="positions" >
    <v>       0.34418345       0.67162284       0.00040825 </v>
    <v>       0.99187764       0.32919728      -0.00057326 </v>
    <v>       0.34417728       0.33913560       0.00042219 </v>
    <v>       0.66399356       0.00115813      -0.00006619 </v>
    <v>       0.66387735       0.32935386      -0.00006123 </v>
    <v>       0.68141615       0.67405410      -0.00006779 </v>
    <v>      -0.02179450      -0.01653009       0.00000289 </v>
    <v>      -0.02169668       0.66142643      -0.00001220 </v>
    <v>       0.35708864       0.01187592       0.00003190 </v>
    <v>       0.11263217       0.22533993       0.95199285 </v>
    <v>       0.22294699       0.11421492       0.04878338 </v>
    <v>       0.11260858       0.55386279       0.95198661 </v>
    <v>       0.22220126       0.44438271       0.04759073 </v>
    <v>       0.11269717       0.88970076       0.94975731 </v>
    <v>       0.22297538       0.77530495       0.04878679 </v>
    <v>       0.44143765       0.22510847       0.94742075 </v>
    <v>       0.55739716       0.11198122       0.05441631 </v>
    <v>       0.43988885       0.55320095       0.95014744 </v>
    <v>       0.55004662       0.44248324       0.05169320 </v>
    <v>       0.44146096       0.88299063       0.94742277 </v>
    <v>       0.55005608       0.77415505       0.05169668 </v>
    <v>       0.78394262       0.22529405       0.94775472 </v>
    <v>       0.89190056       0.11634773       0.05179436 </v>
    <v>       0.77591568       0.55401487       0.94560682 </v>
    <v>       0.89191459       0.44215845       0.05177368 </v>
    <v>       0.77591674       0.88853967       0.94559012 </v>
    <v>       0.88915248       0.77783999       0.05570081 </v>
   </varray>
  </structure>
  <varray name="forces" >
   <v>       0.27848329       0.26823705       0.04257632 </v>
   <v>      -0.08663711      -0.15455952      -0.07040852 </v>
   <v>       0.10643598       0.37943822       0.04147833 </v>
   <v>      -0.16277552       0.05986763       0.01096587 </v>
   <v>       0.12603122      -0.11573461       0.01136969 </v>
   <v>       0.07423607       0.12327182      -0.06076783 </v>
   <v>      -0.18403139      -0.51962844       0.02257357 </v>
   <v>      -0.36035264      -0.42072778       0.02407874 </v>
   <v>       0.30088476       0.53274583      -0.00315097 </v>
   <v>       0.09372448      -0.15192318       0.23439787 </v>
   <v>       0.05432507      -0.14417955      -0.36482577 </v>
   <v>      -0.17825719       0.00344136       0.23183600 </v>
   <v>       0.01550240       0.02328981      -0.09416984 </v>
   <v>       0.04899351       0.08148749       0.37108531 </v>
   <v>      -0.15698571      -0.02231144      -0.36484846 </v>
   <v>       0.04900458       0.06967967      -0.14337373 </v>
   <v>       0.07067094       0.12328676       0.23786596 </v>
   <v>       0.04557567       0.07668511      -0.09287909 </v>
   <v>       0.01318822       0.09680030       0.02645285 </v>
   <v>       0.03602121       0.07750637      -0.14423082 </v>
   <v>       0.07713825       0.06425885       0.02873450 </v>
   <v>      -0.02384665      -0.04399113      -0.09619558 </v>
   <v>      -0.00317570      -0.06283998       0.08063581 </v>
   <v>      -0.01640389      -0.13097794      -0.15004953 </v>
   <v>      -0.05339626      -0.03325690       0.07918563 </v>
   <v>      -0.10345720      -0.07992441      -0.14822528 </v>
   <v>      -0.06089639      -0.09994138       0.28988899 </v>
  </varray>
  <varray name="stress" >
   <v>      -0.05188908       0.02502379       0.01460102 </v>
   <v>       0.02502392      -0.01841604       0.06365314 </v>
   <v>       0.01460096       0.06365309      -1.30276855 </v>
  </varray>
  <energy>
   <i name="e_fr_energy">   -191.70519637 </i>
   <i name="e_wo_entrp">   -191.61990395 </i>
   <i name="e_0_energy">     -0.17058485 </i>
  </energy>
  <time name="totalsc">  278.03  278.76</time>
 </calculation>
 <calculation>
  <scstep>
   <time name="dav">   23.15   23.21</time>
   <time name="total">   23.66   23.71</time>
   <energy>
    <i name="alphaZ">     90.03536146 </i>
    <i name="ewald">  44586.66023600 </i>
    <i name="hartreedc"> -50597.23724684 </i>
    <i name="XCdc">   -233.42967037 </i>
    <i name="pawpsdc">   4085.55502167 </i>
    <i name="pawaedc">  -3501.48088122 </i>
    <i name="eentropy">     -0.16055905 </i>
    <i name="bandstr">  -1383.21927198 </i>
    <i name="atom">   6761.44252427 </i>
    <i name="e_fr_energy">   -191.83448605 </i>
    <i name="e_wo_entrp">   -191.67392700 </i>
    <i name="e_0_energy">   -191.75420653 </i>
   </energy>
  </scstep>
  <scstep>
   <time name="dav">   32.29   32.37</time>
   <time name="total">   32.80   32.88</time>
   <energy>
    <i name="e_fr_energy">   -191.90317633 </i>
    <i name="e_wo_entrp">   -191.72488841 </i>
    <i name="e_0_energy">   -191.81403237 </i>
   </energy>
  </scstep>
  <scstep>
   <time name="dav">   32.57   32.65</time>
   <time name="total">   33.07   33.16</time>
   <energy>
    <i name="e_fr_energy">   -191.86509007 </i>
    <i name="e_wo_entrp">   -191.70482844 </i>
    <i name="e_0_energy">   -191.78495926 </i>
   </energy>
  </scstep>
  <scstep>
   <time name="dav">   32.39   32.47</time>
   <time name="total">   32.90   32.99</time>
   <energy>
    <i name="e_fr_energy">   -191.86397229 </i>
    <i name="e_wo_entrp">   -191.70222030 </i>
    <i name="e_0_energy">   -191.78309630 </i>
   </energy>
  </scstep>
  <scstep>
   <time name="dav">   32.32   32.40</time>
   <time name="total">   32.83   32.92</time>
   <energy>
    <i name="e_fr_energy">   -191.85855258 </i>
    <i name="e_wo_entrp">   -191.69448169 </i>
    <i name="e_0_energy">   -191.77651714 </i>
   </energy>
  </scstep>
  <scstep>
   <time name="dav">   32.45   32.53</time>
   <time name="total">   32.96   33.05</time>
   <energy>
    <i name="e_fr_energy">   -191.85787681 </i>
    <i name="e_wo_entrp">   -191.69408328 </i>
    <i name="e_0_energy">   -191.77598005 </i>
   </energy>
  </scstep>
  <scstep>
   <time name="dav">   28.43   28.49</time>
   <time name="total">   28.93   29.01</time>
   <energy>
    <i name="e_fr_energy">   -191.85726033 </i>
    <i name="e_wo_entrp">   -191.69389011 </i>
    <i name="e_0_energy">   -191.77557522 </i>
   </energy>
  </scstep>
  <scstep>
   <time name="dav">   26.54   26.60</time>
   <time name="total">   26.58   26.65</time>
   <energy>
    <i name="alphaZ">     90.03536146 </i>
    <i name="ewald">  44586.66023600 </i>
    <i name="hartreedc"> -50597.80459859 </i>
    <i name="XCdc">   -233.40313606 </i>
    <i name="pawpsdc">   4090.22482313 </i>
    <i name="pawaedc">  -3506.20197486 </i>
    <i name="eentropy">     -0.16334539 </i>
    <i name="bandstr">  -1382.64721107 </i>
    <i name="atom">   6761.44252427 </i>
    <i name="e_fr_energy">   -191.85732112 </i>
    <i name="e_wo_entrp">   -191.69397572 </i>
    <i name="e_0_energy">   -191.77564842 </i>
   </energy>
  </scstep>
  <structure>
   <crystal>
    <varray name="basis" >
     <v>       8.28473874       4.80797524       0.00000000 </v>
     <v>      -8.26353910       4.77129035       0.00000000 </v>
     <v>       0.00000000       0.00000000      30.00000000 </v>
    </varray>
    <i name="volume">   2377.79356324 </i>
    <varray name="rec_basis" >
     <v>       0.06019812       0.10425891       0.00000000 </v>
     <v>      -0.06066097       0.10452638       0.00000000 </v>
[...]
      <set comment="kpoint 31">
       <r>  -17.5282    1.0000 </r>
       <r>  -17.2901    1.0000 </r>
       <r>  -16.9220    1.0000 </r>
       <r>  -16.6108    1.0000 </r>
       <r>  -16.5816    1.0000 </r>
       <r>  -16.4653    1.0000 </r>
       <r>  -16.2804    1.0000 </r>
       <r>  -16.2034    1.0000 </r>
       <r>  -16.1205    1.0000 </r>
       <r>  -16.0762    1.0000 </r>
       <r>  -15.9673    1.0000 </r>
       <r>  -15.8505    1.0000 </r>
       <r>  -15.7463    1.0000 </r>
       <r>  -15.6932    1.0000 </r>
       <r>  -15.6085    1.0000 </r>
       <r>  -15.4299    1.0000 </r>
       <r>  -15.3392    1.0000 </r>
       <r>  -15.2055    1.0000 </r>
       <r>   -9.7748    1.0000 </r>
       <r>   -9.4764    1.0000 </r>
       <r>   -9.3612    1.0000 </r>
       <r>   -8.9233    1.0000 </r>
       <r>   -8.8493    1.0000 </r>
       <r>   -8.7766    1.0000 </r>
       <r>   -8.6666    1.0000 </r>
       <r>   -8.6144    1.0000 </r>
       <r>   -8.4232    1.0000 </r>
       <r>   -8.2913    1.0000 </r>
       <r>   -8.2376    1.0000 </r>
       <r>   -8.1747    1.0000 </r>
       <r>   -8.1109    1.0000 </r>
       <r>   -8.0631    1.0000 </r>
       <r>   -7.9928    1.0000 </r>
       <r>   -7.9036    1.0000 </r>
       <r>   -7.8091    1.0000 </r>
       <r>   -7.6800    1.0000 </r>
       <r>   -7.6085    1.0000 </r>
       <r>   -7.5508    1.0000 </r>
       <r>   -7.3986    1.0000 </r>
       <r>   -7.2850    1.0000 </r>
       <r>   -7.1840    1.0000 </r>
       <r>   -7.0159    1.0000 </r>
       <r>   -6.9615    1.0000 </r>
       <r>   -6.9038    1.0000 </r>
       <r>   -6.8356    1.0000 </r>
       <r>   -6.7858    1.0000 </r>
       <r>   -6.6266    1.0000 </r>
       <r>   -6.5654    1.0000 </r>
       <r>   -6.5122    1.0000 </r>
       <r>   -6.4711    1.0000 </r>
       <r>   -6.3949    1.0000 </r>
       <r>   -6.3281    1.0000 </r>
       <r>   -6.2630    1.0000 </r>
       <r>   -6.1965    1.0000 </r>
       <r>   -6.1169    1.0000 </r>
       <r>   -6.0225    1.0000 </r>
       <r>   -6.0127    1.0000 </r>
       <r>   -5.9051    1.0000 </r>
       <r>   -5.8368    1.0000 </r>
       <r>   -5.7200    1.0000 </r>
       <r>   -5.6596    1.0000 </r>
       <r>   -5.5356    1.0000 </r>
       <r>   -5.4722    1.0000 </r>
       <r>   -5.4592    1.0000 </r>
       <r>   -5.2001    1.0000 </r>
       <r>   -5.0750    1.0000 </r>
       <r>   -5.0542    1.0000 </r>
       <r>   -4.8861    1.0000 </r>
       <r>   -4.8214    1.0000 </r>
       <r>   -4.7249    1.0000 </r>
       <r>   -4.6459    1.0000 </r>
       <r>   -4.4821    1.0000 </r>
       <r>   -4.3010    1.0000 </r>
       <r>   -4.1255    1.0000 </r>
       <r>   -4.0288    1.0000 </r>
       <r>   -4.0191    1.0000 </r>
       <r>   -3.8487    1.0000 </r>
       <r>   -3.6854    0.9990 </r>
       <r>   -3.4510    0.9260 </r>
       <r>   -3.3504    0.7687 </r>
       <r>   -3.0207    0.0552 </r>
       <r>   -2.8964    0.0066 </r>
       <r>   -2.6740    0.0000 </r>
       <r>   -2.5863    0.0000 </r>
       <r>   -2.4491    0.0000 </r>
       <r>   -2.3585    0.0000 </r>
       <r>   -2.2177    0.0000 </r>
       <r>   -2.1151    0.0000 </r>
       <r>   -1.9304    0.0000 </r>
       <r>   -1.8413    0.0000 </r>
       <r>   -1.6533    0.0000 </r>
       <r>   -1.5567    0.0000 </r>
       <r>   -1.3958    0.0000 </r>
       <r>   -1.3835    0.0000 </r>
       <r>   -1.1810    0.0000 </r>
       <r>   -1.1176    0.0000 </r>
       <r>   -1.0451    0.0000 </r>
       <r>   -0.9685    0.0000 </r>
       <r>   -0.9415    0.0000 </r>
       <r>   -0.8733    0.0000 </r>
       <r>   -0.8232    0.0000 </r>
       <r>   -0.7147    0.0000 </r>
       <r>   -0.6175    0.0000 </r>
       <r>   -0.5553    0.0000 </r>
       <r>   -0.4854    0.0000 </r>
       <r>   -0.4055    0.0000 </r>
       <r>   -0.3449    0.0000 </r>
       <r>   -0.1064    0.0000 </r>
       <r>    0.0106    0.0000 </r>
       <r>    0.1360    0.0000 </r>
       <r>    0.3525    0.0000 </r>
       <r>    0.5858    0.0000 </r>
       <r>    0.7501    0.0000 </r>
       <r>    0.9903    0.0000 </r>
       <r>    1.1803    0.0000 </r>
       <r>    1.3024    0.0000 </r>
       <r>    1.5733    0.0000 </r>
       <r>    2.1622    0.0000 </r>
       <r>    2.3111    0.0000 </r>
       <r>    2.4201    0.0000 </r>
      </set>
      <set comment="kpoint 32">
       <r>  -17.5431    1.0000 </r>
       <r>  -17.2116    1.0000 </r>
       <r>  -17.0408    1.0000 </r>
       <r>  -16.6057    1.0000 </r>
       <r>  -16.5745    1.0000 </r>
       <r>  -16.3232    1.0000 </r>
       <r>  -16.2910    1.0000 </r>
       <r>  -16.2133    1.0000 </r>
       <r>  -16.1596    1.0000 </r>
       <r>  -16.0693    1.0000 </r>
       <r>  -16.0451    1.0000 </r>
       <r>  -15.8542    1.0000 </r>
       <r>  -15.7427    1.0000 </r>
       <r>  -15.6880    1.0000 </r>
       <r>  -15.5814    1.0000 </r>
       <r>  -15.4297    1.0000 </r>
       <r>  -15.3396    1.0000 </r>
       <r>  -15.2057    1.0000 </r>
       <r>   -9.6942    1.0000 </r>
       <r>   -9.6057    1.0000 </r>
       <r>   -9.4164    1.0000 </r>
       <r>   -8.9062    1.0000 </r>
       <r>   -8.7643    1.0000 </r>
       <r>   -8.7013    1.0000 </r>
       <r>   -8.6242    1.0000 </r>
       <r>   -8.4961    1.0000 </r>
       <r>   -8.3791    1.0000 </r>
       <r>   -8.3632    1.0000 </r>
       <r>   -8.3109    1.0000 </r>
       <r>   -8.2151    1.0000 </r>
       <r>   -8.1691    1.0000 </r>
       <r>   -8.1199    1.0000 </r>
       <r>   -8.0066    1.0000 </r>
       <r>   -7.9600    1.0000 </r>
       <r>   -7.8486    1.0000 </r>
       <r>   -7.6275    1.0000 </r>
       <r>   -7.5756    1.0000 </r>
       <r>   -7.5304    1.0000 </r>
       <r>   -7.3700    1.0000 </r>
       <r>   -7.3416    1.0000 </r>
       <r>   -7.1185    1.0000 </r>
       <r>   -7.0737    1.0000 </r>
       <r>   -6.9704    1.0000 </r>
       <r>   -6.9096    1.0000 </r>
       <r>   -6.8332    1.0000 </r>
       <r>   -6.6885    1.0000 </r>
       <r>   -6.6428    1.0000 </r>
       <r>   -6.5678    1.0000 </r>
       <r>   -6.5374    1.0000 </r>
       <r>   -6.4706    1.0000 </r>
       <r>   -6.4218    1.0000 </r>
       <r>   -6.3350    1.0000 </r>
       <r>   -6.3254    1.0000 </r>
       <r>   -6.2119    1.0000 </r>
       <r>   -6.0286    1.0000 </r>
       <r>   -5.9940    1.0000 </r>
       <r>   -5.9557    1.0000 </r>
       <r>   -5.9058    1.0000 </r>
       <r>   -5.7981    1.0000 </r>
       <r>   -5.7431    1.0000 </r>
       <r>   -5.6497    1.0000 </r>
       <r>   -5.5763    1.0000 </r>
       <r>   -5.5208    1.0000 </r>
       <r>   -5.4079    1.0000 </r>
       <r>   -5.1776    1.0000 </r>
       <r>   -5.0879    1.0000 </r>
       <r>   -4.9850    1.0000 </r>
       <r>   -4.8825    1.0000 </r>
       <r>   -4.8387    1.0000 </r>
       <r>   -4.8052    1.0000 </r>
       <r>   -4.7496    1.0000 </r>
       <r>   -4.4739    1.0000 </r>
       <r>   -4.2894    1.0000 </r>
       <r>   -4.1023    1.0000 </r>
       <r>   -4.0330    1.0000 </r>
       <r>   -4.0173    1.0000 </r>
       <r>   -3.8279    1.0000 </r>
       <r>   -3.6661    0.9985 </r>
       <r>   -3.4635    0.9375 </r>
       <r>   -3.3364    0.7375 </r>
       <r>   -3.0386    0.0708 </r>
       <r>   -2.8594    0.0031 </r>
       <r>   -2.6878    0.0000 </r>
       <r>   -2.5724    0.0000 </r>
       <r>   -2.4352    0.0000 </r>
       <r>   -2.3829    0.0000 </r>
       <r>   -2.2428    0.0000 </r>
       <r>   -2.1300    0.0000 </r>
       <r>   -1.9265    0.0000 </r>
       <r>   -1.8420    0.0000 </r>
       <r>   -1.6578    0.0000 </r>
       <r>   -1.5541    0.0000 </r>
       <r>   -1.4115    0.0000 </r>
       <r>   -1.3894    0.0000 </r>
       <r>   -1.1663    0.0000 </r>
       <r>   -1.1455    0.0000 </r>
       <r>   -0.9825    0.0000 </r>
       <r>   -0.9656    0.0000 </r>
       <r>   -0.9509    0.0000 </r>
       <r>   -0.8541    0.0000 </r>
       <r>   -0.8293    0.0000 </r>
       <r>   -0.7122    0.0000 </r>
       <r>   -0.6212    0.0000 </r>
       <r>   -0.5251    0.0000 </r>
       <r>   -0.4661    0.0000 </r>
       <r>   -0.4289    0.0000 </r>
       <r>   -0.3476    0.0000 </r>
       <r>   -0.1206    0.0000 </r>
       <r>   -0.0030    0.0000 </r>
       <r>    0.1083    0.0000 </r>
       <r>    0.4140    0.0000 </r>
       <r>    0.5935    0.0000 </r>
       <r>    0.7185    0.0000 </r>
       <r>    0.9465    0.0000 </r>
       <r>    1.2076    0.0000 </r>
       <r>    1.2802    0.0000 </r>
       <r>    1.5756    0.0000 </r>
       <r>    2.1309    0.0000 </r>
       <r>    2.2769    0.0000 </r>
       <r>    2.6029    0.0000 </r>
      </set>
      <set comment="kpoint 33">
       <r>  -17.5273    1.0000 </r>
       <r>  -17.2909    1.0000 </r>
       <r>  -16.9222    1.0000 </r>
       <r>  -16.6126    1.0000 </r>
       <r>  -16.5780    1.0000 </r>
       <r>  -16.4693    1.0000 </r>
       <r>  -16.2773    1.0000 </r>
       <r>  -16.2017    1.0000 </r>
       <r>  -16.1253    1.0000 </r>
       <r>  -16.0762    1.0000 </r>
       <r>  -15.9662    1.0000 </r>
       <r>  -15.8492    1.0000 </r>
       <r>  -15.7483    1.0000 </r>
       <r>  -15.6917    1.0000 </r>
       <r>  -15.6075    1.0000 </r>
       <r>  -15.4304    1.0000 </r>
       <r>  -15.3390    1.0000 </r>
       <r>  -15.2055    1.0000 </r>
       <r>   -9.7752    1.0000 </r>
       <r>   -9.4768    1.0000 </r>
       <r>   -9.3628    1.0000 </r>
       <r>   -8.9224    1.0000 </r>
       <r>   -8.8485    1.0000 </r>
       <r>   -8.7771    1.0000 </r>
       <r>   -8.6671    1.0000 </r>
       <r>   -8.6182    1.0000 </r>
       <r>   -8.4221    1.0000 </r>
       <r>   -8.2905    1.0000 </r>
       <r>   -8.2352    1.0000 </r>
       <r>   -8.1762    1.0000 </r>
       <r>   -8.1099    1.0000 </r>
       <r>   -8.0591    1.0000 </r>
       <r>   -7.9904    1.0000 </r>
       <r>   -7.9045    1.0000 </r>
       <r>   -7.8097    1.0000 </r>
       <r>   -7.6722    1.0000 </r>
       <r>   -7.6203    1.0000 </r>
       <r>   -7.5528    1.0000 </r>
       <r>   -7.4014    1.0000 </r>
       <r>   -7.2889    1.0000 </r>
       <r>   -7.1867    1.0000 </r>
       <r>   -7.0121    1.0000 </r>
       <r>   -6.9610    1.0000 </r>
       <r>   -6.8990    1.0000 </r>
       <r>   -6.8345    1.0000 </r>
       <r>   -6.7797    1.0000 </r>
       <r>   -6.6305    1.0000 </r>
       <r>   -6.5633    1.0000 </r>
       <r>   -6.5157    1.0000 </r>
       <r>   -6.4786    1.0000 </r>
       <r>   -6.3900    1.0000 </r>
       <r>   -6.3305    1.0000 </r>
       <r>   -6.2618    1.0000 </r>
       <r>   -6.1913    1.0000 </r>
       <r>   -6.1103    1.0000 </r>
       <r>   -6.0201    1.0000 </r>
       <r>   -6.0116    1.0000 </r>
       <r>   -5.9096    1.0000 </r>
       <r>   -5.8410    1.0000 </r>
       <r>   -5.7215    1.0000 </r>
       <r>   -5.6560    1.0000 </r>
       <r>   -5.5352    1.0000 </r>
       <r>   -5.4714    1.0000 </r>
       <r>   -5.4604    1.0000 </r>
       <r>   -5.2000    1.0000 </r>
       <r>   -5.0754    1.0000 </r>
       <r>   -5.0533    1.0000 </r>
       <r>   -4.8824    1.0000 </r>
       <r>   -4.8218    1.0000 </r>
       <r>   -4.7247    1.0000 </r>
       <r>   -4.6512    1.0000 </r>
       <r>   -4.4843    1.0000 </r>
       <r>   -4.3044    1.0000 </r>
       <r>   -4.1288    1.0000 </r>
       <r>   -4.0308    1.0000 </r>
       <r>   -4.0181    1.0000 </r>
       <r>   -3.8416    1.0000 </r>
       <r>   -3.6781    0.9989 </r>
       <r>   -3.4805    0.9510 </r>
       <r>   -3.3276    0.7170 </r>
       <r>   -3.0228    0.0568 </r>
       <r>   -2.8991    0.0070 </r>
       <r>   -2.6736    0.0000 </r>
       <r>   -2.5884    0.0000 </r>
       <r>   -2.4507    0.0000 </r>
       <r>   -2.3542    0.0000 </r>
       <r>   -2.2176    0.0000 </r>
       <r>   -2.1154    0.0000 </r>
       <r>   -1.9252    0.0000 </r>
       <r>   -1.8397    0.0000 </r>
       <r>   -1.6590    0.0000 </r>
       <r>   -1.5639    0.0000 </r>
       <r>   -1.3955    0.0000 </r>
       <r>   -1.3761    0.0000 </r>
       <r>   -1.1828    0.0000 </r>
       <r>   -1.1183    0.0000 </r>
       <r>   -1.0414    0.0000 </r>
       <r>   -0.9669    0.0000 </r>
       <r>   -0.9380    0.0000 </r>
       <r>   -0.8719    0.0000 </r>
       <r>   -0.8276    0.0000 </r>
       <r>   -0.7165    0.0000 </r>
       <r>   -0.6181    0.0000 </r>
       <r>   -0.5606    0.0000 </r>
       <r>   -0.4799    0.0000 </r>
       <r>   -0.4049    0.0000 </r>
       <r>   -0.3440    0.0000 </r>
       <r>   -0.1119    0.0000 </r>
       <r>    0.0125    0.0000 </r>
       <r>    0.1374    0.0000 </r>
       <r>    0.3550    0.0000 </r>
       <r>    0.5881    0.0000 </r>
       <r>    0.7512    0.0000 </r>
       <r>    0.9853    0.0000 </r>
       <r>    1.1793    0.0000 </r>
       <r>    1.3063    0.0000 </r>
       <r>    1.5711    0.0000 </r>
       <r>    2.1627    0.0000 </r>
       <r>    2.3111    0.0000 </r>
       <r>    2.4215    0.0000 </r>
      </set>
      <set comment="kpoint 34">
       <r>  -17.5056    1.0000 </r>
       <r>  -17.3495    1.0000 </r>
       <r>  -16.7428    1.0000 </r>
       <r>  -16.7162    1.0000 </r>
       <r>  -16.5826    1.0000 </r>
       <r>  -16.5554    1.0000 </r>
       <r>  -16.2759    1.0000 </r>
       <r>  -16.1972    1.0000 </r>
       <r>  -16.1188    1.0000 </r>
       <r>  -16.0802    1.0000 </r>
       <r>  -15.8763    1.0000 </r>
       <r>  -15.8371    1.0000 </r>
       <r>  -15.7706    1.0000 </r>
       <r>  -15.6965    1.0000 </r>
       <r>  -15.6395    1.0000 </r>
       <r>  -15.4309    1.0000 </r>
       <r>  -15.3385    1.0000 </r>
       <r>  -15.2054    1.0000 </r>
       <r>   -9.8151    1.0000 </r>
       <r>   -9.3527    1.0000 </r>
       <r>   -9.3036    1.0000 </r>
       <r>   -9.0067    1.0000 </r>
       <r>   -8.9372    1.0000 </r>
       <r>   -8.8313    1.0000 </r>
       <r>   -8.6818    1.0000 </r>
       <r>   -8.6626    1.0000 </r>
       <r>   -8.4393    1.0000 </r>
       <r>   -8.2911    1.0000 </r>
       <r>   -8.2263    1.0000 </r>
       <r>   -8.1320    1.0000 </r>
       <r>   -8.0807    1.0000 </r>
       <r>   -8.0089    1.0000 </r>
       <r>   -7.9171    1.0000 </r>
       <r>   -7.8447    1.0000 </r>
       <r>   -7.7499    1.0000 </r>
       <r>   -7.6824    1.0000 </r>
       <r>   -7.6417    1.0000 </r>
       <r>   -7.6009    1.0000 </r>
       <r>   -7.4695    1.0000 </r>
       <r>   -7.3367    1.0000 </r>
       <r>   -7.0898    1.0000 </r>
       <r>   -7.0755    1.0000 </r>
       <r>   -6.9963    1.0000 </r>
       <r>   -6.8560    1.0000 </r>
       <r>   -6.8228    1.0000 </r>
       <r>   -6.7127    1.0000 </r>
       <r>   -6.6528    1.0000 </r>
       <r>   -6.5889    1.0000 </r>
       <r>   -6.5229    1.0000 </r>
       <r>   -6.4601    1.0000 </r>
       <r>   -6.4120    1.0000 </r>
       <r>   -6.3422    1.0000 </r>
       <r>   -6.2679    1.0000 </r>
       <r>   -6.1832    1.0000 </r>
       <r>   -6.1071    1.0000 </r>
       <r>   -6.0936    1.0000 </r>
       <r>   -6.0105    1.0000 </r>
       <r>   -5.8466    1.0000 </r>
       <r>   -5.8161    1.0000 </r>
       <r>   -5.7883    1.0000 </r>
       <r>   -5.6262    1.0000 </r>
       <r>   -5.5930    1.0000 </r>
       <r>   -5.5298    1.0000 </r>
       <r>   -5.4070    1.0000 </r>
       <r>   -5.2181    1.0000 </r>
       <r>   -5.0689    1.0000 </r>
       <r>   -4.9955    1.0000 </r>
       <r>   -4.9521    1.0000 </r>
       <r>   -4.8319    1.0000 </r>
       <r>   -4.6291    1.0000 </r>
       <r>   -4.5851    1.0000 </r>
       <r>   -4.4529    1.0000 </r>
       <r>   -4.3296    1.0000 </r>
       <r>   -4.1778    1.0000 </r>
       <r>   -4.0306    1.0000 </r>
       <r>   -4.0158    1.0000 </r>
       <r>   -3.8579    1.0000 </r>
       <r>   -3.6902    0.9991 </r>
       <r>   -3.4876    0.9559 </r>
       <r>   -3.3263    0.7139 </r>
       <r>   -2.9852    0.0323 </r>
       <r>   -2.9567    0.0202 </r>
       <r>   -2.6549    0.0000 </r>
       <r>   -2.6103    0.0000 </r>
       <r>   -2.4608    0.0000 </r>
       <r>   -2.3300    0.0000 </r>
       <r>   -2.1917    0.0000 </r>
       <r>   -2.1011    0.0000 </r>
       <r>   -1.9228    0.0000 </r>
       <r>   -1.8442    0.0000 </r>
       <r>   -1.6606    0.0000 </r>
       <r>   -1.5697    0.0000 </r>
       <r>   -1.3842    0.0000 </r>
       <r>   -1.3558    0.0000 </r>
       <r>   -1.1955    0.0000 </r>
       <r>   -1.0898    0.0000 </r>
       <r>   -1.0712    0.0000 </r>
       <r>   -0.9988    0.0000 </r>
       <r>   -0.9270    0.0000 </r>
       <r>   -0.8924    0.0000 </r>
       <r>   -0.8245    0.0000 </r>
       <r>   -0.7097    0.0000 </r>
       <r>   -0.6336    0.0000 </r>
       <r>   -0.6036    0.0000 </r>
       <r>   -0.4831    0.0000 </r>
       <r>   -0.4067    0.0000 </r>
       <r>   -0.2928    0.0000 </r>
       <r>   -0.1245    0.0000 </r>
       <r>    0.0230    0.0000 </r>
       <r>    0.1969    0.0000 </r>
       <r>    0.2746    0.0000 </r>
       <r>    0.5876    0.0000 </r>
       <r>    0.7719    0.0000 </r>
       <r>    1.0436    0.0000 </r>
       <r>    1.1393    0.0000 </r>
       <r>    1.3269    0.0000 </r>
       <r>    1.5671    0.0000 </r>
       <r>    2.2521    0.0000 </r>
       <r>    2.2666    0.0000 </r>
       <r>    2.4061    0.0000 </r>
      </set>
     </set>
    </set>
   </array>
  </eigenvalues>
  <separator name="orbital magnetization" >
   <v name="MAGDIPOLOUT">      0.00000000      0.00000000      0.00000000</v>
  </separator>
 </calculation>
 <structure name="finalpos" >
  <crystal>
   <varray name="basis" >
    <v>       8.30615527       4.81956430       0.00000000 </v>
    <v>      -8.28738036       4.78705692       0.00000000 </v>
    <v>       0.00000000       0.00000000      30.00000000 </v>
   </varray>
   <i name="volume">   2391.10801826 </i>
   <varray name="rec_basis" >
    <v>       0.06006074       0.10397749       0.00000000 </v>
    <v>      -0.06046859       0.10421305       0.00000000 </v>
    <v>       0.00000000       0.00000000       0.03333333 </v>
   </varray>
  </crystal>
  <varray name="positions" >
   <v>       0.36812850       0.68492696      -0.00215389 </v>
   <v>       0.96705384       0.31673849       0.00198419 </v>
   <v>       0.36825060       0.34999994      -0.00211967 </v>
   <v>       0.66624304       0.00432656      -0.00019721 </v>
   <v>       0.66628683       0.32684951      -0.00020156 </v>
   <v>       0.67566767       0.67280547      -0.00029611 </v>
   <v>      -0.03907700      -0.02137355       0.00251888 </v>
   <v>      -0.03939538       0.64888812       0.00255647 </v>
   <v>       0.37324235       0.01976764      -0.00220764 </v>
   <v>       0.11083712       0.22330961       0.95737941 </v>
   <v>       0.22321150       0.11293695       0.04355967 </v>
   <v>       0.11071826       0.55411237       0.95745269 </v>
   <v>       0.22374353       0.44519780       0.04168209 </v>
   <v>       0.11171863       0.88910864       0.95575958 </v>
   <v>       0.22310563       0.77677462       0.04358972 </v>
   <v>       0.44760849       0.22661006       0.94420167 </v>
   <v>       0.56029472       0.11328048       0.05544262 </v>
   <v>       0.44362500       0.55526661       0.94658297 </v>
   <v>       0.55315229       0.44301114       0.05233474 </v>
   <v>       0.44747025       0.88731133       0.94417047 </v>
   <v>       0.55270985       0.77656301       0.05258954 </v>
   <v>       0.78249838       0.22440401       0.94594749 </v>
   <v>       0.88741439       0.11432539       0.05545208 </v>
   <v>       0.77250142       0.55196607       0.94529687 </v>
   <v>       0.88722931       0.43953024       0.05543274 </v>
   <v>       0.77310910       0.88765420       0.94500349 </v>
   <v>       0.88086613       0.77392279       0.05823863 </v>
  </varray>
 </structure>
</modeling>
