unknown system                          
           1
     8.855839    5.109447    0.000000
    -8.852036    5.102905    0.000000
     0.000000    0.000000   30.000000
   V    Mo   W    S 
   3   3   3  18
Direct configuration=     1
   0.33333334  0.66666669  0.00000000
   1.00000000  0.33333334  0.00000000
   0.33333334  0.33333334  0.00000000
   0.66666669  0.00000000  0.00000000
   0.66666669  0.33333334  0.00000000
   0.66666669  0.66666669  0.00000000
   0.00000000  0.00000000  0.00000000
   0.00000000  0.66666669  0.00000000
   0.33333334  0.00000000  0.00000000
   0.11068511  0.22244981  0.95539999
   0.22244981  0.11068511  0.04460000
   0.11068511  0.55578315  0.95539999
   0.22244981  0.44401845  0.04460000
   0.11068511  0.88911647  0.95539999
   0.22244981  0.77735180  0.04460000
   0.44401845  0.22244981  0.95539999
   0.55578315  0.11068511  0.04460000
   0.44401845  0.55578315  0.95539999
   0.55578315  0.44401845  0.04460000
   0.44401845  0.88911647  0.95539999
   0.55578315  0.77735180  0.04460000
   0.77735180  0.22244981  0.95539999
   0.88911647  0.11068511  0.04460000
   0.77735180  0.55578315  0.95539999
   0.88911647  0.44401845  0.04460000
   0.77735180  0.88911647  0.95539999
   0.88911647  0.77735180  0.04460000
unknown system                          
           1
     8.667680    5.002990    0.000000
    -8.664108    4.996845    0.000000
     0.000000    0.000000   30.000000
   V    Mo   W    S 
   3   3   3  18
Direct configuration=     2
   0.33514644  0.66677711  0.00005442
   0.99869852  0.33269401  0.00001454
   0.33507395  0.33496312  0.00007155
   0.66661968 -0.00001931 -0.00019018
   0.66661015  0.33325229 -0.00018801
   0.66656396  0.66665553  0.00021051
  -0.00286005 -0.00085402  0.00013284
  -0.00275196  0.66477544  0.00011142
   0.33644221  0.00147999 -0.00021209
   0.11255766  0.22563540  0.95314751
   0.22376187  0.11462336  0.04802279
   0.11277941  0.55371793  0.95307770
   0.22233281  0.44423052  0.04582920
   0.11131749  0.88887238  0.95079618
   0.22400776  0.77566928  0.04795285
   0.44149445  0.22352007  0.95195215
   0.55455048  0.11058976  0.04924645
   0.43986658  0.55345554  0.95310674
   0.55102565  0.44228949  0.04802999
   0.44172244  0.88486069  0.95188193
   0.55103156  0.77539302  0.04803663
   0.78203513  0.22427819  0.95194093
   0.89157063  0.11503851  0.04808596
   0.77855907  0.55576536  0.95074841
   0.89181697  0.44303403  0.04800927
   0.77855427  0.88934641  0.95074018
   0.88968733  0.77817038  0.04939002
unknown system                          
           1
     8.486571    4.901763    0.000000
    -8.484444    4.898118    0.000000
     0.000000    0.000000   30.000000
   V    Mo   W    S 
   3   3   3  18
Direct configuration=     3
   0.33570914  0.66697578  0.00010320
   0.99824953  0.33246823 -0.00004086
   0.33563820  0.33533694  0.00012419
   0.66652926  0.00000579 -0.00020755
   0.66651910  0.33313836 -0.00020563
   0.66730690  0.66702589  0.00024368
  -0.00402385 -0.00167280  0.00010198
  -0.00391391  0.66441956  0.00007826
   0.33766688  0.00209553 -0.00018075
   0.11249732  0.22548693  0.95327953
   0.22368849  0.11444220  0.04787322
   0.11268070  0.55379028  0.95322072
   0.22232961  0.44424912  0.04571537
   0.11130885  0.88889118  0.95094532
   0.22389306  0.77575226  0.04781682
   0.44135696  0.22335428  0.95188668
   0.55432922  0.11047146  0.04930004
   0.43976870  0.55337697  0.95311078
   0.55087805  0.44220492  0.04806075
   0.44155298  0.88487082  0.95182524
   0.55088113  0.77529727  0.04806904
   0.78219331  0.22437412  0.95188758
   0.89175250  0.11502814  0.04811530
   0.77877874  0.55588571  0.95067114
   0.89196890  0.44322585  0.04804875
   0.77877513  0.88946586  0.95066096
   0.88989956  0.77825380  0.04949612
unknown system                          
           1
     8.280601    4.793052    0.000000
    -8.269894    4.774543    0.000000
     0.000000    0.000000   30.000000
   V    Mo   W    S 
   3   3   3  18
Direct configuration=     4
   0.33788939  0.66834007  0.00025642
   0.99626060  0.33144157 -0.00025203
   0.33783190  0.33616339  0.00027964
   0.66592725  0.00012960 -0.00019348
   0.66588450  0.33239345 -0.00019332
   0.67140875  0.66906391  0.00027454
  -0.00871189 -0.00569432 -0.00004955
  -0.00859631  0.66370623 -0.00006989
   0.34248181  0.00453670  0.00001629
   0.11309538  0.22644595  0.95249798
   0.22398883  0.11511138  0.04869161
   0.11316559  0.55336337  0.95247195
   0.22221697  0.44428254  0.04646994
   0.11142656  0.88903997  0.94998098
   0.22408176  0.77533348  0.04867487
   0.44088025  0.22404536  0.95012494
   0.55450815  0.11053046  0.05113755
   0.43883681  0.55280567  0.95185483
   0.54966462  0.44158037  0.04958441
   0.44098451  0.88363485  0.95009665
   0.54966393  0.77463339  0.04959238
   0.78356666  0.22510628  0.95025318
   0.89227987  0.11614255  0.04969886
   0.77858308  0.55585359  0.94874898
   0.89239880  0.44264847  0.04966772
   0.77859642  0.88937892  0.94873927
   0.88990028  0.77819725  0.05164517
unknown system                          
           1
     8.286265    4.807668    0.000000
    -8.266022    4.772640    0.000000
     0.000000    0.000000   30.000000
   V    Mo   W    S 
   3   3   3  18
Direct configuration=     5
   0.34219351  0.67100459  0.00037834
   0.99288023  0.32969828 -0.00054884
   0.34217860  0.33777091  0.00039420
   0.66433626  0.00057628 -0.00008273
   0.66419777  0.33028100 -0.00008016
   0.68060385  0.67364930  0.00014139
  -0.01897725 -0.01448747 -0.00018754
  -0.01884401  0.66220655 -0.00020095
   0.35367399  0.01018619  0.00020976
   0.11336834  0.22675425  0.95170113
   0.22371480  0.11534932  0.04933282
   0.11332766  0.55318025  0.95169769
   0.22203010  0.44430681  0.04765484
   0.11203559  0.88938017  0.94920615
   0.22371652  0.77489758  0.04934287
   0.44093163  0.22507772  0.94763447
   0.55601683  0.11128739  0.05387187
   0.43888137  0.55268067  0.95019728
   0.54915874  0.44164448  0.05163976
   0.44095871  0.88252368  0.94763399
   0.54916799  0.77408785  0.05164738
   0.78448388  0.22556889  0.94793043
   0.89228129  0.11690824  0.05173474
   0.77710745  0.55492203  0.94597216
   0.89230440  0.44198581  0.05172044
   0.77712230  0.88884475  0.94595891
   0.88936389  0.77792895  0.05509953
unknown system                          
           1
     8.284739    4.807975    0.000000
    -8.263539    4.771290    0.000000
     0.000000    0.000000   30.000000
   V    Mo   W    S 
   3   3   3  18
Direct configuration=     6
   0.34418345  0.67162284  0.00040825
   0.99187764  0.32919728 -0.00057326
   0.34417728  0.33913560  0.00042219
   0.66399356  0.00115813 -0.00006619
   0.66387735  0.32935386 -0.00006123
   0.68141615  0.67405410 -0.00006779
  -0.02179450 -0.01653009  0.00000289
  -0.02169668  0.66142643 -0.00001220
   0.35708864  0.01187592  0.00003190
   0.11263217  0.22533993  0.95199285
   0.22294699  0.11421492  0.04878338
   0.11260858  0.55386279  0.95198661
   0.22220126  0.44438271  0.04759073
   0.11269717  0.88970076  0.94975731
   0.22297538  0.77530495  0.04878679
   0.44143765  0.22510847  0.94742075
   0.55739716  0.11198122  0.05441631
   0.43988885  0.55320095  0.95014744
   0.55004662  0.44248324  0.05169320
   0.44146096  0.88299063  0.94742277
   0.55005608  0.77415505  0.05169668
   0.78394262  0.22529405  0.94775472
   0.89190056  0.11634773  0.05179436
   0.77591568  0.55401487  0.94560682
   0.89191459  0.44215845  0.05177368
   0.77591674  0.88853967  0.94559012
   0.88915248  0.77783999  0.05570081
unknown system                          
           1
     8.299290    4.826991    0.000000
    -8.268955    4.774483    0.000000
     0.000000    0.000000   30.000000
   V    Mo   W    S 
   3   3   3  18
Direct configuration=     7
   0.34718083  0.67237686  0.00050315
   0.99044275  0.32846400 -0.00073035
   0.34725698  0.34135359  0.00051462
   0.66374948  0.00223390 -0.00004139
   0.66357179  0.32803014 -0.00003552
   0.68260513  0.67463004 -0.00020403
  -0.02618102 -0.01943957  0.00005342
  -0.02610346  0.65994817  0.00004169
   0.36203965  0.01439177  0.00002467
   0.11195263  0.22390271  0.95250923
   0.22216121  0.11299118  0.04797638
   0.11191715  0.55460701  0.95249739
   0.22242468  0.44448243  0.04738724
   0.11346320  0.89007216  0.95057753
   0.22218845  0.77578233  0.04797981
   0.44211870  0.22539969  0.94709159
   0.55854715  0.11255926  0.05495754
   0.44060697  0.55355170  0.94993431
   0.55077172  0.44310644  0.05176096
   0.44214397  0.88338077  0.94709185
   0.55081154  0.77428828  0.05176945
   0.78354412  0.22508547  0.94753090
   0.89145089  0.11592525  0.05198208
   0.77493056  0.55316316  0.94526082
   0.89146855  0.44214018  0.05195824
   0.77493704  0.88839753  0.94524813
   0.88821379  0.77738999  0.05636019
unknown system                          
           1
     8.299076    4.832330    0.000000
    -8.263951    4.771528    0.000000
     0.000000    0.000000   30.000000
   V    Mo   W    S 
   3   3   3  18
Direct configuration=     8
   0.35143471  0.67352308  0.00055827
   0.98832693  0.32741031 -0.00087437
   0.35138700  0.34444437  0.00056333
   0.66372911  0.00380152 -0.00001813
   0.66369896  0.32645541 -0.00000854
   0.68276832  0.67473931 -0.00043442
  -0.03103654 -0.02238116  0.00030629
  -0.03100638  0.65801246  0.00029888
   0.36715993  0.01687202 -0.00021269
   0.11113261  0.22216331  0.95324168
   0.22117455  0.11148216  0.04686846
   0.11115074  0.55555334  0.95324417
   0.22279756  0.44470660  0.04703288
   0.11449119  0.89057506  0.95170248
   0.22123317  0.77630528  0.04685407
   0.44296594  0.22575066  0.94675291
   0.56027108  0.11342949  0.05568983
   0.44119914  0.55390380  0.94962479
   0.55174532  0.44376269  0.05189665
   0.44296238  0.88382623  0.94677399
   0.55169470  0.77458038  0.05188075
   0.78306249  0.22484688  0.94722159
   0.89104897  0.11555335  0.05219625
   0.77344383  0.55198744  0.94482049
   0.89105751  0.44211845  0.05217015
   0.77344075  0.88805716  0.94481082
   0.88688049  0.77673485  0.05703930
unknown system                          
           1
     8.314801    4.844368    0.000000
    -8.277121    4.779141    0.000000
     0.000000    0.000000   30.000000
   V    Mo   W    S 
   3   3   3  18
Direct configuration=     9
   0.35410638  0.67459994  0.00047908
   0.98642591  0.32646260 -0.00087868
   0.35385105  0.34604250  0.00050139
   0.66441807  0.00510253 -0.00000258
   0.66454631  0.32586679 -0.00000301
   0.68101158  0.67389099 -0.00059455
  -0.03237101 -0.02259749  0.00055474
  -0.03237135  0.65685653  0.00053861
   0.36789879  0.01717932 -0.00049986
   0.11094164  0.22161652  0.95383700
   0.22074561  0.11097045  0.04608104
   0.11101653  0.55595164  0.95386231
   0.22318280  0.44495509  0.04660008
   0.11490655  0.89077869  0.95253308
   0.22078495  0.77633174  0.04606595
   0.44357657  0.22615609  0.94670002
   0.56099058  0.11378489  0.05587364
   0.44098447  0.55385272  0.94933100
   0.55224705  0.44368181  0.05200687
   0.44355020  0.88395487  0.94669793
   0.55213359  0.77512217  0.05200253
   0.78283577  0.22473089  0.94699021
   0.89102794  0.11572880  0.05233419
   0.77268492  0.55150203  0.94478630
   0.89103374  0.44192019  0.05232110
   0.77267983  0.88778800  0.94476517
   0.88537597  0.77598415  0.05711633
unknown system                          
           1
     8.319857    4.847884    0.000000
    -8.281664    4.781768    0.000000
     0.000000    0.000000   30.000000
   V    Mo   W    S 
   3   3   3  18
Direct configuration=    10
   0.35862661  0.67616396  0.00043233
   0.98343038  0.32495395 -0.00090038
   0.35828259  0.34903159  0.00046898
   0.66494237  0.00685321  0.00000928
   0.66514610  0.32464244  0.00000724
   0.68001216  0.67341664 -0.00074784
  -0.03673758 -0.02474140  0.00080068
  -0.03675618  0.65461173  0.00079262
   0.37220913  0.01930132 -0.00072261
   0.11052458  0.22041560  0.95467264
   0.21987852  0.10988384  0.04493587
   0.11063929  0.55676127  0.95471253
   0.22368574  0.44524178  0.04604138
   0.11568407  0.89115678  0.95372043
   0.21990333  0.77652947  0.04491993
   0.44460899  0.22677614  0.94638166
   0.56204750  0.11431628  0.05632976
   0.44114407  0.55395004  0.94885246
   0.55314929  0.44390984  0.05216878
   0.44457600  0.88432838  0.94635572
   0.55303511  0.77579134  0.05218587
   0.78239066  0.22449174  0.94656676
   0.89075363  0.11577432  0.05267160
   0.77150352  0.55058184  0.94455816
   0.89075932  0.44160409  0.05266420
   0.77152772  0.88753898  0.94453841
   0.88324751  0.77492931  0.05758345
unknown system                          
           1
     8.317478    4.843615    0.000000
    -8.281914    4.782052    0.000000
     0.000000    0.000000   30.000000
   V    Mo   W    S 
   3   3   3  18
Direct configuration=    11
   0.36048252  0.67739879  0.00022749
   0.98106358  0.32375482 -0.00071083
   0.36011639  0.34974596  0.00027984
   0.66556569  0.00754116 -0.00002034
   0.66577704  0.32454342 -0.00002461
   0.67843547  0.67266557 -0.00076125
  -0.03750383 -0.02466190  0.00103596
  -0.03751549  0.65375285  0.00103567
   0.37243798  0.01939947 -0.00099603
   0.11070856  0.22048639  0.95514181
   0.21979200  0.10993058  0.04443847
   0.11084765  0.55688703  0.95519022
   0.22406190  0.44545209  0.04553644
   0.11558595  0.89110072  0.95429191
   0.21980396  0.77637339  0.04442951
   0.44522729  0.22716704  0.94627270
   0.56227460  0.11443180  0.05636501
   0.44097428  0.55384366  0.94853603
   0.55373116  0.44377589  0.05229597
   0.44520536  0.88456120  0.94622343
   0.55365720  0.77651046  0.05233763
   0.78219176  0.22437550  0.94626249
   0.89077515  0.11614263  0.05292701
   0.77097572  0.55027189  0.94460308
   0.89077464  0.44124907  0.05292420
   0.77103633  0.88734403  0.94458111
   0.88173161  0.77417093  0.05757699
unknown system                          
           1
     8.320083    4.845872    0.000000
    -8.283953    4.783327    0.000000
     0.000000    0.000000   30.000000
   V    Mo   W    S 
   3   3   3  18
Direct configuration=    12
   0.36157717  0.67834609  0.00005044
   0.97908091  0.32275088 -0.00050898
   0.36128911  0.34996614  0.00010621
   0.66597079  0.00777137 -0.00002848
   0.66610877  0.32466465 -0.00003969
   0.67756798  0.67225622 -0.00072414
  -0.03805170 -0.02443800  0.00114867
  -0.03808361  0.65296929  0.00114523
   0.37279100  0.01960509 -0.00106850
   0.11095103  0.22081069  0.95544704
   0.21994287  0.11018172  0.04423499
   0.11107020  0.55678858  0.95549318
   0.22425671  0.44553776  0.04511137
   0.11517490  0.89088636  0.95454186
   0.21994758  0.77627846  0.04423865
   0.44561191  0.22734623  0.94613780
   0.56202743  0.11430539  0.05621209
   0.44086018  0.55374670  0.94833554
   0.55400765  0.44359663  0.05233106
   0.44561626  0.88480809  0.94607293
   0.55398524  0.77698877  0.05238740
   0.78213122  0.22433301  0.94608742
   0.89077550  0.11636197  0.05313722
   0.77093570  0.55031187  0.94473911
   0.89077242  0.44101352  0.05313564
   0.77101292  0.88727516  0.94470775
   0.88088429  0.77375182  0.05756809
unknown system                          
           1
     8.317594    4.842906    0.000000
    -8.282859    4.782775    0.000000
     0.000000    0.000000   30.000000
   V    Mo   W    S 
   3   3   3  18
Direct configuration=    13
   0.36210514  0.67891969 -0.00008280
   0.97794347  0.32217716 -0.00036196
   0.36188674  0.34994504 -0.00003121
   0.66614473  0.00772334 -0.00005981
   0.66622837  0.32484743 -0.00006814
   0.67713113  0.67205652 -0.00068318
  -0.03808098 -0.02418196  0.00126011
  -0.03810882  0.65268840  0.00126200
   0.37260968  0.01953532 -0.00119890
   0.11109247  0.22107099  0.95558827
   0.22011633  0.11037731  0.04419603
   0.11118208  0.55665064  0.95562913
   0.22427514  0.44552560  0.04486853
   0.11487834  0.89073204  0.95461864
   0.22011704  0.77626972  0.04420439
   0.44576235  0.22733169  0.94603596
   0.56198990  0.11428592  0.05619935
   0.44082910  0.55370684  0.94822469
   0.55411287  0.44352059  0.05236922
   0.44578577  0.88501268  0.94597545
   0.55410980  0.77718412  0.05242654
   0.78212017  0.22432291  0.94599269
   0.89074827  0.11643621  0.05329258
   0.77087279  0.55032229  0.94475680
   0.89074006  0.44090493  0.05328576
   0.77096636  0.88721000  0.94472518
   0.88065616  0.77363903  0.05757459
unknown system                          
           1
     8.315931    4.839461    0.000000
    -8.283426    4.783191    0.000000
     0.000000    0.000000   30.000000
   V    Mo   W    S 
   3   3   3  18
Direct configuration=    14
   0.36262836  0.67942930 -0.00018513
   0.97698142  0.32169343 -0.00024044
   0.36242455  0.34996220 -0.00013743
   0.66624511  0.00766734 -0.00006920
   0.66631868  0.32497693 -0.00007709
   0.67686809  0.67194768 -0.00066008
  -0.03824884 -0.02401834  0.00131971
  -0.03828890  0.65235232  0.00132061
   0.37270457  0.01958675 -0.00123479
   0.11117366  0.22125570  0.95572887
   0.22026069  0.11051107  0.04414140
   0.11125190  0.55653832  0.95576850
   0.22427785  0.44552041  0.04464315
   0.11461838  0.89059803  0.95470469
   0.22026507  0.77628668  0.04415102
   0.44590173  0.22732723  0.94593697
   0.56185719  0.11421734  0.05612615
   0.44083968  0.55371129  0.94813447
   0.55418505  0.44345409  0.05238655
   0.44593362  0.88517164  0.94588213
   0.55417007  0.77732154  0.05243943
   0.78210596  0.22431559  0.94592995
   0.89068295  0.11645450  0.05341492
   0.77090956  0.55039539  0.94480829
   0.89066691  0.44081226  0.05340579
   0.77100698  0.88717525  0.94477171
   0.88047415  0.77355051  0.05758976
unknown system                          
           1
     8.308783    4.828690    0.000000
    -8.282361    4.782950    0.000000
     0.000000    0.000000   30.000000
   V    Mo   W    S 
   3   3   3  18
Direct configuration=    15
   0.36383072  0.68063247 -0.00044991
   0.97484976  0.32062744  0.00006264
   0.36364238  0.34996284 -0.00040462
   0.66642901  0.00741785 -0.00010835
   0.66649856  0.32534128 -0.00011420
   0.67627383  0.67171758 -0.00059907
  -0.03850195 -0.02360379  0.00150332
  -0.03855242  0.65167907  0.00150613
   0.37270835  0.01958931 -0.00139831
   0.11132337  0.22166134  0.95601575
   0.22059721  0.11080668  0.04405140
   0.11139238  0.55627008  0.95605631
   0.22420994  0.44548570  0.04415605
   0.11410736  0.89033545  0.95486803
   0.22061060  0.77633316  0.04406116
   0.44617614  0.22725972  0.94569209
   0.56170575  0.11413612  0.05605073
   0.44093914  0.55378175  0.94791492
   0.55432489  0.44336442  0.05245399
   0.44621464  0.88551779  0.94564822
   0.55426851  0.77753938  0.05250218
   0.78206034  0.22429241  0.94578867
   0.89047458  0.11643832  0.05372036
   0.77093051  0.55051571  0.94485773
   0.89043900  0.44059993  0.05370739
   0.77104793  0.88708587  0.94480988
   0.88021392  0.77342658  0.05764741
unknown system                          
           1
     8.309568    4.827186    0.000000
    -8.284876    4.784441    0.000000
     0.000000    0.000000   30.000000
   V    Mo   W    S 
   3   3   3  18
Direct configuration=    16
   0.36754784  0.68436492 -0.00132455
   0.96807620  0.31725005  0.00107082
   0.36771196  0.34999085 -0.00127704
   0.66702675  0.00663353 -0.00020077
   0.66686912  0.32643744 -0.00021010
   0.67466683  0.67111494 -0.00041629
  -0.03942966 -0.02218095  0.00203759
  -0.03950913  0.64932680  0.00204267
   0.37315414  0.01992325 -0.00180633
   0.11168908  0.22294843  0.95698573
   0.22181549  0.11183511  0.04374699
   0.11163799  0.55527708  0.95701332
   0.22388091  0.44524840  0.04251396
   0.11240669  0.88946034  0.95541256
   0.22179702  0.77656354  0.04377345
   0.44698061  0.22699217  0.94485849
   0.56111569  0.11381263  0.05568874
   0.44147424  0.55403604  0.94720090
   0.55453318  0.44309338  0.05261848
   0.44704128  0.88664296  0.94481867
   0.55449779  0.77805798  0.05271172
   0.78187892  0.22418078  0.94543418
   0.88954297  0.11611488  0.05472080
   0.77120409  0.55106765  0.94505539
   0.88947695  0.43993363  0.05470353
   0.77141451  0.88687954  0.94496088
   0.87971302  0.77320906  0.05786612
unknown system                          
           1
     8.307204    4.821985    0.000000
    -8.285957    4.785204    0.000000
     0.000000    0.000000   30.000000
   V    Mo   W    S 
   3   3   3  18
Direct configuration=    17
   0.36719170  0.68398620 -0.00128958
   0.96891206  0.31765673  0.00104350
   0.36729363  0.34997139 -0.00126248
   0.66686517  0.00651337 -0.00020593
   0.66673231  0.32636784 -0.00020960
   0.67498316  0.67131359 -0.00040398
  -0.03930906 -0.02223866  0.00201587
  -0.03939726  0.64951742  0.00202829
   0.37311185  0.01987188 -0.00180859
   0.11157334  0.22290949  0.95695374
   0.22185808  0.11186091  0.04375960
   0.11150794  0.55519938  0.95697800
   0.22380895  0.44520389  0.04254700
   0.11248531  0.88950720  0.95541274
   0.22184173  0.77659006  0.04377953
   0.44694969  0.22692755  0.94486342
   0.56111554  0.11380994  0.05571141
   0.44163865  0.55411295  0.94721944
   0.55439751  0.44312630  0.05258959
   0.44699196  0.88667798  0.94483814
   0.55431160  0.77786672  0.05267101
   0.78187821  0.22418330  0.94552550
   0.88936870  0.11592668  0.05470706
   0.77131344  0.55112071  0.94504228
   0.88929794  0.43995293  0.05468784
   0.77153237  0.88694513  0.94495026
   0.87995994  0.77333357  0.05785584
unknown system                          
           1
     8.307886    4.821252    0.000000
    -8.287687    4.786286    0.000000
     0.000000    0.000000   30.000000
   V    Mo   W    S 
   3   3   3  18
Direct configuration=    18
   0.36740871  0.68424454 -0.00150282
   0.96846797  0.31743083  0.00129036
   0.36752555  0.34987990 -0.00148583
   0.66681112  0.00613252 -0.00021233
   0.66669052  0.32656945 -0.00021020
   0.67530957  0.67160670 -0.00036421
  -0.03932885 -0.02201639  0.00216865
  -0.03947026  0.64927097  0.00217512
   0.37318591  0.01990095 -0.00191991
   0.11141378  0.22308796  0.95710646
   0.22220925  0.11213105  0.04371103
   0.11129585  0.55484831  0.95712964
   0.22363039  0.44508463  0.04224740
   0.11221834  0.88937523  0.95552441
   0.22216588  0.77668719  0.04373155
   0.44706640  0.22675490  0.94467070
   0.56094992  0.11370874  0.05563611
   0.44211806  0.55436215  0.94706258
   0.55419420  0.44313611  0.05257570
   0.44708338  0.88694470  0.94466004
   0.55406225  0.77764121  0.05267761
   0.78191913  0.22419921  0.94560482
   0.88885159  0.11549428  0.05489219
   0.77157096  0.55135775  0.94508610
   0.88876821  0.43985968  0.05487110
   0.77181555  0.88700435  0.94496304
   0.88028107  0.77351754  0.05791058
unknown system                          
           1
     8.307031    4.820599    0.000000
    -8.287006    4.785933    0.000000
     0.000000    0.000000   30.000000
   V    Mo   W    S 
   3   3   3  18
Direct configuration=    19
   0.36778213  0.68461149 -0.00167989
   0.96780918  0.31710392  0.00148892
   0.36791169  0.34986905 -0.00166536
   0.66674638  0.00578642 -0.00022095
   0.66664473  0.32673674 -0.00021668
   0.67532134  0.67173726 -0.00033995
  -0.03933387 -0.02178402  0.00226923
  -0.03949637  0.64903789  0.00228136
   0.37322164  0.01990178 -0.00200775
   0.11131963  0.22323358  0.95723272
   0.22250058  0.11236612  0.04367104
   0.11118331  0.55460821  0.95725961
   0.22354589  0.44503702  0.04200426
   0.11198947  0.88926033  0.95561132
   0.22244422  0.77674203  0.04368896
   0.44718736  0.22666982  0.94451181
   0.56082358  0.11363171  0.05557837
   0.44246100  0.55455973  0.94693017
   0.55400747  0.44310621  0.05255284
   0.44717570  0.88710646  0.94451040
   0.55382216  0.77746084  0.05266948
   0.78199709  0.22423427  0.94565722
   0.88847776  0.11522395  0.05506890
   0.77176442  0.55151574  0.94512403
   0.88838084  0.43975136  0.05504472
   0.77205180  0.88707759  0.94497946
   0.88047534  0.77362894  0.05799566
unknown system                          
           1
     8.305826    4.819734    0.000000
    -8.286153    4.785675    0.000000
     0.000000    0.000000   30.000000
   V    Mo   W    S 
   3   3   3  18
Direct configuration=    20
   0.36790562  0.68474315 -0.00180708
   0.96747024  0.31694400  0.00162039
   0.36795969  0.34985791 -0.00178915
   0.66666233  0.00550380 -0.00021832
   0.66665915  0.32679890 -0.00021437
   0.67548044  0.67199543 -0.00032399
  -0.03927378 -0.02166121  0.00232331
  -0.03945438  0.64898386  0.00234455
   0.37322835  0.01984150 -0.00205953
   0.11113523  0.22323438  0.95727449
   0.22268626  0.11248808  0.04365017
   0.11104138  0.55445162  0.95731635
   0.22353210  0.44506904  0.04191108
   0.11189295  0.88921369  0.95566094
   0.22263983  0.77677587  0.04366022
   0.44728570  0.22662192  0.94442017
   0.56069262  0.11355095  0.05553738
   0.44279192  0.55479508  0.94684080
   0.55379636  0.44309691  0.05250035
   0.44722578  0.88714803  0.94442743
   0.55350808  0.77720336  0.05262417
   0.78215958  0.22430903  0.94575010
   0.88818635  0.11500584  0.05516967
   0.77197328  0.55163492  0.94516596
   0.88806677  0.43966943  0.05514615
   0.77231854  0.88721194  0.94499815
   0.88064403  0.77372703  0.05807051
unknown system                          
           1
     8.304996    4.818503    0.000000
    -8.286411    4.786326    0.000000
     0.000000    0.000000   30.000000
   V    Mo   W    S 
   3   3   3  18
Direct configuration=    21
   0.36807866  0.68490831 -0.00199382
   0.96712600  0.31678258  0.00182992
   0.36814591  0.34989884 -0.00195992
   0.66647183  0.00498029 -0.00020794
   0.66651867  0.32688673 -0.00020984
   0.67561105  0.67232292 -0.00029806
  -0.03919107 -0.02149401  0.00243825
  -0.03942843  0.64889285  0.00245958
   0.37324543  0.01981149 -0.00214016
   0.11094268  0.22328197  0.95734296
   0.22297599  0.11271874  0.04360677
   0.11086315  0.55423529  0.95740130
   0.22355851  0.44510504  0.04175489
   0.11176539  0.88914662  0.95572385
   0.22290568  0.77679795  0.04362226
   0.44744493  0.22657388  0.94429440
   0.56050577  0.11343080  0.05548359
   0.44324058  0.55506981  0.94670876
   0.55347553  0.44305304  0.05241900
   0.44733762  0.88724622  0.94428751
   0.55312424  0.77689035  0.05259448
   0.78232144  0.22436626  0.94583407
   0.88777577  0.11466456  0.05532333
   0.77224526  0.55180352  0.94522205
   0.88763200  0.43958106  0.05530453
   0.77267935  0.88740058  0.94500313
   0.88084251  0.77385880  0.05815502
unknown system                          
           1
     8.306155    4.819564    0.000000
    -8.287380    4.787057    0.000000
     0.000000    0.000000   30.000000
   V    Mo   W    S 
   3   3   3  18
Direct configuration=    22
   0.36814834  0.68497222 -0.00215090
   0.96697148  0.31670136  0.00198028
   0.36827000  0.34995564 -0.00211686
   0.66628782  0.00446173 -0.00020741
   0.66632036  0.32688355 -0.00021291
   0.67570112  0.67269627 -0.00029603
  -0.03912277 -0.02138300  0.00250865
  -0.03940220  0.64886311  0.00254503
   0.37326425  0.01979596 -0.00220496
   0.11083631  0.22331385  0.95738779
   0.22319378  0.11291238  0.04356755
   0.11073092  0.55410436  0.95745635
   0.22367628  0.44516435  0.04166563
   0.11169451  0.88910326  0.95576603
   0.22309595  0.77679230  0.04359313
   0.44758841  0.22658770  0.94420723
   0.56031981  0.11330537  0.05544463
   0.44359083  0.55524581  0.94659959
   0.55320348  0.44301428  0.05235504
   0.44745542  0.88732653  0.94417816
   0.55279495  0.77662618  0.05258962
   0.78245614  0.22439551  0.94592195
   0.88743769  0.11435823  0.05545189
   0.77247900  0.55195353  0.94528556
   0.88726862  0.43953085  0.05543439
   0.77304603  0.88760546  0.94501770
   0.88090791  0.77392765  0.05823275
unknown system                          
           1
     8.306155    4.819564    0.000000
    -8.287380    4.787057    0.000000
     0.000000    0.000000   30.000000
   V    Mo   W    S 
   3   3   3  18
Direct configuration=    23
   0.36812850  0.68492696 -0.00215389
   0.96705384  0.31673849  0.00198419
   0.36825060  0.34999994 -0.00211967
   0.66624304  0.00432656 -0.00019721
   0.66628683  0.32684951 -0.00020156
   0.67566767  0.67280547 -0.00029611
  -0.03907700 -0.02137355  0.00251888
  -0.03939538  0.64888812  0.00255647
   0.37324235  0.01976764 -0.00220764
   0.11083712  0.22330961  0.95737941
   0.22321150  0.11293695  0.04355967
   0.11071826  0.55411237  0.95745269
   0.22374353  0.44519780  0.04168209
   0.11171863  0.88910864  0.95575958
   0.22310563  0.77677462  0.04358972
   0.44760849  0.22661006  0.94420167
   0.56029472  0.11328048  0.05544262
   0.44362500  0.55526661  0.94658297
   0.55315229  0.44301114  0.05233474
   0.44747025  0.88731133  0.94417047
   0.55270985  0.77656301  0.05258954
   0.78249838  0.22440401  0.94594749
   0.88741439  0.11432539  0.05545208
   0.77250142  0.55196607  0.94529687
   0.88722931  0.43953024  0.05543274
   0.77310910  0.88765420  0.94500349
   0.88086613  0.77392279  0.05823863
