   27   27  100    1
  0.9710400E+02  0.1002848E-08  0.1002848E-08  0.3000000E-08  0.5000000E-15
  1.000000000000000E-004
  CAR 
 unknown system                          
    159     34    120
 
  0.0000000E+00  0.0000000E+00  0.0000000E+00  0.1562500E-01
    1      -17.824471   1.000000
    2      -16.763473   1.000000
    3      -16.638359   1.000000
    4      -16.619553   1.000000
    5      -16.582260   1.000000
    6      -16.486435   1.000000
    7      -16.420269   1.000000
    8      -16.237189   1.000000
    9      -16.132696   1.000000
   10      -16.118986   1.000000
   11      -16.097806   1.000000
   12      -15.951534   1.000000
   13      -15.880631   1.000000
   14      -15.771607   1.000000
   15      -15.606532   1.000000
   16      -15.406183   1.000000
   17      -15.388046   1.000000
   18      -15.184008   1.000000
   19       -9.348284   1.000000
   20       -9.025491   1.000000
   21       -8.971712   1.000000
   22       -8.917471   1.000000
   23       -8.745068   1.000000
   24       -8.665829   1.000000
   25       -8.600426   1.000000
   26       -8.588647   1.000000
   27       -8.529961   1.000000
   28       -8.502416   1.000000
   29       -8.464767   1.000000
   30       -8.439769   1.000000
   31       -8.338546   1.000000
   32       -8.125699   1.000000
   33       -8.074824   1.000000
   34       -7.995731   1.000000
   35       -7.805929   1.000000
   36       -7.759011   1.000000
   37       -7.693343   1.000000
   38       -7.589292   1.000000
   39       -7.489274   1.000000
   40       -7.409152   1.000000
   41       -7.355585   1.000000
   42       -7.219837   1.000000
   43       -7.084976   1.000000
   44       -6.879591   1.000000
   45       -6.811917   1.000000
   46       -6.789903   1.000000
   47       -6.774540   1.000000
   48       -6.647201   1.000000
   49       -6.536398   1.000000
   50       -6.499290   1.000000
   51       -6.415484   1.000000
   52       -6.352551   1.000000
   53       -6.307644   1.000000
   54       -6.250023   1.000000
   55       -6.218223   1.000000
   56       -6.160632   1.000000
   57       -6.055026   1.000000
   58       -5.978885   1.000000
   59       -5.841909   1.000000
   60       -5.533933   1.000000
   61       -5.407377   1.000000
   62       -5.318601   1.000000
   63       -5.261248   1.000000
   64       -5.216653   1.000000
   65       -5.093889   1.000000
   66       -4.997056   1.000000
   67       -4.970527   1.000000
   68       -4.836690   1.000000
   69       -4.827067   1.000000
   70       -4.696645   1.000000
   71       -4.660833   1.000000
   72       -4.628751   1.000000
   73       -4.544551   1.000000
   74       -4.372754   1.000000
   75       -4.078878   1.000000
   76       -3.988528   0.999998
   77       -3.841480   0.999806
   78       -3.576525   0.952964
   79       -3.503428   0.876451
   80       -3.450127   0.782463
   81       -3.206788   0.173575
   82       -2.955468   0.003292
   83       -2.836971   0.000189
   84       -2.704667   0.000004
   85       -2.558697   0.000000
   86       -2.407945   0.000000
   87       -2.381558   0.000000
   88       -2.308884   0.000000
   89       -2.224694   0.000000
   90       -2.170862   0.000000
   91       -1.705295   0.000000
   92       -1.529659   0.000000
   93       -1.458276   0.000000
   94       -1.270777   0.000000
   95       -1.140414   0.000000
   96       -1.050540   0.000000
   97       -0.961308   0.000000
   98       -0.910196   0.000000
   99       -0.707324   0.000000
  100       -0.670889   0.000000
  101       -0.580754   0.000000
  102       -0.527229   0.000000
  103       -0.502750   0.000000
  104       -0.346406   0.000000
  105       -0.230430   0.000000
  106       -0.171447   0.000000
  107       -0.108314   0.000000
  108       -0.029510   0.000000
  109        0.028515   0.000000
  110        0.216867   0.000000
  111        0.335083   0.000000
  112        0.638806   0.000000
  113        0.772283   0.000000
  114        0.859233   0.000000
  115        0.907483   0.000000
  116        0.954260   0.000000
  117        1.266161   0.000000
  118        1.645392   0.000000
  119        1.834302   0.000000
  120        2.152298   0.000000
 
  0.1250000E+00  0.2775558E-16  0.0000000E+00  0.3125000E-01
    1      -17.800456   1.000000
    2      -16.793897   1.000000
    3      -16.758087   1.000000
    4      -16.616002   1.000000
    5      -16.557090   1.000000
    6      -16.501036   1.000000
    7      -16.377040   1.000000
    8      -16.255143   1.000000
    9      -16.137810   1.000000
   10      -16.080409   1.000000
   11      -16.032964   1.000000
   12      -15.942409   1.000000
   13      -15.866426   1.000000
   14      -15.763864   1.000000
   15      -15.616432   1.000000
   16      -15.413765   1.000000
   17      -15.399480   1.000000
   18      -15.187064   1.000000
   19       -9.339980   1.000000
   20       -9.152012   1.000000
   21       -9.066125   1.000000
   22       -9.013637   1.000000
   23       -8.785900   1.000000
   24       -8.713547   1.000000
   25       -8.643317   1.000000
   26       -8.557868   1.000000
   27       -8.535701   1.000000
   28       -8.501617   1.000000
   29       -8.402015   1.000000
   30       -8.284917   1.000000
   31       -8.240947   1.000000
   32       -8.073027   1.000000
   33       -8.024927   1.000000
   34       -7.913326   1.000000
   35       -7.784073   1.000000
   36       -7.749476   1.000000
   37       -7.621546   1.000000
   38       -7.599671   1.000000
   39       -7.514077   1.000000
   40       -7.448227   1.000000
   41       -7.332546   1.000000
   42       -7.175255   1.000000
   43       -7.136561   1.000000
   44       -6.956408   1.000000
   45       -6.857098   1.000000
   46       -6.781383   1.000000
   47       -6.722452   1.000000
   48       -6.660555   1.000000
   49       -6.518235   1.000000
   50       -6.461538   1.000000
   51       -6.428201   1.000000
   52       -6.396618   1.000000
   53       -6.299515   1.000000
   54       -6.254464   1.000000
   55       -6.245137   1.000000
   56       -6.126394   1.000000
   57       -6.044471   1.000000
   58       -5.959879   1.000000
   59       -5.799947   1.000000
   60       -5.511521   1.000000
   61       -5.434597   1.000000
   62       -5.421533   1.000000
   63       -5.322521   1.000000
   64       -5.234913   1.000000
   65       -5.090085   1.000000
   66       -5.037861   1.000000
   67       -4.957553   1.000000
   68       -4.909069   1.000000
   69       -4.809259   1.000000
   70       -4.730672   1.000000
   71       -4.645769   1.000000
   72       -4.590338   1.000000
   73       -4.473640   1.000000
   74       -4.281037   1.000000
   75       -4.070866   1.000000
   76       -3.943450   0.999990
   77       -3.877756   0.999929
   78       -3.690867   0.993483
   79       -3.583683   0.957729
   80       -3.441887   0.764935
   81       -3.113360   0.054714
   82       -2.934403   0.002077
   83       -2.808694   0.000087
   84       -2.685924   0.000002
   85       -2.554866   0.000000
   86       -2.411549   0.000000
   87       -2.357079   0.000000
   88       -2.298256   0.000000
   89       -2.221137   0.000000
   90       -2.143794   0.000000
   91       -1.705026   0.000000
   92       -1.536727   0.000000
   93       -1.453780   0.000000
   94       -1.276047   0.000000
   95       -1.128524   0.000000
   96       -1.043933   0.000000
   97       -0.989792   0.000000
   98       -0.908584   0.000000
   99       -0.782119   0.000000
  100       -0.727682   0.000000
  101       -0.637635   0.000000
  102       -0.571562   0.000000
  103       -0.531591   0.000000
  104       -0.402322   0.000000
  105       -0.309340   0.000000
  106       -0.189260   0.000000
  107       -0.127707   0.000000
  108       -0.025035   0.000000
  109        0.141306   0.000000
  110        0.173900   0.000000
  111        0.392974   0.000000
  112        0.545831   0.000000
  113        0.710354   0.000000
  114        0.898639   0.000000
  115        0.946116   0.000000
  116        1.002411   0.000000
  117        1.313959   0.000000
  118        1.688280   0.000000
  119        1.874487   0.000000
  120        2.187178   0.000000
 
  0.2500000E+00  0.5551115E-16  0.0000000E+00  0.3125000E-01
    1      -17.730434   1.000000
    2      -16.995679   1.000000
    3      -16.750569   1.000000
    4      -16.668379   1.000000
    5      -16.611026   1.000000
    6      -16.464235   1.000000
    7      -16.352934   1.000000
    8      -16.205425   1.000000
    9      -16.137630   1.000000
   10      -16.017943   1.000000
   11      -15.997185   1.000000
   12      -15.896562   1.000000
   13      -15.800266   1.000000
   14      -15.756874   1.000000
   15      -15.631745   1.000000
   16      -15.445716   1.000000
   17      -15.414780   1.000000
   18      -15.196014   1.000000
   19       -9.491577   1.000000
   20       -9.268524   1.000000
   21       -9.179174   1.000000
   22       -9.109306   1.000000
   23       -8.899263   1.000000
   24       -8.780183   1.000000
   25       -8.589273   1.000000
   26       -8.551717   1.000000
   27       -8.507741   1.000000
   28       -8.423638   1.000000
   29       -8.309816   1.000000
   30       -8.233887   1.000000
   31       -8.115994   1.000000
   32       -8.064490   1.000000
   33       -7.904980   1.000000
   34       -7.875713   1.000000
   35       -7.719588   1.000000
   36       -7.650685   1.000000
   37       -7.589768   1.000000
   38       -7.558535   1.000000
   39       -7.457229   1.000000
   40       -7.385370   1.000000
   41       -7.317829   1.000000
   42       -7.201070   1.000000
   43       -7.110596   1.000000
   44       -7.004967   1.000000
   45       -6.872735   1.000000
   46       -6.768954   1.000000
   47       -6.727894   1.000000
   48       -6.662179   1.000000
   49       -6.571067   1.000000
   50       -6.477344   1.000000
   51       -6.419428   1.000000
   52       -6.373490   1.000000
   53       -6.317191   1.000000
   54       -6.258084   1.000000
   55       -6.177471   1.000000
   56       -6.116089   1.000000
   57       -5.976721   1.000000
   58       -5.921502   1.000000
   59       -5.756113   1.000000
   60       -5.662123   1.000000
   61       -5.612991   1.000000
   62       -5.500611   1.000000
   63       -5.418082   1.000000
   64       -5.302499   1.000000
   65       -5.184466   1.000000
   66       -5.020660   1.000000
   67       -4.942612   1.000000
   68       -4.904010   1.000000
   69       -4.797219   1.000000
   70       -4.760448   1.000000
   71       -4.590029   1.000000
   72       -4.485660   1.000000
   73       -4.353415   1.000000
   74       -4.268713   1.000000
   75       -4.116870   1.000000
   76       -3.967462   0.999995
   77       -3.885251   0.999943
   78       -3.785323   0.999186
   79       -3.637514   0.982379
   80       -3.419566   0.713771
   81       -3.019495   0.011772
   82       -2.892754   0.000787
   83       -2.754929   0.000018
   84       -2.625108   0.000000
   85       -2.546215   0.000000
   86       -2.424931   0.000000
   87       -2.317138   0.000000
   88       -2.257087   0.000000
   89       -2.188555   0.000000
   90       -2.074569   0.000000
   91       -1.697676   0.000000
   92       -1.558686   0.000000
   93       -1.453670   0.000000
   94       -1.285442   0.000000
   95       -1.120815   0.000000
   96       -1.094149   0.000000
   97       -1.022817   0.000000
   98       -0.951627   0.000000
   99       -0.911040   0.000000
  100       -0.857883   0.000000
  101       -0.751856   0.000000
  102       -0.665878   0.000000
  103       -0.558680   0.000000
  104       -0.468504   0.000000
  105       -0.425077   0.000000
  106       -0.251855   0.000000
  107       -0.156589   0.000000
  108       -0.069638   0.000000
  109        0.093485   0.000000
  110        0.227048   0.000000
  111        0.405288   0.000000
  112        0.539637   0.000000
  113        0.607271   0.000000
  114        0.943900   0.000000
  115        1.001036   0.000000
  116        1.114706   0.000000
  117        1.423389   0.000000
  118        1.808552   0.000000
  119        1.989004   0.000000
  120        2.290666   0.000000
 
  0.3750000E+00  0.0000000E+00  0.0000000E+00  0.3125000E-01
    1      -17.624276   1.000000
    2      -17.194538   1.000000
    3      -16.739699   1.000000
    4      -16.708360   1.000000
    5      -16.655085   1.000000
    6      -16.454600   1.000000
    7      -16.344918   1.000000
    8      -16.170546   1.000000
    9      -16.089834   1.000000
   10      -16.003338   1.000000
   11      -15.940679   1.000000
   12      -15.872990   1.000000
   13      -15.784216   1.000000
   14      -15.724121   1.000000
   15      -15.632072   1.000000
   16      -15.469568   1.000000
   17      -15.430512   1.000000
   18      -15.207436   1.000000
   19       -9.697870   1.000000
   20       -9.344472   1.000000
   21       -9.222576   1.000000
   22       -9.104344   1.000000
   23       -8.987352   1.000000
   24       -8.818003   1.000000
   25       -8.556821   1.000000
   26       -8.508307   1.000000
   27       -8.434681   1.000000
   28       -8.338911   1.000000
   29       -8.290195   1.000000
   30       -8.225838   1.000000
   31       -8.142662   1.000000
   32       -8.046456   1.000000
   33       -7.935129   1.000000
   34       -7.827956   1.000000
   35       -7.776597   1.000000
   36       -7.657868   1.000000
   37       -7.578834   1.000000
   38       -7.459946   1.000000
   39       -7.358475   1.000000
   40       -7.277710   1.000000
   41       -7.203963   1.000000
   42       -7.141545   1.000000
   43       -7.050024   1.000000
   44       -6.960869   1.000000
   45       -6.841791   1.000000
   46       -6.819705   1.000000
   47       -6.718059   1.000000
   48       -6.669377   1.000000
   49       -6.552623   1.000000
   50       -6.473261   1.000000
   51       -6.411401   1.000000
   52       -6.382801   1.000000
   53       -6.321175   1.000000
   54       -6.209911   1.000000
   55       -6.116278   1.000000
   56       -6.057352   1.000000
   57       -5.968279   1.000000
   58       -5.916350   1.000000
   59       -5.871216   1.000000
   60       -5.806675   1.000000
   61       -5.762450   1.000000
   62       -5.583310   1.000000
   63       -5.535308   1.000000
   64       -5.342901   1.000000
   65       -5.196814   1.000000
   66       -5.017436   1.000000
   67       -4.931546   1.000000
   68       -4.877697   1.000000
   69       -4.801050   1.000000
   70       -4.750743   1.000000
   71       -4.612345   1.000000
   72       -4.532299   1.000000
   73       -4.401846   1.000000
   74       -4.188902   1.000000
   75       -4.081314   1.000000
   76       -4.027136   0.999999
   77       -3.889473   0.999949
   78       -3.723949   0.996704
   79       -3.593041   0.963360
   80       -3.441932   0.765034
   81       -2.967936   0.004281
   82       -2.856372   0.000315
   83       -2.714849   0.000005
   84       -2.564750   0.000000
   85       -2.539023   0.000000
   86       -2.422344   0.000000
   87       -2.285078   0.000000
   88       -2.207036   0.000000
   89       -2.142708   0.000000
   90       -1.984935   0.000000
   91       -1.671633   0.000000
   92       -1.593637   0.000000
   93       -1.479484   0.000000
   94       -1.327936   0.000000
   95       -1.206195   0.000000
   96       -1.118723   0.000000
   97       -1.098226   0.000000
   98       -1.038360   0.000000
   99       -0.958942   0.000000
  100       -0.930983   0.000000
  101       -0.835075   0.000000
  102       -0.714840   0.000000
  103       -0.592186   0.000000
  104       -0.533503   0.000000
  105       -0.455095   0.000000
  106       -0.338377   0.000000
  107       -0.198234   0.000000
  108       -0.138163   0.000000
  109       -0.024502   0.000000
  110        0.251899   0.000000
  111        0.377266   0.000000
  112        0.507875   0.000000
  113        0.658166   0.000000
  114        0.969366   0.000000
  115        1.066760   0.000000
  116        1.200771   0.000000
  117        1.523977   0.000000
  118        1.989270   0.000000
  119        2.164647   0.000000
  120        2.457626   0.000000
 
  0.5000000E+00  0.1110223E-15  0.0000000E+00  0.1562500E-01
    1      -17.543649   1.000000
    2      -17.307964   1.000000
    3      -16.733414   1.000000
    4      -16.723092   1.000000
    5      -16.671897   1.000000
    6      -16.454818   1.000000
    7      -16.341036   1.000000
    8      -16.171861   1.000000
    9      -16.043928   1.000000
   10      -15.993065   1.000000
   11      -15.941185   1.000000
   12      -15.850250   1.000000
   13      -15.773858   1.000000
   14      -15.740817   1.000000
   15      -15.624048   1.000000
   16      -15.468634   1.000000
   17      -15.438986   1.000000
   18      -15.213097   1.000000
   19       -9.773649   1.000000
   20       -9.382206   1.000000
   21       -9.244584   1.000000
   22       -9.081282   1.000000
   23       -9.006026   1.000000
   24       -8.829359   1.000000
   25       -8.546680   1.000000
   26       -8.503056   1.000000
   27       -8.408862   1.000000
   28       -8.336673   1.000000
   29       -8.252136   1.000000
   30       -8.176037   1.000000
   31       -8.151067   1.000000
   32       -8.038128   1.000000
   33       -7.970375   1.000000
   34       -7.906642   1.000000
   35       -7.783644   1.000000
   36       -7.717179   1.000000
   37       -7.549047   1.000000
   38       -7.403558   1.000000
   39       -7.326581   1.000000
   40       -7.254924   1.000000
   41       -7.114402   1.000000
   42       -7.063673   1.000000
   43       -7.007286   1.000000
   44       -6.951932   1.000000
   45       -6.864430   1.000000
   46       -6.758319   1.000000
   47       -6.712286   1.000000
   48       -6.658340   1.000000
   49       -6.562993   1.000000
   50       -6.501709   1.000000
   51       -6.415554   1.000000
   52       -6.368424   1.000000
   53       -6.286779   1.000000
   54       -6.256042   1.000000
   55       -6.124754   1.000000
   56       -6.082679   1.000000
   57       -5.976983   1.000000
   58       -5.923526   1.000000
   59       -5.868444   1.000000
   60       -5.822501   1.000000
   61       -5.780774   1.000000
   62       -5.603425   1.000000
   63       -5.485963   1.000000
   64       -5.362309   1.000000
   65       -5.309722   1.000000
   66       -5.119500   1.000000
   67       -4.917865   1.000000
   68       -4.891473   1.000000
   69       -4.809143   1.000000
   70       -4.751602   1.000000
   71       -4.618119   1.000000
   72       -4.516705   1.000000
   73       -4.378649   1.000000
   74       -4.199030   1.000000
   75       -4.074716   1.000000
   76       -4.031291   0.999999
   77       -3.843641   0.999817
   78       -3.707461   0.995341
   79       -3.558205   0.938798
   80       -3.468372   0.818469
   81       -2.951147   0.003000
   82       -2.840295   0.000207
   83       -2.699613   0.000003
   84       -2.566041   0.000000
   85       -2.523012   0.000000
   86       -2.402172   0.000000
   87       -2.273115   0.000000
   88       -2.186729   0.000000
   89       -2.120360   0.000000
   90       -1.939232   0.000000
   91       -1.658940   0.000000
   92       -1.601232   0.000000
   93       -1.515377   0.000000
   94       -1.362910   0.000000
   95       -1.216745   0.000000
   96       -1.183743   0.000000
   97       -1.131405   0.000000
   98       -1.050368   0.000000
   99       -0.978296   0.000000
  100       -0.952581   0.000000
  101       -0.855039   0.000000
  102       -0.728765   0.000000
  103       -0.604351   0.000000
  104       -0.557136   0.000000
  105       -0.463937   0.000000
  106       -0.369317   0.000000
  107       -0.222683   0.000000
  108       -0.159510   0.000000
  109       -0.086525   0.000000
  110        0.252184   0.000000
  111        0.372343   0.000000
  112        0.489666   0.000000
  113        0.691573   0.000000
  114        0.974528   0.000000
  115        1.095278   0.000000
  116        1.233556   0.000000
  117        1.562905   0.000000
  118        2.189495   0.000000
  119        2.256799   0.000000
  120        2.377254   0.000000
 
  0.0000000E+00  0.1250000E+00  0.0000000E+00  0.3125000E-01
    1      -17.799782   1.000000
    2      -16.786590   1.000000
    3      -16.749977   1.000000
    4      -16.660928   1.000000
    5      -16.557574   1.000000
    6      -16.436208   1.000000
    7      -16.386796   1.000000
    8      -16.293398   1.000000
    9      -16.157253   1.000000
   10      -16.092666   1.000000
   11      -16.001436   1.000000
   12      -15.934734   1.000000
   13      -15.862260   1.000000
   14      -15.758487   1.000000
   15      -15.613337   1.000000
   16      -15.416626   1.000000
   17      -15.399005   1.000000
   18      -15.191317   1.000000
   19       -9.341964   1.000000
   20       -9.162862   1.000000
   21       -9.077884   1.000000
   22       -9.025002   1.000000
   23       -8.749857   1.000000
   24       -8.713770   1.000000
   25       -8.635341   1.000000
   26       -8.576787   1.000000
   27       -8.531514   1.000000
   28       -8.466580   1.000000
   29       -8.387118   1.000000
   30       -8.338157   1.000000
   31       -8.289187   1.000000
   32       -8.028366   1.000000
   33       -7.965308   1.000000
   34       -7.912305   1.000000
   35       -7.810069   1.000000
   36       -7.784509   1.000000
   37       -7.703988   1.000000
   38       -7.522492   1.000000
   39       -7.496660   1.000000
   40       -7.392919   1.000000
   41       -7.315658   1.000000
   42       -7.269206   1.000000
   43       -7.092668   1.000000
   44       -6.946299   1.000000
   45       -6.880039   1.000000
   46       -6.793436   1.000000
   47       -6.750172   1.000000
   48       -6.667231   1.000000
   49       -6.551315   1.000000
   50       -6.492771   1.000000
   51       -6.403451   1.000000
   52       -6.363270   1.000000
   53       -6.305054   1.000000
   54       -6.251724   1.000000
   55       -6.181818   1.000000
   56       -6.131803   1.000000
   57       -6.046471   1.000000
   58       -5.940777   1.000000
   59       -5.788439   1.000000
   60       -5.531116   1.000000
   61       -5.432876   1.000000
   62       -5.376751   1.000000
   63       -5.307039   1.000000
   64       -5.222682   1.000000
   65       -5.192196   1.000000
   66       -5.020553   1.000000
   67       -4.998669   1.000000
   68       -4.904994   1.000000
   69       -4.838772   1.000000
   70       -4.676377   1.000000
   71       -4.608759   1.000000
   72       -4.558435   1.000000
   73       -4.508472   1.000000
   74       -4.333429   1.000000
   75       -4.046714   1.000000
   76       -3.915609   0.999977
   77       -3.882903   0.999939
   78       -3.736996   0.997515
   79       -3.603262   0.968795
   80       -3.339584   0.499553
   81       -3.161012   0.103148
   82       -2.970971   0.004559
   83       -2.806100   0.000081
   84       -2.697065   0.000003
   85       -2.566831   0.000000
   86       -2.417217   0.000000
   87       -2.343814   0.000000
   88       -2.287075   0.000000
   89       -2.221559   0.000000
   90       -2.128981   0.000000
   91       -1.717342   0.000000
   92       -1.531711   0.000000
   93       -1.459354   0.000000
   94       -1.258889   0.000000
   95       -1.133982   0.000000
   96       -1.056194   0.000000
   97       -0.989248   0.000000
   98       -0.907325   0.000000
   99       -0.738127   0.000000
  100       -0.708420   0.000000
  101       -0.627907   0.000000
  102       -0.575205   0.000000
  103       -0.507152   0.000000
  104       -0.421940   0.000000
  105       -0.377616   0.000000
  106       -0.261530   0.000000
  107       -0.159734   0.000000
  108        0.039094   0.000000
  109        0.169346   0.000000
  110        0.261309   0.000000
  111        0.341107   0.000000
  112        0.613826   0.000000
  113        0.719714   0.000000
  114        0.853958   0.000000
  115        0.932128   0.000000
  116        0.981564   0.000000
  117        1.315453   0.000000
  118        1.690148   0.000000
  119        1.872301   0.000000
  120        2.187593   0.000000
 
  0.1250000E+00  0.1250000E+00  0.0000000E+00  0.3125000E-01
    1      -17.751684   1.000000
    2      -16.925020   1.000000
    3      -16.760365   1.000000
    4      -16.730626   1.000000
    5      -16.519154   1.000000
    6      -16.443116   1.000000
    7      -16.360538   1.000000
    8      -16.270290   1.000000
    9      -16.163606   1.000000
   10      -16.038873   1.000000
   11      -15.986638   1.000000
   12      -15.905828   1.000000
   13      -15.807752   1.000000
   14      -15.737638   1.000000
   15      -15.627636   1.000000
   16      -15.440348   1.000000
   17      -15.411664   1.000000
   18      -15.198614   1.000000
   19       -9.414258   1.000000
   20       -9.292351   1.000000
   21       -9.204478   1.000000
   22       -9.088304   1.000000
   23       -8.810883   1.000000
   24       -8.735591   1.000000
   25       -8.626474   1.000000
   26       -8.535990   1.000000
   27       -8.480459   1.000000
   28       -8.423602   1.000000
   29       -8.371903   1.000000
   30       -8.288821   1.000000
   31       -8.161208   1.000000
   32       -8.041084   1.000000
   33       -7.951229   1.000000
   34       -7.868965   1.000000
   35       -7.721946   1.000000
   36       -7.699073   1.000000
   37       -7.627586   1.000000
   38       -7.526762   1.000000
   39       -7.471046   1.000000
   40       -7.351378   1.000000
   41       -7.328830   1.000000
   42       -7.192101   1.000000
   43       -7.126064   1.000000
   44       -7.048434   1.000000
   45       -6.856916   1.000000
   46       -6.816740   1.000000
   47       -6.764513   1.000000
   48       -6.656358   1.000000
   49       -6.549422   1.000000
   50       -6.494956   1.000000
   51       -6.416995   1.000000
   52       -6.363550   1.000000
   53       -6.319443   1.000000
   54       -6.230312   1.000000
   55       -6.161156   1.000000
   56       -6.124860   1.000000
   57       -5.984828   1.000000
   58       -5.909549   1.000000
   59       -5.734661   1.000000
   60       -5.620964   1.000000
   61       -5.530070   1.000000
   62       -5.457491   1.000000
   63       -5.380920   1.000000
   64       -5.282501   1.000000
   65       -5.227294   1.000000
   66       -5.112392   1.000000
   67       -4.944847   1.000000
   68       -4.901468   1.000000
   69       -4.799930   1.000000
   70       -4.713869   1.000000
   71       -4.611329   1.000000
   72       -4.486282   1.000000
   73       -4.368888   1.000000
   74       -4.272069   1.000000
   75       -4.116209   1.000000
   76       -4.020727   0.999999
   77       -3.826001   0.999707
   78       -3.805016   0.999499
   79       -3.626476   0.978695
   80       -3.323015   0.452921
   81       -3.100729   0.045506
   82       -2.955517   0.003295
   83       -2.774688   0.000032
   84       -2.650496   0.000001
   85       -2.566024   0.000000
   86       -2.451830   0.000000
   87       -2.306371   0.000000
   88       -2.236288   0.000000
   89       -2.194000   0.000000
   90       -2.090427   0.000000
   91       -1.719253   0.000000
   92       -1.545941   0.000000
   93       -1.464489   0.000000
   94       -1.258308   0.000000
   95       -1.121807   0.000000
   96       -1.078017   0.000000
   97       -1.027073   0.000000
   98       -0.909647   0.000000
   99       -0.844918   0.000000
  100       -0.789928   0.000000
  101       -0.716656   0.000000
  102       -0.651736   0.000000
  103       -0.524096   0.000000
  104       -0.486237   0.000000
  105       -0.436204   0.000000
  106       -0.290411   0.000000
  107       -0.211651   0.000000
  108        0.003285   0.000000
  109        0.176427   0.000000
  110        0.292497   0.000000
  111        0.371809   0.000000
  112        0.551669   0.000000
  113        0.646682   0.000000
  114        0.919873   0.000000
  115        0.977461   0.000000
  116        1.024884   0.000000
  117        1.409652   0.000000
  118        1.773164   0.000000
  119        1.948309   0.000000
  120        2.257045   0.000000
 
  0.2500000E+00  0.1250000E+00  0.0000000E+00  0.3125000E-01
    1      -17.661544   1.000000
    2      -17.102857   1.000000
    3      -16.845860   1.000000
    4      -16.732462   1.000000
    5      -16.499125   1.000000
    6      -16.453863   1.000000
    7      -16.334288   1.000000
    8      -16.223645   1.000000
    9      -16.129895   1.000000
   10      -16.021693   1.000000
   11      -15.939411   1.000000
   12      -15.903001   1.000000
   13      -15.774173   1.000000
   14      -15.697780   1.000000
   15      -15.627179   1.000000
   16      -15.477893   1.000000
   17      -15.419739   1.000000
   18      -15.208347   1.000000
   19       -9.606515   1.000000
   20       -9.435960   1.000000
   21       -9.245862   1.000000
   22       -9.118522   1.000000
   23       -8.822143   1.000000
   24       -8.776933   1.000000
   25       -8.544892   1.000000
   26       -8.492205   1.000000
   27       -8.451110   1.000000
   28       -8.377017   1.000000
   29       -8.307625   1.000000
   30       -8.244543   1.000000
   31       -8.139547   1.000000
   32       -8.072815   1.000000
   33       -7.990674   1.000000
   34       -7.882580   1.000000
   35       -7.756792   1.000000
   36       -7.693928   1.000000
   37       -7.537245   1.000000
   38       -7.429486   1.000000
   39       -7.366916   1.000000
   40       -7.283593   1.000000
   41       -7.222541   1.000000
   42       -7.168687   1.000000
   43       -7.119467   1.000000
   44       -6.999182   1.000000
   45       -6.833840   1.000000
   46       -6.795723   1.000000
   47       -6.728527   1.000000