       N       E                     dE             d eps       ncg     rms          rms(c)
DAV:   1     0.112603348862E+04    0.11260E+04   -0.35976E+04  8160   0.577E+02
DAV:   2    -0.864005805017E+00   -0.11269E+04   -0.10833E+04 11200   0.173E+02
DAV:   3    -0.199565629200E+03   -0.19870E+03   -0.19057E+03 10880   0.823E+01
DAV:   4    -0.208955007899E+03   -0.93894E+01   -0.91000E+01 12520   0.264E+01
DAV:   5    -0.209250753730E+03   -0.29575E+00   -0.29484E+00 11400   0.326E+00    0.274E+01
DAV:   6    -0.236678908852E+03   -0.27428E+02   -0.10851E+02 13000   0.604E+01    0.592E+01
DAV:   7    -0.196774244506E+03    0.39905E+02   -0.17599E+02 13040   0.152E+02    0.205E+01
DAV:   8    -0.190259738741E+03    0.65145E+01   -0.21744E+01 11640   0.135E+01    0.140E+01
DAV:   9    -0.188310918300E+03    0.19488E+01   -0.36077E+00 11960   0.637E+00    0.940E+00
DAV:  10    -0.187166992356E+03    0.11439E+01   -0.17998E+00 13400   0.746E+00    0.376E+00
DAV:  11    -0.187002693326E+03    0.16430E+00   -0.72751E-01 12680   0.271E+00    0.227E+00
DAV:  12    -0.187089926969E+03   -0.87234E-01   -0.53691E-01 13200   0.379E+00    0.450E+00
DAV:  13    -0.186939078090E+03    0.15085E+00   -0.49976E-01 13120   0.380E+00    0.199E+00
DAV:  14    -0.186906250725E+03    0.32827E-01   -0.10827E-01 13240   0.175E+00    0.120E+00
DAV:  15    -0.186898327087E+03    0.79236E-02   -0.55386E-02 13040   0.138E+00    0.982E-01
DAV:  16    -0.186890833971E+03    0.74931E-02   -0.19381E-02 12760   0.719E-01    0.478E-01
DAV:  17    -0.186888659909E+03    0.21741E-02   -0.67100E-03 13080   0.282E-01    0.228E-01
DAV:  18    -0.186887646395E+03    0.10135E-02   -0.36476E-03 12720   0.268E-01    0.199E-01
DAV:  19    -0.186887337170E+03    0.30922E-03   -0.10207E-03 11600   0.157E-01    0.478E-02
DAV:  20    -0.186888098454E+03   -0.76128E-03   -0.70696E-04  9160   0.595E-02    0.538E-02
DAV:  21    -0.186888664733E+03   -0.56628E-03   -0.23893E-04  8280   0.461E-02    0.292E-02
DAV:  22    -0.186889798093E+03   -0.11334E-02   -0.17608E-04  7520   0.409E-02    0.356E-02
DAV:  23    -0.186891048516E+03   -0.12504E-02   -0.14055E-04  7440   0.445E-02    0.144E-02
DAV:  24    -0.186891617713E+03   -0.56920E-03   -0.25950E-05  6840   0.143E-02    0.603E-03
DAV:  25    -0.186892005267E+03   -0.38755E-03   -0.16307E-05  5440   0.956E-03    0.443E-03
DAV:  26    -0.186892247700E+03   -0.24243E-03   -0.90463E-06  6800   0.721E-03    0.153E-03
DAV:  27    -0.186892346862E+03   -0.99161E-04   -0.34605E-06  7240   0.414E-03
   1 F= -.18689235E+03 E0= -.18672150E+03  d E =-.186892E+03
       N       E                     dE             d eps       ncg     rms          rms(c)
DAV:   1    -0.187532344970E+03   -0.64010E+00   -0.27202E+02  8160   0.350E+01    0.466E+00
DAV:   2    -0.189535526954E+03   -0.20032E+01   -0.20342E+01 12320   0.157E+01    0.961E+00
DAV:   3    -0.189353562751E+03    0.18196E+00   -0.41880E+00 12400   0.123E+01    0.641E+00
DAV:   4    -0.188788416148E+03    0.56515E+00   -0.58115E-01 12640   0.442E+00    0.173E+00
DAV:   5    -0.188859328155E+03   -0.70912E-01   -0.41065E-01 11360   0.297E+00    0.431E+00
DAV:   6    -0.188771647606E+03    0.87681E-01   -0.61169E-01 12880   0.411E+00    0.254E+00
DAV:   7    -0.188728424877E+03    0.43223E-01   -0.17438E-01 12280   0.194E+00    0.133E+00
DAV:   8    -0.188712048852E+03    0.16376E-01   -0.70370E-02 12960   0.135E+00    0.123E+00
DAV:   9    -0.188701623560E+03    0.10425E-01   -0.25722E-02 11800   0.891E-01    0.369E-01
DAV:  10    -0.188700546504E+03    0.10771E-02   -0.38835E-03 11640   0.240E-01    0.183E-01
DAV:  11    -0.188700108650E+03    0.43785E-03   -0.23467E-03 12160   0.157E-01    0.101E-01
DAV:  12    -0.188700208897E+03   -0.10025E-03   -0.90056E-04 11560   0.939E-02    0.823E-02
DAV:  13    -0.188700156635E+03    0.52262E-04   -0.22328E-04  7680   0.539E-02
   2 F= -.18870016E+03 E0= -.18856117E+03  d E =-.180781E+01
       N       E                     dE             d eps       ncg     rms          rms(c)
DAV:   1    -0.190622889242E+03   -0.19227E+01   -0.31338E+01  8960   0.142E+01    0.443E+00
DAV:   2    -0.190571851113E+03    0.51038E-01   -0.27611E+00 11280   0.946E+00    0.720E+00
DAV:   3    -0.190106600042E+03    0.46525E+00   -0.13336E+00 12360   0.859E+00    0.420E+00
DAV:   4    -0.189898580954E+03    0.20802E+00   -0.72328E-01 12800   0.424E+00    0.253E+00
DAV:   5    -0.189878539979E+03    0.20041E-01   -0.38542E-01 12280   0.315E+00    0.285E+00
DAV:   6    -0.189800474970E+03    0.78065E-01   -0.15198E-01 12520   0.250E+00    0.740E-01
DAV:   7    -0.189793604238E+03    0.68707E-02   -0.14730E-02 11600   0.542E-01    0.206E-01
DAV:   8    -0.189793722435E+03   -0.11820E-03   -0.31348E-03 11240   0.191E-01    0.181E-01
DAV:   9    -0.189793892449E+03   -0.17001E-03   -0.15003E-03 10640   0.237E-01    0.217E-01
DAV:  10    -0.189793998018E+03   -0.10557E-03   -0.14642E-03  9960   0.242E-01    0.176E-01
DAV:  11    -0.189793652597E+03    0.34542E-03   -0.58373E-04  9000   0.122E-01    0.187E-02
DAV:  12    -0.189793680791E+03   -0.28194E-04   -0.84242E-05  6960   0.310E-02
   3 F= -.18979368E+03 E0= -.18967530E+03  d E =-.109352E+01
       N       E                     dE             d eps       ncg     rms          rms(c)
DAV:   1    -0.191367116186E+03   -0.15735E+01   -0.77758E+01  8160   0.201E+01    0.459E+00
DAV:   2    -0.191204433769E+03    0.16268E+00   -0.53941E+00 13200   0.784E+00    0.473E+00
DAV:   3    -0.191309866220E+03   -0.10543E+00   -0.15980E+00 12200   0.910E+00    0.649E+00
DAV:   4    -0.190936800390E+03    0.37307E+00   -0.13489E+00 12480   0.747E+00    0.297E+00
DAV:   5    -0.190888885370E+03    0.47915E-01   -0.43720E-01 12520   0.392E+00    0.286E+00
DAV:   6    -0.190804900565E+03    0.83985E-01   -0.20928E-01 12280   0.317E+00    0.126E+00
DAV:   7    -0.190790132112E+03    0.14768E-01   -0.47408E-02 12720   0.114E+00    0.407E-01
DAV:   8    -0.190787558616E+03    0.25735E-02   -0.66073E-03 10160   0.350E-01    0.203E-01
DAV:   9    -0.190787904500E+03   -0.34588E-03   -0.22502E-03 11680   0.314E-01    0.261E-01
DAV:  10    -0.190787667381E+03    0.23712E-03   -0.17439E-03 11080   0.234E-01    0.919E-02
DAV:  11    -0.190787560240E+03    0.10714E-03   -0.45544E-04  9080   0.822E-02    0.447E-02
DAV:  12    -0.190787557782E+03    0.24585E-05   -0.99321E-05  7280   0.386E-02
   4 F= -.19078756E+03 E0= -.19068270E+03  d E =-.993877E+00
       N       E                     dE             d eps       ncg     rms          rms(c)
DAV:   1    -0.192100468572E+03   -0.13129E+01   -0.16168E+02  8160   0.283E+01    0.559E+00
DAV:   2    -0.191865404544E+03    0.23506E+00   -0.92726E+00 11480   0.809E+00    0.390E+00
DAV:   3    -0.192067756744E+03   -0.20235E+00   -0.20731E+00 11200   0.873E+00    0.808E+00
DAV:   4    -0.191748608357E+03    0.31915E+00   -0.28907E+00 11480   0.108E+01    0.446E+00
DAV:   5    -0.191572716013E+03    0.17589E+00   -0.74497E-01 12360   0.549E+00    0.321E+00
DAV:   6    -0.191447485167E+03    0.12523E+00   -0.27481E-01 12280   0.376E+00    0.127E+00
DAV:   7    -0.191433136241E+03    0.14349E-01   -0.62185E-02 12280   0.132E+00    0.512E-01
DAV:   8    -0.191428933171E+03    0.42031E-02   -0.10431E-02 10720   0.479E-01    0.233E-01
DAV:   9    -0.191430461848E+03   -0.15287E-02   -0.52089E-03 12680   0.493E-01    0.434E-01
DAV:  10    -0.191428868005E+03    0.15938E-02   -0.38400E-03 11200   0.389E-01    0.632E-02
DAV:  11    -0.191428936888E+03   -0.68882E-04   -0.36125E-04  9200   0.712E-02
   5 F= -.19142894E+03 E0= -.19132369E+03  d E =-.641379E+00
       N       E                     dE             d eps       ncg     rms          rms(c)
DAV:   1    -0.191478044392E+03   -0.49176E-01   -0.39914E+00  8160   0.423E+00    0.590E-01
DAV:   2    -0.191530866975E+03   -0.52823E-01   -0.24640E-01 13040   0.270E+00    0.200E+00
DAV:   3    -0.191488802223E+03    0.42065E-01   -0.87891E-02 12440   0.209E+00    0.371E-01
DAV:   4    -0.191490388065E+03   -0.15858E-02   -0.11939E-02 11400   0.686E-01    0.584E-01
DAV:   5    -0.191487015077E+03    0.33730E-02   -0.74260E-03 10200   0.568E-01    0.179E-01
DAV:   6    -0.191486984657E+03    0.30420E-04   -0.17756E-03 10440   0.174E-01    0.126E-01
DAV:   7    -0.191486677800E+03    0.30686E-03   -0.91434E-04 10160   0.123E-01    0.661E-02
DAV:   8    -0.191486686510E+03   -0.87105E-05   -0.27529E-04  7640   0.109E-01
   6 F= -.19148669E+03 E0= -.19137912E+03  d E =-.577496E-01
       N       E                     dE             d eps       ncg     rms          rms(c)
DAV:   1    -0.191540029522E+03   -0.53352E-01   -0.46923E+00  8160   0.458E+00    0.572E-01
DAV:   2    -0.191574577879E+03   -0.34548E-01   -0.17500E-01 13600   0.202E+00    0.159E+00
DAV:   3    -0.191546789003E+03    0.27789E-01   -0.67218E-02 12440   0.185E+00    0.426E-01
DAV:   4    -0.191546398579E+03    0.39042E-03   -0.85353E-03 11080   0.530E-01    0.433E-01
DAV:   5    -0.191545120721E+03    0.12779E-02   -0.68972E-03 10520   0.542E-01    0.289E-01
DAV:   6    -0.191544481034E+03    0.63969E-03   -0.25101E-03  9920   0.272E-01    0.116E-01
DAV:   7    -0.191544312652E+03    0.16838E-03   -0.77477E-04 10520   0.116E-01    0.630E-02
DAV:   8    -0.191544324053E+03   -0.11400E-04   -0.29491E-04  8200   0.113E-01
   7 F= -.19154432E+03 E0= -.19143492E+03  d E =-.576375E-01
       N       E                     dE             d eps       ncg     rms          rms(c)
DAV:   1    -0.191546795841E+03   -0.24832E-02   -0.22294E-02  8160   0.338E-01    0.641E-02
DAV:   2    -0.191546910021E+03   -0.11418E-03   -0.13764E-03 11280   0.142E-01    0.110E-01
DAV:   3    -0.191546820499E+03    0.89522E-04   -0.46328E-04  9040   0.154E-01
   8 F= -.19154682E+03 E0= -.19143745E+03  d E =-.249645E-02
       N       E                     dE             d eps       ncg     rms          rms(c)
DAV:   1    -0.191529847081E+03    0.17063E-01   -0.10690E+00  8160   0.225E+00    0.444E-01
DAV:   2    -0.191553484720E+03   -0.23638E-01   -0.87907E-02 12600   0.184E+00    0.151E+00
DAV:   3    -0.191529046979E+03    0.24438E-01   -0.40218E-02 12120   0.148E+00    0.295E-01
DAV:   4    -0.191530005674E+03   -0.95869E-03   -0.76068E-03 10000   0.593E-01    0.455E-01
DAV:   5    -0.191528050695E+03    0.19550E-02   -0.57740E-03 10240   0.506E-01    0.202E-01
DAV:   6    -0.191527902271E+03    0.14842E-03   -0.24076E-03 11000   0.286E-01    0.202E-01
DAV:   7    -0.191527609408E+03    0.29286E-03   -0.14907E-03 10200   0.242E-01    0.102E-01
DAV:   8    -0.191527504941E+03    0.10447E-03   -0.29522E-04  7400   0.958E-02    0.239E-02
DAV:   9    -0.191527503922E+03    0.10194E-05   -0.36554E-05  6800   0.252E-02
   9 F= -.19152750E+03 E0= -.19141865E+03  d E =0.193166E-01
       N       E                     dE             d eps       ncg     rms          rms(c)
DAV:   1    -0.191572213579E+03   -0.44709E-01   -0.32304E+00  8160   0.383E+00    0.516E-01
DAV:   2    -0.191605445089E+03   -0.33232E-01   -0.14842E-01 13600   0.215E+00    0.165E+00
DAV:   3    -0.191576802739E+03    0.28642E-01   -0.62452E-02 12200   0.176E+00    0.326E-01
DAV:   4    -0.191578262532E+03   -0.14598E-02   -0.92350E-03 11000   0.630E-01    0.536E-01
DAV:   5    -0.191575369466E+03    0.28931E-02   -0.56306E-03 10840   0.532E-01    0.148E-01
DAV:   6    -0.191575423143E+03   -0.53677E-04   -0.15301E-03 11200   0.185E-01    0.146E-01
DAV:   7    -0.191575549089E+03   -0.12595E-03   -0.18667E-03 10400   0.270E-01    0.217E-01
DAV:   8    -0.191575080682E+03    0.46841E-03   -0.89001E-04  8360   0.189E-01    0.267E-02
DAV:   9    -0.191575095895E+03   -0.15213E-04   -0.57687E-05  5680   0.299E-02
  10 F= -.19157510E+03 E0= -.19146536E+03  d E =-.475920E-01
       N       E                     dE             d eps       ncg     rms          rms(c)
DAV:   1    -0.191623188535E+03   -0.48108E-01   -0.29983E+00  8160   0.369E+00    0.511E-01
DAV:   2    -0.191651984461E+03   -0.28796E-01   -0.12771E-01 13600   0.202E+00    0.159E+00
DAV:   3    -0.191625861497E+03    0.26123E-01   -0.52692E-02 12160   0.169E+00    0.328E-01
DAV:   4    -0.191627437858E+03   -0.15764E-02   -0.98653E-03 11360   0.645E-01    0.557E-01
DAV:   5    -0.191624352813E+03    0.30850E-02   -0.70073E-03 10960   0.575E-01    0.175E-01
DAV:   6    -0.191624138600E+03    0.21421E-03   -0.18719E-03 10440   0.197E-01    0.104E-01
DAV:   7    -0.191624001733E+03    0.13687E-03   -0.69260E-04 10760   0.127E-01    0.876E-02
DAV:   8    -0.191623949932E+03    0.51801E-04   -0.32369E-04  7520   0.115E-01
  11 F= -.19162395E+03 E0= -.19151475E+03  d E =-.488540E-01
       N       E                     dE             d eps       ncg     rms          rms(c)
DAV:   1    -0.191652117317E+03   -0.28116E-01   -0.93996E-01  8160   0.206E+00    0.236E-01
DAV:   2    -0.191656511016E+03   -0.43937E-02   -0.28820E-02 13480   0.728E-01    0.544E-01
DAV:   3    -0.191653482848E+03    0.30282E-02   -0.90341E-03 12200   0.680E-01    0.216E-01
DAV:   4    -0.191653482160E+03    0.68826E-06   -0.22156E-03  9640   0.281E-01    0.229E-01
DAV:   5    -0.191653029403E+03    0.45276E-03   -0.14638E-03  9240   0.261E-01    0.106E-01
DAV:   6    -0.191652982410E+03    0.46992E-04   -0.42438E-04  8120   0.113E-01
  12 F= -.19165298E+03 E0= -.19154498E+03  d E =-.290325E-01
       N       E                     dE             d eps       ncg     rms          rms(c)
DAV:   1    -0.191644234775E+03    0.87946E-02   -0.13259E-01  8160   0.821E-01    0.208E-01
DAV:   2    -0.191651973362E+03   -0.77386E-02   -0.23355E-02 12240   0.100E+00    0.879E-01
DAV:   3    -0.191644024165E+03    0.79492E-02   -0.13706E-02 11280   0.818E-01    0.113E-01
DAV:   4    -0.191644169029E+03   -0.14486E-03   -0.96078E-04  9560   0.222E-01    0.151E-01
DAV:   5    -0.191643932696E+03    0.23633E-03   -0.62804E-04  8960   0.189E-01    0.745E-02
DAV:   6    -0.191643933434E+03   -0.73821E-06   -0.32797E-04  6800   0.110E-01
  13 F= -.19164393E+03 E0= -.19153566E+03  d E =0.904898E-02
       N       E                     dE             d eps       ncg     rms          rms(c)
DAV:   1    -0.191724987134E+03   -0.81054E-01   -0.73065E+00  8160   0.579E+00    0.721E-01
DAV:   2    -0.191773120213E+03   -0.48133E-01   -0.27097E-01 13600   0.261E+00    0.199E+00
DAV:   3    -0.191735907897E+03    0.37212E-01   -0.10115E-01 12200   0.222E+00    0.600E-01
DAV:   4    -0.191738406275E+03   -0.24984E-02   -0.25818E-02 11360   0.107E+00    0.843E-01
DAV:   5    -0.191731060279E+03    0.73460E-02   -0.14805E-02 12160   0.881E-01    0.251E-01
DAV:   6    -0.191731260644E+03   -0.20036E-03   -0.48963E-03 11520   0.392E-01    0.304E-01
DAV:   7    -0.191731088364E+03    0.17228E-03   -0.47670E-03 11400   0.488E-01    0.283E-01
DAV:   8    -0.191730175036E+03    0.91333E-03   -0.14806E-03  9640   0.253E-01    0.393E-02
DAV:   9    -0.191730175935E+03   -0.89881E-06   -0.12739E-04  6200   0.427E-02
  14 F= -.19173018E+03 E0= -.19162650E+03  d E =-.862425E-01
       N       E                     dE             d eps       ncg     rms          rms(c)
DAV:   1    -0.191792884806E+03   -0.62710E-01   -0.42803E+00  8160   0.441E+00    0.528E-01
DAV:   2    -0.191817956217E+03   -0.25071E-01   -0.14862E-01 13320   0.185E+00    0.143E+00
DAV:   3    -0.191799606466E+03    0.18350E-01   -0.52142E-02 11880   0.160E+00    0.491E-01
DAV:   4    -0.191800142677E+03   -0.53621E-03   -0.13448E-02 11400   0.788E-01    0.572E-01
DAV:   5    -0.191796699349E+03    0.34433E-02   -0.67723E-03 11800   0.633E-01    0.190E-01
DAV:   6    -0.191796389198E+03    0.31015E-03   -0.20979E-03 10960   0.211E-01    0.103E-01
DAV:   7    -0.191796260825E+03    0.12837E-03   -0.76951E-04 11280   0.125E-01    0.812E-02
DAV:   8    -0.191796210332E+03    0.50494E-04   -0.26251E-04  7680   0.117E-01
  15 F= -.19179621E+03 E0= -.19169689E+03  d E =-.660344E-01
       N       E                     dE             d eps       ncg     rms          rms(c)
DAV:   1    -0.191882983969E+03   -0.86723E-01   -0.99700E+00  8160   0.672E+00    0.734E-01
DAV:   2    -0.191926673347E+03   -0.43689E-01   -0.31890E-01 12240   0.233E+00    0.177E+00
DAV:   3    -0.191902687427E+03    0.23986E-01   -0.98709E-02 11920   0.216E+00    0.779E-01
DAV:   4    -0.191899857141E+03    0.28303E-02   -0.21241E-02 11680   0.100E+00    0.635E-01
DAV:   5    -0.191895532073E+03    0.43251E-02   -0.93301E-03 11920   0.805E-01    0.282E-01
DAV:   6    -0.191894960432E+03    0.57164E-03   -0.40302E-03 12280   0.341E-01    0.163E-01
DAV:   7    -0.191894804281E+03    0.15615E-03   -0.18421E-03 11800   0.248E-01    0.175E-01
DAV:   8    -0.191894512552E+03    0.29173E-03   -0.72679E-04  8960   0.211E-01    0.626E-02
DAV:   9    -0.191894471673E+03    0.40879E-04   -0.11908E-04  6200   0.691E-02
  16 F= -.19189447E+03 E0= -.19180171E+03  d E =-.982613E-01
       N       E                     dE             d eps       ncg     rms          rms(c)
DAV:   1    -0.191973704392E+03   -0.79192E-01   -0.10506E+01  8160   0.696E+00    0.823E-01
DAV:   2    -0.192029566358E+03   -0.55862E-01   -0.39773E-01 12160   0.274E+00    0.208E+00
DAV:   3    -0.191995650500E+03    0.33916E-01   -0.12318E-01 11960   0.243E+00    0.790E-01
DAV:   4    -0.191992672375E+03    0.29781E-02   -0.24274E-02 12240   0.112E+00    0.684E-01
DAV:   5    -0.191987624349E+03    0.50480E-02   -0.11999E-02 11680   0.942E-01    0.347E-01
DAV:   6    -0.191986520596E+03    0.11038E-02   -0.58313E-03 12120   0.419E-01    0.165E-01
DAV:   7    -0.191986080351E+03    0.44024E-03   -0.19305E-03 11840   0.203E-01    0.118E-01
DAV:   8    -0.191985983948E+03    0.96404E-04   -0.52187E-04 10040   0.177E-01
  17 F= -.19198598E+03 E0= -.19189728E+03  d E =-.915123E-01
       N       E                     dE             d eps       ncg     rms          rms(c)
DAV:   1    -0.192034965346E+03   -0.48885E-01   -0.64728E+00  8160   0.540E+00    0.592E-01
DAV:   2    -0.192060781037E+03   -0.25816E-01   -0.23679E-01 11400   0.179E+00    0.114E+00
DAV:   3    -0.192052791824E+03    0.79892E-02   -0.49737E-02 12400   0.166E+00    0.728E-01
DAV:   4    -0.192046872092E+03    0.59197E-02   -0.10085E-02 12120   0.680E-01    0.213E-01
DAV:   5    -0.192047555393E+03   -0.68330E-03   -0.45421E-03 12480   0.474E-01    0.359E-01
DAV:   6    -0.192046736747E+03    0.81865E-03   -0.40107E-03 12040   0.516E-01    0.206E-01
DAV:   7    -0.192046209552E+03    0.52719E-03   -0.10927E-03 10640   0.198E-01    0.491E-02
DAV:   8    -0.192046194950E+03    0.14602E-04   -0.15631E-04  7080   0.820E-02
  18 F= -.19204619E+03 E0= -.19196057E+03  d E =-.602110E-01
       N       E                     dE             d eps       ncg     rms          rms(c)
DAV:   1    -0.192058834119E+03   -0.12625E-01   -0.28350E-01  8160   0.124E+00    0.250E-01
DAV:   2    -0.192059471534E+03   -0.63741E-03   -0.17948E-02 10360   0.562E-01    0.377E-01
DAV:   3    -0.192058736672E+03    0.73486E-03   -0.58051E-03 11160   0.592E-01    0.282E-01
DAV:   4    -0.192058104112E+03    0.63256E-03   -0.27627E-03 10360   0.387E-01    0.210E-01
DAV:   5    -0.192057838215E+03    0.26590E-03   -0.16090E-03  9880   0.334E-01    0.157E-01
DAV:   6    -0.192057502793E+03    0.33542E-03   -0.64020E-04  9840   0.174E-01    0.272E-02
DAV:   7    -0.192057495085E+03    0.77080E-05   -0.89029E-05  6360   0.377E-02
  19 F= -.19205750E+03 E0= -.19197147E+03  d E =-.113001E-01
       N       E                     dE             d eps       ncg     rms          rms(c)
DAV:   1    -0.192083260532E+03   -0.25758E-01   -0.21310E+00  8160   0.310E+00    0.331E-01
DAV:   2    -0.192091679681E+03   -0.84191E-02   -0.78119E-02 11600   0.995E-01    0.627E-01
DAV:   3    -0.192089296443E+03    0.23832E-02   -0.15350E-02 12520   0.918E-01    0.402E-01
DAV:   4    -0.192087461742E+03    0.18347E-02   -0.30380E-03 11080   0.369E-01    0.104E-01
DAV:   5    -0.192087403459E+03    0.58283E-04   -0.96808E-04 10400   0.121E-01
  20 F= -.19208740E+03 E0= -.19200237E+03  d E =-.299084E-01
       N       E                     dE             d eps       ncg     rms          rms(c)
DAV:   1    -0.192104357224E+03   -0.16895E-01   -0.85333E-01  8160   0.200E+00    0.307E-01
DAV:   2    -0.192110909861E+03   -0.65526E-02   -0.44524E-02 12400   0.105E+00    0.717E-01
DAV:   3    -0.192105785985E+03    0.51239E-02   -0.11067E-02 12200   0.893E-01    0.248E-01
DAV:   4    -0.192105879485E+03   -0.93501E-04   -0.28919E-03 11320   0.429E-01    0.288E-01
DAV:   5    -0.192105017273E+03    0.86221E-03   -0.19199E-03 10520   0.378E-01    0.126E-01
DAV:   6    -0.192104964486E+03    0.52787E-04   -0.87192E-04  9880   0.183E-01
  21 F= -.19210496E+03 E0= -.19201975E+03  d E =-.175610E-01
       N       E                     dE             d eps       ncg     rms          rms(c)
DAV:   1    -0.192123860668E+03   -0.18843E-01   -0.19300E+00  8160   0.295E+00    0.318E-01
DAV:   2    -0.192130566711E+03   -0.67060E-02   -0.72224E-02 11960   0.906E-01    0.492E-01
DAV:   3    -0.192130087726E+03    0.47898E-03   -0.11955E-02 12160   0.843E-01    0.446E-01
DAV:   4    -0.192127853937E+03    0.22338E-02   -0.30060E-03 11000   0.410E-01    0.965E-02
DAV:   5    -0.192128030673E+03   -0.17674E-03   -0.10082E-03 10160   0.189E-01    0.142E-01
DAV:   6    -0.192127941009E+03    0.89663E-04   -0.89085E-04 11440   0.250E-01
  22 F= -.19212794E+03 E0= -.19204376E+03  d E =-.229765E-01
       N       E                     dE             d eps       ncg     rms          rms(c)
DAV:   1    -0.192143468958E+03   -0.15438E-01   -0.15011E+00  8160   0.265E+00    0.334E-01
DAV:   2    -0.192149630601E+03   -0.61616E-02   -0.68884E-02 13040   0.944E-01    0.526E-01
DAV:   3    -0.192148232475E+03    0.13981E-02   -0.11083E-02 11520   0.840E-01    0.393E-01
DAV:   4    -0.192146857932E+03    0.13745E-02   -0.38971E-03 11160   0.482E-01    0.232E-01
DAV:   5    -0.192146504143E+03    0.35379E-03   -0.18864E-03 10000   0.379E-01    0.172E-01
DAV:   6    -0.192146232608E+03    0.27153E-03   -0.10270E-03 10600   0.209E-01    0.681E-02
DAV:   7    -0.192146140822E+03    0.91786E-04   -0.27643E-04  7920   0.825E-02
  23 F= -.19214614E+03 E0= -.19206197E+03  d E =-.181998E-01
       N       E                     dE             d eps       ncg     rms          rms(c)
DAV:   1    -0.192155081054E+03   -0.88484E-02   -0.57087E-01  8160   0.161E+00    0.196E-01
DAV:   2    -0.192157258208E+03   -0.21772E-02   -0.23511E-02 11720   0.595E-01    0.297E-01
DAV:   3    -0.192156653793E+03    0.60441E-03   -0.34455E-03 12120   0.493E-01    0.201E-01
DAV:   4    -0.192156321274E+03    0.33252E-03   -0.12736E-03 10080   0.274E-01    0.143E-01
DAV:   5    -0.192156213394E+03    0.10788E-03   -0.68717E-04  9760   0.211E-01    0.102E-01
DAV:   6    -0.192156135654E+03    0.77740E-04   -0.29510E-04  8360   0.122E-01
  24 F= -.19215614E+03 E0= -.19207251E+03  d E =-.999483E-02
       N       E                     dE             d eps       ncg     rms          rms(c)
DAV:   1    -0.192162333786E+03   -0.61204E-02   -0.23432E-01  8160   0.106E+00    0.160E-01
DAV:   2    -0.192163814121E+03   -0.14803E-02   -0.11813E-02 11760   0.466E-01    0.331E-01
DAV:   3    -0.192162826286E+03    0.98783E-03   -0.28050E-03 12280   0.452E-01    0.158E-01
DAV:   4    -0.192162544668E+03    0.28162E-03   -0.50539E-04  8640   0.156E-01    0.665E-02
DAV:   5    -0.192162638206E+03   -0.93539E-04   -0.46790E-04  9480   0.167E-01
  25 F= -.19216264E+03 E0= -.19207922E+03  d E =-.650255E-02
       N       E                     dE             d eps       ncg     rms          rms(c)
DAV:   1    -0.192173804678E+03   -0.11260E-01   -0.14225E+00  8160   0.255E+00    0.298E-01
DAV:   2    -0.192178356011E+03   -0.45513E-02   -0.53371E-02 11960   0.732E-01    0.425E-01
DAV:   3    -0.192178169734E+03    0.18628E-03   -0.89841E-03 12280   0.750E-01    0.408E-01
DAV:   4    -0.192176204952E+03    0.19648E-02   -0.24541E-03 11040   0.380E-01    0.842E-02
DAV:   5    -0.192176506093E+03   -0.30114E-03   -0.99932E-04 11200   0.210E-01    0.159E-01
DAV:   6    -0.192176194051E+03    0.31204E-03   -0.54741E-04 10240   0.214E-01    0.555E-02
DAV:   7    -0.192176154755E+03    0.39296E-04   -0.10453E-04  6520   0.730E-02
  26 F= -.19217615E+03 E0= -.19209257E+03  d E =-.135165E-01
       N       E                     dE             d eps       ncg     rms          rms(c)
DAV:   1    -0.192183613246E+03   -0.74192E-02   -0.74203E-01  8160   0.183E+00    0.214E-01
DAV:   2    -0.192186474522E+03   -0.28613E-02   -0.30546E-02 11240   0.634E-01    0.316E-01
DAV:   3    -0.192185967632E+03    0.50689E-03   -0.46052E-03 12360   0.542E-01    0.242E-01
DAV:   4    -0.192185406075E+03    0.56156E-03   -0.13618E-03 10000   0.292E-01    0.128E-01
DAV:   5    -0.192185321131E+03    0.84944E-04   -0.54385E-04  9120   0.206E-01
  27 F= -.19218532E+03 E0= -.19210209E+03  d E =-.916638E-02
       N       E                     dE             d eps       ncg     rms          rms(c)
DAV:   1    -0.192194725668E+03   -0.93196E-02   -0.35342E+00  8160   0.402E+00    0.463E-01
DAV:   2    -0.192206792602E+03   -0.12067E-01   -0.13310E-01 11720   0.116E+00    0.651E-01
DAV:   3    -0.192205645400E+03    0.11472E-02   -0.20416E-02 12280   0.117E+00    0.586E-01
DAV:   4    -0.192201587103E+03    0.40583E-02   -0.50510E-03 11240   0.577E-01    0.151E-01
DAV:   5    -0.192202856362E+03   -0.12693E-02   -0.33102E-03 11200   0.451E-01    0.359E-01
DAV:   6    -0.192201563004E+03    0.12934E-02   -0.24905E-03 11440   0.407E-01    0.121E-01
DAV:   7    -0.192201416186E+03    0.14682E-03   -0.44949E-04  8640   0.169E-01    0.669E-02
DAV:   8    -0.192201364450E+03    0.51736E-04   -0.12497E-04  7160   0.890E-02
  28 F= -.19220136E+03 E0= -.19211821E+03  d E =-.160433E-01
       N       E                     dE             d eps       ncg     rms          rms(c)
DAV:   1    -0.192202684337E+03   -0.12682E-02   -0.75031E-02  8160   0.618E-01    0.113E-01
DAV:   2    -0.192202830682E+03   -0.14635E-03   -0.41760E-03 11320   0.249E-01    0.155E-01
DAV:   3    -0.192202768886E+03    0.61796E-04   -0.13550E-03 10640   0.280E-01    0.149E-01
DAV:   4    -0.192202505506E+03    0.26338E-03   -0.49146E-04  8400   0.173E-01    0.513E-02
DAV:   5    -0.192202515013E+03   -0.95076E-05   -0.17539E-04  5920   0.100E-01
  29 F= -.19220252E+03 E0= -.19211896E+03  d E =-.115056E-02
       N       E                     dE             d eps       ncg     rms          rms(c)
DAV:   1    -0.192205037808E+03   -0.25323E-02   -0.16735E-01  8160   0.876E-01    0.997E-02
DAV:   2    -0.192205594732E+03   -0.55692E-03   -0.65484E-03 10240   0.255E-01    0.129E-01
DAV:   3    -0.192205569814E+03    0.24918E-04   -0.90386E-04 11680   0.238E-01
  30 F= -.19220557E+03 E0= -.19212182E+03  d E =-.305480E-02
       N       E                     dE             d eps       ncg     rms          rms(c)
DAV:   1    -0.192207332248E+03   -0.17375E-02   -0.87026E-02  8160   0.644E-01    0.106E-01
DAV:   2    -0.192207932951E+03   -0.60070E-03   -0.35026E-03 12640   0.305E-01    0.208E-01
DAV:   3    -0.192207405144E+03    0.52781E-03   -0.96283E-04 11080   0.284E-01    0.769E-02
DAV:   4    -0.192207429722E+03   -0.24578E-04   -0.28037E-04  8720   0.121E-01
  31 F= -.19220743E+03 E0= -.19212386E+03  d E =-.185991E-02
       N       E                     dE             d eps       ncg     rms          rms(c)
DAV:   1    -0.192210815177E+03   -0.34100E-02   -0.58997E-01  8160   0.163E+00    0.196E-01
DAV:   2    -0.192212358215E+03   -0.15430E-02   -0.23384E-02 11240   0.433E-01    0.153E-01
DAV:   3    -0.192212800693E+03   -0.44248E-03   -0.23465E-03 12200   0.369E-01    0.262E-01
DAV:   4    -0.192212089477E+03    0.71122E-03   -0.13745E-03 11000   0.319E-01    0.110E-01
DAV:   5    -0.192212098067E+03   -0.85894E-05   -0.47250E-04  8400   0.185E-01
  32 F= -.19221210E+03 E0= -.19212877E+03  d E =-.466835E-02
       N       E                     dE             d eps       ncg     rms          rms(c)
DAV:   1    -0.192213514120E+03   -0.14246E-02   -0.10356E-01  8160   0.699E-01    0.121E-01
DAV:   2    -0.192214825216E+03   -0.13111E-02   -0.64477E-03 11560   0.443E-01    0.315E-01
DAV:   3    -0.192213637175E+03    0.11880E-02   -0.21198E-03 11280   0.385E-01    0.855E-02
DAV:   4    -0.192213634527E+03    0.26483E-05   -0.33661E-04  8160   0.144E-01
  33 F= -.19221363E+03 E0= -.19213013E+03  d E =-.153646E-02
       N       E                     dE             d eps       ncg     rms          rms(c)
DAV:   1    -0.192214543522E+03   -0.90635E-03   -0.42680E-02  8160   0.452E-01    0.762E-02
DAV:   2    -0.192214945016E+03   -0.40149E-03   -0.21489E-03 12800   0.235E-01    0.179E-01
DAV:   3    -0.192214587943E+03    0.35707E-03   -0.66225E-04  9320   0.221E-01    0.632E-02
DAV:   4    -0.192214594759E+03   -0.68163E-05   -0.13387E-04  6040   0.991E-02
  34 F= -.19221459E+03 E0= -.19213119E+03  d E =-.960233E-03
       N       E                     dE             d eps       ncg     rms          rms(c)
DAV:   1    -0.192215857369E+03   -0.12694E-02   -0.10856E-01  8160   0.708E-01    0.921E-02
DAV:   2    -0.192216345804E+03   -0.48843E-03   -0.47208E-03 11480   0.241E-01    0.148E-01
DAV:   3    -0.192216162130E+03    0.18367E-03   -0.84924E-04 10960   0.236E-01    0.968E-02
DAV:   4    -0.192216095978E+03    0.66152E-04   -0.20945E-04  7160   0.118E-01
  35 F= -.19221610E+03 E0= -.19213246E+03  d E =-.150122E-02
       N       E                     dE             d eps       ncg     rms          rms(c)
DAV:   1    -0.192216559703E+03   -0.39757E-03   -0.15503E-02  8160   0.277E-01    0.559E-02
DAV:   2    -0.192216762916E+03   -0.20321E-03   -0.88048E-04 10720   0.170E-01    0.140E-01
DAV:   3    -0.192216546155E+03    0.21676E-03   -0.36328E-04  8600   0.166E-01    0.427E-02
DAV:   4    -0.192216555303E+03   -0.91485E-05   -0.65433E-05  6040   0.691E-02
  36 F= -.19221656E+03 E0= -.19213302E+03  d E =-.459325E-03
       N       E                     dE             d eps       ncg     rms          rms(c)
DAV:   1    -0.192217373639E+03   -0.82748E-03   -0.50044E-02  8160   0.478E-01    0.671E-02
DAV:   2    -0.192217711620E+03   -0.33798E-03   -0.23166E-03 11440   0.221E-01    0.139E-01
DAV:   3    -0.192217472433E+03    0.23919E-03   -0.43720E-04  9440   0.189E-01    0.452E-02
DAV:   4    -0.192217477163E+03   -0.47298E-05   -0.80904E-05  5720   0.724E-02
  37 F= -.19221748E+03 E0= -.19213390E+03  d E =-.921860E-03
       N       E                     dE             d eps       ncg     rms          rms(c)
DAV:   1    -0.192218450478E+03   -0.97804E-03   -0.10625E-01  8160   0.694E-01    0.864E-02
DAV:   2    -0.192218812084E+03   -0.36161E-03   -0.44095E-03 11200   0.202E-01    0.108E-01
DAV:   3    -0.192218795105E+03    0.16979E-04   -0.66834E-04 10400   0.208E-01
  38 F= -.19221880E+03 E0= -.19213507E+03  d E =-.131794E-02
       N       E                     dE             d eps       ncg     rms          rms(c)
DAV:   1    -0.192218806341E+03    0.57425E-05   -0.44431E-03  9560   0.178E-01    0.434E-02
DAV:   2    -0.192218886503E+03   -0.80162E-04   -0.25378E-04  7840   0.113E-01
  39 F= -.19221889E+03 E0= -.19213551E+03  d E =-.913983E-04
