<?xml version="1.0" encoding="ISO-8859-1"?>
<modeling>
 <generator>
  <i name="program" type="string">vasp </i>
  <i name="version" type="string">5.4.1  </i>
  <i name="subversion" type="string">05Feb16 (build Jul 05 2020 17:13:04) complex                          parallel </i>
  <i name="platform" type="string">IFC91_ompi </i>
  <i name="date" type="string">2024 04 24 </i>
  <i name="time" type="string">06:32:26 </i>
 </generator>
 <incar>
  <i type="int" name="ISTART">     0</i>
  <i type="string" name="PREC">normal</i>
  <i type="string" name="ALGO"> Normal</i>
  <i type="int" name="ISPIN">     1</i>
  <i type="int" name="ICHARG">     2</i>
  <i type="int" name="IBRION">     1</i>
  <i type="int" name="NSW">   100</i>
  <i type="int" name="ISIF">     3</i>
  <i type="int" name="ISYM">     0</i>
  <i name="SYMPREC">      0.00000001</i>
  <i name="POTIM">      0.50000000</i>
  <i type="logical" name="LREAL"> F  </i>
  <i type="logical" name="LPLANE"> F  </i>
  <i type="int" name="ISMEAR">     0</i>
  <i type="logical" name="LWAVE"> F  </i>
  <i type="logical" name="LCHARG"> F  </i>
  <v type="int" name="KPOINT_BSE">    -1     0     0     0</v>
 </incar>
 <kpoints>
  <generation param="Gamma">
   <v type="int" name="divisions">       8        8        1 </v>
   <v name="usershift">      0.00000000       0.00000000       0.00000000 </v>
   <v name="genvec1">      0.12500000       0.00000000       0.00000000 </v>
   <v name="genvec2">     -0.00000000       0.12500000       0.00000000 </v>
   <v name="genvec3">      0.00000000       0.00000000       1.00000000 </v>
   <v name="shift">      0.00000000       0.00000000       0.00000000 </v>
  </generation>
  <varray name="kpointlist" >
   <v>       0.00000000       0.00000000       0.00000000 </v>
   <v>       0.12500000       0.00000000       0.00000000 </v>
   <v>       0.25000000       0.00000000       0.00000000 </v>
   <v>       0.37500000       0.00000000       0.00000000 </v>
   <v>       0.50000000       0.00000000       0.00000000 </v>
   <v>       0.00000000       0.12500000       0.00000000 </v>
   <v>       0.12500000       0.12500000       0.00000000 </v>
   <v>       0.25000000       0.12500000       0.00000000 </v>
   <v>       0.37500000       0.12500000       0.00000000 </v>
   <v>       0.50000000       0.12500000       0.00000000 </v>
   <v>      -0.37500000       0.12500000       0.00000000 </v>
   <v>      -0.25000000       0.12500000       0.00000000 </v>
   <v>      -0.12500000       0.12500000       0.00000000 </v>
   <v>       0.00000000       0.25000000       0.00000000 </v>
   <v>       0.12500000       0.25000000       0.00000000 </v>
   <v>       0.25000000       0.25000000       0.00000000 </v>
   <v>       0.37500000       0.25000000       0.00000000 </v>
   <v>       0.50000000       0.25000000       0.00000000 </v>
   <v>      -0.37500000       0.25000000       0.00000000 </v>
   <v>      -0.25000000       0.25000000       0.00000000 </v>
   <v>      -0.12500000       0.25000000       0.00000000 </v>
   <v>      -0.00000000       0.37500000       0.00000000 </v>
   <v>       0.12500000       0.37500000       0.00000000 </v>
   <v>       0.25000000       0.37500000       0.00000000 </v>
   <v>       0.37500000       0.37500000       0.00000000 </v>
   <v>       0.50000000       0.37500000       0.00000000 </v>
   <v>      -0.37500000       0.37500000       0.00000000 </v>
   <v>      -0.25000000       0.37500000       0.00000000 </v>
   <v>      -0.12500000       0.37500000       0.00000000 </v>
   <v>       0.00000000       0.50000000       0.00000000 </v>
   <v>       0.12500000       0.50000000       0.00000000 </v>
   <v>       0.25000000       0.50000000       0.00000000 </v>
   <v>       0.37500000       0.50000000       0.00000000 </v>
   <v>       0.50000000       0.50000000       0.00000000 </v>
  </varray>
  <varray name="weights" >
   <v>       0.01562500 </v>
   <v>       0.03125000 </v>
   <v>       0.03125000 </v>
   <v>       0.03125000 </v>
   <v>       0.01562500 </v>
   <v>       0.03125000 </v>
   <v>       0.03125000 </v>
   <v>       0.03125000 </v>
   <v>       0.03125000 </v>
   <v>       0.03125000 </v>
   <v>       0.03125000 </v>
   <v>       0.03125000 </v>
   <v>       0.03125000 </v>
   <v>       0.03125000 </v>
   <v>       0.03125000 </v>
   <v>       0.03125000 </v>
   <v>       0.03125000 </v>
   <v>       0.03125000 </v>
   <v>       0.03125000 </v>
   <v>       0.03125000 </v>
   <v>       0.03125000 </v>
   <v>       0.03125000 </v>
   <v>       0.03125000 </v>
   <v>       0.03125000 </v>
   <v>       0.03125000 </v>
   <v>       0.03125000 </v>
   <v>       0.03125000 </v>
   <v>       0.03125000 </v>
   <v>       0.03125000 </v>
   <v>       0.01562500 </v>
   <v>       0.03125000 </v>
   <v>       0.03125000 </v>
   <v>       0.03125000 </v>
   <v>       0.01562500 </v>
  </varray>
 </kpoints>
 <parameters>
  <separator name="general" >
   <i type="string" name="SYSTEM">unknown system</i>
   <i type="logical" name="LCOMPAT"> F  </i>
  </separator>
  <separator name="electronic" >
   <i type="string" name="PREC">normal</i>
   <i name="ENMAX">    280.00000000</i>
   <i name="ENAUG">    373.43800000</i>
   <i name="EDIFF">      0.00010000</i>
   <i type="int" name="IALGO">    38</i>
   <i type="int" name="IWAVPR">    11</i>
   <i type="int" name="NBANDS">   120</i>
   <i name="NELECT">    159.00000000</i>
   <i type="int" name="TURBO">     0</i>
   <i type="int" name="IRESTART">     0</i>
   <i type="int" name="NREBOOT">     0</i>
   <i type="int" name="NMIN">     0</i>
   <i name="EREF">      0.00000000</i>
   <separator name="electronic smearing" >
    <i type="int" name="ISMEAR">     0</i>
    <i name="SIGMA">      0.20000000</i>
    <i name="KSPACING">      0.50000000</i>
    <i type="logical" name="KGAMMA"> T  </i>
   </separator>
   <separator name="electronic projectors" >
    <i type="logical" name="LREAL"> F  </i>
    <v name="ROPT">      0.00000000      0.00000000      0.00000000      0.00000000</v>
    <i type="int" name="LMAXPAW">  -100</i>
    <i type="int" name="LMAXMIX">     2</i>
    <i type="logical" name="NLSPLINE"> F  </i>
   </separator>
   <separator name="electronic startup" >
    <i type="int" name="ISTART">     0</i>
    <i type="int" name="ICHARG">     2</i>
    <i type="int" name="INIWAV">     1</i>
   </separator>
   <separator name="electronic spin" >
    <i type="int" name="ISPIN">     1</i>
    <i type="logical" name="LNONCOLLINEAR"> F  </i>
    <v name="MAGMOM">      1.00000000      1.00000000      1.00000000      1.00000000      1.00000000      1.00000000      1.00000000      1.00000000      1.00000000      1.00000000      1.00000000      1.00000000      1.00000000      1.00000000      1.00000000      1.00000000      1.00000000      1.00000000      1.00000000      1.00000000
      1.00000000      1.00000000      1.00000000      1.00000000      1.00000000      1.00000000      1.00000000</v>
    <i name="NUPDOWN">     -1.00000000</i>
    <i type="logical" name="LSORBIT"> F  </i>
    <v name="SAXIS">      0.00000000      0.00000000      1.00000000</v>
    <i type="logical" name="LSPIRAL"> F  </i>
    <v name="QSPIRAL">      0.00000000      0.00000000      0.00000000</v>
    <i type="logical" name="LZEROZ"> F  </i>
   </separator>
   <separator name="electronic exchange-correlation" >
    <i type="logical" name="LASPH"> F  </i>
    <i type="logical" name="LMETAGGA"> F  </i>
   </separator>
   <separator name="electronic convergence" >
    <i type="int" name="NELM">    60</i>
    <i type="int" name="NELMDL">    -5</i>
    <i type="int" name="NELMIN">     2</i>
    <i name="ENINI">    280.00000000</i>
    <separator name="electronic convergence detail" >
     <i type="logical" name="LDIAG"> T  </i>
     <i type="logical" name="LSUBROT"> F  </i>
     <i name="WEIMIN">      0.00100000</i>
     <i name="EBREAK">      0.00000021</i>
     <i name="DEPER">      0.30000000</i>
     <i type="int" name="NRMM">     4</i>
     <i name="TIME">      0.40000000</i>
    </separator>
   </separator>
   <separator name="electronic mixer" >
    <i name="AMIX">      0.40000000</i>
    <i name="BMIX">      1.00000000</i>
    <i name="AMIN">      0.10000000</i>
    <i name="AMIX_MAG">      1.60000000</i>
    <i name="BMIX_MAG">      1.00000000</i>
    <separator name="electronic mixer details" >
     <i type="int" name="IMIX">     4</i>
     <i type="logical" name="MIXFIRST"> F  </i>
     <i type="int" name="MAXMIX">   -45</i>
     <i name="WC">    100.00000000</i>
     <i type="int" name="INIMIX">     1</i>
     <i type="int" name="MIXPRE">     1</i>
     <i type="int" name="MREMOVE">     5</i>
    </separator>
   </separator>
   <separator name="electronic dipolcorrection" >
    <i type="logical" name="LDIPOL"> F  </i>
    <i type="logical" name="LMONO"> F  </i>
    <i type="int" name="IDIPOL">     0</i>
    <i name="EPSILON">      1.00000000</i>
    <v name="DIPOL">   -100.00000000   -100.00000000   -100.00000000</v>
    <i name="EFIELD">      0.00000000</i>
   </separator>
  </separator>
  <separator name="grids" >
   <i type="int" name="NGX">    42</i>
   <i type="int" name="NGY">    42</i>
   <i type="int" name="NGZ">   126</i>
   <i type="int" name="NGXF">    84</i>
   <i type="int" name="NGYF">    84</i>
   <i type="int" name="NGZF">   252</i>
   <i type="logical" name="ADDGRID"> F  </i>
  </separator>
  <separator name="ionic" >
   <i type="int" name="NSW">   100</i>
   <i type="int" name="IBRION">     1</i>
   <i type="int" name="ISIF">     3</i>
   <i name="PSTRESS">      0.00000000</i>
   <i name="EDIFFG">      0.00100000</i>
   <i type="int" name="NFREE">     0</i>
   <i name="POTIM">      0.50000000</i>
   <i name="SMASS">     -3.00000000</i>
   <i name="SCALEE">      1.00000000</i>
  </separator>
  <separator name="ionic md" >
   <i name="TEBEG">      0.00010000</i>
   <i name="TEEND">      0.00010000</i>
   <i type="int" name="NBLOCK">     1</i>
   <i type="int" name="KBLOCK">   100</i>
   <i type="int" name="NPACO">   256</i>
   <i name="APACO">     16.00000000</i>
  </separator>
  <separator name="symmetry" >
   <i type="int" name="ISYM">     0</i>
   <i name="SYMPREC">      0.00000001</i>
  </separator>
  <separator name="dos" >
   <i type="logical" name="LORBIT"> F  </i>
   <v name="RWIGS">     -1.00000000     -1.00000000     -1.00000000     -1.00000000</v>
   <i type="int" name="NEDOS">   301</i>
   <i name="EMIN">     10.00000000</i>
   <i name="EMAX">    -10.00000000</i>
   <i name="EFERMI">      0.00000000</i>
  </separator>
  <separator name="writing" >
   <i type="int" name="NWRITE">     2</i>
   <i type="logical" name="LWAVE"> F  </i>
   <i type="logical" name="LCHARG"> F  </i>
   <i type="logical" name="LPARD"> F  </i>
   <i type="logical" name="LVTOT"> F  </i>
   <i type="logical" name="LVHAR"> F  </i>
   <i type="logical" name="LELF"> F  </i>
   <i type="logical" name="LOPTICS"> F  </i>
   <v name="STM">      0.00000000      0.00000000      0.00000000      0.00000000      0.00000000      0.00000000      0.00000000</v>
  </separator>
  <separator name="performance" >
   <i type="int" name="NPAR">    40</i>
   <i type="int" name="NSIM">     4</i>
   <i type="int" name="NBLK">    -1</i>
   <i type="logical" name="LPLANE"> F  </i>
   <i type="logical" name="LSCALAPACK"> T  </i>
   <i type="logical" name="LSCAAWARE"> F  </i>
   <i type="logical" name="LSCALU"> F  </i>
   <i type="logical" name="LASYNC"> F  </i>
   <i type="logical" name="LORBITALREAL"> F  </i>
  </separator>
  <separator name="miscellaneous" >
   <i type="int" name="IDIOT">     3</i>
   <i type="logical" name="LMUSIC"> F  </i>
   <v name="POMASS">     50.94100000     95.94000000    183.85000000     32.06600000</v>
   <v name="DARWINR">      0.00000000      0.00000000      0.00000000      0.00000000</v>
   <v name="DARWINV">      1.00000000      1.00000000      1.00000000      1.00000000</v>
   <i type="logical" name="LCORR"> T  </i>
  </separator>
  <i type="logical" name="GGA_COMPAT"> T  </i>
  <i type="logical" name="LBERRY"> F  </i>
  <i type="int" name="ICORELEVEL">     0</i>
  <i type="logical" name="LDAU"> F  </i>
  <i type="int" name="I_CONSTRAINED_M">     0</i>
  <separator name="electronic exchange-correlation" >
   <i type="string" name="GGA">--</i>
   <i type="int" name="VOSKOWN">     0</i>
   <i type="logical" name="LHFCALC"> F  </i>
   <i type="string" name="PRECFOCK"></i>
   <i type="logical" name="LSYMGRAD"> F  </i>
   <i type="logical" name="LHFONE"> F  </i>
   <i type="logical" name="LRHFCALC"> F  </i>
   <i type="logical" name="LTHOMAS"> F  </i>
   <i type="logical" name="LMODELHF"> F  </i>
   <i name="ENCUT4O">     -1.00000000</i>
   <i type="int" name="EXXOEP">     0</i>
   <i type="int" name="FOURORBIT">     0</i>
   <i name="AEXX">      0.00000000</i>
   <i name="HFALPHA">      0.00000000</i>
   <i name="MCALPHA">      0.00000000</i>
   <i name="ALDAX">      1.00000000</i>
   <i name="AGGAX">      1.00000000</i>
   <i name="ALDAC">      1.00000000</i>
   <i name="AGGAC">      1.00000000</i>
   <i type="int" name="NKREDX">     1</i>
   <i type="int" name="NKREDY">     1</i>
   <i type="int" name="NKREDZ">     1</i>
   <i type="logical" name="SHIFTRED"> F  </i>
   <i type="logical" name="ODDONLY"> F  </i>
   <i type="logical" name="EVENONLY"> F  </i>
   <i type="int" name="LMAXFOCK">     0</i>
   <i type="int" name="NMAXFOCKAE">     0</i>
   <i type="logical" name="LFOCKAEDFT"> F  </i>
   <i name="HFSCREEN">      0.00000000</i>
   <i name="HFSCREENC">      0.00000000</i>
   <i type="int" name="NBANDSGWLOW">     0</i>
  </separator>
  <separator name="vdW DFT" >
   <i type="logical" name="LUSE_VDW"> F  </i>
   <i name="Zab_VDW">     -0.84910000</i>
   <i name="PARAM1">      0.12340000</i>
   <i name="PARAM2">      1.00000000</i>
   <i name="PARAM3">      0.00000000</i>
  </separator>
  <separator name="model GW" >
   <i type="int" name="MODEL_GW">     0</i>
   <i name="MODEL_EPS0">     58.26239943</i>
   <i name="MODEL_ALPHA">      1.00000000</i>
  </separator>
  <separator name="linear response parameters" >
   <i type="logical" name="LEPSILON"> F  </i>
   <i type="logical" name="LRPA"> F  </i>
   <i type="logical" name="LNABLA"> F  </i>
   <i type="logical" name="LVEL"> F  </i>
   <i type="int" name="KINTER">     0</i>
   <i name="CSHIFT">      0.10000000</i>
   <i name="OMEGAMAX">     -1.00000000</i>
   <i name="DEG_THRESHOLD">      0.00200000</i>
  </separator>
  <separator name="orbital magnetization" >
   <i type="logical" name="NUCIND"> F  </i>
   <v name="MAGPOS">      0.00000000      0.00000000      0.00000000</v>
   <i type="logical" name="LNICSALL"> T  </i>
   <i type="logical" name="ORBITALMAG"> F  </i>
   <i type="logical" name="LMAGBLOCH"> F  </i>
   <i type="logical" name="LCHIMAG"> F  </i>
   <i type="logical" name="LGAUGE"> T  </i>
   <i type="int" name="MAGATOM">     0</i>
   <v name="MAGDIPOL">      0.00000000      0.00000000      0.00000000</v>
   <v name="AVECCONST">      0.00000000      0.00000000      0.00000000</v>
  </separator>
  <separator name="response functions" >
   <i type="logical" name="LADDER"> F  </i>
   <i type="logical" name="LFXC"> F  </i>
   <i type="logical" name="LHARTREE"> T  </i>
   <i type="int" name="IBSE">     0</i>
   <v type="int" name="KPOINT">    -1     0     0     0</v>
   <i type="logical" name="LTCTE"> F  </i>
   <i type="logical" name="LTETE"> F  </i>
   <i type="logical" name="LTRIPLET"> F  </i>
   <i type="logical" name="LFXCEPS"> F  </i>
   <i type="logical" name="LFXHEG"> F  </i>
   <i type="int" name="NATURALO">     0</i>
   <i type="logical" name="L2ORDER"> F  </i>
   <i type="logical" name="LUSEW"> F  </i>
   <i name="ENCUTGW">     -2.00000000</i>
   <i name="ENCUTGWSOFT">     -2.00000000</i>
   <i name="ENCUTLF">     -1.00000000</i>
   <i type="int" name="LMAXMP2">    -1</i>
   <i name="SCISSOR">      0.00000000</i>
   <i type="int" name="NOMEGA">     0</i>
   <i type="int" name="NOMEGAR">     0</i>
   <i type="int" name="NBANDSGW">    -1</i>
   <i type="int" name="NBANDSO">    -1</i>
   <i type="int" name="NBANDSV">    -1</i>
   <i type="int" name="NELM">     1</i>
   <i type="int" name="NELMHF">     1</i>
   <i type="int" name="DIM">     3</i>
   <i type="int" name="ANTIRES">     0</i>
   <i name="OMEGAMAX">    -30.00000000</i>
   <i name="OMEGAMIN">    -30.00000000</i>
   <i name="OMEGATL">   -200.00000000</i>
   <i type="int" name="OMEGAGRID">     0</i>
   <i name="CSHIFT">     -0.10000000</i>
   <i type="logical" name="SELFENERGY"> F  </i>
   <i type="logical" name="LSPECTRAL"> F  </i>
   <i type="logical" name="LSPECTRALGW"> F  </i>
   <i type="logical" name="LSINGLES"> F  </i>
   <i type="logical" name="LFERMIGW"> F  </i>
   <i type="logical" name="ODDONLYGW"> F  </i>
   <i type="logical" name="EVENONLYGW"> F  </i>
   <i type="int" name="NKREDLFX">     1</i>
   <i type="int" name="NKREDLFY">     1</i>
   <i type="int" name="NKREDLFZ">     1</i>
   <i type="int" name="MAXMEM">  1800</i>
   <i type="int" name="TELESCOPE">     0</i>
   <i type="int" name="TAUPAR">     1</i>
   <i type="int" name="OMEGAPAR">    -1</i>
   <i name="LAMBDA">      1.00000000</i>
  </separator>
  <separator name="External order field" >
   <i name="OFIELD_KAPPA">      0.00000000</i>
   <v name="OFIELD_K">      0.00000000      0.00000000      0.00000000</v>
   <i name="OFIELD_Q6_NEAR">      0.00000000</i>
   <i name="OFIELD_Q6_FAR">      0.00000000</i>
   <i name="OFIELD_A">      0.00000000</i>
  </separator>
 </parameters>
 <atominfo>
  <atoms>      27 </atoms>
  <types>       4 </types>
  <array name="atoms" >
   <dimension dim="1">ion</dimension>
   <field type="string">element</field>
   <field type="int">atomtype</field>
   <set>
    <rc><c>V </c><c>   1</c></rc>
    <rc><c>V </c><c>   1</c></rc>
    <rc><c>V </c><c>   1</c></rc>
    <rc><c>Mo</c><c>   2</c></rc>
    <rc><c>Mo</c><c>   2</c></rc>
    <rc><c>Mo</c><c>   2</c></rc>
    <rc><c>W </c><c>   3</c></rc>
    <rc><c>W </c><c>   3</c></rc>
    <rc><c>W </c><c>   3</c></rc>
    <rc><c>S </c><c>   4</c></rc>
    <rc><c>S </c><c>   4</c></rc>
    <rc><c>S </c><c>   4</c></rc>
    <rc><c>S </c><c>   4</c></rc>
    <rc><c>S </c><c>   4</c></rc>
    <rc><c>S </c><c>   4</c></rc>
    <rc><c>S </c><c>   4</c></rc>
    <rc><c>S </c><c>   4</c></rc>
    <rc><c>S </c><c>   4</c></rc>
    <rc><c>S </c><c>   4</c></rc>
    <rc><c>S </c><c>   4</c></rc>
    <rc><c>S </c><c>   4</c></rc>
    <rc><c>S </c><c>   4</c></rc>
    <rc><c>S </c><c>   4</c></rc>
    <rc><c>S </c><c>   4</c></rc>
    <rc><c>S </c><c>   4</c></rc>
    <rc><c>S </c><c>   4</c></rc>
    <rc><c>S </c><c>   4</c></rc>
   </set>
  </array>
  <array name="atomtypes" >
   <dimension dim="1">type</dimension>
   <field type="int">atomspertype</field>
   <field type="string">element</field>
   <field>mass</field>
   <field>valence</field>
   <field type="string">pseudopotential</field>
   <set>
    <rc><c>   3</c><c>V </c><c>     50.94100000</c><c>      5.00000000</c><c> PAW_PBE V 08Apr2002                    </c></rc>
    <rc><c>   3</c><c>Mo</c><c>     95.94000000</c><c>      6.00000000</c><c> PAW_PBE Mo 08Apr2002                   </c></rc>
    <rc><c>   3</c><c>W </c><c>    183.85000000</c><c>      6.00000000</c><c> PAW_PBE W 08Apr2002                    </c></rc>
    <rc><c>  18</c><c>S </c><c>     32.06600000</c><c>      6.00000000</c><c>  PAW_PBE S 17Jan2003                   </c></rc>
   </set>
  </array>
 </atominfo>
 <structure name="initialpos" >
  <crystal>
   <varray name="basis" >
    <v>       8.66999996       5.03999989       0.00000000 </v>
    <v>      -8.66999982       5.04000013       0.00000000 </v>
    <v>       0.00000000       0.00000000      30.00000000 </v>
   </varray>
   <i name="volume">   2621.80797419 </i>
   <varray name="rec_basis" >
    <v>       0.05767013       0.09920635       0.00000000 </v>
    <v>      -0.05767013       0.09920635       0.00000000 </v>
    <v>       0.00000000       0.00000000       0.03333333 </v>
   </varray>
  </crystal>
  <varray name="positions" >
   <v>       0.66666669       0.66666669       0.00000000 </v>
   <v>       0.00000000       0.00000000       0.00000000 </v>
   <v>       1.00000000       0.33333334       0.00000000 </v>
   <v>       0.33333334       0.00000000       0.00000000 </v>
   <v>       0.66666669       0.33333334       0.00000000 </v>
   <v>       0.33333334       0.33333334       0.00000000 </v>
   <v>       0.00000000       0.66666669       0.00000000 </v>
   <v>       0.33333334       0.66666669       0.00000000 </v>
   <v>       0.66666669       0.00000000       0.00000000 </v>
   <v>       0.11068511       0.22244981       0.95539999 </v>
   <v>       0.22244981       0.11068511       0.04460000 </v>
   <v>       0.11068511       0.55578315       0.95539999 </v>
   <v>       0.22244981       0.44401845       0.04460000 </v>
   <v>       0.11068511       0.88911647       0.95539999 </v>
   <v>       0.22244981       0.77735180       0.04460000 </v>
   <v>       0.44401845       0.22244981       0.95539999 </v>
   <v>       0.55578315       0.11068511       0.04460000 </v>
   <v>       0.44401845       0.55578315       0.95539999 </v>
   <v>       0.55578315       0.44401845       0.04460000 </v>
   <v>       0.44401845       0.88911647       0.95539999 </v>
   <v>       0.55578315       0.77735180       0.04460000 </v>
   <v>       0.77735180       0.22244981       0.95539999 </v>
   <v>       0.88911647       0.11068511       0.04460000 </v>
   <v>       0.77735180       0.55578315       0.95539999 </v>
   <v>       0.88911647       0.44401845       0.04460000 </v>
   <v>       0.77735180       0.88911647       0.95539999 </v>
   <v>       0.88911647       0.77735180       0.04460000 </v>
  </varray>
 </structure>
 <calculation>
  <scstep>
   <time name="dav">   23.25   23.31</time>
   <time name="total">   23.30   23.36</time>
   <energy>
    <i name="alphaZ">     81.65567618 </i>
    <i name="ewald">  41890.23009657 </i>
    <i name="hartreedc"> -47722.85865691 </i>
    <i name="XCdc">   -242.92972257 </i>
    <i name="pawpsdc">   3467.42045192 </i>
    <i name="pawaedc">  -2871.19716117 </i>
    <i name="eentropy">     -0.54211355 </i>
    <i name="bandstr">   -237.18760612 </i>
    <i name="atom">   6761.44252427 </i>
    <i name="e_fr_energy">   1126.03348862 </i>
    <i name="e_wo_entrp">   1126.57560217 </i>
    <i name="e_0_energy">   1126.30454539 </i>
   </energy>
  </scstep>
  <scstep>
   <time name="dav">   29.95   30.02</time>
   <time name="total">   29.95   30.03</time>
   <energy>
    <i name="e_fr_energy">     -0.86400581 </i>
    <i name="e_wo_entrp">     -0.66656094 </i>
    <i name="e_0_energy">     -0.76528337 </i>
   </energy>
  </scstep>
  <scstep>
   <time name="dav">   29.30   29.37</time>
   <time name="total">   29.30   29.38</time>
   <energy>
    <i name="e_fr_energy">   -199.56562920 </i>
    <i name="e_wo_entrp">   -199.29983037 </i>
    <i name="e_0_energy">   -199.43272978 </i>
   </energy>
  </scstep>
  <scstep>
   <time name="dav">   32.87   32.95</time>
   <time name="total">   32.87   32.96</time>
   <energy>
    <i name="e_fr_energy">   -208.95500790 </i>
    <i name="e_wo_entrp">   -208.64681821 </i>
    <i name="e_0_energy">   -208.80091306 </i>
   </energy>
  </scstep>
  <scstep>
   <time name="dav">   30.36   30.44</time>
   <time name="total">   30.83   30.91</time>
   <energy>
    <i name="e_fr_energy">   -209.25075373 </i>
    <i name="e_wo_entrp">   -208.94546888 </i>
    <i name="e_0_energy">   -209.09811131 </i>
   </energy>
  </scstep>
  <scstep>
   <time name="dav">   33.88   33.97</time>
   <time name="total">   34.39   34.48</time>
   <energy>
    <i name="e_fr_energy">   -236.67890885 </i>
    <i name="e_wo_entrp">   -236.40421273 </i>
    <i name="e_0_energy">   -236.54156079 </i>
   </energy>
  </scstep>
  <scstep>
   <time name="dav">   33.96   34.05</time>
   <time name="total">   34.47   34.56</time>
   <energy>
    <i name="e_fr_energy">   -196.77424451 </i>
    <i name="e_wo_entrp">   -196.43271883 </i>
    <i name="e_0_energy">   -196.60348167 </i>
   </energy>
  </scstep>
  <scstep>
   <time name="dav">   30.88   30.95</time>
   <time name="total">   31.39   31.48</time>
   <energy>
    <i name="e_fr_energy">   -190.25973874 </i>
    <i name="e_wo_entrp">   -189.99237677 </i>
    <i name="e_0_energy">   -190.12605775 </i>
   </energy>
  </scstep>
  <scstep>
   <time name="dav">   31.61   31.68</time>
   <time name="total">   32.13   32.21</time>
   <energy>
    <i name="e_fr_energy">   -188.31091830 </i>
    <i name="e_wo_entrp">   -187.98176411 </i>
    <i name="e_0_energy">   -188.14634120 </i>
   </energy>
  </scstep>
  <scstep>
   <time name="dav">   34.80   34.88</time>
   <time name="total">   35.33   35.42</time>
   <energy>
    <i name="e_fr_energy">   -187.16699236 </i>
    <i name="e_wo_entrp">   -186.82492169 </i>
    <i name="e_0_energy">   -186.99595702 </i>
   </energy>
  </scstep>
  <scstep>
   <time name="dav">   33.22   33.30</time>
   <time name="total">   33.76   33.85</time>
   <energy>
    <i name="e_fr_energy">   -187.00269333 </i>
    <i name="e_wo_entrp">   -186.65381783 </i>
    <i name="e_0_energy">   -186.82825558 </i>
   </energy>
  </scstep>
  <scstep>
   <time name="dav">   34.34   34.42</time>
   <time name="total">   34.88   34.97</time>
   <energy>
    <i name="e_fr_energy">   -187.08992697 </i>
    <i name="e_wo_entrp">   -186.75668893 </i>
    <i name="e_0_energy">   -186.92330795 </i>
   </energy>
  </scstep>
  <scstep>
   <time name="dav">   34.20   34.28</time>
   <time name="total">   34.74   34.83</time>
   <energy>
    <i name="e_fr_energy">   -186.93907809 </i>
    <i name="e_wo_entrp">   -186.60327551 </i>
    <i name="e_0_energy">   -186.77117680 </i>
   </energy>
  </scstep>
  <scstep>
   <time name="dav">   34.43   34.51</time>
   <time name="total">   34.96   35.06</time>
   <energy>
    <i name="e_fr_energy">   -186.90625073 </i>
    <i name="e_wo_entrp">   -186.56566210 </i>
    <i name="e_0_energy">   -186.73595641 </i>
   </energy>
  </scstep>
  <scstep>
   <time name="dav">   34.00   34.08</time>
   <time name="total">   34.53   34.62</time>
   <energy>
    <i name="e_fr_energy">   -186.89832709 </i>
    <i name="e_wo_entrp">   -186.55530157 </i>
    <i name="e_0_energy">   -186.72681433 </i>
   </energy>
  </scstep>
  <scstep>
   <time name="dav">   33.34   33.42</time>
   <time name="total">   33.88   33.97</time>
   <energy>
    <i name="e_fr_energy">   -186.89083397 </i>
    <i name="e_wo_entrp">   -186.54732428 </i>
    <i name="e_0_energy">   -186.71907912 </i>
   </energy>
  </scstep>
  <scstep>
   <time name="dav">   34.03   34.11</time>
   <time name="total">   34.56   34.65</time>
   <energy>
    <i name="e_fr_energy">   -186.88865991 </i>
    <i name="e_wo_entrp">   -186.54622109 </i>
    <i name="e_0_energy">   -186.71744050 </i>
   </energy>
  </scstep>
  <scstep>
   <time name="dav">   33.21   33.29</time>
   <time name="total">   33.75   33.84</time>
   <energy>
    <i name="e_fr_energy">   -186.88764639 </i>
    <i name="e_wo_entrp">   -186.54626166 </i>
    <i name="e_0_energy">   -186.71695403 </i>
   </energy>
  </scstep>
  <scstep>
   <time name="dav">   30.78   30.85</time>
   <time name="total">   31.31   31.40</time>
   <energy>
    <i name="e_fr_energy">   -186.88733717 </i>
    <i name="e_wo_entrp">   -186.54535809 </i>
    <i name="e_0_energy">   -186.71634763 </i>
   </energy>
  </scstep>
  <scstep>
   <time name="dav">   25.40   25.46</time>
   <time name="total">   25.93   26.00</time>
   <energy>
    <i name="e_fr_energy">   -186.88809845 </i>
    <i name="e_wo_entrp">   -186.54645582 </i>
    <i name="e_0_energy">   -186.71727713 </i>
   </energy>
  </scstep>
  <scstep>
   <time name="dav">   23.59   23.64</time>
   <time name="total">   24.12   24.19</time>
   <energy>
    <i name="e_fr_energy">   -186.88866473 </i>
    <i name="e_wo_entrp">   -186.54695954 </i>
    <i name="e_0_energy">   -186.71781214 </i>
   </energy>
  </scstep>
  <scstep>
   <time name="dav">   21.91   21.96</time>
   <time name="total">   22.45   22.51</time>
   <energy>
    <i name="e_fr_energy">   -186.88979809 </i>
    <i name="e_wo_entrp">   -186.54804507 </i>
    <i name="e_0_energy">   -186.71892158 </i>
   </energy>
  </scstep>
  <scstep>
   <time name="dav">   21.72   21.77</time>
   <time name="total">   22.25   22.31</time>
   <energy>
    <i name="e_fr_energy">   -186.89104852 </i>
    <i name="e_wo_entrp">   -186.54941437 </i>
    <i name="e_0_energy">   -186.72023144 </i>
   </energy>
  </scstep>
  <scstep>
   <time name="dav">   20.54   20.59</time>
   <time name="total">   21.07   21.13</time>
   <energy>
    <i name="e_fr_energy">   -186.89161771 </i>
    <i name="e_wo_entrp">   -186.54994432 </i>
    <i name="e_0_energy">   -186.72078102 </i>
   </energy>
  </scstep>
  <scstep>
   <time name="dav">   17.48   17.52</time>
   <time name="total">   18.02   18.07</time>
   <energy>
    <i name="e_fr_energy">   -186.89200527 </i>
    <i name="e_wo_entrp">   -186.55029682 </i>
    <i name="e_0_energy">   -186.72115104 </i>
   </energy>
  </scstep>
  <scstep>
   <time name="dav">   20.45   20.50</time>
   <time name="total">   20.98   21.04</time>
   <energy>
    <i name="e_fr_energy">   -186.89224770 </i>
    <i name="e_wo_entrp">   -186.55055564 </i>
    <i name="e_0_energy">   -186.72140167 </i>
   </energy>
  </scstep>
  <scstep>
   <time name="dav">   21.45   21.50</time>
   <time name="total">   21.49   21.55</time>
   <energy>
    <i name="alphaZ">     81.65567618 </i>
    <i name="ewald">  41890.23009657 </i>
    <i name="hartreedc"> -47833.16467066 </i>
    <i name="XCdc">   -231.59853432 </i>
    <i name="pawpsdc">   4192.18477789 </i>
    <i name="pawaedc">  -3610.20938866 </i>
    <i name="eentropy">     -0.34169271 </i>
    <i name="bandstr">  -1437.09113541 </i>
    <i name="atom">   6761.44252427 </i>
    <i name="e_fr_energy">   -186.89234686 </i>
    <i name="e_wo_entrp">   -186.55065415 </i>
    <i name="e_0_energy">   -186.72150051 </i>
   </energy>
  </scstep>
  <structure>
   <crystal>
    <varray name="basis" >
     <v>       8.66999996       5.03999989       0.00000000 </v>
     <v>      -8.66999982       5.04000013       0.00000000 </v>
     <v>       0.00000000       0.00000000      30.00000000 </v>
    </varray>
    <i name="volume">   2621.80797419 </i>
    <varray name="rec_basis" >
     <v>       0.05767013       0.09920635       0.00000000 </v>
     <v>      -0.05767013       0.09920635       0.00000000 </v>
     <v>       0.00000000       0.00000000       0.03333333 </v>
    </varray>
   </crystal>
   <varray name="positions" >
    <v>       0.66666669       0.66666669       0.00000000 </v>
    <v>       0.00000000       0.00000000       0.00000000 </v>
    <v>       1.00000000       0.33333334       0.00000000 </v>
    <v>       0.33333334       0.00000000       0.00000000 </v>
    <v>       0.66666669       0.33333334       0.00000000 </v>
    <v>       0.33333334       0.33333334       0.00000000 </v>
    <v>       0.00000000       0.66666669       0.00000000 </v>
    <v>       0.33333334       0.66666669       0.00000000 </v>
    <v>       0.66666669       0.00000000       0.00000000 </v>
    <v>       0.11068511       0.22244981       0.95539999 </v>
    <v>       0.22244981       0.11068511       0.04460000 </v>
    <v>       0.11068511       0.55578315       0.95539999 </v>
    <v>       0.22244981       0.44401845       0.04460000 </v>
    <v>       0.11068511       0.88911647       0.95539999 </v>
    <v>       0.22244981       0.77735180       0.04460000 </v>
    <v>       0.44401845       0.22244981       0.95539999 </v>
    <v>       0.55578315       0.11068511       0.04460000 </v>
    <v>       0.44401845       0.55578315       0.95539999 </v>
    <v>       0.55578315       0.44401845       0.04460000 </v>
    <v>       0.44401845       0.88911647       0.95539999 </v>
    <v>       0.55578315       0.77735180       0.04460000 </v>
    <v>       0.77735180       0.22244981       0.95539999 </v>
    <v>       0.88911647       0.11068511       0.04460000 </v>
    <v>       0.77735180       0.55578315       0.95539999 </v>
    <v>       0.88911647       0.44401845       0.04460000 </v>
    <v>       0.77735180       0.88911647       0.95539999 </v>
    <v>       0.88911647       0.77735180       0.04460000 </v>
   </varray>
  </structure>
  <varray name="forces" >
   <v>       0.20312234      -0.28124578       0.06784140 </v>
   <v>       0.14052413       0.32875902      -0.04207390 </v>
   <v>       0.06919546      -0.02688769      -0.09371880 </v>
   <v>      -0.25976883       0.43324771       0.02784447 </v>
   <v>      -0.27401974      -0.44092835       0.14440695 </v>
   <v>       0.50719993      -0.04342090       0.00414175 </v>
   <v>      -0.10691103      -0.04340270       0.05590281 </v>
   <v>       0.05566586      -0.01875762      -0.10016734 </v>
   <v>      -0.39527189       0.07724732      -0.06459859 </v>
   <v>      -0.34205293      -0.67682637      -1.41887118 </v>
   <v>      -0.52317008      -0.69669555       2.17008547 </v>
   <v>       0.49317173      -0.58097222      -2.21739952 </v>
   <v>      -0.61114778      -0.55082033       2.11091844 </v>
   <v>      -0.64719014      -0.13808292      -2.10502397 </v>
   <v>      -0.07737799      -0.10676957       2.85799673 </v>
   <v>       0.11086677      -0.01592005      -2.94259224 </v>
   <v>       0.03544209       0.01041587       2.93873822 </v>
   <v>       0.34461126       0.69773004      -2.14024785 </v>
   <v>      -0.51636680       0.72156753       2.19348090 </v>
   <v>       0.27025650      -0.02576402      -2.90219838 </v>
   <v>       0.63659407       0.00517954       2.13557118 </v>
   <v>       0.64550869       0.56764199      -2.14944896 </v>
   <v>       0.24264619       0.52674979       1.41578531 </v>
   <v>      -0.65141902       0.15962593      -2.09131571 </v>
   <v>       0.64793960       0.14663931       2.06715672 </v>
   <v>       0.73867536      -0.00665441      -1.40912895 </v>
   <v>      -0.73672374      -0.02165556       1.48691507 </v>
  </varray>
  <varray name="stress" >
   <v>       7.34122290       0.09094569      -1.52157181 </v>
   <v>       0.09094567       4.43533840       0.04398444 </v>
   <v>      -1.52157186       0.04398441      30.27606042 </v>
  </varray>
  <energy>
   <i name="e_fr_energy">   -186.89234686 </i>
   <i name="e_wo_entrp">   -186.72150051 </i>
   <i name="e_0_energy">     -0.34169271 </i>
  </energy>
  <time name="totalsc">  841.11  843.35</time>
 </calculation>
 <calculation>
  <scstep>
   <time name="dav">   23.24   23.30</time>
   <time name="total">   23.79   23.85</time>
   <energy>
    <i name="alphaZ">     78.91637824 </i>
    <i name="ewald">  39378.04355052 </i>
    <i name="hartreedc"> -45335.61154776 </i>
    <i name="XCdc">   -239.05553519 </i>
    <i name="pawpsdc">   4192.16321800 </i>
    <i name="pawaedc">  -3610.18811383 </i>
    <i name="eentropy">     -0.28015141 </i>
    <i name="bandstr">  -1412.96266782 </i>
    <i name="atom">   6761.44252427 </i>
    <i name="e_fr_energy">   -187.53234497 </i>
    <i name="e_wo_entrp">   -187.25219356 </i>
    <i name="e_0_energy">   -187.39226926 </i>
   </energy>
  </scstep>
  <scstep>
   <time name="dav">   32.48   32.56</time>
   <time name="total">   33.02   33.10</time>
   <energy>
    <i name="e_fr_energy">   -189.53552695 </i>
    <i name="e_wo_entrp">   -189.20332897 </i>
    <i name="e_0_energy">   -189.36942796 </i>
   </energy>
  </scstep>
  <scstep>
   <time name="dav">   32.48   32.56</time>
   <time name="total">   33.03   33.12</time>
   <energy>
    <i name="e_fr_energy">   -189.35356275 </i>
    <i name="e_wo_entrp">   -189.08241347 </i>
    <i name="e_0_energy">   -189.21798811 </i>
   </energy>
  </scstep>
  <scstep>
   <time name="dav">   33.01   33.09</time>
   <time name="total">   33.55   33.64</time>
   <energy>
    <i name="e_fr_energy">   -188.78841615 </i>
    <i name="e_wo_entrp">   -188.50796462 </i>
    <i name="e_0_energy">   -188.64819038 </i>
   </energy>
  </scstep>
  <scstep>
   <time name="dav">   30.25   30.32</time>
   <time name="total">   30.80   30.88</time>
   <energy>
    <i name="e_fr_energy">   -188.85932816 </i>
    <i name="e_wo_entrp">   -188.57387094 </i>
    <i name="e_0_energy">   -188.71659955 </i>
   </energy>
  </scstep>
  <scstep>
   <time name="dav">   33.56   33.64</time>
   <time name="total">   34.11   34.20</time>
   <energy>
    <i name="e_fr_energy">   -188.77164761 </i>
    <i name="e_wo_entrp">   -188.49218603 </i>
    <i name="e_0_energy">   -188.63191682 </i>
   </energy>
  </scstep>
  <scstep>
   <time name="dav">   32.25   32.33</time>
   <time name="total">   32.80   32.89</time>
   <energy>
    <i name="e_fr_energy">   -188.72842488 </i>
    <i name="e_wo_entrp">   -188.44808299 </i>
    <i name="e_0_energy">   -188.58825393 </i>
   </energy>
  </scstep>
  <scstep>
   <time name="dav">   33.76   33.84</time>
   <time name="total">   34.31   34.40</time>
   <energy>
    <i name="e_fr_energy">   -188.71204885 </i>
    <i name="e_wo_entrp">   -188.43238809 </i>
    <i name="e_0_energy">   -188.57221847 </i>
   </energy>
  </scstep>
  <scstep>
   <time name="dav">   31.25   31.32</time>
   <time name="total">   31.80   31.88</time>
   <energy>
    <i name="e_fr_energy">   -188.70162356 </i>
    <i name="e_wo_entrp">   -188.42297351 </i>
    <i name="e_0_energy">   -188.56229854 </i>
   </energy>
  </scstep>
  <scstep>
   <time name="dav">   30.86   30.93</time>
   <time name="total">   31.40   31.48</time>
   <energy>
    <i name="e_fr_energy">   -188.70054650 </i>
    <i name="e_wo_entrp">   -188.42230357 </i>
    <i name="e_0_energy">   -188.56142503 </i>
   </energy>
  </scstep>
  <scstep>
   <time name="dav">   32.05   32.13</time>
   <time name="total">   32.60   32.69</time>
   <energy>
    <i name="e_fr_energy">   -188.70010865 </i>
    <i name="e_wo_entrp">   -188.42209490 </i>
    <i name="e_0_energy">   -188.56110177 </i>
   </energy>
  </scstep>
  <scstep>
   <time name="dav">   30.77   30.84</time>
   <time name="total">   31.31   31.40</time>
   <energy>
    <i name="e_fr_energy">   -188.70020890 </i>
    <i name="e_wo_entrp">   -188.42233056 </i>
    <i name="e_0_energy">   -188.56126973 </i>
   </energy>
  </scstep>
  <scstep>
   <time name="dav">   22.48   22.54</time>
   <time name="total">   22.52   22.58</time>
   <energy>
    <i name="alphaZ">     78.91637824 </i>
    <i name="ewald">  39378.04355052 </i>
    <i name="hartreedc"> -45346.33864438 </i>
    <i name="XCdc">   -237.96915824 </i>
    <i name="pawpsdc">   3950.51819544 </i>
    <i name="pawaedc">  -3365.03829762 </i>
    <i name="eentropy">     -0.27797962 </i>
    <i name="bandstr">  -1407.99672527 </i>
    <i name="atom">   6761.44252427 </i>
    <i name="e_fr_energy">   -188.70015663 </i>
    <i name="e_wo_entrp">   -188.42217701 </i>
    <i name="e_0_energy">   -188.56116682 </i>
   </energy>
  </scstep>
  <structure>
   <crystal>
    <varray name="basis" >
     <v>       8.85743967       5.10766581       0.00000000 </v>
     <v>      -8.85475913       5.10305512       0.00000000 </v>
     <v>       0.00000000       0.00000000      30.00000000 </v>
    </varray>
    <i name="volume">   2712.81459831 </i>
    <varray name="rec_basis" >
     <v>       0.05643277       0.09792146       0.00000000 </v>
     <v>      -0.05648376       0.09795111       0.00000000 </v>
     <v>       0.00000000       0.00000000       0.03333333 </v>
    </varray>
   </crystal>
   <varray name="positions" >
    <v>       0.66588577       0.66475553       0.00010909 </v>
    <v>       0.00196439       0.00118247      -0.00006766 </v>
    <v>       1.00006383       0.33301215      -0.00015071 </v>
    <v>       0.33468414       0.00279623       0.00004478 </v>
    <v>       0.66379405       0.33198544       0.00023222 </v>
    <v>       0.33453664       0.33171442       0.00000666 </v>
    <v>      -0.00050517       0.66675641       0.00008990 </v>
    <v>       0.33339844       0.66642204      -0.00016108 </v>
    <v>       0.66593668       0.00146941      -0.00010388 </v>
    <v>       0.10649419       0.22016218       0.95311832 </v>
    <v>       0.21765990       0.10880628       0.04808969 </v>
    <v>       0.10927667       0.55163055       0.95183422 </v>
    <v>       0.21811328       0.44308255       0.04799454 </v>
    <v>       0.10822366       0.89025619       0.95201493 </v>
    <v>       0.22172353       0.77705608       0.04919591 </v>
    <v>       0.44425071       0.22206517       0.95066804 </v>
    <v>       0.55593161       0.11063635       0.04932575 </v>
    <v>       0.44831654       0.55816371       0.95195828 </v>
    <v>       0.55779994       0.44890847       0.04812731 </v>
    <v>       0.44464704       0.88824126       0.95073300 </v>
    <v>       0.55757905       0.77560548       0.04803419 </v>
    <v>       0.78186443       0.22337062       0.95194349 </v>
    <v>       0.89231256       0.11253104       0.04687671 </v>
    <v>       0.77630341       0.55835947       0.95203697 </v>
    <v>       0.89162095       0.44291759       0.04792417 </v>
    <v>       0.77937506       0.88702951       0.95313399 </v>
    <v>       0.88696314       0.77929784       0.04699109 </v>
   </varray>
  </structure>
  <varray name="forces" >
   <v>       0.17241576      -0.25341301      -0.05350021 </v>
   <v>       0.14716922       0.25645389      -0.09503430 </v>
   <v>       0.00673797       0.06709762       0.03526123 </v>
   <v>      -0.09313787       0.56663098       0.00161712 </v>
   <v>      -0.23132640      -0.62128462       0.03609341 </v>
   <v>       0.59316409       0.03232469       0.00475293 </v>
   <v>       0.07875183       0.04122995       0.08587098 </v>
   <v>      -0.09725455      -0.00471563       0.05690850 </v>
   <v>      -0.52268407      -0.08979659      -0.10032321 </v>
   <v>       0.01479304      -0.04246813       0.05029995 </v>
   <v>      -0.03928929      -0.06628916       0.15579047 </v>
   <v>      -0.04448411       0.04447219       0.01782050 </v>
   <v>      -0.06678504       0.05201428      -0.15962496 </v>
   <v>       0.02159239      -0.10213158       0.03689001 </v>
   <v>       0.06787394      -0.08455963      -0.10841114 </v>
   <v>      -0.00810829       0.00867411      -0.34845231 </v>
   <v>       0.12516842       0.00532928       0.26870770 </v>
   <v>      -0.09752127       0.05164301       0.04952731 </v>
   <v>      -0.02397758       0.06159519       0.20483058 </v>
   <v>       0.08245135      -0.00423568      -0.03605509 </v>
   <v>      -0.07936936       0.01268801      -0.12409924 </v>
   <v>       0.06374257      -0.05206294       0.02821233 </v>
   <v>      -0.05657597      -0.08040904      -0.16455096 </v>
   <v>       0.02746503       0.10154521       0.06337110 </v>
   <v>      -0.02802032       0.09868864      -0.11063163 </v>
   <v>      -0.11166963       0.00232467       0.33608230 </v>
   <v>       0.09887814      -0.00134571      -0.13135336 </v>
  </varray>
  <varray name="stress" >
   <v>     -19.90051386      -0.01668796       0.04265425 </v>
   <v>      -0.01668785     -19.46628218      -0.01657431 </v>
   <v>       0.04265442      -0.01657442      -1.75444601 </v>
  </varray>
  <energy>
   <i name="e_fr_energy">   -188.70015663 </i>
   <i name="e_wo_entrp">   -188.56116682 </i>
   <i name="e_0_energy">     -0.27797962 </i>
  </energy>
  <time name="totalsc">  449.43  450.62</time>
 </calculation>
 <calculation>
  <scstep>
   <time name="dav">   24.97   25.03</time>
   <time name="total">   25.51   25.57</time>
   <energy>
    <i name="alphaZ">     82.33631574 </i>
    <i name="ewald">  41298.99898837 </i>
    <i name="hartreedc"> -47297.73435226 </i>
    <i name="XCdc">   -233.85174065 </i>
    <i name="pawpsdc">   3949.79724159 </i>
    <i name="pawaedc">  -3364.31101148 </i>
    <i name="eentropy">     -0.23489487 </i>
    <i name="bandstr">  -1387.06595996 </i>
    <i name="atom">   6761.44252427 </i>
    <i name="e_fr_energy">   -190.62288924 </i>
    <i name="e_wo_entrp">   -190.38799438 </i>
    <i name="e_0_energy">   -190.50544181 </i>
   </energy>
  </scstep>
  <scstep>
   <time name="dav">   30.08   30.15</time>
   <time name="total">   30.60   30.69</time>
   <energy>
    <i name="e_fr_energy">   -190.57185111 </i>
    <i name="e_wo_entrp">   -190.33772128 </i>
    <i name="e_0_energy">   -190.45478620 </i>
   </energy>
  </scstep>
  <scstep>
   <time name="dav">   32.39   32.47</time>
   <time name="total">   32.91   33.00</time>
   <energy>
    <i name="e_fr_energy">   -190.10660004 </i>
    <i name="e_wo_entrp">   -189.85626984 </i>
    <i name="e_0_energy">   -189.98143494 </i>
   </energy>
  </scstep>
  <scstep>
   <time name="dav">   33.40   33.48</time>
   <time name="total">   33.94   34.03</time>
   <energy>
    <i name="e_fr_energy">   -189.89858095 </i>
    <i name="e_wo_entrp">   -189.66507209 </i>
    <i name="e_0_energy">   -189.78182652 </i>
   </energy>
  </scstep>
  <scstep>
   <time name="dav">   32.17   32.25</time>
   <time name="total">   32.70   32.79</time>
   <energy>
    <i name="e_fr_energy">   -189.87853998 </i>
    <i name="e_wo_entrp">   -189.63994775 </i>
    <i name="e_0_energy">   -189.75924386 </i>
   </energy>
  </scstep>
  <scstep>
   <time name="dav">   32.74   32.82</time>
   <time name="total">   33.28   33.37</time>
   <energy>
    <i name="e_fr_energy">   -189.80047497 </i>
    <i name="e_wo_entrp">   -189.56318967 </i>
    <i name="e_0_energy">   -189.68183232 </i>
   </energy>
  </scstep>
  <scstep>
   <time name="dav">   30.70   30.78</time>
   <time name="total">   31.24   31.32</time>
   <energy>
    <i name="e_fr_energy">   -189.79360424 </i>
    <i name="e_wo_entrp">   -189.55704258 </i>
    <i name="e_0_energy">   -189.67532341 </i>
   </energy>
  </scstep>
  <scstep>
   <time name="dav">   29.97   30.04</time>
   <time name="total">   30.51   30.59</time>
   <energy>
    <i name="e_fr_energy">   -189.79372243 </i>
    <i name="e_wo_entrp">   -189.55704227 </i>
    <i name="e_0_energy">   -189.67538235 </i>
   </energy>
  </scstep>
  <scstep>
   <time name="dav">   28.69   28.76</time>
   <time name="total">   29.22   29.30</time>
   <energy>
    <i name="e_fr_energy">   -189.79389245 </i>
    <i name="e_wo_entrp">   -189.55722123 </i>
    <i name="e_0_energy">   -189.67555684 </i>
   </energy>
  </scstep>
  <scstep>
   <time name="dav">   27.13   27.20</time>
   <time name="total">   27.67   27.74</time>
   <energy>
    <i name="e_fr_energy">   -189.79399802 </i>
    <i name="e_wo_entrp">   -189.55735828 </i>
    <i name="e_0_energy">   -189.67567815 </i>
   </energy>
  </scstep>
  <scstep>
   <time name="dav">   25.14   25.20</time>
   <time name="total">   25.67   25.74</time>
   <energy>
    <i name="e_fr_energy">   -189.79365260 </i>
    <i name="e_wo_entrp">   -189.55689395 </i>
    <i name="e_0_energy">   -189.67527327 </i>
   </energy>
  </scstep>
  <scstep>
   <time name="dav">   20.86   20.91</time>
   <time name="total">   20.89   20.95</time>
   <energy>
    <i name="alphaZ">     82.33631574 </i>
    <i name="ewald">  41298.99898837 </i>
    <i name="hartreedc"> -47271.28942892 </i>
    <i name="XCdc">   -235.24075643 </i>
    <i name="pawpsdc">   4038.90559624 </i>
    <i name="pawaedc">  -3454.62051872 </i>
    <i name="eentropy">     -0.23675318 </i>
    <i name="bandstr">  -1410.08964817 </i>
    <i name="atom">   6761.44252427 </i>
    <i name="e_fr_energy">   -189.79368079 </i>
    <i name="e_wo_entrp">   -189.55692762 </i>
    <i name="e_0_energy">   -189.67530420 </i>
   </energy>
  </scstep>
  <structure>
   <crystal>
    <varray name="basis" >
     <v>       8.66939537       5.00148931       0.00000000 </v>
     <v>      -8.66695339       4.99728950       0.00000000 </v>
     <v>       0.00000000       0.00000000      30.00000000 </v>
    </varray>
    <i name="volume">   2600.13459453 </i>
    <varray name="rec_basis" >
     <v>       0.05765805       0.09999813       0.00000000 </v>
     <v>      -0.05770650       0.10002631       0.00000000 </v>
     <v>       0.00000000       0.00000000       0.03333333 </v>
    </varray>
   </crystal>
   <varray name="positions" >
    <v>       0.66562928       0.66416789       0.00007877 </v>
    <v>       0.00253260       0.00146825      -0.00012152 </v>
    <v>       1.00018201       0.33311743      -0.00013072 </v>
    <v>       0.33553820       0.00382940       0.00004569 </v>
    <v>       0.66253765       0.33117286       0.00025268 </v>
    <v>       0.33515963       0.33119858       0.00000935 </v>
    <v>      -0.00036096       0.66674944       0.00013857 </v>
    <v>       0.33329727       0.66650759      -0.00012882 </v>
    <v>       0.66528563       0.00182185      -0.00016074 </v>
    <v>       0.10643767       0.22007724       0.95314683 </v>
    <v>       0.21751183       0.10873361       0.04817799 </v>
    <v>       0.10930803       0.55174734       0.95184432 </v>
    <v>       0.21813580       0.44323332       0.04790407 </v>
    <v>       0.10807433       0.89006535       0.95203583 </v>
    <v>       0.22164787       0.77685006       0.04913447 </v>
    <v>       0.44425737       0.22208740       0.95047055 </v>
    <v>       0.55606059       0.11052502       0.04947805 </v>
    <v>       0.44830895       0.55834338       0.95198635 </v>
    <v>       0.55787949       0.44903409       0.04824340 </v>
    <v>       0.44471911       0.88815502       0.95071256 </v>
    <v>       0.55752402       0.77570284       0.04796385 </v>
    <v>       0.78183891       0.22322269       0.95195948 </v>
    <v>       0.89212439       0.11245146       0.04678344 </v>
    <v>       0.77649884       0.55850222       0.95207289 </v>
    <v>       0.89175838       0.44310887       0.04786147 </v>
    <v>       0.77927178       0.88714063       0.95332447 </v>
    <v>       0.88705578       0.77920063       0.04691664 </v>
   </varray>
  </structure>
  <varray name="forces" >
   <v>       0.16182894      -0.26797939      -0.07165843 </v>
   <v>       0.16189769       0.23879700      -0.08561497 </v>
   <v>      -0.03162740       0.11307919       0.05602707 </v>
   <v>      -0.02954758       0.59066483      -0.00386562 </v>
   <v>      -0.21556152      -0.66169175       0.00135855 </v>
   <v>       0.59925665       0.06122122       0.00910365 </v>
   <v>       0.14653519       0.06134496       0.06342679 </v>
   <v>      -0.15053919      -0.00006023       0.07675718 </v>
   <v>      -0.56331735      -0.15176421      -0.08286724 </v>
   <v>      -0.01372042      -0.08402160      -0.39612608 </v>
   <v>      -0.07467139      -0.12555613       0.65537263 </v>
   <v>       0.02560186      -0.08156269      -0.50498789 </v>
   <v>      -0.03714535      -0.07581798       0.31550741 </v>
   <v>      -0.07457222      -0.02257156      -0.44894309 </v>
   <v>       0.01957880      -0.00099600       0.43371942 </v>
   <v>      -0.00655149       0.01291476      -0.91582650 </v>
   <v>       0.04306667       0.00466430       0.85488186 </v>
   <v>       0.02555871       0.09691462      -0.43867066 </v>
   <v>      -0.06359382       0.11765275       0.71848925 </v>
   <v>      -0.00591873      -0.01302289      -0.60128504 </v>
   <v>       0.06091356       0.02774848       0.37023933 </v>
   <v>       0.03425126       0.08746939      -0.47031720 </v>
   <v>       0.01837946       0.03643177       0.27880206 </v>
   <v>      -0.06557374       0.02200076      -0.41396311 </v>
   <v>       0.07433763       0.00802993       0.36770790 </v>
   <v>       0.03393478       0.00196984      -0.09700437 </v>
   <v>      -0.07280099       0.00414061       0.32973708 </v>
  </varray>
  <varray name="stress" >
   <v>     -10.14895354      -0.01584322       0.01867469 </v>
   <v>      -0.01584324      -9.81706103      -0.02870159 </v>
   <v>       0.01867476      -0.02870161       6.47752815 </v>
  </varray>
  <energy>
   <i name="e_fr_energy">   -189.79368079 </i>
   <i name="e_wo_entrp">   -189.67530420 </i>
   <i name="e_0_energy">     -0.23675318 </i>
  </energy>
  <time name="totalsc">  398.72  399.78</time>
 </calculation>
 <calculation>
  <scstep>
   <time name="dav">   23.25   23.30</time>
   <time name="total">   23.77   23.83</time>
   <energy>
    <i name="alphaZ">     85.80757125 </i>
    <i name="ewald">  42828.10029724 </i>
    <i name="hartreedc"> -48844.72526883 </i>
    <i name="XCdc">   -232.95557994 </i>
    <i name="pawpsdc">   4038.95066843 </i>
    <i name="pawaedc">  -3454.66360972 </i>
    <i name="eentropy">     -0.20505465 </i>
    <i name="bandstr">  -1373.11866425 </i>
    <i name="atom">   6761.44252427 </i>
    <i name="e_fr_energy">   -191.36711619 </i>
    <i name="e_wo_entrp">   -191.16206154 </i>
    <i name="e_0_energy">   -191.26458886 </i>
   </energy>
  </scstep>
  <scstep>
   <time name="dav">   34.32   34.40</time>
   <time name="total">   34.84   34.93</time>
   <energy>
    <i name="e_fr_energy">   -191.20443377 </i>
    <i name="e_wo_entrp">   -190.99938600 </i>
    <i name="e_0_energy">   -191.10190989 </i>
   </energy>
  </scstep>
  <scstep>
   <time name="dav">   32.00   32.08</time>
   <time name="total">   32.51   32.60</time>
   <energy>
    <i name="e_fr_energy">   -191.30986622 </i>
    <i name="e_wo_entrp">   -191.08163963 </i>
    <i name="e_0_energy">   -191.19575293 </i>
   </energy>
  </scstep>
  <scstep>
   <time name="dav">   32.65   32.73</time>
   <time name="total">   33.17   33.26</time>
   <energy>
    <i name="e_fr_energy">   -190.93680039 </i>
    <i name="e_wo_entrp">   -190.72854652 </i>
    <i name="e_0_energy">   -190.83267345 </i>
   </energy>
  </scstep>
  <scstep>
   <time name="dav">   32.74   32.82</time>
   <time name="total">   33.26   33.35</time>
   <energy>
    <i name="e_fr_energy">   -190.88888537 </i>
    <i name="e_wo_entrp">   -190.68189237 </i>
    <i name="e_0_energy">   -190.78538887 </i>
   </energy>
  </scstep>
  <scstep>
   <time name="dav">   32.18   32.26</time>
   <time name="total">   32.70   32.79</time>
   <energy>
    <i name="e_fr_energy">   -190.80490056 </i>
    <i name="e_wo_entrp">   -190.59421911 </i>
    <i name="e_0_energy">   -190.69955984 </i>
   </energy>
  </scstep>
  <scstep>
   <time name="dav">   33.19   33.27</time>
   <time name="total">   33.71   33.80</time>
   <energy>
    <i name="e_fr_energy">   -190.79013211 </i>
    <i name="e_wo_entrp">   -190.58032120 </i>
    <i name="e_0_energy">   -190.68522665 </i>
   </energy>
  </scstep>
  <scstep>
   <time name="dav">   27.58   27.64</time>
   <time name="total">   28.10   28.17</time>
   <energy>
    <i name="e_fr_energy">   -190.78755862 </i>
    <i name="e_wo_entrp">   -190.57790411 </i>
    <i name="e_0_energy">   -190.68273136 </i>
   </energy>
  </scstep>
  <scstep>
   <time name="dav">   30.97   31.04</time>
   <time name="total">   31.49   31.57</time>
   <energy>
    <i name="e_fr_energy">   -190.78790450 </i>
    <i name="e_wo_entrp">   -190.57823148 </i>
    <i name="e_0_energy">   -190.68306799 </i>
   </energy>
  </scstep>
  <scstep>
   <time name="dav">   29.59   29.66</time>
   <time name="total">   30.11   30.19</time>
   <energy>
    <i name="e_fr_energy">   -190.78766738 </i>
    <i name="e_wo_entrp">   -190.57798741 </i>
    <i name="e_0_energy">   -190.68282739 </i>
   </energy>
  </scstep>
  <scstep>
   <time name="dav">   25.19   25.25</time>
   <time name="total">   25.71   25.78</time>
   <energy>
    <i name="e_fr_energy">   -190.78756024 </i>
    <i name="e_wo_entrp">   -190.57787984 </i>
    <i name="e_0_energy">   -190.68272004 </i>
   </energy>
  </scstep>
  <scstep>
   <time name="dav">   21.53   21.58</time>
   <time name="total">   21.57   21.63</time>
   <energy>
    <i name="alphaZ">     85.80757125 </i>
    <i name="ewald">  42828.10029724 </i>
    <i name="hartreedc"> -48816.22361693 </i>
    <i name="XCdc">   -234.28211495 </i>
    <i name="pawpsdc">   4064.15125233 </i>
    <i name="pawaedc">  -3480.04762816 </i>
    <i name="eentropy">     -0.20972217 </i>
    <i name="bandstr">  -1399.52612067 </i>
    <i name="atom">   6761.44252427 </i>
    <i name="e_fr_energy">   -190.78755778 </i>
    <i name="e_wo_entrp">   -190.57783561 </i>
    <i name="e_0_energy">   -190.68269670 </i>
   </energy>
  </scstep>
  <structure>
   <crystal>
    <varray name="basis" >
     <v>       8.48751646       4.90135798       0.00000000 </v>
     <v>      -8.48568144       4.89820551       0.00000000 </v>
     <v>       0.00000000       0.00000000      30.00000000 </v>
    </varray>
    <i name="volume">   2494.94886995 </i>
    <varray name="rec_basis" >
     <v>       0.05889747       0.10203433       0.00000000 </v>
     <v>      -0.05893537       0.10205640       0.00000000 </v>
     <v>       0.00000000       0.00000000       0.03333333 </v>
    </varray>
   </crystal>
   <varray name="positions" >
    <v>       0.66448383       0.66188285      -0.00008499 </v>
    <v>       0.00459019       0.00231382      -0.00029076 </v>
    <v>       1.00083556       0.33411012       0.00000289 </v>
    <v>       0.33928236       0.00760525       0.00003304 </v>
    <v>       0.65753649       0.32768310       0.00022600 </v>
    <v>       0.33778848       0.32947912       0.00003189 </v>
    <v>       0.00070017       0.66655670       0.00025082 </v>
    <v>       0.33268815       0.66713969       0.00004693 </v>
    <v>       0.66208736       0.00281131      -0.00031747 </v>
    <v>       0.10571724       0.21953779       0.95194775 </v>
    <v>       0.21625703       0.10811998       0.04995888 </v>
    <v>       0.10867605       0.55072853       0.95035503 </v>
    <v>       0.21725054       0.44253104       0.04896062 </v>
    <v>       0.10772380       0.89053036       0.95069396 </v>
    <v>       0.22185135       0.77705100       0.05049262 </v>
    <v>       0.44432741       0.22220034       0.94809291 </v>
    <v>       0.55612569       0.11051501       0.05174548 </v>
    <v>       0.44929810       0.55879404       0.95066374 </v>
    <v>       0.55846955       0.45019793       0.05016691 </v>
    <v>       0.44446723       0.88820004       0.94898790 </v>
    <v>       0.55815704       0.77549223       0.04915001 </v>
    <v>       0.78281609       0.22403741       0.95056257 </v>
    <v>       0.89281811       0.11279693       0.04773703 </v>
    <v>       0.77606766       0.55881250       0.95081064 </v>
    <v>       0.89199820       0.44251701       0.04902881 </v>
    <v>       0.77961509       0.88681993       0.95275596 </v>
    <v>       0.88658567       0.77975043       0.04799073 </v>
   </varray>
  </structure>
  <varray name="forces" >
   <v>       0.17250824      -0.26176009      -0.07243805 </v>
   <v>       0.15896009       0.19647321      -0.03782420 </v>
   <v>      -0.05211302       0.18012611       0.06150562 </v>
   <v>       0.04918756       0.57251960      -0.00527975 </v>
   <v>      -0.18686122      -0.64812385      -0.03098422 </v>
   <v>       0.56196391       0.07020584       0.02780132 </v>
   <v>       0.19387298       0.06736674       0.01243162 </v>
   <v>      -0.20826685      -0.00691366       0.05005870 </v>
   <v>      -0.57686722      -0.16604600      -0.02891472 </v>
   <v>       0.04715384       0.03399624      -0.30903373 </v>
   <v>       0.00662313       0.00388095       0.46043222 </v>
   <v>       0.03324498      -0.03959229      -0.39409273 </v>
   <v>       0.08863629      -0.02004992       0.18062714 </v>
   <v>       0.01827956       0.05811322      -0.27422074 </v>
   <v>      -0.06585460       0.09287986       0.30097112 </v>
   <v>      -0.00090514      -0.00361187      -0.71396810 </v>
   <v>      -0.04864488       0.01407678       0.68150421 </v>
   <v>       0.03297149      -0.02180147      -0.26279407 </v>
   <v>       0.01275942       0.00088880       0.55721198 </v>
   <v>      -0.07880160      -0.02409525      -0.45981008 </v>
   <v>       0.00665569       0.04265463       0.21035592 </v>
   <v>      -0.06387346       0.01079518      -0.30065205 </v>
   <v>      -0.02187848      -0.02388052       0.13925203 </v>
   <v>       0.03439730      -0.05020632      -0.21545865 </v>
   <v>      -0.03400073      -0.08689332       0.21221199 </v>
   <v>      -0.04051420      -0.00219090      -0.02256775 </v>
   <v>      -0.03863305       0.01118829       0.23367496 </v>
  </varray>
  <varray name="stress" >
   <v>      -5.71932196       0.07398984      -0.07246205 </v>
   <v>       0.07398980      -5.65910340       0.07557280 </v>
   <v>      -0.07246208       0.07557296       4.48140196 </v>
  </varray>
  <energy>
   <i name="e_fr_energy">   -190.78755778 </i>
   <i name="e_wo_entrp">   -190.68269670 </i>
   <i name="e_0_energy">     -0.20972217 </i>
  </energy>
  <time name="totalsc">  405.43  406.49</time>
 </calculation>
 <calculation>
  <scstep>
   <time name="dav">   23.23   23.29</time>
   <time name="total">   23.74   23.80</time>
   <energy>
    <i name="alphaZ">     90.07603268 </i>
    <i name="ewald">  44620.17565610 </i>
    <i name="hartreedc"> -50662.64544560 </i>
    <i name="XCdc">   -231.89144011 </i>
    <i name="pawpsdc">   4064.09550640 </i>
    <i name="pawaedc">  -3479.98797594 </i>
    <i name="eentropy">     -0.20285257 </i>
    <i name="bandstr">  -1353.16247381 </i>
    <i name="atom">   6761.44252427 </i>
    <i name="e_fr_energy">   -192.10046857 </i>
    <i name="e_wo_entrp">   -191.89761601 </i>
    <i name="e_0_energy">   -191.99904229 </i>
   </energy>
  </scstep>
  <scstep>
   <time name="dav">   30.46   30.53</time>
   <time name="total">   30.97   31.05</time>
   <energy>
    <i name="e_fr_energy">   -191.86540454 </i>
    <i name="e_wo_entrp">   -191.65679811 </i>
    <i name="e_0_energy">   -191.76110133 </i>
   </energy>
  </scstep>
  <scstep>
   <time name="dav">   29.82   29.90</time>
   <time name="total">   30.33   30.41</time>
   <energy>
    <i name="e_fr_energy">   -192.06775674 </i>
    <i name="e_wo_entrp">   -191.84785764 </i>
    <i name="e_0_energy">   -191.95780719 </i>
   </energy>
  </scstep>
  <scstep>
   <time name="dav">   30.41   30.48</time>
   <time name="total">   30.92   31.00</time>
   <energy>
    <i name="e_fr_energy">   -191.74860836 </i>
    <i name="e_wo_entrp">   -191.53390504 </i>
    <i name="e_0_energy">   -191.64125670 </i>
   </energy>
  </scstep>
  <scstep>
   <time name="dav">   32.36   32.44</time>
   <time name="total">   32.87   32.95</time>
   <energy>
    <i name="e_fr_energy">   -191.57271601 </i>
    <i name="e_wo_entrp">   -191.37313864 </i>
    <i name="e_0_energy">   -191.47292733 </i>
   </energy>
  </scstep>
  <scstep>
   <time name="dav">   32.19   32.27</time>
   <time name="total">   32.70   32.79</time>
   <energy>
    <i name="e_fr_energy">   -191.44748517 </i>
    <i name="e_wo_entrp">   -191.23509489 </i>
    <i name="e_0_energy">   -191.34129003 </i>
   </energy>
  </scstep>
  <scstep>
   <time name="dav">   32.16   32.24</time>
   <time name="total">   32.67   32.75</time>
   <energy>
    <i name="e_fr_energy">   -191.43313624 </i>
    <i name="e_wo_entrp">   -191.22260388 </i>
    <i name="e_0_energy">   -191.32787006 </i>
   </energy>
  </scstep>
  <scstep>
   <time name="dav">   28.84   28.91</time>
   <time name="total">   29.35   29.43</time>
   <energy>
    <i name="e_fr_energy">   -191.42893317 </i>
    <i name="e_wo_entrp">   -191.21860798 </i>
    <i name="e_0_energy">   -191.32377058 </i>
   </energy>
  </scstep>
  <scstep>
   <time name="dav">   33.08   33.16</time>
   <time name="total">   33.59   33.68</time>
   <energy>
    <i name="e_fr_energy">   -191.43046185 </i>
    <i name="e_wo_entrp">   -191.22035521 </i>
    <i name="e_0_energy">   -191.32540853 </i>
   </energy>
  </scstep>
  <scstep>
   <time name="dav">   29.87   29.94</time>
   <time name="total">   30.38   30.46</time>
   <energy>
    <i name="e_fr_energy">   -191.42886801 </i>
    <i name="e_wo_entrp">   -191.21833120 </i>
    <i name="e_0_energy">   -191.32359960 </i>
   </energy>
  </scstep>
  <scstep>
   <time name="dav">   25.56   25.62</time>
   <time name="total">   25.60   25.66</time>
   <energy>
    <i name="alphaZ">     90.07603268 </i>
    <i name="ewald">  44620.17565610 </i>
    <i name="hartreedc"> -50629.42426852 </i>
    <i name="XCdc">   -233.38241730 </i>
    <i name="pawpsdc">   4085.23008724 </i>
    <i name="pawaedc">  -3501.21734687 </i>
    <i name="eentropy">     -0.21048938 </i>
    <i name="bandstr">  -1384.11871512 </i>
    <i name="atom">   6761.44252427 </i>
    <i name="e_fr_energy">   -191.42893689 </i>
    <i name="e_wo_entrp">   -191.21844750 </i>
    <i name="e_0_energy">   -191.32369220 </i>
   </energy>
  </scstep>
  <structure>
   <crystal>
    <varray name="basis" >
     <v>       8.28430462       4.78849783       0.00000000 </v>
     <v>      -8.27829798       4.77811813       0.00000000 </v>
     <v>       0.00000000       0.00000000      30.00000000 </v>
    </varray>
    <i name="volume">   2376.71993932 </i>
    <varray name="rec_basis" >
     <v>       0.06031150       0.10449230       0.00000000 </v>
     <v>      -0.06044252       0.10456812       0.00000000 </v>
     <v>       0.00000000       0.00000000       0.03333333 </v>
    </varray>
   </crystal>
   <varray name="positions" >
    <v>       0.66242837       0.65745425      -0.00038987 </v>
    <v>       0.00814851       0.00358193      -0.00045707 </v>
    <v>       1.00264113       0.33673660       0.00026440 </v>
    <v>       0.34673250       0.01430539       0.00000750 </v>
    <v>       0.64818603       0.32096295       0.00008634 </v>
    <v>       0.34270936       0.32640180       0.00013666 </v>
    <v>       0.00299836       0.66599426       0.00030534 </v>
    <v>       0.33113089       0.66857848       0.00027906 </v>
    <v>       0.65579990       0.00474844      -0.00044385 </v>
    <v>       0.10604640       0.21941255       0.95024176 </v>
    <v>       0.21583433       0.10787439       0.05237458 </v>
    <v>       0.10810737       0.54947619       0.94822462 </v>
    <v>       0.21710340       0.44127777       0.05020968 </v>
    <v>       0.10840862       0.89145004       0.94904180 </v>
    <v>       0.22260538       0.77872848       0.05228345 </v>
    <v>       0.44431346       0.22220473       0.94460092 </v>
    <v>       0.55588996       0.11105940       0.05511174 </v>
    <v>       0.44978325       0.55842520       0.94905406 </v>
    <v>       0.55878419       0.45060804       0.05296286 </v>
    <v>       0.44353664       0.88853013       0.94653925 </v>
    <v>       0.55902364       0.77570177       0.05054895 </v>
    <v>       0.78306631       0.22509729       0.94879580 </v>
    <v>       0.89296620       0.11293046       0.04879342 </v>
    <v>       0.77534250       0.55809829       0.94938755 </v>
    <v>       0.89086877       0.44132413       0.05041729 </v>
    <v>       0.77961879       0.88677441       0.95220728 </v>
    <v>       0.88614020       0.78047713       0.04941638 </v>
   </varray>
  </structure>
  <varray name="forces" >
   <v>       0.21123266      -0.22900311       0.02397219 </v>
   <v>       0.14957234       0.16677213      -0.00351605 </v>
   <v>      -0.01166792       0.25703878      -0.01510402 </v>
   <v>       0.12458506       0.00184717      -0.05156304 </v>
   <v>      -0.05742179      -0.08392881       0.02578268 </v>
   <v>       0.15901163       0.00365982      -0.03672243 </v>
   <v>       0.20093892       0.11730143       0.00858728 </v>
   <v>      -0.32371239      -0.00377483      -0.02501599 </v>
   <v>      -0.35609666      -0.13652071       0.06481667 </v>
   <v>       0.06626841       0.14406845       0.00854210 </v>
   <v>       0.12827726       0.11985811       0.08555258 </v>
   <v>       0.03318907       0.02543419      -0.14384586 </v>
   <v>       0.20404767       0.09342755      -0.05635800 </v>
   <v>       0.13648326       0.11518720       0.02059874 </v>
   <v>      -0.12448242       0.16190572       0.07817355 </v>
   <v>       0.00077143      -0.06168897      -0.24957906 </v>
   <v>      -0.08222619       0.03591955       0.25481704 </v>
   <v>      -0.01308010      -0.14566826       0.07980715 </v>
   <v>       0.10381347      -0.07881975       0.14408341 </v>
   <v>      -0.11929711      -0.04534716      -0.17485958 </v>
   <v>      -0.07739963       0.03306467      -0.07155082 </v>
   <v>      -0.15914216      -0.08732954       0.03106420 </v>
   <v>      -0.07618946      -0.08997771      -0.13290753 </v>
   <v>       0.17185409      -0.12248388       0.06825856 </v>
   <v>      -0.15202106      -0.16485194      -0.09361634 </v>
   <v>      -0.17838428      -0.02598011       0.19630416 </v>
   <v>       0.04107591      -0.00010998      -0.03572159 </v>
  </varray>
  <varray name="stress" >
   <v>       0.01705326       0.24351641       0.02345302 </v>
   <v>       0.24351650       0.27385416       0.34794913 </v>
   <v>       0.02345294       0.34794911      -0.71579612 </v>
  </varray>
  <energy>
   <i name="e_fr_energy">   -191.42893689 </i>
   <i name="e_wo_entrp">   -191.32369220 </i>
   <i name="e_0_energy">     -0.21048938 </i>
  </energy>
  <time name="totalsc">  377.72  378.71</time>
 </calculation>
 <calculation>
  <scstep>
   <time name="dav">   23.22   23.28</time>
   <time name="total">   23.74   23.79</time>
   <energy>
    <i name="alphaZ">     89.98740802 </i>
    <i name="ewald">  44566.88183959 </i>
    <i name="hartreedc"> -50575.75103436 </i>
    <i name="XCdc">   -233.49958974 </i>
    <i name="pawpsdc">   4085.39405857 </i>
    <i name="pawaedc">  -3501.37859614 </i>
    <i name="eentropy">     -0.21356166 </i>
    <i name="bandstr">  -1384.34109295 </i>
    <i name="atom">   6761.44252427 </i>
    <i name="e_fr_energy">   -191.47804439 </i>
    <i name="e_wo_entrp">   -191.26448274 </i>
    <i name="e_0_energy">   -191.37126356 </i>
   </energy>
  </scstep>
  <scstep>
   <time name="dav">   33.93   34.01</time>
   <time name="total">   34.44   34.53</time>
   <energy>
    <i name="e_fr_energy">   -191.53086698 </i>
    <i name="e_wo_entrp">   -191.30745667 </i>
    <i name="e_0_energy">   -191.41916182 </i>
   </energy>
  </scstep>
  <scstep>
   <time name="dav">   32.55   32.62</time>
   <time name="total">   33.06   33.14</time>
   <energy>
    <i name="e_fr_energy">   -191.48880222 </i>
    <i name="e_wo_entrp">   -191.27474747 </i>
    <i name="e_0_energy">   -191.38177485 </i>
   </energy>
  </scstep>
  <scstep>
   <time name="dav">   30.27   30.34</time>
   <time name="total">   30.78   30.86</time>
   <energy>
    <i name="e_fr_energy">   -191.49038807 </i>
    <i name="e_wo_entrp">   -191.27485689 </i>
    <i name="e_0_energy">   -191.38262248 </i>
   </energy>
  </scstep>
  <scstep>
   <time name="dav">   27.67   27.74</time>
   <time name="total">   28.18   28.26</time>
   <energy>
    <i name="e_fr_energy">   -191.48701508 </i>
    <i name="e_wo_entrp">   -191.27184244 </i>
    <i name="e_0_energy">   -191.37942876 </i>
   </energy>
  </scstep>
  <scstep>
   <time name="dav">   28.19   28.26</time>
   <time name="total">   28.70   28.77</time>
   <energy>
    <i name="e_fr_energy">   -191.48698466 </i>
    <i name="e_wo_entrp">   -191.27167323 </i>
    <i name="e_0_energy">   -191.37932894 </i>
   </energy>
  </scstep>
  <scstep>
   <time name="dav">   27.60   27.66</time>
   <time name="total">   28.11   28.18</time>
   <energy>
    <i name="e_fr_energy">   -191.48667780 </i>
    <i name="e_wo_entrp">   -191.27162866 </i>
    <i name="e_0_energy">   -191.37915323 </i>
   </energy>
  </scstep>
  <scstep>
   <time name="dav">   22.30   22.36</time>
   <time name="total">   22.34   22.40</time>
   <energy>
    <i name="alphaZ">     89.98740802 </i>
    <i name="ewald">  44566.88183959 </i>
    <i name="hartreedc"> -50577.35627791 </i>
    <i name="XCdc">   -233.45683694 </i>
    <i name="pawpsdc">   4082.50888492 </i>
    <i name="pawaedc">  -3498.44973425 </i>
    <i name="eentropy">     -0.21513283 </i>
    <i name="bandstr">  -1382.82936139 </i>
    <i name="atom">   6761.44252427 </i>
    <i name="e_fr_energy">   -191.48668651 </i>
    <i name="e_wo_entrp">   -191.27155368 </i>
    <i name="e_0_energy">   -191.37912009 </i>
   </energy>
  </scstep>
  <structure>
   <crystal>
    <varray name="basis" >
     <v>       8.28865240       4.79770510       0.00000000 </v>
     <v>      -8.27658300       4.77682207       0.00000000 </v>
     <v>       0.00000000       0.00000000      30.00000000 </v>
    </varray>
    <i name="volume">   2379.06066686 </i>
    <varray name="rec_basis" >
     <v>       0.06023582       0.10436787       0.00000000 </v>
     <v>      -0.06049915       0.10452006       0.00000000 </v>
     <v>       0.00000000       0.00000000       0.03333333 </v>
    </varray>
   </crystal>
   <varray name="positions" >
    <v>       0.66191271       0.65574247      -0.00034931 </v>
    <v>       0.00937851       0.00397154      -0.00046123 </v>
    <v>       1.00387162       0.33802803       0.00023826 </v>
    <v>       0.34703896       0.01390216      -0.00007408 </v>
    <v>       0.64767943       0.32076499       0.00012845 </v>
    <v>       0.34314399       0.32598710       0.00007759 </v>
    <v>       0.00413950       0.66600461       0.00031850 </v>
    <v>       0.33019542       0.66947910       0.00023734 </v>
    <v>       0.65415025       0.00507841      -0.00033995 </v>
    <v>       0.10695274       0.21994105       0.95027155 </v>
    <v>       0.21680483       0.10810519       0.05248780 </v>
    <v>       0.10833542       0.54952023       0.94801652 </v>
    <v>       0.21815779       0.44116788       0.05010739 </v>
    <v>       0.10936859       0.89162147       0.94909075 </v>
    <v>       0.22304675       0.77987848       0.05238991 </v>
    <v>       0.44400880       0.22189523       0.94423646 </v>
    <v>       0.55583480       0.11147019       0.05548550 </v>
    <v>       0.44901456       0.55774011       0.94919662 </v>
    <v>       0.55868651       0.44991119       0.05316592 </v>
    <v>       0.44297658       0.88864461       0.94628480 </v>
    <v>       0.55895734       0.77608873       0.05042118 </v>
    <v>       0.78217010       0.22510938       0.94886233 </v>
    <v>       0.89229561       0.11269929       0.04857138 </v>
    <v>       0.77523439       0.55699928       0.94951031 </v>
    <v>       0.88962067       0.44095259       0.05025470 </v>
    <v>       0.77897579       0.88716028       0.95252560 </v>
    <v>       0.88626281       0.78035087       0.04934560 </v>
   </varray>
  </structure>
  <varray name="forces" >
   <v>       0.25874819      -0.22340858      -0.00426789 </v>
   <v>       0.16115080       0.19810891       0.01105121 </v>
   <v>       0.01468447       0.24851819       0.01960180 </v>
   <v>       0.12149740       0.04412770      -0.02009433 </v>
   <v>      -0.12843787      -0.18681471      -0.03882836 </v>
   <v>       0.24255404      -0.02059721      -0.03384793 </v>
   <v>       0.19482981       0.14359203       0.02736884 </v>
   <v>      -0.38878415       0.01456389      -0.00058140 </v>
   <v>      -0.36544472      -0.14604938       0.02484247 </v>
   <v>       0.03502615       0.08944128       0.00965074 </v>
   <v>       0.07870745       0.06921012       0.05550598 </v>
   <v>       0.01926012       0.02009223      -0.14523281 </v>
   <v>       0.10920735       0.08140885      -0.08183321 </v>
   <v>       0.08049776       0.04857455      -0.01764700 </v>
   <v>      -0.08467963       0.08014165       0.11319129 </v>
   <v>       0.01927358      -0.03381795      -0.12079994 </v>
   <v>      -0.08275759       0.00841925       0.17654963 </v>
   <v>      -0.02617564      -0.08938481       0.10464656 </v>
   <v>       0.04439206      -0.05764454       0.13222862 </v>
   <v>      -0.05255430      -0.02944932      -0.16276956 </v>
   <v>      -0.06737530      -0.00389047      -0.08495155 </v>
   <v>      -0.09018080      -0.04976419       0.05522754 </v>
   <v>      -0.06077914      -0.05220728      -0.16944520 </v>
   <v>       0.12513209      -0.05196487       0.05959195 </v>
   <v>      -0.07756088      -0.08154251      -0.09485232 </v>
   <v>      -0.11445796      -0.02096395       0.24709765 </v>
   <v>       0.03422672       0.00130113      -0.06140276 </v>
  </varray>
  <varray name="stress" >
   <v>      -0.06146664       0.01535258      -0.12075644 </v>
   <v>       0.01535264      -0.19172990       0.17018416 </v>
   <v>      -0.12075656       0.17018421      -1.22995830 </v>
  </varray>
  <energy>
   <i name="e_fr_energy">   -191.48668651 </i>
   <i name="e_wo_entrp">   -191.37912009 </i>
   <i name="e_0_energy">     -0.21513283 </i>
  </energy>
  <time name="totalsc">  273.87  274.59</time>
 </calculation>
 <calculation>
  <scstep>
   <time name="dav">   23.25   23.30</time>
   <time name="total">   23.76   23.82</time>
   <energy>
    <i name="alphaZ">     90.07216362 </i>
    <i name="ewald">  44606.95520646 </i>
    <i name="hartreedc"> -50618.25453087 </i>
    <i name="XCdc">   -233.39638929 </i>
    <i name="pawpsdc">   4082.41629119 </i>
    <i name="pawaedc">  -3498.35595569 </i>
    <i name="eentropy">     -0.21679003 </i>
    <i name="bandstr">  -1382.20254918 </i>
    <i name="atom">   6761.44252427 </i>
    <i name="e_fr_energy">   -191.54002952 </i>
    <i name="e_wo_entrp">   -191.32323949 </i>
    <i name="e_0_energy">   -191.43163451 </i>
   </energy>
  </scstep>
  <scstep>
   <time name="dav">   35.22   35.30</time>
   <time name="total">   35.73   35.82</time>
   <energy>
    <i name="e_fr_energy">   -191.57457788 </i>
    <i name="e_wo_entrp">   -191.34656430 </i>
    <i name="e_0_energy">   -191.46057109 </i>
   </energy>
  </scstep>
  <scstep>
   <time name="dav">   32.54   32.62</time>
   <time name="total">   33.05   33.14</time>
   <energy>
    <i name="e_fr_energy">   -191.54678900 </i>
    <i name="e_wo_entrp">   -191.32995045 </i>
    <i name="e_0_energy">   -191.43836973 </i>
   </energy>
  </scstep>
  <scstep>
   <time name="dav">   29.56   29.63</time>
   <time name="total">   30.06   30.14</time>
   <energy>
    <i name="e_fr_energy">   -191.54639858 </i>
    <i name="e_wo_entrp">   -191.32742291 </i>
    <i name="e_0_energy">   -191.43691074 </i>
   </energy>
  </scstep>
  <scstep>
   <time name="dav">   28.36   28.42</time>
   <time name="total">   28.87   28.94</time>
   <energy>
    <i name="e_fr_energy">   -191.54512072 </i>
    <i name="e_wo_entrp">   -191.32688902 </i>
    <i name="e_0_energy">   -191.43600487 </i>
   </energy>
  </scstep>
  <scstep>
   <time name="dav">   27.04   27.11</time>
   <time name="total">   27.55   27.62</time>
   <energy>
    <i name="e_fr_energy">   -191.54448103 </i>
    <i name="e_wo_entrp">   -191.32558013 </i>
    <i name="e_0_energy">   -191.43503058 </i>
   </energy>
  </scstep>
  <scstep>
   <time name="dav">   28.38   28.45</time>
   <time name="total">   28.89   28.97</time>
   <energy>
    <i name="e_fr_energy">   -191.54431265 </i>
    <i name="e_wo_entrp">   -191.32538520 </i>
    <i name="e_0_energy">   -191.43484892 </i>
   </energy>
  </scstep>
  <scstep>
   <time name="dav">   23.48   23.53</time>
   <time name="total">   23.51   23.58</time>
   <energy>
    <i name="alphaZ">     90.07216362 </i>
    <i name="ewald">  44606.95520646 </i>
    <i name="hartreedc"> -50618.10264606 </i>
    <i name="XCdc">   -233.41122284 </i>
    <i name="pawpsdc">   4084.50156184 </i>
    <i name="pawaedc">  -3500.46821282 </i>
    <i name="eentropy">     -0.21881720 </i>
    <i name="bandstr">  -1382.31488132 </i>
    <i name="atom">   6761.44252427 </i>
    <i name="e_fr_energy">   -191.54432405 </i>
    <i name="e_wo_entrp">   -191.32550685 </i>
[...]
      <set comment="kpoint 31">
       <r>  -17.5468    1.0000 </r>
       <r>  -17.2590    1.0000 </r>
       <r>  -16.9186    1.0000 </r>
       <r>  -16.7146    1.0000 </r>
       <r>  -16.5067    1.0000 </r>
       <r>  -16.4603    1.0000 </r>
       <r>  -16.3252    1.0000 </r>
       <r>  -16.1947    1.0000 </r>
       <r>  -16.1319    1.0000 </r>
       <r>  -16.0211    1.0000 </r>
       <r>  -15.8992    1.0000 </r>
       <r>  -15.8310    1.0000 </r>
       <r>  -15.7877    1.0000 </r>
       <r>  -15.6777    1.0000 </r>
       <r>  -15.6184    1.0000 </r>
       <r>  -15.4778    1.0000 </r>
       <r>  -15.4264    1.0000 </r>
       <r>  -15.2314    1.0000 </r>
       <r>   -9.7790    1.0000 </r>
       <r>   -9.4754    1.0000 </r>
       <r>   -9.3732    1.0000 </r>
       <r>   -9.0374    1.0000 </r>
       <r>   -8.7724    1.0000 </r>
       <r>   -8.7301    1.0000 </r>
       <r>   -8.6375    1.0000 </r>
       <r>   -8.5729    1.0000 </r>
       <r>   -8.3882    1.0000 </r>
       <r>   -8.2791    1.0000 </r>
       <r>   -8.2422    1.0000 </r>
       <r>   -8.1546    1.0000 </r>
       <r>   -8.1084    1.0000 </r>
       <r>   -8.0828    1.0000 </r>
       <r>   -7.9905    1.0000 </r>
       <r>   -7.9261    1.0000 </r>
       <r>   -7.8268    1.0000 </r>
       <r>   -7.7721    1.0000 </r>
       <r>   -7.5182    1.0000 </r>
       <r>   -7.4629    1.0000 </r>
       <r>   -7.4060    1.0000 </r>
       <r>   -7.3399    1.0000 </r>
       <r>   -7.1416    1.0000 </r>
       <r>   -7.0563    1.0000 </r>
       <r>   -6.9666    1.0000 </r>
       <r>   -6.8858    1.0000 </r>
       <r>   -6.8662    1.0000 </r>
       <r>   -6.7717    1.0000 </r>
       <r>   -6.6907    1.0000 </r>
       <r>   -6.6131    1.0000 </r>
       <r>   -6.5360    1.0000 </r>
       <r>   -6.4873    1.0000 </r>
       <r>   -6.4271    1.0000 </r>
       <r>   -6.3448    1.0000 </r>
       <r>   -6.2778    1.0000 </r>
       <r>   -6.1411    1.0000 </r>
       <r>   -6.1104    1.0000 </r>
       <r>   -6.0327    1.0000 </r>
       <r>   -5.9811    1.0000 </r>
       <r>   -5.9336    1.0000 </r>
       <r>   -5.8866    1.0000 </r>
       <r>   -5.7840    1.0000 </r>
       <r>   -5.6480    1.0000 </r>
       <r>   -5.6009    1.0000 </r>
       <r>   -5.5277    1.0000 </r>
       <r>   -5.4274    1.0000 </r>
       <r>   -5.2955    1.0000 </r>
       <r>   -5.1854    1.0000 </r>
       <r>   -5.0952    1.0000 </r>
       <r>   -4.8424    1.0000 </r>
       <r>   -4.7721    1.0000 </r>
       <r>   -4.7100    1.0000 </r>
       <r>   -4.6154    1.0000 </r>
       <r>   -4.4410    1.0000 </r>
       <r>   -4.4129    1.0000 </r>
       <r>   -4.3599    1.0000 </r>
       <r>   -4.1515    1.0000 </r>
       <r>   -4.0544    1.0000 </r>
       <r>   -3.9015    1.0000 </r>
       <r>   -3.5745    0.9515 </r>
       <r>   -3.4452    0.7721 </r>
       <r>   -3.2948    0.3753 </r>
       <r>   -3.0840    0.0353 </r>
       <r>   -2.9205    0.0015 </r>
       <r>   -2.8120    0.0001 </r>
       <r>   -2.6072    0.0000 </r>
       <r>   -2.5734    0.0000 </r>
       <r>   -2.4826    0.0000 </r>
       <r>   -2.2073    0.0000 </r>
       <r>   -2.1769    0.0000 </r>
       <r>   -2.0847    0.0000 </r>
       <r>   -1.9090    0.0000 </r>
       <r>   -1.7629    0.0000 </r>
       <r>   -1.5604    0.0000 </r>
       <r>   -1.4719    0.0000 </r>
       <r>   -1.3019    0.0000 </r>
       <r>   -1.1896    0.0000 </r>
       <r>   -1.1630    0.0000 </r>
       <r>   -1.0513    0.0000 </r>
       <r>   -1.0174    0.0000 </r>
       <r>   -0.9558    0.0000 </r>
       <r>   -0.9224    0.0000 </r>
       <r>   -0.8639    0.0000 </r>
       <r>   -0.7421    0.0000 </r>
       <r>   -0.6715    0.0000 </r>
       <r>   -0.5993    0.0000 </r>
       <r>   -0.4964    0.0000 </r>
       <r>   -0.4333    0.0000 </r>
       <r>   -0.3606    0.0000 </r>
       <r>   -0.0383    0.0000 </r>
       <r>    0.0939    0.0000 </r>
       <r>    0.2505    0.0000 </r>
       <r>    0.4694    0.0000 </r>
       <r>    0.5236    0.0000 </r>
       <r>    0.6722    0.0000 </r>
       <r>    1.0104    0.0000 </r>
       <r>    1.0519    0.0000 </r>
       <r>    1.1835    0.0000 </r>
       <r>    1.4828    0.0000 </r>
       <r>    2.1400    0.0000 </r>
       <r>    2.2941    0.0000 </r>
       <r>    2.3976    0.0000 </r>
      </set>
      <set comment="kpoint 32">
       <r>  -17.5660    1.0000 </r>
       <r>  -17.1668    1.0000 </r>
       <r>  -17.0390    1.0000 </r>
       <r>  -16.7167    1.0000 </r>
       <r>  -16.4780    1.0000 </r>
       <r>  -16.3940    1.0000 </r>
       <r>  -16.3058    1.0000 </r>
       <r>  -16.2046    1.0000 </r>
       <r>  -16.1127    1.0000 </r>
       <r>  -16.0503    1.0000 </r>
       <r>  -15.9416    1.0000 </r>
       <r>  -15.8678    1.0000 </r>
       <r>  -15.7858    1.0000 </r>
       <r>  -15.6746    1.0000 </r>
       <r>  -15.6124    1.0000 </r>
       <r>  -15.4667    1.0000 </r>
       <r>  -15.4190    1.0000 </r>
       <r>  -15.2289    1.0000 </r>
       <r>   -9.6948    1.0000 </r>
       <r>   -9.5889    1.0000 </r>
       <r>   -9.4059    1.0000 </r>
       <r>   -9.0501    1.0000 </r>
       <r>   -8.7040    1.0000 </r>
       <r>   -8.6479    1.0000 </r>
       <r>   -8.5090    1.0000 </r>
       <r>   -8.4831    1.0000 </r>
       <r>   -8.4311    1.0000 </r>
       <r>   -8.3424    1.0000 </r>
       <r>   -8.2686    1.0000 </r>
       <r>   -8.2543    1.0000 </r>
       <r>   -8.1544    1.0000 </r>
       <r>   -8.0948    1.0000 </r>
       <r>   -8.0492    1.0000 </r>
       <r>   -7.9413    1.0000 </r>
       <r>   -7.8097    1.0000 </r>
       <r>   -7.7898    1.0000 </r>
       <r>   -7.5558    1.0000 </r>
       <r>   -7.4154    1.0000 </r>
       <r>   -7.3314    1.0000 </r>
       <r>   -7.2590    1.0000 </r>
       <r>   -7.1861    1.0000 </r>
       <r>   -7.1013    1.0000 </r>
       <r>   -6.9827    1.0000 </r>
       <r>   -6.8987    1.0000 </r>
       <r>   -6.8587    1.0000 </r>
       <r>   -6.7801    1.0000 </r>
       <r>   -6.7052    1.0000 </r>
       <r>   -6.5775    1.0000 </r>
       <r>   -6.5392    1.0000 </r>
       <r>   -6.4615    1.0000 </r>
       <r>   -6.4362    1.0000 </r>
       <r>   -6.3414    1.0000 </r>
       <r>   -6.2877    1.0000 </r>
       <r>   -6.2458    1.0000 </r>
       <r>   -6.1251    1.0000 </r>
       <r>   -6.0315    1.0000 </r>
       <r>   -5.9699    1.0000 </r>
       <r>   -5.9014    1.0000 </r>
       <r>   -5.8498    1.0000 </r>
       <r>   -5.7264    1.0000 </r>
       <r>   -5.7197    1.0000 </r>
       <r>   -5.5398    1.0000 </r>
       <r>   -5.4765    1.0000 </r>
       <r>   -5.4092    1.0000 </r>
       <r>   -5.2697    1.0000 </r>
       <r>   -5.2071    1.0000 </r>
       <r>   -5.0618    1.0000 </r>
       <r>   -4.9540    1.0000 </r>
       <r>   -4.8352    1.0000 </r>
       <r>   -4.6912    1.0000 </r>
       <r>   -4.6327    1.0000 </r>
       <r>   -4.4764    1.0000 </r>
       <r>   -4.3999    1.0000 </r>
       <r>   -4.3587    1.0000 </r>
       <r>   -4.1145    1.0000 </r>
       <r>   -4.0491    1.0000 </r>
       <r>   -3.8243    0.9997 </r>
       <r>   -3.6406    0.9833 </r>
       <r>   -3.4759    0.8322 </r>
       <r>   -3.3349    0.4864 </r>
       <r>   -3.0511    0.0206 </r>
       <r>   -2.8668    0.0004 </r>
       <r>   -2.7669    0.0000 </r>
       <r>   -2.6065    0.0000 </r>
       <r>   -2.5381    0.0000 </r>
       <r>   -2.4606    0.0000 </r>
       <r>   -2.2502    0.0000 </r>
       <r>   -2.1818    0.0000 </r>
       <r>   -2.1042    0.0000 </r>
       <r>   -1.9096    0.0000 </r>
       <r>   -1.7475    0.0000 </r>
       <r>   -1.5536    0.0000 </r>
       <r>   -1.4767    0.0000 </r>
       <r>   -1.3065    0.0000 </r>
       <r>   -1.2344    0.0000 </r>
       <r>   -1.1862    0.0000 </r>
       <r>   -1.0570    0.0000 </r>
       <r>   -1.0117    0.0000 </r>
       <r>   -0.9685    0.0000 </r>
       <r>   -0.9125    0.0000 </r>
       <r>   -0.8411    0.0000 </r>
       <r>   -0.7791    0.0000 </r>
       <r>   -0.6947    0.0000 </r>
       <r>   -0.5621    0.0000 </r>
       <r>   -0.5292    0.0000 </r>
       <r>   -0.3513    0.0000 </r>
       <r>   -0.2563    0.0000 </r>
       <r>   -0.1302    0.0000 </r>
       <r>    0.1220    0.0000 </r>
       <r>    0.2731    0.0000 </r>
       <r>    0.3467    0.0000 </r>
       <r>    0.5423    0.0000 </r>
       <r>    0.6587    0.0000 </r>
       <r>    0.9979    0.0000 </r>
       <r>    1.0196    0.0000 </r>
       <r>    1.2743    0.0000 </r>
       <r>    1.4281    0.0000 </r>
       <r>    2.1037    0.0000 </r>
       <r>    2.2657    0.0000 </r>
       <r>    2.5640    0.0000 </r>
      </set>
      <set comment="kpoint 33">
       <r>  -17.5650    1.0000 </r>
       <r>  -17.2330    1.0000 </r>
       <r>  -16.9189    1.0000 </r>
       <r>  -16.7183    1.0000 </r>
       <r>  -16.5356    1.0000 </r>
       <r>  -16.4332    1.0000 </r>
       <r>  -16.3327    1.0000 </r>
       <r>  -16.1847    1.0000 </r>
       <r>  -16.0458    1.0000 </r>
       <r>  -16.0078    1.0000 </r>
       <r>  -15.9669    1.0000 </r>
       <r>  -15.8859    1.0000 </r>
       <r>  -15.7776    1.0000 </r>
       <r>  -15.6878    1.0000 </r>
       <r>  -15.6296    1.0000 </r>
       <r>  -15.4596    1.0000 </r>
       <r>  -15.4212    1.0000 </r>
       <r>  -15.2300    1.0000 </r>
       <r>   -9.7549    1.0000 </r>
       <r>   -9.4664    1.0000 </r>
       <r>   -9.3311    1.0000 </r>
       <r>   -9.0807    1.0000 </r>
       <r>   -8.8580    1.0000 </r>
       <r>   -8.7436    1.0000 </r>
       <r>   -8.5319    1.0000 </r>
       <r>   -8.4891    1.0000 </r>
       <r>   -8.4179    1.0000 </r>
       <r>   -8.3232    1.0000 </r>
       <r>   -8.2632    1.0000 </r>
       <r>   -8.1963    1.0000 </r>
       <r>   -8.1395    1.0000 </r>
       <r>   -8.0692    1.0000 </r>
       <r>   -8.0372    1.0000 </r>
       <r>   -7.8625    1.0000 </r>
       <r>   -7.8242    1.0000 </r>
       <r>   -7.7604    1.0000 </r>
       <r>   -7.6032    1.0000 </r>
       <r>   -7.4196    1.0000 </r>
       <r>   -7.3129    1.0000 </r>
       <r>   -7.1879    1.0000 </r>
       <r>   -7.1649    1.0000 </r>
       <r>   -7.1051    1.0000 </r>
       <r>   -7.0000    1.0000 </r>
       <r>   -6.9239    1.0000 </r>
       <r>   -6.8357    1.0000 </r>
       <r>   -6.7807    1.0000 </r>
       <r>   -6.7294    1.0000 </r>
       <r>   -6.5979    1.0000 </r>
       <r>   -6.5378    1.0000 </r>
       <r>   -6.4779    1.0000 </r>
       <r>   -6.4178    1.0000 </r>
       <r>   -6.3685    1.0000 </r>
       <r>   -6.2978    1.0000 </r>
       <r>   -6.2586    1.0000 </r>
       <r>   -6.1424    1.0000 </r>
       <r>   -6.0589    1.0000 </r>
       <r>   -5.9628    1.0000 </r>
       <r>   -5.9151    1.0000 </r>
       <r>   -5.8655    1.0000 </r>
       <r>   -5.8090    1.0000 </r>
       <r>   -5.6828    1.0000 </r>
       <r>   -5.6317    1.0000 </r>
       <r>   -5.4775    1.0000 </r>
       <r>   -5.3638    1.0000 </r>
       <r>   -5.2734    1.0000 </r>
       <r>   -5.1043    1.0000 </r>
       <r>   -5.0661    1.0000 </r>
       <r>   -4.9059    1.0000 </r>
       <r>   -4.8124    1.0000 </r>
       <r>   -4.6778    1.0000 </r>
       <r>   -4.6132    1.0000 </r>
       <r>   -4.5412    1.0000 </r>
       <r>   -4.4003    1.0000 </r>
       <r>   -4.2892    1.0000 </r>
       <r>   -4.1254    1.0000 </r>
       <r>   -4.0335    1.0000 </r>
       <r>   -3.8129    0.9996 </r>
       <r>   -3.7218    0.9966 </r>
       <r>   -3.4976    0.8679 </r>
       <r>   -3.3944    0.6505 </r>
       <r>   -3.0098    0.0098 </r>
       <r>   -2.8252    0.0001 </r>
       <r>   -2.7338    0.0000 </r>
       <r>   -2.6100    0.0000 </r>
       <r>   -2.4979    0.0000 </r>
       <r>   -2.4353    0.0000 </r>
       <r>   -2.2928    0.0000 </r>
       <r>   -2.1744    0.0000 </r>
       <r>   -2.1333    0.0000 </r>
       <r>   -1.8739    0.0000 </r>
       <r>   -1.7303    0.0000 </r>
       <r>   -1.5341    0.0000 </r>
       <r>   -1.4622    0.0000 </r>
       <r>   -1.3652    0.0000 </r>
       <r>   -1.2563    0.0000 </r>
       <r>   -1.1941    0.0000 </r>
       <r>   -1.0887    0.0000 </r>
       <r>   -1.0283    0.0000 </r>
       <r>   -0.9355    0.0000 </r>
       <r>   -0.9201    0.0000 </r>
       <r>   -0.8581    0.0000 </r>
       <r>   -0.7461    0.0000 </r>
       <r>   -0.7231    0.0000 </r>
       <r>   -0.6166    0.0000 </r>
       <r>   -0.4578    0.0000 </r>
       <r>   -0.3646    0.0000 </r>
       <r>   -0.2171    0.0000 </r>
       <r>   -0.1367    0.0000 </r>
       <r>    0.1225    0.0000 </r>
       <r>    0.1684    0.0000 </r>
       <r>    0.3709    0.0000 </r>
       <r>    0.5865    0.0000 </r>
       <r>    0.6516    0.0000 </r>
       <r>    0.9706    0.0000 </r>
       <r>    1.0231    0.0000 </r>
       <r>    1.3596    0.0000 </r>
       <r>    1.3962    0.0000 </r>
       <r>    2.1277    0.0000 </r>
       <r>    2.3020    0.0000 </r>
       <r>    2.3817    0.0000 </r>
      </set>
      <set comment="kpoint 34">
       <r>  -17.5586    1.0000 </r>
       <r>  -17.2769    1.0000 </r>
       <r>  -16.7660    1.0000 </r>
       <r>  -16.7099    1.0000 </r>
       <r>  -16.6842    1.0000 </r>
       <r>  -16.4428    1.0000 </r>
       <r>  -16.3423    1.0000 </r>
       <r>  -16.1789    1.0000 </r>
       <r>  -16.0185    1.0000 </r>
       <r>  -15.9997    1.0000 </r>
       <r>  -15.9478    1.0000 </r>
       <r>  -15.8765    1.0000 </r>
       <r>  -15.7502    1.0000 </r>
       <r>  -15.7277    1.0000 </r>
       <r>  -15.6421    1.0000 </r>
       <r>  -15.4584    1.0000 </r>
       <r>  -15.4225    1.0000 </r>
       <r>  -15.2318    1.0000 </r>
       <r>   -9.7902    1.0000 </r>
       <r>   -9.3546    1.0000 </r>
       <r>   -9.2149    1.0000 </r>
       <r>   -9.1159    1.0000 </r>
       <r>   -9.0188    1.0000 </r>
       <r>   -8.8571    1.0000 </r>
       <r>   -8.5308    1.0000 </r>
       <r>   -8.4999    1.0000 </r>
       <r>   -8.4116    1.0000 </r>
       <r>   -8.3226    1.0000 </r>
       <r>   -8.2595    1.0000 </r>
       <r>   -8.1585    1.0000 </r>
       <r>   -8.1455    1.0000 </r>
       <r>   -8.0433    1.0000 </r>
       <r>   -7.9799    1.0000 </r>
       <r>   -7.8840    1.0000 </r>
       <r>   -7.8012    1.0000 </r>
       <r>   -7.7050    1.0000 </r>
       <r>   -7.5450    1.0000 </r>
       <r>   -7.4374    1.0000 </r>
       <r>   -7.3399    1.0000 </r>
       <r>   -7.2721    1.0000 </r>
       <r>   -7.1339    1.0000 </r>
       <r>   -7.0639    1.0000 </r>
       <r>   -7.0023    1.0000 </r>
       <r>   -6.9301    1.0000 </r>
       <r>   -6.8610    1.0000 </r>
       <r>   -6.7446    1.0000 </r>
       <r>   -6.6469    1.0000 </r>
       <r>   -6.6424    1.0000 </r>
       <r>   -6.5716    1.0000 </r>
       <r>   -6.4981    1.0000 </r>
       <r>   -6.4158    1.0000 </r>
       <r>   -6.3878    1.0000 </r>
       <r>   -6.3327    1.0000 </r>
       <r>   -6.2236    1.0000 </r>
       <r>   -6.1700    1.0000 </r>
       <r>   -6.0440    1.0000 </r>
       <r>   -5.9852    1.0000 </r>
       <r>   -5.9180    1.0000 </r>
       <r>   -5.8644    1.0000 </r>
       <r>   -5.8377    1.0000 </r>
       <r>   -5.7404    1.0000 </r>
       <r>   -5.5951    1.0000 </r>
       <r>   -5.5438    1.0000 </r>
       <r>   -5.3598    1.0000 </r>
       <r>   -5.3053    1.0000 </r>
       <r>   -5.0947    1.0000 </r>
       <r>   -4.8922    1.0000 </r>
       <r>   -4.8616    1.0000 </r>
       <r>   -4.8300    1.0000 </r>
       <r>   -4.7165    1.0000 </r>
       <r>   -4.6074    1.0000 </r>
       <r>   -4.5596    1.0000 </r>
       <r>   -4.3978    1.0000 </r>
       <r>   -4.2258    1.0000 </r>
       <r>   -4.1405    1.0000 </r>
       <r>   -4.0221    1.0000 </r>
       <r>   -3.8304    0.9997 </r>
       <r>   -3.7743    0.9989 </r>
       <r>   -3.5084    0.8835 </r>
       <r>   -3.4164    0.7062 </r>
       <r>   -2.9919    0.0070 </r>
       <r>   -2.8139    0.0001 </r>
       <r>   -2.7219    0.0000 </r>
       <r>   -2.6150    0.0000 </r>
       <r>   -2.4778    0.0000 </r>
       <r>   -2.4209    0.0000 </r>
       <r>   -2.3121    0.0000 </r>
       <r>   -2.1678    0.0000 </r>
       <r>   -2.1454    0.0000 </r>
       <r>   -1.8493    0.0000 </r>
       <r>   -1.7183    0.0000 </r>
       <r>   -1.5227    0.0000 </r>
       <r>   -1.4580    0.0000 </r>
       <r>   -1.4034    0.0000 </r>
       <r>   -1.2663    0.0000 </r>
       <r>   -1.1891    0.0000 </r>
       <r>   -1.1048    0.0000 </r>
       <r>   -0.9983    0.0000 </r>
       <r>   -0.9720    0.0000 </r>
       <r>   -0.8949    0.0000 </r>
       <r>   -0.8676    0.0000 </r>
       <r>   -0.7729    0.0000 </r>
       <r>   -0.6906    0.0000 </r>
       <r>   -0.6587    0.0000 </r>
       <r>   -0.4158    0.0000 </r>
       <r>   -0.3991    0.0000 </r>
       <r>   -0.2112    0.0000 </r>
       <r>   -0.1205    0.0000 </r>
       <r>    0.0501    0.0000 </r>
       <r>    0.2009    0.0000 </r>
       <r>    0.3742    0.0000 </r>
       <r>    0.6116    0.0000 </r>
       <r>    0.6505    0.0000 </r>
       <r>    0.9574    0.0000 </r>
       <r>    1.0331    0.0000 </r>
       <r>    1.3751    0.0000 </r>
       <r>    1.4109    0.0000 </r>
       <r>    2.1897    0.0000 </r>
       <r>    2.2523    0.0000 </r>
       <r>    2.3909    0.0000 </r>
      </set>
     </set>
    </set>
   </array>
  </eigenvalues>
  <separator name="orbital magnetization" >
   <v name="MAGDIPOLOUT">      0.00000000      0.00000000      0.00000000</v>
  </separator>
 </calculation>
 <structure name="finalpos" >
  <crystal>
   <varray name="basis" >
    <v>       8.36201265       4.83767252       0.00000000 </v>
    <v>      -8.34004596       4.79968307       0.00000000 </v>
    <v>       0.00000000       0.00000000      30.00000000 </v>
   </varray>
   <i name="volume">   2414.44265022 </i>
   <varray name="rec_basis" >
    <v>       0.05963716       0.10362697       0.00000000 </v>
    <v>      -0.06010918       0.10389991       0.00000000 </v>
    <v>       0.00000000       0.00000000       0.03333333 </v>
   </varray>
  </crystal>
  <varray name="positions" >
   <v>       0.67209170       0.63711664       0.00117969 </v>
   <v>       0.02709641       0.00901319      -0.00021874 </v>
   <v>       1.03480211       0.35004117      -0.00131217 </v>
   <v>       0.33456346       0.00266421       0.00011246 </v>
   <v>       0.63176504       0.31391695       0.00021592 </v>
   <v>       0.34249892       0.31581774       0.00058827 </v>
   <v>       0.02258027       0.68029304       0.00017197 </v>
   <v>       0.31760273       0.68659239      -0.00046774 </v>
   <v>       0.63338934       0.00256651      -0.00030725 </v>
   <v>       0.11337526       0.22076343       0.94862175 </v>
   <v>       0.21731708       0.10987909       0.05476991 </v>
   <v>       0.11017479       0.55384943       0.94544145 </v>
   <v>       0.23020916       0.45188811       0.04942469 </v>
   <v>       0.10538182       0.88961760       0.94651745 </v>
   <v>       0.22113478       0.78427079       0.05653398 </v>
   <v>       0.43716154       0.21497137       0.94335087 </v>
   <v>       0.54780550       0.11100186       0.05675893 </v>
   <v>       0.44806770       0.56201604       0.95599460 </v>
   <v>       0.55635720       0.44389205       0.05552313 </v>
   <v>       0.43661702       0.88914523       0.94332409 </v>
   <v>       0.55543680       0.77563639       0.04742501 </v>
   <v>       0.78150579       0.22520679       0.95188687 </v>
   <v>       0.88965963       0.11425618       0.04276038 </v>
   <v>       0.77739714       0.54889096       0.95006439 </v>
   <v>       0.88749102       0.43728336       0.04345440 </v>
   <v>       0.77629036       0.88658833       0.95894481 </v>
   <v>       0.89044185       0.78103560       0.04924082 </v>
  </varray>
 </structure>
</modeling>
