unknown system                          
           1
     8.857440    5.107666    0.000000
    -8.854759    5.103055    0.000000
     0.000000    0.000000   30.000000
   V    Mo   W    S 
   3   3   3  18
Direct configuration=     1
   0.66666669  0.66666669  0.00000000
   0.00000000  0.00000000  0.00000000
   1.00000000  0.33333334  0.00000000
   0.33333334  0.00000000  0.00000000
   0.66666669  0.33333334  0.00000000
   0.33333334  0.33333334  0.00000000
   0.00000000  0.66666669  0.00000000
   0.33333334  0.66666669  0.00000000
   0.66666669  0.00000000  0.00000000
   0.11068511  0.22244981  0.95539999
   0.22244981  0.11068511  0.04460000
   0.11068511  0.55578315  0.95539999
   0.22244981  0.44401845  0.04460000
   0.11068511  0.88911647  0.95539999
   0.22244981  0.77735180  0.04460000
   0.44401845  0.22244981  0.95539999
   0.55578315  0.11068511  0.04460000
   0.44401845  0.55578315  0.95539999
   0.55578315  0.44401845  0.04460000
   0.44401845  0.88911647  0.95539999
   0.55578315  0.77735180  0.04460000
   0.77735180  0.22244981  0.95539999
   0.88911647  0.11068511  0.04460000
   0.77735180  0.55578315  0.95539999
   0.88911647  0.44401845  0.04460000
   0.77735180  0.88911647  0.95539999
   0.88911647  0.77735180  0.04460000
unknown system                          
           1
     8.669395    5.001489    0.000000
    -8.666953    4.997289    0.000000
     0.000000    0.000000   30.000000
   V    Mo   W    S 
   3   3   3  18
Direct configuration=     2
   0.66588577  0.66475553  0.00010909
   0.00196439  0.00118247 -0.00006766
   1.00006383  0.33301215 -0.00015071
   0.33468414  0.00279623  0.00004478
   0.66379405  0.33198544  0.00023222
   0.33453664  0.33171442  0.00000666
  -0.00050517  0.66675641  0.00008990
   0.33339844  0.66642204 -0.00016108
   0.66593668  0.00146941 -0.00010388
   0.10649419  0.22016218  0.95311832
   0.21765990  0.10880628  0.04808969
   0.10927667  0.55163055  0.95183422
   0.21811328  0.44308255  0.04799454
   0.10822366  0.89025619  0.95201493
   0.22172353  0.77705608  0.04919591
   0.44425071  0.22206517  0.95066804
   0.55593161  0.11063635  0.04932575
   0.44831654  0.55816371  0.95195828
   0.55779994  0.44890847  0.04812731
   0.44464704  0.88824126  0.95073300
   0.55757905  0.77560548  0.04803419
   0.78186443  0.22337062  0.95194349
   0.89231256  0.11253104  0.04687671
   0.77630341  0.55835947  0.95203697
   0.89162095  0.44291759  0.04792417
   0.77937506  0.88702951  0.95313399
   0.88696314  0.77929784  0.04699109
unknown system                          
           1
     8.487516    4.901358    0.000000
    -8.485681    4.898206    0.000000
     0.000000    0.000000   30.000000
   V    Mo   W    S 
   3   3   3  18
Direct configuration=     3
   0.66562928  0.66416789  0.00007877
   0.00253260  0.00146825 -0.00012152
   1.00018201  0.33311743 -0.00013072
   0.33553820  0.00382940  0.00004569
   0.66253765  0.33117286  0.00025268
   0.33515963  0.33119858  0.00000935
  -0.00036096  0.66674944  0.00013857
   0.33329727  0.66650759 -0.00012882
   0.66528563  0.00182185 -0.00016074
   0.10643767  0.22007724  0.95314683
   0.21751183  0.10873361  0.04817799
   0.10930803  0.55174734  0.95184432
   0.21813580  0.44323332  0.04790407
   0.10807433  0.89006535  0.95203583
   0.22164787  0.77685006  0.04913447
   0.44425737  0.22208740  0.95047055
   0.55606059  0.11052502  0.04947805
   0.44830895  0.55834338  0.95198635
   0.55787949  0.44903409  0.04824340
   0.44471911  0.88815502  0.95071256
   0.55752402  0.77570284  0.04796385
   0.78183891  0.22322269  0.95195948
   0.89212439  0.11245146  0.04678344
   0.77649884  0.55850222  0.95207289
   0.89175838  0.44310887  0.04786147
   0.77927178  0.88714063  0.95332447
   0.88705578  0.77920063  0.04691664
unknown system                          
           1
     8.284305    4.788498    0.000000
    -8.278298    4.778118    0.000000
     0.000000    0.000000   30.000000
   V    Mo   W    S 
   3   3   3  18
Direct configuration=     4
   0.66448383  0.66188285 -0.00008499
   0.00459019  0.00231382 -0.00029076
   1.00083556  0.33411012  0.00000289
   0.33928236  0.00760525  0.00003304
   0.65753649  0.32768310  0.00022600
   0.33778848  0.32947912  0.00003189
   0.00070017  0.66655670  0.00025082
   0.33268815  0.66713969  0.00004693
   0.66208736  0.00281131 -0.00031747
   0.10571724  0.21953779  0.95194775
   0.21625703  0.10811998  0.04995888
   0.10867605  0.55072853  0.95035503
   0.21725054  0.44253104  0.04896062
   0.10772380  0.89053036  0.95069396
   0.22185135  0.77705100  0.05049262
   0.44432741  0.22220034  0.94809291
   0.55612569  0.11051501  0.05174548
   0.44929810  0.55879404  0.95066374
   0.55846955  0.45019793  0.05016691
   0.44446723  0.88820004  0.94898790
   0.55815704  0.77549223  0.04915001
   0.78281609  0.22403741  0.95056257
   0.89281811  0.11279693  0.04773703
   0.77606766  0.55881250  0.95081064
   0.89199820  0.44251701  0.04902881
   0.77961509  0.88681993  0.95275596
   0.88658567  0.77975043  0.04799073
unknown system                          
           1
     8.288652    4.797705    0.000000
    -8.276583    4.776822    0.000000
     0.000000    0.000000   30.000000
   V    Mo   W    S 
   3   3   3  18
Direct configuration=     5
   0.66242837  0.65745425 -0.00038987
   0.00814851  0.00358193 -0.00045707
   1.00264113  0.33673660  0.00026440
   0.34673250  0.01430539  0.00000750
   0.64818603  0.32096295  0.00008634
   0.34270936  0.32640180  0.00013666
   0.00299836  0.66599426  0.00030534
   0.33113089  0.66857848  0.00027906
   0.65579990  0.00474844 -0.00044385
   0.10604640  0.21941255  0.95024176
   0.21583433  0.10787439  0.05237458
   0.10810737  0.54947619  0.94822462
   0.21710340  0.44127777  0.05020968
   0.10840862  0.89145004  0.94904180
   0.22260538  0.77872848  0.05228345
   0.44431346  0.22220473  0.94460092
   0.55588996  0.11105940  0.05511174
   0.44978325  0.55842520  0.94905406
   0.55878419  0.45060804  0.05296286
   0.44353664  0.88853013  0.94653925
   0.55902364  0.77570177  0.05054895
   0.78306631  0.22509729  0.94879580
   0.89296620  0.11293046  0.04879342
   0.77534250  0.55809829  0.94938755
   0.89086877  0.44132413  0.05041729
   0.77961879  0.88677441  0.95220728
   0.88614020  0.78047713  0.04941638
unknown system                          
           1
     8.286369    4.795127    0.000000
    -8.273770    4.773336    0.000000
     0.000000    0.000000   30.000000
   V    Mo   W    S 
   3   3   3  18
Direct configuration=     6
   0.66191271  0.65574247 -0.00034931
   0.00937851  0.00397154 -0.00046123
   1.00387162  0.33802803  0.00023826
   0.34703896  0.01390216 -0.00007408
   0.64767943  0.32076499  0.00012845
   0.34314399  0.32598710  0.00007759
   0.00413950  0.66600461  0.00031850
   0.33019542  0.66947910  0.00023734
   0.65415025  0.00507841 -0.00033995
   0.10695274  0.21994105  0.95027155
   0.21680483  0.10810519  0.05248780
   0.10833542  0.54952023  0.94801652
   0.21815779  0.44116788  0.05010739
   0.10936859  0.89162147  0.94909075
   0.22304675  0.77987848  0.05238991
   0.44400880  0.22189523  0.94423646
   0.55583480  0.11147019  0.05548550
   0.44901456  0.55774011  0.94919662
   0.55868651  0.44991119  0.05316592
   0.44297658  0.88864461  0.94628480
   0.55895734  0.77608873  0.05042118
   0.78217010  0.22510938  0.94886233
   0.89229561  0.11269929  0.04857138
   0.77523439  0.55699928  0.94951031
   0.88962067  0.44095259  0.05025470
   0.77897579  0.88716028  0.95252560
   0.88626281  0.78035087  0.04934560
unknown system                          
           1
     8.288470    4.796372    0.000000
    -8.275697    4.774279    0.000000
     0.000000    0.000000   30.000000
   V    Mo   W    S 
   3   3   3  18
Direct configuration=     7
   0.66151235  0.65380303 -0.00035870
   0.01088877  0.00451489 -0.00044556
   1.00519296  0.33927679  0.00027186
   0.34769276  0.01383497 -0.00010780
   0.64627095  0.32012873  0.00006580
   0.34379907  0.32514411  0.00002373
   0.00546064  0.66615261  0.00036291
   0.32911677  0.67070642  0.00023835
   0.65227467  0.00543065 -0.00029998
   0.10751573  0.22029281  0.95026619
   0.21738518  0.10822299  0.05260760
   0.10848676  0.54954873  0.94775536
   0.21889098  0.44124092  0.04999217
   0.10986524  0.89164642  0.94904223
   0.22321886  0.78056156  0.05259494
   0.44389044  0.22166564  0.94399655
   0.55563480  0.11176446  0.05581302
   0.44848898  0.55735457  0.94934485
   0.55852999  0.44949070  0.05341338
   0.44265843  0.88865542  0.94599117
   0.55875417  0.77627111  0.05030234
   0.78165353  0.22513625  0.94892886
   0.89185452  0.11261355  0.04831237
   0.77532333  0.55635254  0.94958841
   0.88895853  0.44074798  0.05011925
   0.77853301  0.88739049  0.95291555
   0.88636304  0.78026613  0.04926506
unknown system                          
           1
     8.274205    4.789929    0.000000
    -8.262277    4.769288    0.000000
     0.000000    0.000000   30.000000
   V    Mo   W    S 
   3   3   3  18
Direct configuration=     8
   0.66152407  0.65371073 -0.00035866
   0.01095045  0.00453341 -0.00044556
   1.00526328  0.33931966  0.00027293
   0.34761043  0.01371229 -0.00010917
   0.64629371  0.32019943  0.00007101
   0.34379096  0.32512907  0.00002233
   0.00552455  0.66618304  0.00036467
   0.32905747  0.67079294  0.00023562
   0.65223758  0.00541078 -0.00029819
   0.10752282  0.22030404  0.95028322
   0.21740386  0.10822673  0.05259055
   0.10849579  0.54956997  0.94776503
   0.21892913  0.44128114  0.04996805
   0.10985199  0.89162547  0.94905244
   0.22320926  0.78055946  0.05259666
   0.44387513  0.22163945  0.94402099
   0.55562905  0.11177793  0.05578858
   0.44846509  0.55735628  0.94937952
   0.55851956  0.44948081  0.05339346
   0.44265820  0.88864224  0.94599926
   0.55873157  0.77627064  0.05027505
   0.78164303  0.22512659  0.94895431
   0.89183898  0.11261372  0.04828221
   0.77534272  0.55634911  0.94960727
   0.88896457  0.44076040  0.05009240
   0.77851334  0.88738739  0.95295289
   0.88636788  0.78025174  0.04924301
unknown system                          
           1
     8.280500    4.794841    0.000000
    -8.265923    4.769618    0.000000
     0.000000    0.000000   30.000000
   V    Mo   W    S 
   3   3   3  18
Direct configuration=     9
   0.66112860  0.65377658 -0.00035572
   0.01017915  0.00415380 -0.00044688
   1.00478749  0.33909879  0.00026016
   0.34792525  0.01418055 -0.00011199
   0.64646747  0.32050510  0.00008526
   0.34433985  0.32602364  0.00003771
   0.00471099  0.66582242  0.00035205
   0.32970175  0.67013469  0.00025451
   0.65254679  0.00528744 -0.00030000
   0.10752908  0.22034429  0.95020317
   0.21744642  0.10825450  0.05266969
   0.10848479  0.54946288  0.94773644
   0.21874680  0.44103955  0.05008523
   0.11006557  0.89170091  0.94901012
   0.22332417  0.78062203  0.05253260
   0.44393191  0.22177869  0.94389251
   0.55569362  0.11172139  0.05590276
   0.44882153  0.55739655  0.94923947
   0.55870154  0.44970320  0.05340337
   0.44260284  0.88869159  0.94598442
   0.55895108  0.77621362  0.05037325
   0.78170119  0.22514877  0.94881719
   0.89190544  0.11269926  0.04845898
   0.77508515  0.55644023  0.94958878
   0.88891453  0.44069556  0.05022461
   0.77839435  0.88715954  0.95279193
   0.88612710  0.78015887  0.04931029
unknown system                          
           1
     8.293050    4.800157    0.000000
    -8.276305    4.771199    0.000000
     0.000000    0.000000   30.000000
   V    Mo   W    S 
   3   3   3  18
Direct configuration=    10
   0.66071893  0.65186726 -0.00036436
   0.01141085  0.00454240 -0.00045721
   1.00594996  0.34017789  0.00028442
   0.34820733  0.01380747 -0.00014358
   0.64546919  0.32035873  0.00009747
   0.34503449  0.32555687  0.00000681
   0.00576848  0.66595293  0.00038501
   0.32881724  0.67125318  0.00025261
   0.65099892  0.00542763 -0.00027040
   0.10790722  0.22061211  0.95017669
   0.21787859  0.10835030  0.05280756
   0.10858284  0.54949284  0.94750335
   0.21933879  0.44117831  0.05000256
   0.11035740  0.89167239  0.94892428
   0.22345149  0.78112779  0.05276194
   0.44375574  0.22150730  0.94363234
   0.55557839  0.11202775  0.05618075
   0.44850887  0.55717853  0.94936485
   0.55864689  0.44951775  0.05362572
   0.44232716  0.88863193  0.94569709
   0.55884188  0.77630954  0.05027363
   0.78137571  0.22518808  0.94885374
   0.89160741  0.11269115  0.04825881
   0.77511796  0.55601575  0.94961868
   0.88848099  0.44054101  0.05012528
   0.77798254  0.88717982  0.95314789
   0.88609922  0.78004774  0.04925396
unknown system                          
           1
     8.294023    4.800407    0.000000
    -8.276477    4.770069    0.000000
     0.000000    0.000000   30.000000
   V    Mo   W    S 
   3   3   3  18
Direct configuration=    11
   0.66070991  0.65056810 -0.00034630
   0.01287884  0.00513581 -0.00046464
   1.00708510  0.34106019  0.00029032
   0.34808574  0.01321733 -0.00015200
   0.64475329  0.32002330  0.00005423
   0.34497122  0.32449211 -0.00004433
   0.00709431  0.66631641  0.00042855
   0.32774858  0.67246304  0.00023730
   0.64978578  0.00564424 -0.00026032
   0.10815194  0.22074740  0.95027086
   0.21811553  0.10844731  0.05276961
   0.10868301  0.54963924  0.94741662
   0.21983528  0.44148717  0.04984757
   0.11030657  0.89155274  0.94892988
   0.22337885  0.78131121  0.05290738
   0.44363617  0.22125221  0.94364577
   0.55547298  0.11228861  0.05620241
   0.44804482  0.55704033  0.94952471
   0.55847735  0.44927542  0.05380527
   0.44222711  0.88850892  0.94556065
   0.55859421  0.77640810  0.05012637
   0.78108641  0.22515661  0.94903590
   0.89136605  0.11262984  0.04796608
   0.77537048  0.55568403  0.94962336
   0.88829945  0.44050716  0.04995765
   0.77780204  0.88732427  0.95352049
   0.88625345  0.78003334  0.04914652
unknown system                          
           1
     8.288784    4.797299    0.000000
    -8.271873    4.768057    0.000000
     0.000000    0.000000   30.000000
   V    Mo   W    S 
   3   3   3  18
Direct configuration=    12
   0.66066410  0.64965733 -0.00035755
   0.01364953  0.00540264 -0.00046822
   1.00775205  0.34160317  0.00031422
   0.34801842  0.01284729 -0.00016857
   0.64428771  0.31997728  0.00005159
   0.34517354  0.32408621 -0.00005762
   0.00776313  0.66648913  0.00045132
   0.32716363  0.67314067  0.00022923
   0.64906725  0.00569085 -0.00025056
   0.10829255  0.22084853  0.95028313
   0.21825820  0.10847746  0.05280789
   0.10872629  0.54971142  0.94733668
   0.22013082  0.44165964  0.04976199
   0.11030584  0.89148936  0.94889695
   0.22336950  0.78146767  0.05303444
   0.44354474  0.22107362  0.94359415
   0.55539953  0.11241969  0.05626594
   0.44784804  0.55697501  0.94965156
   0.55839156  0.44915139  0.05387875
   0.44214686  0.88846342  0.94545232
   0.55847148  0.77645038  0.05003171
   0.78096084  0.22516551  0.94910739
   0.89122605  0.11261174  0.04781100
   0.77545947  0.55552349  0.94965479
   0.88818789  0.44047895  0.04985858
   0.77766617  0.88735514  0.95373963
   0.88628926  0.77999745  0.04908917
unknown system                          
           1
     8.302836    4.804335    0.000000
    -8.283267    4.770507    0.000000
     0.000000    0.000000   30.000000
   V    Mo   W    S 
   3   3   3  18
Direct configuration=    13
   0.66072517  0.65007853 -0.00036844
   0.01342801  0.00537465 -0.00046738
   1.00761722  0.34153504  0.00033113
   0.34813220  0.01292286 -0.00018030
   0.64442331  0.31989143  0.00006937
   0.34498037  0.32408292 -0.00004250
   0.00762233  0.66631192  0.00043474
   0.32719414  0.67291149  0.00023441
   0.64924478  0.00572252 -0.00024818
   0.10820468  0.22080306  0.95031132
   0.21821535  0.10845639  0.05275385
   0.10871688  0.54968875  0.94739933
   0.21997936  0.44160920  0.04973978
   0.11030701  0.89151463  0.94896308
   0.22337564  0.78139974  0.05295934
   0.44358529  0.22112594  0.94365121
   0.55543421  0.11238701  0.05620718
   0.44784376  0.55698696  0.94963059
   0.55837488  0.44909189  0.05381348
   0.44220033  0.88850141  0.94553246
   0.55846867  0.77647964  0.05004232
   0.78099114  0.22514826  0.94911167
   0.89127273  0.11261712  0.04782015
   0.77549336  0.55558891  0.94968010
   0.88827918  0.44052494  0.04985057
   0.77773673  0.88743146  0.95369313
   0.88636770  0.78002781  0.04907749
unknown system                          
           1
     8.312844    4.808391    0.000000
    -8.291747    4.771935    0.000000
     0.000000    0.000000   30.000000
   V    Mo   W    S 
   3   3   3  18
Direct configuration=    14
   0.66072248  0.64739051 -0.00038421
   0.01567794  0.00609388 -0.00047489
   1.00943880  0.34289764  0.00038056
   0.34756190  0.01177146 -0.00020257
   0.64323061  0.31994663  0.00006036
   0.34559931  0.32305865 -0.00007826
   0.00948434  0.66708036  0.00051511
   0.32567124  0.67486919  0.00019690
   0.64741688  0.00576771 -0.00022785
   0.10863770  0.22109162  0.95030348
   0.21854794  0.10854124  0.05292371
   0.10881045  0.54993918  0.94714388
   0.22090822  0.44218098  0.04953387
   0.11016582  0.89128627  0.94877551
   0.22329276  0.78181205  0.05340651
   0.44327575  0.22055892  0.94348583
   0.55517936  0.11272258  0.05638261
   0.44734035  0.55684473  0.95002526
   0.55813417  0.44881993  0.05403018
   0.44196619  0.88833975  0.94518087
   0.55812086  0.77652570  0.04976677
   0.78071850  0.22521481  0.94930222
   0.89088176  0.11254919  0.04739684
   0.77570635  0.55514814  0.94972599
   0.88796038  0.44041888  0.04957745
   0.77738324  0.88741697  0.95430307
   0.88638115  0.77992749  0.04895071
unknown system                          
           1
     8.321360    4.810448    0.000000
    -8.297587    4.769388    0.000000
     0.000000    0.000000   30.000000
   V    Mo   W    S 
   3   3   3  18
Direct configuration=    15
   0.66103177  0.64581456 -0.00039544
   0.01745282  0.00664486 -0.00047717
   1.01085433  0.34389788  0.00040917
   0.34683866  0.01067376 -0.00020930
   0.64240276  0.31986151  0.00003615
   0.34572471  0.32203950 -0.00010966
   0.01110297  0.66786614  0.00057919
   0.32436222  0.67633544  0.00015189
   0.64613844  0.00575420 -0.00022278
   0.10885841  0.22122920  0.95030481
   0.21868385  0.10852945  0.05304415
   0.10883850  0.55009863  0.94695788
   0.22160338  0.44270712  0.04938647
   0.10995619  0.89112282  0.94864768
   0.22320147  0.78211275  0.05376014
   0.44305526  0.22008727  0.94340655
   0.55492859  0.11293145  0.05647914
   0.44691188  0.55683330  0.95035708
   0.55792281  0.44856413  0.05418085
   0.44180261  0.88820972  0.94494566
   0.55777031  0.77650172  0.04954992
   0.78062189  0.22529841  0.94945487
   0.89066300  0.11248134  0.04705798
   0.77595766  0.55484238  0.94975288
   0.88777319  0.44035295  0.04936037
   0.77729210  0.88750000  0.95474612
   0.88646468  0.77992395  0.04884531
unknown system                          
           1
     8.339864    4.819003    0.000000
    -8.312931    4.772495    0.000000
     0.000000    0.000000   30.000000
   V    Mo   W    S 
   3   3   3  18
Direct configuration=    16
   0.66172824  0.64352046 -0.00039558
   0.02016502  0.00743926 -0.00046861
   1.01307580  0.34541170  0.00046546
   0.34559214  0.00901160 -0.00020076
   0.64107143  0.31952577  0.00003088
   0.34588519  0.32054548 -0.00013072
   0.01364752  0.66928773  0.00068080
   0.32241037  0.67843077  0.00006281
   0.64425199  0.00575399 -0.00020645
   0.10924515  0.22142054  0.95029774
   0.21888585  0.10854747  0.05325087
   0.10884043  0.55041684  0.94670430
   0.22273212  0.44364787  0.04913099
   0.10955902  0.89080802  0.94841044
   0.22302848  0.78258533  0.05433902
   0.44265097  0.21923981  0.94330320
   0.55445705  0.11318433  0.05654961
   0.44626337  0.55689520  0.95095306
   0.55757457  0.44810686  0.05435914
   0.44151919  0.88804789  0.94461055
   0.55714043  0.77641693  0.04916377
   0.78048114  0.22540250  0.94971773
   0.89031908  0.11237281  0.04648972
   0.77637253  0.55434875  0.94980783
   0.88752330  0.44029655  0.04894154
   0.77719599  0.88763188  0.95544357
   0.88659812  0.77991810  0.04868896
unknown system                          
           1
     8.338917    4.817505    0.000000
    -8.309802    4.767230    0.000000
     0.000000    0.000000   30.000000
   V    Mo   W    S 
   3   3   3  18
Direct configuration=    17
   0.66272997  0.64127494 -0.00035918
   0.02274732  0.00812978 -0.00045724
   1.01545106  0.34690209  0.00048280
   0.34391669  0.00721740 -0.00018131
   0.63969450  0.31913504  0.00000305
   0.34603746  0.31922979 -0.00014765
   0.01635542  0.67116637  0.00076073
   0.32057666  0.68037963 -0.00006746
   0.64249464  0.00565623 -0.00022139
   0.10970505  0.22161073  0.95023224
   0.21909451  0.10860417  0.05354947
   0.10874017  0.55075901  0.94640259
   0.22406332  0.44479171  0.04893003
   0.10911598  0.89041753  0.94807857
   0.22285973  0.78314910  0.05502440
   0.44212555  0.21822293  0.94318382
   0.55378144  0.11335329  0.05666405
   0.44563114  0.55714404  0.95164111
   0.55721502  0.44757812  0.05456855
   0.44109027  0.88788804  0.94424242
   0.55639748  0.77615276  0.04875553
   0.78044530  0.22557733  0.94996314
   0.89002053  0.11229003  0.04591343
   0.77683229  0.55376975  0.94982834
   0.88722929  0.44018114  0.04848095
   0.77715420  0.88771286  0.95614930
   0.88670945  0.77992064  0.04857962
unknown system                          
           1
     8.348128    4.823197    0.000000
    -8.318573    4.772157    0.000000
     0.000000    0.000000   30.000000
   V    Mo   W    S 
   3   3   3  18
Direct configuration=    18
   0.66377878  0.63989680 -0.00028146
   0.02461257  0.00862391 -0.00043759
   1.01749695  0.34801558  0.00048216
   0.34250181  0.00589519 -0.00011338
   0.63844424  0.31839020  0.00000512
   0.34594003  0.31814960 -0.00013040
   0.01849516  0.67292639  0.00081852
   0.31935515  0.68171122 -0.00016154
   0.64114543  0.00563413 -0.00023195
   0.11013092  0.22166969  0.95020290
   0.21922504  0.10873688  0.05373175
   0.10859668  0.55111006  0.94623021
   0.22515961  0.44587253  0.04875175
   0.10872907  0.89007576  0.94783345
   0.22272666  0.78355410  0.05548340
   0.44161621  0.21733478  0.94315168
   0.55310607  0.11335187  0.05662806
   0.44517030  0.55751749  0.95230098
   0.55690752  0.44699901  0.05468447
   0.44068289  0.88783901  0.94403740
   0.55569996  0.77589351  0.04835689
   0.78037048  0.22565326  0.95021028
   0.88983458  0.11226026  0.04539044
   0.77729735  0.55322467  0.94986408
   0.88708288  0.44016341  0.04796973
   0.77718148  0.88778116  0.95674765
   0.88692663  0.77993399  0.04847531
unknown system                          
           1
     8.349954    4.824360    0.000000
    -8.319538    4.771829    0.000000
     0.000000    0.000000   30.000000
   V    Mo   W    S 
   3   3   3  18
Direct configuration=    19
   0.66405208  0.63972863 -0.00025331
   0.02478097  0.00863795 -0.00043262
   1.01792692  0.34817187  0.00045267
   0.34215089  0.00565877 -0.00011019
   0.63825037  0.31826196 -0.00000178
   0.34589488  0.31807754 -0.00012180
   0.01876466  0.67330460  0.00079359
   0.31926462  0.68189328 -0.00019381
   0.64095634  0.00559350 -0.00025145
   0.11021992  0.22167330  0.95015576
   0.21921580  0.10877323  0.05381014
   0.10853816  0.55115988  0.94617528
   0.22540793  0.44609811  0.04877248
   0.10866658  0.89002650  0.94774878
   0.22273252  0.78364865  0.05560542
   0.44146242  0.21713646  0.94312604
   0.55291847  0.11330543  0.05667052
   0.44513322  0.55765284  0.95243132
   0.55686020  0.44686737  0.05472987
   0.44055211  0.88784604  0.94397941
   0.55561110  0.77579264  0.04831214
   0.78041304  0.22570010  0.95022606
   0.88983816  0.11227948  0.04531577
   0.77738423  0.55308768  0.94985477
   0.88703060  0.44011169  0.04786694
   0.77720090  0.88776005  0.95683600
   0.88698738  0.77996688  0.04850189
unknown system                          
           1
     8.357627    4.829216    0.000000
    -8.326523    4.775490    0.000000
     0.000000    0.000000   30.000000
   V    Mo   W    S 
   3   3   3  18
Direct configuration=    20
   0.66482713  0.63901830 -0.00018055
   0.02561464  0.00882390 -0.00041423
   1.01930722  0.34874325  0.00041527
   0.34126192  0.00493709 -0.00006770
   0.63744888  0.31778835 -0.00000382
   0.34581736  0.31759031 -0.00009426
   0.01986393  0.67443826  0.00079413
   0.31867525  0.68262140 -0.00024423
   0.64020665  0.00554549 -0.00027441
   0.11048787  0.22167796  0.95010500
   0.21922470  0.10889190  0.05392380
   0.10845592  0.55138209  0.94608794
   0.22605958  0.44677008  0.04871385
   0.10844976  0.88986181  0.94758760
   0.22266814  0.78381913  0.05583683
   0.44107798  0.21662163  0.94312620
   0.55243830  0.11319119  0.05665931
   0.44499817  0.55797799  0.95286396
   0.55671542  0.44649307  0.05478041
   0.44024659  0.88786665  0.94387588
   0.55528356  0.77560953  0.04808506
   0.78039547  0.22572683  0.95036269
   0.88977597  0.11231972  0.04501484
   0.77760508  0.55271442  0.94989559
   0.88694995  0.44006619  0.04749779
   0.77720218  0.88773117  0.95717197
   0.88715682  0.77998675  0.04848095
unknown system                          
           1
     8.357703    4.829985    0.000000
    -8.326172    4.775511    0.000000
     0.000000    0.000000   30.000000
   V    Mo   W    S 
   3   3   3  18
Direct configuration=    21
   0.66534377  0.63855584 -0.00012026
   0.02611394  0.00894556 -0.00040197
   1.02027127  0.34904776  0.00037149
   0.34068473  0.00459167 -0.00004689
   0.63696201  0.31750468 -0.00000120
   0.34572330  0.31731992 -0.00007475
   0.02038697  0.67513575  0.00077376
   0.31842362  0.68302823 -0.00029068
   0.63976304  0.00552426 -0.00029354
   0.11066197  0.22167090  0.95005134
   0.21919642  0.10897310  0.05401427
   0.10840352  0.55152503  0.94601703
   0.22649801  0.44720631  0.04870917
   0.10830249  0.88978263  0.94746750
   0.22262352  0.78394878  0.05601262
   0.44078804  0.21628354  0.94311129
   0.55211216  0.11310188  0.05667565
   0.44495979  0.55821173  0.95314258
   0.55662640  0.44623879  0.05483398
   0.44002301  0.88788901  0.94379398
   0.55512592  0.77549216  0.04795443
   0.78039913  0.22575443  0.95044284
   0.88974470  0.11235594  0.04483352
   0.77773632  0.55243015  0.94990451
   0.88685866  0.43997861  0.04724749
   0.77719530  0.88768768  0.95737554
   0.88728643  0.78003010  0.04849620
unknown system                          
           1
     8.364005    4.834440    0.000000
    -8.332450    4.779917    0.000000
     0.000000    0.000000   30.000000
   V    Mo   W    S 
   3   3   3  18
Direct configuration=    22
   0.66617466  0.63817744 -0.00001958
   0.02678864  0.00910750 -0.00038475
   1.02188848  0.34957018  0.00030396
   0.33980305  0.00404393 -0.00000587
   0.63614584  0.31690138 -0.00000088
   0.34540683  0.31679103 -0.00003621
   0.02129773  0.67615845  0.00075982
   0.31790997  0.68361124 -0.00032697
   0.63908001  0.00544102 -0.00032471
   0.11090546  0.22164395  0.94999505
   0.21914098  0.10911230  0.05410629
   0.10835631  0.55174119  0.94597133
   0.22705380  0.44785293  0.04868267
   0.10807805  0.88970122  0.94733543
   0.22252028  0.78403908  0.05616159
   0.44036690  0.21583974  0.94312660
   0.55162478  0.11294012  0.05665620
   0.44492763  0.55856472  0.95356788
   0.55646449  0.44580125  0.05490190
   0.43969646  0.88795756  0.94373003
   0.55490067  0.77538102  0.04774896
   0.78039137  0.22576971  0.95059701
   0.88974179  0.11246626  0.04453235
   0.77795635  0.55198008  0.94992538
   0.88681138  0.43985752  0.04680992
   0.77720807  0.88765616  0.95768057
   0.88757445  0.78010746  0.04850591
unknown system                          
           1
     8.360766    4.832839    0.000000
    -8.329660    4.779088    0.000000
     0.000000    0.000000   30.000000
   V    Mo   W    S 
   3   3   3  18
Direct configuration=    23
   0.66694979  0.63784079  0.00008124
   0.02720937  0.00914853 -0.00035708
   1.02336053  0.34987669  0.00019974
   0.33905827  0.00362287  0.00001577
   0.63546987  0.31639034  0.00001133
   0.34514236  0.31648773  0.00000584
   0.02183255  0.67703055  0.00069779
   0.31775584  0.68417014 -0.00038653
   0.63841874  0.00531944 -0.00034608
   0.11113208  0.22160879  0.94987152
   0.21901862  0.10919594  0.05425079
   0.10833160  0.55194401  0.94586714
   0.22765929  0.44848074  0.04875466
   0.10786042  0.88964536  0.94716933
   0.22244740  0.78420523  0.05637730
   0.43991994  0.21542576  0.94310142
   0.55115331  0.11274006  0.05668436
   0.44498784  0.55893528  0.95393324
   0.55633672  0.44542574  0.05498038
   0.43934239  0.88802763  0.94363484
   0.55477983  0.77528511  0.04760927
   0.78042241  0.22578760  0.95070781
   0.88971831  0.11256080  0.04428996
   0.77811135  0.55155908  0.94993686
   0.88669331  0.43965785  0.04642066
   0.77721497  0.88761442  0.95791582
   0.88788732  0.78022797  0.04857248
unknown system                          
           1
     8.364059    4.835021    0.000000
    -8.333117    4.781551    0.000000
     0.000000    0.000000   30.000000
   V    Mo   W    S 
   3   3   3  18
Direct configuration=    24
   0.66743432  0.63761910  0.00015215
   0.02738897  0.00915181 -0.00034061
   1.02436670  0.35003130  0.00013569
   0.33857792  0.00333029  0.00004716
   0.63503851  0.31616218  0.00001795
   0.34497304  0.31634126  0.00004511
   0.02216757  0.67754070  0.00068174
   0.31756848  0.68449519 -0.00038467
   0.63801878  0.00518952 -0.00036362
   0.11127078  0.22157339  0.94980805
   0.21894600  0.10927192  0.05429211
   0.10839167  0.55210661  0.94584640
   0.22796242  0.44886325  0.04877793
   0.10772709  0.88963218  0.94710013
   0.22237178  0.78421355  0.05640188
   0.43965221  0.21524421  0.94311986
   0.55085960  0.11258360  0.05667541
   0.44512848  0.55918630  0.95416682
   0.55630074  0.44524848  0.05499423
   0.43913134  0.88809950  0.94360409