   27   27  100    1
  0.9710400E+02  0.1002848E-08  0.1002848E-08  0.3000000E-08  0.5000000E-15
  1.000000000000000E-004
  CAR 
 unknown system                          
    159     34    120
 
  0.0000000E+00  0.0000000E+00  0.0000000E+00  0.1562500E-01
    1      -17.793296   1.000000
    2      -16.734538   1.000000
    3      -16.673335   1.000000
    4      -16.585781   1.000000
    5      -16.483478   1.000000
    6      -16.480060   1.000000
    7      -16.345716   1.000000
    8      -16.310370   1.000000
    9      -16.210355   1.000000
   10      -16.177623   1.000000
   11      -16.087002   1.000000
   12      -15.974851   1.000000
   13      -15.845237   1.000000
   14      -15.692018   1.000000
   15      -15.595535   1.000000
   16      -15.505366   1.000000
   17      -15.364852   1.000000
   18      -15.172879   1.000000
   19       -9.276047   1.000000
   20       -9.047493   1.000000
   21       -8.964667   1.000000
   22       -8.913167   1.000000
   23       -8.749078   1.000000
   24       -8.699479   1.000000
   25       -8.643420   1.000000
   26       -8.590578   1.000000
   27       -8.446247   1.000000
   28       -8.413538   1.000000
   29       -8.363648   1.000000
   30       -8.313232   1.000000
   31       -8.238046   1.000000
   32       -8.180246   1.000000
   33       -8.151109   1.000000
   34       -7.952207   1.000000
   35       -7.801505   1.000000
   36       -7.773701   1.000000
   37       -7.763360   1.000000
   38       -7.545915   1.000000
   39       -7.455336   1.000000
   40       -7.382926   1.000000
   41       -7.344368   1.000000
   42       -7.215155   1.000000
   43       -7.129894   1.000000
   44       -7.012373   1.000000
   45       -6.801679   1.000000
   46       -6.781323   1.000000
   47       -6.699580   1.000000
   48       -6.661211   1.000000
   49       -6.536577   1.000000
   50       -6.457734   1.000000
   51       -6.429432   1.000000
   52       -6.397041   1.000000
   53       -6.383649   1.000000
   54       -6.329667   1.000000
   55       -6.170233   1.000000
   56       -6.102743   1.000000
   57       -6.059174   1.000000
   58       -5.971223   1.000000
   59       -5.707962   1.000000
   60       -5.549693   1.000000
   61       -5.504937   1.000000
   62       -5.428301   1.000000
   63       -5.252454   1.000000
   64       -5.191815   1.000000
   65       -5.081090   1.000000
   66       -5.034378   1.000000
   67       -4.981694   1.000000
   68       -4.842552   1.000000
   69       -4.807672   1.000000
   70       -4.741323   1.000000
   71       -4.652884   1.000000
   72       -4.622892   1.000000
   73       -4.515684   1.000000
   74       -4.239978   1.000000
   75       -4.166127   1.000000
   76       -4.038476   1.000000
   77       -3.662588   0.998879
   78       -3.517110   0.978686
   79       -3.486398   0.964865
   80       -3.428251   0.919095
   81       -3.329974   0.759311
   82       -2.839724   0.002868
   83       -2.666533   0.000033
   84       -2.630880   0.000011
   85       -2.505423   0.000000
   86       -2.449381   0.000000
   87       -2.310637   0.000000
   88       -2.235312   0.000000
   89       -2.175737   0.000000
   90       -2.007619   0.000000
   91       -1.939550   0.000000
   92       -1.833280   0.000000
   93       -1.497493   0.000000
   94       -1.143425   0.000000
   95       -1.078627   0.000000
   96       -1.065384   0.000000
   97       -0.961769   0.000000
   98       -0.875862   0.000000
   99       -0.762626   0.000000
  100       -0.637092   0.000000
  101       -0.550099   0.000000
  102       -0.482967   0.000000
  103       -0.450424   0.000000
  104       -0.253796   0.000000
  105       -0.214878   0.000000
  106       -0.115712   0.000000
  107       -0.074651   0.000000
  108        0.000414   0.000000
  109        0.097515   0.000000
  110        0.171624   0.000000
  111        0.214586   0.000000
  112        0.406034   0.000000
  113        0.592490   0.000000
  114        0.893617   0.000000
  115        1.000638   0.000000
  116        1.106780   0.000000
  117        1.175283   0.000000
  118        1.632161   0.000000
  119        1.823957   0.000000
  120        2.134249   0.000000
 
  0.1250000E+00  0.2775558E-16  0.0000000E+00  0.3125000E-01
    1      -17.769261   1.000000
    2      -16.773299   1.000000
    3      -16.702097   1.000000
    4      -16.674281   1.000000
    5      -16.511148   1.000000
    6      -16.427844   1.000000
    7      -16.320267   1.000000
    8      -16.283461   1.000000
    9      -16.215433   1.000000
   10      -16.178541   1.000000
   11      -16.025286   1.000000
   12      -15.948434   1.000000
   13      -15.830645   1.000000
   14      -15.701100   1.000000
   15      -15.602218   1.000000
   16      -15.505534   1.000000
   17      -15.375443   1.000000
   18      -15.177211   1.000000
   19       -9.278508   1.000000
   20       -9.125503   1.000000
   21       -9.056981   1.000000
   22       -8.970424   1.000000
   23       -8.791779   1.000000
   24       -8.755783   1.000000
   25       -8.693099   1.000000
   26       -8.613966   1.000000
   27       -8.426248   1.000000
   28       -8.382687   1.000000
   29       -8.351311   1.000000
   30       -8.248835   1.000000
   31       -8.210871   1.000000
   32       -8.069831   1.000000
   33       -7.990965   1.000000
   34       -7.903182   1.000000
   35       -7.789813   1.000000
   36       -7.752175   1.000000
   37       -7.659448   1.000000
   38       -7.597852   1.000000
   39       -7.496858   1.000000
   40       -7.383659   1.000000
   41       -7.325211   1.000000
   42       -7.192696   1.000000
   43       -7.131845   1.000000
   44       -7.043810   1.000000
   45       -6.899075   1.000000
   46       -6.780198   1.000000
   47       -6.681499   1.000000
   48       -6.622571   1.000000
   49       -6.595300   1.000000
   50       -6.488045   1.000000
   51       -6.426510   1.000000
   52       -6.357444   1.000000
   53       -6.349766   1.000000
   54       -6.310528   1.000000
   55       -6.195872   1.000000
   56       -6.078200   1.000000
   57       -6.013077   1.000000
   58       -5.956632   1.000000
   59       -5.711687   1.000000
   60       -5.574669   1.000000
   61       -5.516714   1.000000
   62       -5.419446   1.000000
   63       -5.295249   1.000000
   64       -5.228214   1.000000
   65       -5.195803   1.000000
   66       -5.101059   1.000000
   67       -5.010884   1.000000
   68       -4.870829   1.000000
   69       -4.777320   1.000000
   70       -4.694695   1.000000
   71       -4.658861   1.000000
   72       -4.544615   1.000000
   73       -4.465057   1.000000
   74       -4.200107   1.000000
   75       -4.119925   1.000000
   76       -3.994202   1.000000
   77       -3.852036   0.999994
   78       -3.668791   0.999032
   79       -3.486541   0.964944
   80       -3.349835   0.800812
   81       -3.203453   0.424439
   82       -2.812743   0.001572
   83       -2.660053   0.000028
   84       -2.617338   0.000007
   85       -2.497876   0.000000
   86       -2.443889   0.000000
   87       -2.289112   0.000000
   88       -2.200007   0.000000
   89       -2.179973   0.000000
   90       -2.008168   0.000000
   91       -1.951623   0.000000
   92       -1.822780   0.000000
   93       -1.491013   0.000000
   94       -1.159892   0.000000
   95       -1.092778   0.000000
   96       -1.052854   0.000000
   97       -0.948296   0.000000
   98       -0.878799   0.000000
   99       -0.776254   0.000000
  100       -0.718736   0.000000
  101       -0.607462   0.000000
  102       -0.520850   0.000000
  103       -0.484023   0.000000
  104       -0.389428   0.000000
  105       -0.244846   0.000000
  106       -0.133657   0.000000
  107       -0.088044   0.000000
  108       -0.016346   0.000000
  109        0.081799   0.000000
  110        0.143412   0.000000
  111        0.307550   0.000000
  112        0.414661   0.000000
  113        0.643027   0.000000
  114        0.902903   0.000000
  115        1.014227   0.000000
  116        1.109397   0.000000
  117        1.208353   0.000000
  118        1.675644   0.000000
  119        1.862779   0.000000
  120        2.169189   0.000000
 
  0.2500000E+00  0.5551115E-16  0.0000000E+00  0.3125000E-01
    1      -17.699217   1.000000
    2      -16.955730   1.000000
    3      -16.753007   1.000000
    4      -16.697938   1.000000
    5      -16.557703   1.000000
    6      -16.381534   1.000000
    7      -16.305528   1.000000
    8      -16.277856   1.000000
    9      -16.170359   1.000000
   10      -16.122026   1.000000
   11      -15.970119   1.000000
   12      -15.887412   1.000000
   13      -15.806594   1.000000
   14      -15.695436   1.000000
   15      -15.620767   1.000000
   16      -15.503103   1.000000
   17      -15.402277   1.000000
   18      -15.188623   1.000000
   19       -9.457133   1.000000
   20       -9.210323   1.000000
   21       -9.117518   1.000000
   22       -9.068191   1.000000
   23       -8.918586   1.000000
   24       -8.824230   1.000000
   25       -8.672184   1.000000
   26       -8.555727   1.000000
   27       -8.428247   1.000000
   28       -8.358815   1.000000
   29       -8.301185   1.000000
   30       -8.168995   1.000000
   31       -8.126905   1.000000
   32       -8.015620   1.000000
   33       -7.900548   1.000000
   34       -7.834245   1.000000
   35       -7.743896   1.000000
   36       -7.661712   1.000000
   37       -7.607717   1.000000
   38       -7.535106   1.000000
   39       -7.440623   1.000000
   40       -7.390242   1.000000
   41       -7.297422   1.000000
   42       -7.178885   1.000000
   43       -7.066106   1.000000
   44       -7.045080   1.000000
   45       -6.904124   1.000000
   46       -6.820497   1.000000
   47       -6.757939   1.000000
   48       -6.609664   1.000000
   49       -6.593838   1.000000
   50       -6.511347   1.000000
   51       -6.438106   1.000000
   52       -6.341089   1.000000
   53       -6.289387   1.000000
   54       -6.221484   1.000000
   55       -6.178356   1.000000
   56       -6.086782   1.000000
   57       -5.951514   1.000000
   58       -5.905486   1.000000
   59       -5.763971   1.000000
   60       -5.681739   1.000000
   61       -5.591188   1.000000
   62       -5.529682   1.000000
   63       -5.503412   1.000000
   64       -5.297556   1.000000
   65       -5.232517   1.000000
   66       -5.121334   1.000000
   67       -5.036671   1.000000
   68       -4.891374   1.000000
   69       -4.768075   1.000000
   70       -4.632755   1.000000
   71       -4.549455   1.000000
   72       -4.439384   1.000000
   73       -4.363061   1.000000
   74       -4.288043   1.000000
   75       -4.145057   1.000000
   76       -4.036815   1.000000
   77       -3.877583   0.999998
   78       -3.829170   0.999989
   79       -3.490565   0.967089
   80       -3.268677   0.606671
   81       -3.061299   0.115901
   82       -2.772712   0.000605
   83       -2.647547   0.000019
   84       -2.569759   0.000001
   85       -2.476047   0.000000
   86       -2.430284   0.000000
   87       -2.283036   0.000000
   88       -2.166110   0.000000
   89       -2.101869   0.000000
   90       -1.998889   0.000000
   91       -1.968819   0.000000
   92       -1.782942   0.000000
   93       -1.481465   0.000000
   94       -1.207854   0.000000
   95       -1.096768   0.000000
   96       -1.055157   0.000000
   97       -0.976774   0.000000
   98       -0.929966   0.000000
   99       -0.850231   0.000000
  100       -0.785496   0.000000
  101       -0.737748   0.000000
  102       -0.613770   0.000000
  103       -0.550437   0.000000
  104       -0.515816   0.000000
  105       -0.341819   0.000000
  106       -0.268149   0.000000
  107       -0.170971   0.000000
  108       -0.067370   0.000000
  109        0.055319   0.000000
  110        0.148606   0.000000
  111        0.382339   0.000000
  112        0.497477   0.000000
  113        0.675924   0.000000
  114        0.926675   0.000000
  115        1.054378   0.000000
  116        1.142822   0.000000
  117        1.317112   0.000000
  118        1.797279   0.000000
  119        1.974341   0.000000
  120        2.272705   0.000000
 
  0.3750000E+00  0.0000000E+00  0.0000000E+00  0.3125000E-01
    1      -17.593312   1.000000
    2      -17.155657   1.000000
    3      -16.792458   1.000000
    4      -16.697234   1.000000
    5      -16.585377   1.000000
    6      -16.394037   1.000000
    7      -16.301813   1.000000
    8      -16.250822   1.000000
    9      -16.120130   1.000000
   10      -16.041334   1.000000
   11      -15.930646   1.000000
   12      -15.864472   1.000000
   13      -15.821127   1.000000
   14      -15.696957   1.000000
   15      -15.596210   1.000000
   16      -15.492397   1.000000
   17      -15.432537   1.000000
   18      -15.201786   1.000000
   19       -9.660152   1.000000
   20       -9.253649   1.000000
   21       -9.214673   1.000000
   22       -9.067146   1.000000
   23       -8.967145   1.000000
   24       -8.869714   1.000000
   25       -8.610503   1.000000
   26       -8.462063   1.000000
   27       -8.411851   1.000000
   28       -8.346072   1.000000
   29       -8.257458   1.000000
   30       -8.189493   1.000000
   31       -8.103019   1.000000
   32       -8.026121   1.000000
   33       -7.931855   1.000000
   34       -7.843568   1.000000
   35       -7.721876   1.000000
   36       -7.677868   1.000000
   37       -7.559803   1.000000
   38       -7.515021   1.000000
   39       -7.405480   1.000000
   40       -7.288267   1.000000
   41       -7.184233   1.000000
   42       -7.113497   1.000000
   43       -7.037935   1.000000
   44       -6.973929   1.000000
   45       -6.847493   1.000000
   46       -6.764114   1.000000
   47       -6.666685   1.000000
   48       -6.599062   1.000000
   49       -6.573111   1.000000
   50       -6.510539   1.000000
   51       -6.424251   1.000000
   52       -6.364138   1.000000
   53       -6.246339   1.000000
   54       -6.180601   1.000000
   55       -6.143392   1.000000
   56       -6.075482   1.000000
   57       -5.991717   1.000000
   58       -5.928169   1.000000
   59       -5.873467   1.000000
   60       -5.819976   1.000000
   61       -5.724445   1.000000
   62       -5.678611   1.000000
   63       -5.583934   1.000000
   64       -5.372109   1.000000
   65       -5.195174   1.000000
   66       -5.077001   1.000000
   67       -5.013194   1.000000
   68       -4.864051   1.000000
   69       -4.815355   1.000000
   70       -4.715377   1.000000
   71       -4.523196   1.000000
   72       -4.473666   1.000000
   73       -4.357995   1.000000
   74       -4.232146   1.000000
   75       -4.154915   1.000000
   76       -4.130180   1.000000
   77       -3.860194   0.999996
   78       -3.735198   0.999821
   79       -3.509217   0.975668
   80       -3.222271   0.477079
   81       -2.961187   0.028479
   82       -2.764069   0.000488
   83       -2.623297   0.000009
   84       -2.544174   0.000001
   85       -2.431347   0.000000
   86       -2.419148   0.000000
   87       -2.296749   0.000000
   88       -2.114929   0.000000
   89       -2.037583   0.000000
   90       -1.998913   0.000000
   91       -1.931678   0.000000
   92       -1.709216   0.000000
   93       -1.484418   0.000000
   94       -1.256440   0.000000
   95       -1.185623   0.000000
   96       -1.082552   0.000000
   97       -1.014727   0.000000
   98       -0.979787   0.000000
   99       -0.898677   0.000000
  100       -0.868347   0.000000
  101       -0.810629   0.000000
  102       -0.720333   0.000000
  103       -0.616912   0.000000
  104       -0.527926   0.000000
  105       -0.476509   0.000000
  106       -0.366795   0.000000
  107       -0.244580   0.000000
  108       -0.132469   0.000000
  109        0.040168   0.000000
  110        0.136021   0.000000
  111        0.372124   0.000000
  112        0.568121   0.000000
  113        0.698018   0.000000
  114        0.963687   0.000000
  115        1.094872   0.000000
  116        1.198060   0.000000
  117        1.432890   0.000000
  118        1.979462   0.000000
  119        2.146438   0.000000
  120        2.440148   0.000000
 
  0.5000000E+00  0.1110223E-15  0.0000000E+00  0.1562500E-01
    1      -17.513787   1.000000
    2      -17.268761   1.000000
    3      -16.806401   1.000000
    4      -16.697625   1.000000
    5      -16.592329   1.000000
    6      -16.405967   1.000000
    7      -16.300235   1.000000
    8      -16.239745   1.000000
    9      -16.096105   1.000000
   10      -15.979571   1.000000
   11      -15.947741   1.000000
   12      -15.859851   1.000000
   13      -15.817006   1.000000
   14      -15.723208   1.000000
   15      -15.574833   1.000000
   16      -15.471749   1.000000
   17      -15.454110   1.000000
   18      -15.207971   1.000000
   19       -9.735007   1.000000
   20       -9.276864   1.000000
   21       -9.252231   1.000000
   22       -9.084416   1.000000
   23       -8.939024   1.000000
   24       -8.885443   1.000000
   25       -8.571402   1.000000
   26       -8.434188   1.000000
   27       -8.411564   1.000000
   28       -8.347198   1.000000
   29       -8.239815   1.000000
   30       -8.188441   1.000000
   31       -8.095425   1.000000
   32       -8.046554   1.000000
   33       -7.933568   1.000000
   34       -7.862180   1.000000
   35       -7.780162   1.000000
   36       -7.710842   1.000000
   37       -7.520748   1.000000
   38       -7.469264   1.000000
   39       -7.436521   1.000000
   40       -7.235391   1.000000
   41       -7.163384   1.000000
   42       -7.113455   1.000000
   43       -6.989360   1.000000
   44       -6.902983   1.000000
   45       -6.759728   1.000000
   46       -6.681388   1.000000
   47       -6.630099   1.000000
   48       -6.563997   1.000000
   49       -6.527560   1.000000
   50       -6.475070   1.000000
   51       -6.437509   1.000000
   52       -6.370148   1.000000
   53       -6.344817   1.000000
   54       -6.272202   1.000000
   55       -6.187770   1.000000
   56       -6.069762   1.000000
   57       -5.990061   1.000000
   58       -5.924718   1.000000
   59       -5.916286   1.000000
   60       -5.849194   1.000000
   61       -5.691160   1.000000
   62       -5.662191   1.000000
   63       -5.576627   1.000000
   64       -5.437793   1.000000
   65       -5.277774   1.000000
   66       -5.075157   1.000000
   67       -5.018343   1.000000
   68       -4.982025   1.000000
   69       -4.830710   1.000000
   70       -4.672654   1.000000
   71       -4.510863   1.000000
   72       -4.466166   1.000000
   73       -4.329228   1.000000
   74       -4.233334   1.000000
   75       -4.180396   1.000000
   76       -4.144538   1.000000
   77       -3.802005   0.999973
   78       -3.708139   0.999635
   79       -3.523581   0.980918
   80       -3.207272   0.435043
   81       -2.919356   0.013924
   82       -2.774574   0.000634
   83       -2.587324   0.000003
   84       -2.565444   0.000001
   85       -2.432282   0.000000
   86       -2.387540   0.000000
   87       -2.293617   0.000000
   88       -2.097805   0.000000
   89       -2.020861   0.000000
   90       -1.997795   0.000000
   91       -1.902138   0.000000
   92       -1.657924   0.000000
   93       -1.494026   0.000000
   94       -1.272243   0.000000
   95       -1.252361   0.000000
   96       -1.091869   0.000000
   97       -1.023358   0.000000
   98       -1.013202   0.000000
   99       -0.921833   0.000000
  100       -0.909114   0.000000
  101       -0.816867   0.000000
  102       -0.768974   0.000000
  103       -0.641037   0.000000
  104       -0.530232   0.000000
  105       -0.524482   0.000000
  106       -0.411660   0.000000
  107       -0.268932   0.000000
  108       -0.154767   0.000000
  109        0.031810   0.000000
  110        0.128695   0.000000
  111        0.355331   0.000000
  112        0.588551   0.000000
  113        0.711991   0.000000
  114        0.981270   0.000000
  115        1.108666   0.000000
  116        1.224687   0.000000
  117        1.479584   0.000000
  118        2.192459   0.000000
  119        2.226859   0.000000
  120        2.359788   0.000000
 
  0.0000000E+00  0.1250000E+00  0.0000000E+00  0.3125000E-01
    1      -17.768463   1.000000
    2      -16.799228   1.000000
    3      -16.712396   1.000000
    4      -16.606451   1.000000
    5      -16.548755   1.000000
    6      -16.415775   1.000000
    7      -16.318720   1.000000
    8      -16.290859   1.000000
    9      -16.210254   1.000000
   10      -16.191717   1.000000
   11      -16.008028   1.000000
   12      -15.954740   1.000000
   13      -15.836835   1.000000
   14      -15.708738   1.000000
   15      -15.596631   1.000000
   16      -15.501865   1.000000
   17      -15.370648   1.000000
   18      -15.181018   1.000000
   19       -9.298560   1.000000
   20       -9.171644   1.000000
   21       -9.037410   1.000000
   22       -8.977691   1.000000
   23       -8.785446   1.000000
   24       -8.701364   1.000000
   25       -8.639931   1.000000
   26       -8.606130   1.000000
   27       -8.461943   1.000000
   28       -8.382552   1.000000
   29       -8.354771   1.000000
   30       -8.253111   1.000000
   31       -8.205196   1.000000
   32       -8.110926   1.000000
   33       -7.981214   1.000000
   34       -7.939640   1.000000
   35       -7.773467   1.000000
   36       -7.728207   1.000000
   37       -7.651358   1.000000
   38       -7.578220   1.000000
   39       -7.507461   1.000000
   40       -7.423391   1.000000
   41       -7.273612   1.000000
   42       -7.194557   1.000000
   43       -7.147988   1.000000
   44       -7.041363   1.000000
   45       -6.890210   1.000000
   46       -6.853093   1.000000
   47       -6.667673   1.000000
   48       -6.627242   1.000000
   49       -6.497425   1.000000
   50       -6.467381   1.000000
   51       -6.442037   1.000000
   52       -6.399590   1.000000
   53       -6.356337   1.000000
   54       -6.317899   1.000000
   55       -6.177549   1.000000
   56       -6.096421   1.000000
   57       -6.018458   1.000000
   58       -5.979225   1.000000
   59       -5.680984   1.000000
   60       -5.604498   1.000000
   61       -5.551217   1.000000
   62       -5.384625   1.000000
   63       -5.342322   1.000000
   64       -5.240516   1.000000
   65       -5.118994   1.000000
   66       -5.045397   1.000000
   67       -4.966766   1.000000
   68       -4.869986   1.000000
   69       -4.836632   1.000000
   70       -4.728981   1.000000
   71       -4.690615   1.000000
   72       -4.564080   1.000000
   73       -4.465911   1.000000
   74       -4.186713   1.000000
   75       -4.074053   1.000000
   76       -4.021335   1.000000
   77       -3.790788   0.999963
   78       -3.743126   0.999856
   79       -3.477761   0.959863
   80       -3.320162   0.737189
   81       -3.200292   0.415701
   82       -2.810969   0.001509
   83       -2.671422   0.000039
   84       -2.620143   0.000008
   85       -2.480599   0.000000
   86       -2.452270   0.000000
   87       -2.306486   0.000000
   88       -2.213447   0.000000
   89       -2.176433   0.000000
   90       -1.994173   0.000000
   91       -1.943814   0.000000
   92       -1.844156   0.000000
   93       -1.483688   0.000000
   94       -1.146921   0.000000
   95       -1.093497   0.000000
   96       -1.057569   0.000000
   97       -0.947255   0.000000
   98       -0.879956   0.000000
   99       -0.771927   0.000000
  100       -0.695984   0.000000
  101       -0.644389   0.000000
  102       -0.564556   0.000000
  103       -0.502600   0.000000
  104       -0.372981   0.000000
  105       -0.231812   0.000000
  106       -0.181053   0.000000
  107       -0.034587   0.000000
  108        0.030067   0.000000
  109        0.094713   0.000000
  110        0.139129   0.000000
  111        0.316969   0.000000
  112        0.515506   0.000000
  113        0.603376   0.000000
  114        0.881107   0.000000
  115        0.993485   0.000000
  116        1.103038   0.000000
  117        1.164033   0.000000
  118        1.676595   0.000000
  119        1.863116   0.000000
  120        2.169521   0.000000
 
  0.1250000E+00  0.1250000E+00  0.0000000E+00  0.3125000E-01
    1      -17.721314   1.000000
    2      -16.870023   1.000000
    3      -16.820077   1.000000
    4      -16.671570   1.000000
    5      -16.482770   1.000000
    6      -16.415135   1.000000
    7      -16.310304   1.000000
    8      -16.282028   1.000000
    9      -16.216475   1.000000
   10      -16.119911   1.000000
   11      -15.977689   1.000000
   12      -15.908463   1.000000
   13      -15.799183   1.000000
   14      -15.723154   1.000000
   15      -15.610122   1.000000
   16      -15.497544   1.000000
   17      -15.385581   1.000000
   18      -15.190906   1.000000
   19       -9.369981   1.000000
   20       -9.306531   1.000000
   21       -9.112128   1.000000
   22       -9.058581   1.000000
   23       -8.820950   1.000000
   24       -8.724028   1.000000
   25       -8.676403   1.000000
   26       -8.563942   1.000000
   27       -8.413675   1.000000
   28       -8.359936   1.000000
   29       -8.334619   1.000000
   30       -8.235814   1.000000
   31       -8.142728   1.000000
   32       -8.030403   1.000000
   33       -7.968899   1.000000
   34       -7.829657   1.000000
   35       -7.760230   1.000000
   36       -7.682816   1.000000
   37       -7.614281   1.000000
   38       -7.477324   1.000000
   39       -7.456352   1.000000
   40       -7.422798   1.000000
   41       -7.296303   1.000000
   42       -7.170670   1.000000
   43       -7.074894   1.000000
   44       -7.056383   1.000000
   45       -6.993375   1.000000
   46       -6.786982   1.000000
   47       -6.742832   1.000000
   48       -6.613872   1.000000
   49       -6.545216   1.000000
   50       -6.514100   1.000000
   51       -6.442263   1.000000
   52       -6.354360   1.000000
   53       -6.338641   1.000000
   54       -6.225773   1.000000
   55       -6.175191   1.000000
   56       -6.107270   1.000000
   57       -5.986430   1.000000
   58       -5.917576   1.000000
   59       -5.752297   1.000000
   60       -5.673410   1.000000
   61       -5.551081   1.000000
   62       -5.486512   1.000000
   63       -5.380876   1.000000
   64       -5.286670   1.000000
   65       -5.179480   1.000000
   66       -5.125657   1.000000
   67       -5.025262   1.000000
   68       -4.957041   1.000000
   69       -4.758453   1.000000
   70       -4.671295   1.000000
   71       -4.611755   1.000000
   72       -4.486679   1.000000
   73       -4.396938   1.000000
   74       -4.188606   1.000000
   75       -4.131617   1.000000
   76       -4.012079   1.000000
   77       -3.897395   0.999999
   78       -3.819693   0.999985
   79       -3.486969   0.965177
   80       -3.254153   0.566689
   81       -3.067429   0.124581
   82       -2.785239   0.000823
   83       -2.657000   0.000025
   84       -2.591857   0.000003
   85       -2.462979   0.000000
   86       -2.445003   0.000000
   87       -2.311840   0.000000
   88       -2.178235   0.000000
   89       -2.148694   0.000000
   90       -1.997678   0.000000
   91       -1.949115   0.000000
   92       -1.821899   0.000000
   93       -1.470561   0.000000
   94       -1.176662   0.000000
   95       -1.096095   0.000000
   96       -1.059254   0.000000
   97       -0.940259   0.000000
   98       -0.885235   0.000000
   99       -0.833476   0.000000
  100       -0.794165   0.000000
  101       -0.758654   0.000000
  102       -0.639240   0.000000
  103       -0.557066   0.000000
  104       -0.477539   0.000000
  105       -0.289302   0.000000
  106       -0.228386   0.000000
  107       -0.080063   0.000000
  108       -0.001595   0.000000
  109        0.108257   0.000000
  110        0.138799   0.000000
  111        0.410175   0.000000
  112        0.493370   0.000000
  113        0.678721   0.000000
  114        0.887761   0.000000
  115        0.994339   0.000000
  116        1.114182   0.000000
  117        1.228273   0.000000
  118        1.759269   0.000000
  119        1.938224   0.000000
  120        2.239039   0.000000
 
  0.2500000E+00  0.1250000E+00  0.0000000E+00  0.3125000E-01
    1      -17.631758   1.000000
    2      -17.042043   1.000000
    3      -16.915927   1.000000
    4      -16.663965   1.000000
    5      -16.485188   1.000000
    6      -16.375077   1.000000
    7      -16.318245   1.000000
    8      -16.263306   1.000000
    9      -16.188845   1.000000
   10      -16.047980   1.000000
   11      -15.959475   1.000000
   12      -15.869128   1.000000
   13      -15.801924   1.000000
   14      -15.675146   1.000000
   15      -15.636161   1.000000
   16      -15.492029   1.000000
   17      -15.407569   1.000000
   18      -15.201581   1.000000
   19       -9.557766   1.000000
   20       -9.414104   1.000000
   21       -9.229685   1.000000
   22       -9.042302   1.000000
   23       -8.856580   1.000000
   24       -8.731917   1.000000
   25       -8.626288   1.000000
   26       -8.467495   1.000000
   27       -8.401224   1.000000
   28       -8.366430   1.000000
   29       -8.287289   1.000000
   30       -8.184107   1.000000
   31       -8.135002   1.000000
   32       -8.044449   1.000000
   33       -7.945490   1.000000
   34       -7.871309   1.000000
   35       -7.813411   1.000000
   36       -7.633218   1.000000
   37       -7.598577   1.000000
   38       -7.427429   1.000000
   39       -7.370049   1.000000
   40       -7.317952   1.000000
   41       -7.248083   1.000000
   42       -7.134353   1.000000
   43       -7.052583   1.000000
   44       -6.947107   1.000000
   45       -6.871744   1.000000
   46       -6.793917   1.000000
   47       -6.701290   1.000000