       N       E                     dE             d eps       ncg     rms          rms(c)
DAV:   1     0.112553216230E+04    0.11255E+04   -0.35983E+04  8160   0.577E+02
DAV:   2    -0.657270804685E+00   -0.11262E+04   -0.10835E+04 11240   0.173E+02
DAV:   3    -0.199696589115E+03   -0.19904E+03   -0.19106E+03 10920   0.823E+01
DAV:   4    -0.209042368842E+03   -0.93458E+01   -0.90784E+01 12520   0.263E+01
DAV:   5    -0.209301093037E+03   -0.25872E+00   -0.25794E+00 11280   0.315E+00    0.275E+01
DAV:   6    -0.237725901151E+03   -0.28425E+02   -0.10737E+02 12400   0.599E+01    0.595E+01
DAV:   7    -0.196626237976E+03    0.41100E+02   -0.17721E+02 13560   0.152E+02    0.201E+01
DAV:   8    -0.189636643141E+03    0.69896E+01   -0.17624E+01 11960   0.128E+01    0.128E+01
DAV:   9    -0.188217388579E+03    0.14193E+01   -0.31218E+00 13080   0.615E+00    0.940E+00
DAV:  10    -0.186951934456E+03    0.12655E+01   -0.17586E+00 13400   0.796E+00    0.215E+00
DAV:  11    -0.187042503207E+03   -0.90569E-01   -0.58391E-01 13600   0.293E+00    0.366E+00
DAV:  12    -0.186984358232E+03    0.58145E-01   -0.66011E-01 12680   0.433E+00    0.346E+00
DAV:  13    -0.186877458791E+03    0.10690E+00   -0.26100E-01 13320   0.299E+00    0.178E+00
DAV:  14    -0.186843513950E+03    0.33945E-01   -0.96512E-02 12920   0.153E+00    0.596E-01
DAV:  15    -0.186839340100E+03    0.41738E-02   -0.14637E-02 12600   0.488E-01    0.516E-01
DAV:  16    -0.186839401267E+03   -0.61166E-04   -0.11127E-02 13080   0.555E-01    0.563E-01
DAV:  17    -0.186836239640E+03    0.31616E-02   -0.75918E-03 12520   0.440E-01    0.183E-01
DAV:  18    -0.186835974458E+03    0.26518E-03   -0.14139E-03 12120   0.155E-01    0.946E-02
DAV:  19    -0.186836002878E+03   -0.28419E-04   -0.58494E-04  9760   0.691E-02
   1 F= -.18683600E+03 E0= -.18666415E+03  d E =-.186836E+03
       N       E                     dE             d eps       ncg     rms          rms(c)
DAV:   1    -0.187493231599E+03   -0.65726E+00   -0.27432E+02  8160   0.351E+01    0.469E+00
DAV:   2    -0.189517437032E+03   -0.20242E+01   -0.20347E+01 11960   0.155E+01    0.103E+01
DAV:   3    -0.189330984694E+03    0.18645E+00   -0.55945E+00 12240   0.131E+01    0.616E+00
DAV:   4    -0.188767536089E+03    0.56345E+00   -0.57003E-01 11320   0.457E+00    0.247E+00
DAV:   5    -0.188849738504E+03   -0.82202E-01   -0.47832E-01 12160   0.404E+00    0.489E+00
DAV:   6    -0.188721691761E+03    0.12805E+00   -0.63209E-01 12240   0.393E+00    0.222E+00
DAV:   7    -0.188690727153E+03    0.30965E-01   -0.22180E-01 11920   0.206E+00    0.202E+00
DAV:   8    -0.188674466428E+03    0.16261E-01   -0.12732E-01 11840   0.209E+00    0.181E+00
DAV:   9    -0.188648977916E+03    0.25489E-01   -0.55469E-02 12040   0.120E+00    0.630E-01
DAV:  10    -0.188645840057E+03    0.31379E-02   -0.67338E-03 10560   0.302E-01    0.284E-01
DAV:  11    -0.188645522912E+03    0.31714E-03   -0.31559E-03 12960   0.257E-01    0.143E-01
DAV:  12    -0.188645642026E+03   -0.11911E-03   -0.94955E-04 10760   0.998E-02    0.113E-01
DAV:  13    -0.188645694423E+03   -0.52397E-04   -0.28972E-04  6840   0.720E-02
   2 F= -.18864569E+03 E0= -.18850557E+03  d E =-.180969E+01
       N       E                     dE             d eps       ncg     rms          rms(c)
DAV:   1    -0.190599948735E+03   -0.19543E+01   -0.31840E+01  9200   0.144E+01    0.448E+00
DAV:   2    -0.190532577716E+03    0.67371E-01   -0.28067E+00 12160   0.944E+00    0.715E+00
DAV:   3    -0.190077196555E+03    0.45538E+00   -0.13204E+00 12280   0.864E+00    0.428E+00
DAV:   4    -0.189859587532E+03    0.21761E+00   -0.70675E-01 13120   0.438E+00    0.251E+00
DAV:   5    -0.189812702244E+03    0.46885E-01   -0.34966E-01 12280   0.285E+00    0.239E+00
DAV:   6    -0.189758019116E+03    0.54683E-01   -0.11534E-01 12280   0.221E+00    0.707E-01
DAV:   7    -0.189752520355E+03    0.54988E-02   -0.13002E-02 11800   0.528E-01    0.239E-01
DAV:   8    -0.189753214003E+03   -0.69365E-03   -0.43678E-03 11760   0.351E-01    0.371E-01
DAV:   9    -0.189752286162E+03    0.92784E-03   -0.25167E-03 10240   0.314E-01    0.149E-01
DAV:  10    -0.189752647609E+03   -0.36145E-03   -0.11060E-03 10360   0.137E-01    0.140E-01
DAV:  11    -0.189752354517E+03    0.29309E-03   -0.58398E-04 10440   0.871E-02    0.187E-02
DAV:  12    -0.189752414832E+03   -0.60315E-04   -0.73325E-05  6440   0.247E-02
   3 F= -.18975241E+03 E0= -.18963446E+03  d E =-.110672E+01
       N       E                     dE             d eps       ncg     rms          rms(c)
DAV:   1    -0.191339135919E+03   -0.15868E+01   -0.77298E+01  8160   0.200E+01    0.463E+00
DAV:   2    -0.191161272806E+03    0.17786E+00   -0.54041E+00 13000   0.776E+00    0.462E+00
DAV:   3    -0.191318460652E+03   -0.15719E+00   -0.14950E+00 12200   0.910E+00    0.714E+00
DAV:   4    -0.190946634518E+03    0.37183E+00   -0.17288E+00 12160   0.848E+00    0.382E+00
DAV:   5    -0.190927018492E+03    0.19616E-01   -0.75076E-01 11200   0.559E+00    0.354E+00
DAV:   6    -0.190755675635E+03    0.17134E+00   -0.21994E-01 11560   0.317E+00    0.762E-01
DAV:   7    -0.190753888423E+03    0.17872E-02   -0.44743E-02 12640   0.996E-01    0.760E-01
DAV:   8    -0.190752496037E+03    0.13924E-02   -0.22803E-02 11920   0.102E+00    0.677E-01
DAV:   9    -0.190747573337E+03    0.49227E-02   -0.66292E-03 11120   0.559E-01    0.157E-01
DAV:  10    -0.190747930664E+03   -0.35733E-03   -0.15481E-03 10680   0.134E-01    0.133E-01
DAV:  11    -0.190747724303E+03    0.20636E-03   -0.83852E-04 10720   0.112E-01    0.419E-02
DAV:  12    -0.190747747566E+03   -0.23264E-04   -0.13276E-04  6600   0.418E-02
   4 F= -.19074775E+03 E0= -.19064662E+03  d E =-.995333E+00
       N       E                     dE             d eps       ncg     rms          rms(c)
DAV:   1    -0.192124376977E+03   -0.13767E+01   -0.16212E+02  8160   0.284E+01    0.572E+00
DAV:   2    -0.191883690587E+03    0.24069E+00   -0.93927E+00 11520   0.858E+00    0.435E+00
DAV:   3    -0.192380052967E+03   -0.49636E+00   -0.27314E+00 11880   0.104E+01    0.107E+01
DAV:   4    -0.191654503524E+03    0.72555E+00   -0.32484E+00 11800   0.123E+01    0.375E+00
DAV:   5    -0.191597404965E+03    0.57099E-01   -0.71882E-01 11880   0.577E+00    0.394E+00
DAV:   6    -0.191424881763E+03    0.17252E+00   -0.38944E-01 12560   0.435E+00    0.158E+00
DAV:   7    -0.191414473920E+03    0.10408E-01   -0.94265E-02 12440   0.203E+00    0.140E+00
DAV:   8    -0.191400837539E+03    0.13636E-01   -0.56412E-02 11360   0.165E+00    0.663E-01
DAV:   9    -0.191395123731E+03    0.57138E-02   -0.69781E-03 11720   0.484E-01    0.239E-01
DAV:  10    -0.191395085104E+03    0.38626E-04   -0.27502E-03 12160   0.241E-01    0.827E-02
DAV:  11    -0.191395145202E+03   -0.60098E-04   -0.52919E-04 10800   0.913E-02
   5 F= -.19139515E+03 E0= -.19129725E+03  d E =-.647398E+00
       N       E                     dE             d eps       ncg     rms          rms(c)
DAV:   1    -0.191430030865E+03   -0.34946E-01   -0.28802E+00  8160   0.358E+00    0.495E-01
DAV:   2    -0.191469893330E+03   -0.39862E-01   -0.18935E-01 12760   0.235E+00    0.176E+00
DAV:   3    -0.191439570891E+03    0.30322E-01   -0.61081E-02 12360   0.177E+00    0.354E-01
DAV:   4    -0.191439894408E+03   -0.32352E-03   -0.75724E-03 11120   0.599E-01    0.420E-01
DAV:   5    -0.191438056618E+03    0.18378E-02   -0.39691E-03 10720   0.468E-01    0.179E-01
DAV:   6    -0.191437995805E+03    0.60813E-04   -0.16843E-03 11480   0.211E-01    0.162E-01
DAV:   7    -0.191438235874E+03   -0.24007E-03   -0.22278E-03 10200   0.303E-01    0.235E-01
DAV:   8    -0.191437686331E+03    0.54954E-03   -0.96938E-04  8680   0.202E-01    0.273E-02
DAV:   9    -0.191437704899E+03   -0.18568E-04   -0.73741E-05  5880   0.322E-02
   6 F= -.19143770E+03 E0= -.19133771E+03  d E =-.425597E-01
       N       E                     dE             d eps       ncg     rms          rms(c)
DAV:   1    -0.191485228123E+03   -0.47542E-01   -0.74344E+00  8160   0.575E+00    0.705E-01
DAV:   2    -0.191535880725E+03   -0.50653E-01   -0.26459E-01 13200   0.232E+00    0.208E+00
DAV:   3    -0.191496138140E+03    0.39743E-01   -0.11096E-01 12440   0.230E+00    0.653E-01
DAV:   4    -0.191493951946E+03    0.21862E-02   -0.16249E-02 10920   0.746E-01    0.503E-01
DAV:   5    -0.191491841092E+03    0.21109E-02   -0.89634E-03 11360   0.711E-01    0.351E-01
DAV:   6    -0.191490984774E+03    0.85632E-03   -0.51060E-03 11400   0.432E-01    0.244E-01
DAV:   7    -0.191491570574E+03   -0.58580E-03   -0.49619E-03 11360   0.451E-01    0.352E-01
DAV:   8    -0.191490341060E+03    0.12295E-02   -0.22018E-03  9560   0.308E-01    0.408E-02
DAV:   9    -0.191490357326E+03   -0.16266E-04   -0.10691E-04  5560   0.431E-02
   7 F= -.19149036E+03 E0= -.19138819E+03  d E =-.526524E-01
       N       E                     dE             d eps       ncg     rms          rms(c)
DAV:   1    -0.191500103451E+03   -0.97624E-02   -0.29389E-01  8160   0.121E+00    0.242E-01
DAV:   2    -0.191500484554E+03   -0.38110E-03   -0.15200E-02 11560   0.498E-01    0.374E-01
DAV:   3    -0.191499823489E+03    0.66107E-03   -0.67537E-03 11520   0.577E-01    0.299E-01
DAV:   4    -0.191499082718E+03    0.74077E-03   -0.29152E-03 11000   0.358E-01    0.190E-01
DAV:   5    -0.191498936278E+03    0.14644E-03   -0.16628E-03  9800   0.293E-01    0.166E-01
DAV:   6    -0.191498596954E+03    0.33932E-03   -0.76206E-04  9840   0.183E-01    0.407E-02
DAV:   7    -0.191498586326E+03    0.10629E-04   -0.10298E-04  5800   0.477E-02
   8 F= -.19149859E+03 E0= -.19139600E+03  d E =-.822900E-02
       N       E                     dE             d eps       ncg     rms          rms(c)
DAV:   1    -0.191535063117E+03   -0.36466E-01   -0.32100E+00  8160   0.378E+00    0.448E-01
DAV:   2    -0.191561657947E+03   -0.26595E-01   -0.11520E-01 13600   0.181E+00    0.155E+00
DAV:   3    -0.191538975648E+03    0.22682E-01   -0.50829E-02 12400   0.155E+00    0.325E-01
DAV:   4    -0.191539232263E+03   -0.25662E-03   -0.59771E-03 11520   0.497E-01    0.380E-01
DAV:   5    -0.191537921086E+03    0.13112E-02   -0.43687E-03 11160   0.462E-01    0.212E-01
DAV:   6    -0.191537930756E+03   -0.96706E-05   -0.24840E-03 10360   0.295E-01    0.224E-01
DAV:   7    -0.191537740717E+03    0.19004E-03   -0.20357E-03  9720   0.303E-01    0.153E-01
DAV:   8    -0.191537439733E+03    0.30098E-03   -0.49158E-04  8240   0.138E-01    0.201E-02
DAV:   9    -0.191537449783E+03   -0.10051E-04   -0.58967E-05  6880   0.284E-02
   9 F= -.19153745E+03 E0= -.19143413E+03  d E =-.388635E-01
       N       E                     dE             d eps       ncg     rms          rms(c)
DAV:   1    -0.191452645571E+03    0.84794E-01   -0.14132E+01  8160   0.794E+00    0.923E-01
DAV:   2    -0.191546991761E+03   -0.94346E-01   -0.46425E-01 13600   0.351E+00    0.271E+00
DAV:   3    -0.191469362210E+03    0.77630E-01   -0.15814E-01 12240   0.289E+00    0.746E-01
DAV:   4    -0.191470481769E+03   -0.11196E-02   -0.29064E-02 11320   0.117E+00    0.870E-01
DAV:   5    -0.191463557736E+03    0.69240E-02   -0.22157E-02 11960   0.105E+00    0.447E-01
DAV:   6    -0.191463349734E+03    0.20800E-03   -0.10625E-02 11480   0.626E-01    0.467E-01
DAV:   7    -0.191462348790E+03    0.10009E-02   -0.83338E-03 11360   0.606E-01    0.301E-01
DAV:   8    -0.191461195992E+03    0.11528E-02   -0.21030E-03 11720   0.267E-01    0.468E-02
DAV:   9    -0.191461199549E+03   -0.35572E-05   -0.22344E-04  8080   0.520E-02
  10 F= -.19146120E+03 E0= -.19135986E+03  d E =0.762502E-01
       N       E                     dE             d eps       ncg     rms          rms(c)
DAV:   1    -0.191423539315E+03    0.37657E-01   -0.70878E+00  8160   0.559E+00    0.586E-01
DAV:   2    -0.191454145012E+03   -0.30606E-01   -0.17978E-01 13440   0.184E+00    0.157E+00
DAV:   3    -0.191432708434E+03    0.21437E-01   -0.66516E-02 12160   0.179E+00    0.622E-01
DAV:   4    -0.191429326435E+03    0.33820E-02   -0.11342E-02 11280   0.589E-01    0.305E-01
DAV:   5    -0.191429196159E+03    0.13028E-03   -0.62917E-03 11960   0.476E-01    0.417E-01
DAV:   6    -0.191428032667E+03    0.11635E-02   -0.56373E-03 11040   0.478E-01    0.212E-01
DAV:   7    -0.191427828035E+03    0.20463E-03   -0.15335E-03 10160   0.211E-01    0.108E-01
DAV:   8    -0.191427686101E+03    0.14193E-03   -0.50246E-04 10240   0.158E-01    0.777E-02
DAV:   9    -0.191427619807E+03    0.66294E-04   -0.14350E-04  6960   0.920E-02
  11 F= -.19142762E+03 E0= -.19132749E+03  d E =0.335797E-01
       N       E                     dE             d eps       ncg     rms          rms(c)
DAV:   1    -0.191431573004E+03   -0.38869E-02   -0.11890E+00  8160   0.230E+00    0.255E-01
DAV:   2    -0.191434411961E+03   -0.28390E-02   -0.38355E-02 12240   0.566E-01    0.286E-01
DAV:   3    -0.191434590333E+03   -0.17837E-03   -0.89914E-03 11200   0.563E-01    0.410E-01
DAV:   4    -0.191433153221E+03    0.14371E-02   -0.38194E-03 10640   0.391E-01    0.159E-01
DAV:   5    -0.191433045112E+03    0.10811E-03   -0.11967E-03  9560   0.232E-01    0.149E-01
DAV:   6    -0.191432950911E+03    0.94200E-04   -0.89735E-04  9880   0.213E-01
  12 F= -.19143295E+03 E0= -.19133207E+03  d E =-.533110E-02
       N       E                     dE             d eps       ncg     rms          rms(c)
DAV:   1    -0.191448505091E+03   -0.15460E-01   -0.12140E+00  8160   0.236E+00    0.314E-01
DAV:   2    -0.191458133336E+03   -0.96282E-02   -0.51173E-02 13600   0.113E+00    0.929E-01
DAV:   3    -0.191450268685E+03    0.78647E-02   -0.21174E-02 11720   0.999E-01    0.296E-01
DAV:   4    -0.191449953775E+03    0.31491E-03   -0.39447E-03 11200   0.399E-01    0.270E-01
DAV:   5    -0.191449419194E+03    0.53458E-03   -0.24953E-03 10480   0.353E-01    0.181E-01
DAV:   6    -0.191449212057E+03    0.20714E-03   -0.13188E-03  9520   0.214E-01    0.143E-01
DAV:   7    -0.191449160579E+03    0.51478E-04   -0.96746E-04  8320   0.211E-01
  13 F= -.19144916E+03 E0= -.19134650E+03  d E =-.162097E-01
       N       E                     dE             d eps       ncg     rms          rms(c)
DAV:   1    -0.191459797228E+03   -0.10585E-01   -0.53927E-01  8160   0.157E+00    0.209E-01
DAV:   2    -0.191465265700E+03   -0.54685E-02   -0.24545E-02 13600   0.803E-01    0.699E-01
DAV:   3    -0.191460650413E+03    0.46153E-02   -0.10885E-02 11480   0.711E-01    0.180E-01
DAV:   4    -0.191460582763E+03    0.67650E-04   -0.15556E-03  9800   0.238E-01    0.167E-01
DAV:   5    -0.191460394500E+03    0.18826E-03   -0.10069E-03  9800   0.219E-01    0.118E-01
DAV:   6    -0.191460300267E+03    0.94233E-04   -0.52064E-04  7880   0.138E-01
  14 F= -.19146030E+03 E0= -.19135600E+03  d E =-.111397E-01
       N       E                     dE             d eps       ncg     rms          rms(c)
DAV:   1    -0.191449882821E+03    0.10512E-01   -0.54484E-01  8160   0.161E+00    0.273E-01
DAV:   2    -0.191460004303E+03   -0.10121E-01   -0.34950E-02 13280   0.111E+00    0.101E+00
DAV:   3    -0.191449975332E+03    0.10029E-01   -0.18644E-02 11240   0.977E-01    0.189E-01
DAV:   4    -0.191449647093E+03    0.32824E-03   -0.16465E-03 10680   0.211E-01    0.107E-01
DAV:   5    -0.191449588018E+03    0.59075E-04   -0.82319E-04 10880   0.191E-01
  15 F= -.19144959E+03 E0= -.19134722E+03  d E =0.107122E-01
       N       E                     dE             d eps       ncg     rms          rms(c)
DAV:   1    -0.191447309007E+03    0.23381E-02   -0.60387E-01  8160   0.170E+00    0.326E-01
DAV:   2    -0.191447644019E+03   -0.33501E-03   -0.25690E-02 12160   0.685E-01    0.482E-01
DAV:   3    -0.191446751327E+03    0.89269E-03   -0.11175E-02 11440   0.762E-01    0.429E-01
DAV:   4    -0.191445295480E+03    0.14558E-02   -0.58979E-03 11240   0.505E-01    0.266E-01
DAV:   5    -0.191445191627E+03    0.10385E-03   -0.36036E-03  9920   0.428E-01    0.252E-01
DAV:   6    -0.191444436585E+03    0.75504E-03   -0.16992E-03  9920   0.259E-01    0.855E-02
DAV:   7    -0.191444465082E+03   -0.28498E-04   -0.49275E-04  8160   0.138E-01
  16 F= -.19144447E+03 E0= -.19134316E+03  d E =0.512294E-02
       N       E                     dE             d eps       ncg     rms          rms(c)
DAV:   1    -0.191469625685E+03   -0.25189E-01   -0.23261E+00  8160   0.330E+00    0.513E-01
DAV:   2    -0.191489136087E+03   -0.19510E-01   -0.10407E-01 13600   0.165E+00    0.146E+00
DAV:   3    -0.191470267961E+03    0.18868E-01   -0.50740E-02 12280   0.157E+00    0.451E-01
DAV:   4    -0.191468096968E+03    0.21710E-02   -0.76970E-03 11280   0.482E-01    0.258E-01
DAV:   5    -0.191468398101E+03   -0.30113E-03   -0.59442E-03 12320   0.493E-01    0.390E-01
DAV:   6    -0.191467112237E+03    0.12859E-02   -0.48239E-03 11040   0.423E-01    0.183E-01
DAV:   7    -0.191467135362E+03   -0.23125E-04   -0.17975E-03  9640   0.276E-01    0.181E-01
DAV:   8    -0.191466783834E+03    0.35153E-03   -0.64366E-04  8160   0.177E-01    0.322E-02
DAV:   9    -0.191466774150E+03    0.96840E-05   -0.57267E-05  6400   0.332E-02
  17 F= -.19146677E+03 E0= -.19136235E+03  d E =-.223091E-01
       N       E                     dE             d eps       ncg     rms          rms(c)
DAV:   1    -0.191500245568E+03   -0.33462E-01   -0.40096E+00  8160   0.429E+00    0.574E-01
DAV:   2    -0.191535972940E+03   -0.35727E-01   -0.16605E-01 13600   0.209E+00    0.185E+00
DAV:   3    -0.191504682233E+03    0.31291E-01   -0.76470E-02 12240   0.190E+00    0.457E-01
DAV:   4    -0.191502335606E+03    0.23466E-02   -0.80223E-03 10720   0.437E-01    0.234E-01
DAV:   5    -0.191502097801E+03    0.23780E-03   -0.44253E-03 12600   0.383E-01    0.313E-01
DAV:   6    -0.191501668640E+03    0.42916E-03   -0.47567E-03 11440   0.428E-01    0.237E-01
DAV:   7    -0.191501545067E+03    0.12357E-03   -0.23384E-03  9600   0.296E-01    0.203E-01
DAV:   8    -0.191501108551E+03    0.43652E-03   -0.86150E-04  8280   0.205E-01    0.403E-02
DAV:   9    -0.191501096024E+03    0.12527E-04   -0.70386E-05  6280   0.421E-02
  18 F= -.19150110E+03 E0= -.19139370E+03  d E =-.343219E-01
       N       E                     dE             d eps       ncg     rms          rms(c)
DAV:   1    -0.191494760077E+03    0.63485E-02   -0.18696E-01  8160   0.913E-01    0.108E-01
DAV:   2    -0.191496293088E+03   -0.15330E-02   -0.70778E-03 13560   0.429E-01    0.363E-01
DAV:   3    -0.191495010895E+03    0.12822E-02   -0.28429E-03 10680   0.369E-01    0.955E-02
DAV:   4    -0.191494993787E+03    0.17108E-04   -0.40805E-04  8160   0.122E-01
  19 F= -.19149499E+03 E0= -.19138819E+03  d E =0.610224E-02
       N       E                     dE             d eps       ncg     rms          rms(c)
DAV:   1    -0.191517047605E+03   -0.22037E-01   -0.17117E+00  8160   0.277E+00    0.326E-01
DAV:   2    -0.191532217688E+03   -0.15170E-01   -0.65419E-02 13560   0.132E+00    0.113E+00
DAV:   3    -0.191519380249E+03    0.12837E-01   -0.25375E-02 12080   0.113E+00    0.246E-01
DAV:   4    -0.191519243526E+03    0.13672E-03   -0.29042E-03 11240   0.332E-01    0.222E-01
DAV:   5    -0.191518863815E+03    0.37971E-03   -0.20807E-03 11160   0.313E-01    0.163E-01
DAV:   6    -0.191518771342E+03    0.92473E-04   -0.11493E-03  9440   0.198E-01    0.142E-01
DAV:   7    -0.191518776589E+03   -0.52473E-05   -0.11000E-03  8760   0.214E-01    0.133E-01
DAV:   8    -0.191518582744E+03    0.19385E-03   -0.35059E-04  6760   0.115E-01    0.179E-02
DAV:   9    -0.191518591899E+03   -0.91555E-05   -0.44723E-05  6480   0.244E-02
  20 F= -.19151859E+03 E0= -.19141094E+03  d E =-.235981E-01
       N       E                     dE             d eps       ncg     rms          rms(c)
DAV:   1    -0.191516650064E+03    0.19327E-02   -0.32727E-02  8160   0.376E-01    0.400E-02
DAV:   2    -0.191516795376E+03   -0.14531E-03   -0.82178E-04 12240   0.138E-01    0.110E-01
DAV:   3    -0.191516672889E+03    0.12249E-03   -0.30146E-04  7360   0.120E-01    0.369E-02
DAV:   4    -0.191516678741E+03   -0.58528E-05   -0.64065E-05  5440   0.529E-02
  21 F= -.19151668E+03 E0= -.19140895E+03  d E =0.191316E-02
       N       E                     dE             d eps       ncg     rms          rms(c)
DAV:   1    -0.191495041937E+03    0.21631E-01   -0.56403E+00  8160   0.494E+00    0.493E-01
DAV:   2    -0.191510601958E+03   -0.15560E-01   -0.11912E-01 12320   0.138E+00    0.103E+00
DAV:   3    -0.191501617147E+03    0.89848E-02   -0.38220E-02 12720   0.131E+00    0.590E-01
DAV:   4    -0.191499737470E+03    0.18797E-02   -0.11551E-02 12240   0.655E-01    0.392E-01
DAV:   5    -0.191498920467E+03    0.81700E-03   -0.65577E-03 11040   0.549E-01    0.336E-01
DAV:   6    -0.191497974387E+03    0.94608E-03   -0.37937E-03 11080   0.391E-01    0.188E-01
DAV:   7    -0.191498408172E+03   -0.43378E-03   -0.30820E-03 10480   0.347E-01    0.275E-01
DAV:   8    -0.191497684543E+03    0.72363E-03   -0.15081E-03  9320   0.249E-01    0.452E-02
DAV:   9    -0.191497668788E+03    0.15755E-04   -0.92677E-05  5880   0.441E-02
  22 F= -.19149767E+03 E0= -.19138950E+03  d E =0.190100E-01
       N       E                     dE             d eps       ncg     rms          rms(c)
DAV:   1    -0.191535530375E+03   -0.37846E-01   -0.45353E+00  8160   0.455E+00    0.603E-01
DAV:   2    -0.191567476989E+03   -0.31947E-01   -0.17559E-01 13600   0.204E+00    0.177E+00
DAV:   3    -0.191540334262E+03    0.27143E-01   -0.80475E-02 12280   0.188E+00    0.541E-01
DAV:   4    -0.191538110213E+03    0.22240E-02   -0.12315E-02 12040   0.641E-01    0.391E-01
DAV:   5    -0.191537295574E+03    0.81464E-03   -0.77439E-03 11680   0.615E-01    0.365E-01
DAV:   6    -0.191535802569E+03    0.14930E-02   -0.42481E-03 11520   0.412E-01    0.116E-01
DAV:   7    -0.191535949583E+03   -0.14701E-03   -0.16580E-03 10080   0.215E-01    0.189E-01
DAV:   8    -0.191535648880E+03    0.30070E-03   -0.10604E-03  8440   0.196E-01    0.725E-02
DAV:   9    -0.191535595810E+03    0.53070E-04   -0.13623E-04  5560   0.634E-02
  23 F= -.19153560E+03 E0= -.19142616E+03  d E =-.379270E-01
       N       E                     dE             d eps       ncg     rms          rms(c)
DAV:   1    -0.191549244293E+03   -0.13595E-01   -0.41198E-01  8160   0.136E+00    0.160E-01
DAV:   2    -0.191552341594E+03   -0.30973E-02   -0.14755E-02 13240   0.617E-01    0.514E-01
DAV:   3    -0.191549700248E+03    0.26413E-02   -0.55985E-03 10680   0.518E-01    0.127E-01
DAV:   4    -0.191549741048E+03   -0.40800E-04   -0.80867E-04  8560   0.189E-01
  24 F= -.19154974E+03 E0= -.19143998E+03  d E =-.141452E-01
       N       E                     dE             d eps       ncg     rms          rms(c)
DAV:   1    -0.191575616969E+03   -0.25917E-01   -0.13814E+00  8160   0.251E+00    0.316E-01
DAV:   2    -0.191586212130E+03   -0.10595E-01   -0.52982E-02 13600   0.107E+00    0.999E-01
DAV:   3    -0.191577493135E+03    0.87190E-02   -0.25361E-02 11560   0.102E+00    0.294E-01
DAV:   4    -0.191576980082E+03    0.51305E-03   -0.36230E-03 10960   0.308E-01    0.229E-01
DAV:   5    -0.191576915278E+03    0.64804E-04   -0.31534E-03 10520   0.345E-01    0.246E-01
DAV:   6    -0.191576379967E+03    0.53531E-03   -0.17245E-03  9600   0.232E-01    0.708E-02
DAV:   7    -0.191576389286E+03   -0.93188E-05   -0.34082E-04  7680   0.941E-02
  25 F= -.19157639E+03 E0= -.19146733E+03  d E =-.266482E-01
       N       E                     dE             d eps       ncg     rms          rms(c)
DAV:   1    -0.191580377277E+03   -0.39973E-02   -0.11636E-01  8160   0.716E-01    0.832E-02
DAV:   2    -0.191580529162E+03   -0.15188E-03   -0.26273E-03 12520   0.185E-01    0.122E-01
DAV:   3    -0.191580506246E+03    0.22916E-04   -0.95710E-04  8840   0.199E-01
  26 F= -.19158051E+03 E0= -.19147174E+03  d E =-.411696E-02
       N       E                     dE             d eps       ncg     rms          rms(c)
DAV:   1    -0.191643258645E+03   -0.62729E-01   -0.59676E+00  8160   0.521E+00    0.615E-01
DAV:   2    -0.191668196524E+03   -0.24938E-01   -0.18292E-01 13600   0.189E+00    0.150E+00
DAV:   3    -0.191650559652E+03    0.17637E-01   -0.70624E-02 12040   0.173E+00    0.620E-01
DAV:   4    -0.191647851325E+03    0.27083E-02   -0.15652E-02 12240   0.742E-01    0.461E-01
DAV:   5    -0.191646943150E+03    0.90817E-03   -0.11837E-02 11240   0.724E-01    0.440E-01
DAV:   6    -0.191645849012E+03    0.10941E-02   -0.84087E-03 11400   0.507E-01    0.310E-01
DAV:   7    -0.191645465028E+03    0.38398E-03   -0.46820E-03 11120   0.446E-01    0.229E-01
DAV:   8    -0.191644844865E+03    0.62016E-03   -0.11315E-03  9640   0.210E-01    0.429E-02
DAV:   9    -0.191644828182E+03    0.16682E-04   -0.12369E-04  6720   0.414E-02
  27 F= -.19164483E+03 E0= -.19153830E+03  d E =-.643219E-01
       N       E                     dE             d eps       ncg     rms          rms(c)
DAV:   1    -0.191649381826E+03   -0.45370E-02   -0.26061E-01  8160   0.107E+00    0.146E-01
DAV:   2    -0.191653402056E+03   -0.40202E-02   -0.14130E-02 13600   0.678E-01    0.646E-01
DAV:   3    -0.191649552110E+03    0.38499E-02   -0.81019E-03 10840   0.569E-01    0.821E-02
DAV:   4    -0.191649604850E+03   -0.52740E-04   -0.54874E-04  8560   0.118E-01
  28 F= -.19164960E+03 E0= -.19154365E+03  d E =-.477667E-02
       N       E                     dE             d eps       ncg     rms          rms(c)
DAV:   1    -0.191641896690E+03    0.76554E-02   -0.31491E-01  8160   0.118E+00    0.174E-01
DAV:   2    -0.191648876745E+03   -0.69801E-02   -0.20621E-02 13600   0.860E-01    0.826E-01
DAV:   3    -0.191641985269E+03    0.68915E-02   -0.12123E-02 11280   0.739E-01    0.666E-02
DAV:   4    -0.191642112244E+03   -0.12698E-03   -0.43899E-04  8760   0.123E-01    0.963E-02
DAV:   5    -0.191642018348E+03    0.93896E-04   -0.28000E-04  8840   0.122E-01
  29 F= -.19164202E+03 E0= -.19153533E+03  d E =0.758650E-02
       N       E                     dE             d eps       ncg     rms          rms(c)
DAV:   1    -0.191706628696E+03   -0.64516E-01   -0.54358E+00  8160   0.493E+00    0.513E-01
DAV:   2    -0.191732802638E+03   -0.26174E-01   -0.16497E-01 13320   0.181E+00    0.144E+00
DAV:   3    -0.191714261101E+03    0.18542E-01   -0.58114E-02 12400   0.156E+00    0.474E-01
DAV:   4    -0.191713623776E+03    0.63733E-03   -0.91939E-03 10920   0.629E-01    0.453E-01
DAV:   5    -0.191712032031E+03    0.15917E-02   -0.75386E-03 12320   0.603E-01    0.284E-01
DAV:   6    -0.191712106168E+03   -0.74138E-04   -0.45407E-03 10400   0.416E-01    0.294E-01
DAV:   7    -0.191711471570E+03    0.63460E-03   -0.27510E-03 11120   0.370E-01    0.141E-01
DAV:   8    -0.191711175140E+03    0.29643E-03   -0.50879E-04  8560   0.131E-01    0.234E-02
DAV:   9    -0.191711181103E+03   -0.59640E-05   -0.82467E-05  6800   0.321E-02
  30 F= -.19171118E+03 E0= -.19160924E+03  d E =-.691628E-01
       N       E                     dE             d eps       ncg     rms          rms(c)
DAV:   1    -0.191717659440E+03   -0.64843E-02   -0.52704E-02  8160   0.491E-01    0.669E-02
DAV:   2    -0.191718229573E+03   -0.57013E-03   -0.26419E-03 13160   0.266E-01    0.232E-01
DAV:   3    -0.191717707491E+03    0.52208E-03   -0.11797E-03  8920   0.226E-01    0.465E-02
DAV:   4    -0.191717714731E+03   -0.72394E-05   -0.11308E-04  5480   0.648E-02
  31 F= -.19171771E+03 E0= -.19161635E+03  d E =-.653363E-02
       N       E                     dE             d eps       ncg     rms          rms(c)
DAV:   1    -0.191568977846E+03    0.14873E+00   -0.20727E+01  8160   0.967E+00    0.118E+00
DAV:   2    -0.191749367932E+03   -0.18039E+00   -0.87449E-01 13600   0.466E+00    0.386E+00
DAV:   3    -0.191602552339E+03    0.14682E+00   -0.35407E-01 12240   0.392E+00    0.947E-01
DAV:   4    -0.191605269851E+03   -0.27175E-02   -0.55524E-02 11960   0.156E+00    0.122E+00
DAV:   5    -0.191592927580E+03    0.12342E-01   -0.50721E-02 12320   0.142E+00    0.652E-01
DAV:   6    -0.191592579456E+03    0.34812E-03   -0.22795E-02 11880   0.880E-01    0.611E-01
DAV:   7    -0.191589572041E+03    0.30074E-02   -0.12148E-02 11880   0.716E-01    0.251E-01
DAV:   8    -0.191588512845E+03    0.10592E-02   -0.27181E-03 11800   0.252E-01    0.700E-02
DAV:   9    -0.191588455966E+03    0.56878E-04   -0.41656E-04 10400   0.697E-02
  32 F= -.19158846E+03 E0= -.19147945E+03  d E =0.129259E+00
       N       E                     dE             d eps       ncg     rms          rms(c)
DAV:   1    -0.191542716833E+03    0.45796E-01   -0.66788E+00  8160   0.546E+00    0.681E-01
DAV:   2    -0.191617121831E+03   -0.74405E-01   -0.28865E-01 13600   0.282E+00    0.278E+00
DAV:   3    -0.191549821596E+03    0.67300E-01   -0.15186E-01 11720   0.249E+00    0.459E-01
DAV:   4    -0.191550296841E+03   -0.47524E-03   -0.15100E-02 11520   0.676E-01    0.617E-01
DAV:   5    -0.191547861217E+03    0.24356E-02   -0.15145E-02 11160   0.736E-01    0.407E-01
DAV:   6    -0.191546363764E+03    0.14975E-02   -0.52937E-03 10960   0.359E-01    0.131E-01
DAV:   7    -0.191546229497E+03    0.13427E-03   -0.15786E-03 10720   0.135E-01    0.863E-02
DAV:   8    -0.191546098767E+03    0.13073E-03   -0.38781E-04 10400   0.111E-01    0.616E-02
DAV:   9    -0.191546066106E+03    0.32661E-04   -0.13300E-04  6400   0.832E-02
  33 F= -.19154607E+03 E0= -.19143546E+03  d E =0.423899E-01
       N       E                     dE             d eps       ncg     rms          rms(c)
DAV:   1    -0.191428951847E+03    0.11715E+00   -0.40126E+01  8160   0.134E+01    0.173E+00
DAV:   2    -0.191885730410E+03   -0.45678E+00   -0.17546E+00 13600   0.679E+00    0.715E+00
DAV:   3    -0.191497026385E+03    0.38870E+00   -0.89707E-01 12160   0.643E+00    0.164E+00
DAV:   4    -0.191483978802E+03    0.13048E-01   -0.11066E-01 11480   0.232E+00    0.165E+00
DAV:   5    -0.191465763060E+03    0.18216E-01   -0.98041E-02 11560   0.204E+00    0.109E+00
DAV:   6    -0.191460648025E+03    0.51150E-02   -0.46702E-02 11280   0.132E+00    0.892E-01
DAV:   7    -0.191453864451E+03    0.67836E-02   -0.22809E-02 12120   0.976E-01    0.372E-01
DAV:   8    -0.191452118694E+03    0.17458E-02   -0.59608E-03 11680   0.352E-01    0.120E-01
DAV:   9    -0.191451889177E+03    0.22952E-03   -0.10575E-03 10400   0.120E-01    0.568E-02
DAV:  10    -0.191451867313E+03    0.21864E-04   -0.27997E-04  9280   0.608E-02
  34 F= -.19145187E+03 E0= -.19134463E+03  d E =0.941988E-01
       N       E                     dE             d eps       ncg     rms          rms(c)
DAV:   1    -0.191436553838E+03    0.15335E-01   -0.88536E+00  8160   0.625E+00    0.817E-01
DAV:   2    -0.191570410677E+03   -0.13386E+00   -0.40155E-01 13600   0.349E+00    0.406E+00
DAV:   3    -0.191445940445E+03    0.12447E+00   -0.25577E-01 12000   0.332E+00    0.575E-01
DAV:   4    -0.191442349838E+03    0.35906E-02   -0.15488E-02 11240   0.580E-01    0.422E-01
DAV:   5    -0.191441489062E+03    0.86078E-03   -0.88713E-03 12960   0.658E-01    0.406E-01
DAV:   6    -0.191439754766E+03    0.17343E-02   -0.48117E-03 11040   0.482E-01    0.193E-01
DAV:   7    -0.191440910914E+03   -0.11561E-02   -0.45793E-03 11200   0.417E-01    0.399E-01
DAV:   8    -0.191439444228E+03    0.14667E-02   -0.29472E-03  9680   0.348E-01    0.692E-02
DAV:   9    -0.191439404264E+03    0.39964E-04   -0.16657E-04  5720   0.621E-02
  35 F= -.19143940E+03 E0= -.19133242E+03  d E =0.124630E-01
       N       E                     dE             d eps       ncg     rms          rms(c)
DAV:   1    -0.191484777795E+03   -0.45334E-01   -0.64902E+00  8160   0.543E+00    0.716E-01
DAV:   2    -0.191549877640E+03   -0.65100E-01   -0.30039E-01 13600   0.262E+00    0.252E+00
DAV:   3    -0.191495448278E+03    0.54429E-01   -0.14638E-01 12200   0.242E+00    0.661E-01
DAV:   4    -0.191493876921E+03    0.15714E-02   -0.21408E-02 11160   0.806E-01    0.655E-01
DAV:   5    -0.191491166512E+03    0.27104E-02   -0.15469E-02 11480   0.800E-01    0.447E-01
DAV:   6    -0.191489119745E+03    0.20468E-02   -0.57635E-03 11840   0.409E-01    0.158E-01
DAV:   7    -0.191489720580E+03   -0.60083E-03   -0.30038E-03 11960   0.336E-01    0.268E-01
DAV:   8    -0.191488851640E+03    0.86894E-03   -0.14645E-03 10360   0.284E-01    0.563E-02
DAV:   9    -0.191488822532E+03    0.29108E-04   -0.15721E-04  7280   0.654E-02
  36 F= -.19148882E+03 E0= -.19137963E+03  d E =-.494183E-01
       N       E                     dE             d eps       ncg     rms          rms(c)
DAV:   1    -0.191499640140E+03   -0.10789E-01   -0.57423E-01  8160   0.160E+00    0.209E-01
DAV:   2    -0.191506779348E+03   -0.71392E-02   -0.26549E-02 13600   0.851E-01    0.825E-01
DAV:   3    -0.191500324040E+03    0.64553E-02   -0.13266E-02 11560   0.754E-01    0.155E-01
DAV:   4    -0.191500254596E+03    0.69445E-04   -0.11764E-03 10080   0.169E-01    0.126E-01
DAV:   5    -0.191500229620E+03    0.24976E-04   -0.86459E-04 10280   0.188E-01
  37 F= -.19150023E+03 E0= -.19139093E+03  d E =-.114071E-01
       N       E                     dE             d eps       ncg     rms          rms(c)
DAV:   1    -0.191500574139E+03   -0.31954E-03   -0.87432E+00  8160   0.624E+00    0.797E-01
DAV:   2    -0.191602070452E+03   -0.10150E+00   -0.38430E-01 13600   0.312E+00    0.337E+00
DAV:   3    -0.191510285083E+03    0.91785E-01   -0.20124E-01 12240   0.293E+00    0.670E-01
DAV:   4    -0.191507613689E+03    0.26714E-02   -0.20196E-02 11400   0.868E-01    0.594E-01
DAV:   5    -0.191505651171E+03    0.19625E-02   -0.16800E-02 12480   0.855E-01    0.492E-01
DAV:   6    -0.191504287216E+03    0.13640E-02   -0.83643E-03 11280   0.558E-01    0.378E-01
DAV:   7    -0.191503379670E+03    0.90755E-03   -0.53710E-03 10840   0.486E-01    0.220E-01
DAV:   8    -0.191502857744E+03    0.52193E-03   -0.14481E-03 11120   0.210E-01    0.509E-02
DAV:   9    -0.191502829171E+03    0.28573E-04   -0.20362E-04  7680   0.548E-02
  38 F= -.19150283E+03 E0= -.19139366E+03  d E =-.259955E-02
       N       E                     dE             d eps       ncg     rms          rms(c)
DAV:   1    -0.191557767930E+03   -0.54910E-01   -0.13688E+01  8160   0.786E+00    0.105E+00
DAV:   2    -0.191733387386E+03   -0.17562E+00   -0.68569E-01 13600   0.423E+00    0.417E+00
DAV:   3    -0.191579994962E+03    0.15339E+00   -0.35151E-01 12080   0.382E+00    0.930E-01
DAV:   4    -0.191579491273E+03    0.50369E-03   -0.54311E-02 11480   0.141E+00    0.116E+00
DAV:   5    -0.191568675645E+03    0.10816E-01   -0.34305E-02 11480   0.116E+00    0.440E-01
DAV:   6    -0.191566571793E+03    0.21039E-02   -0.89057E-03 11000   0.515E-01    0.294E-01
DAV:   7    -0.191567340387E+03   -0.76859E-03   -0.69906E-03 11760   0.591E-01    0.380E-01
DAV:   8    -0.191565644845E+03    0.16955E-02   -0.31560E-03 11360   0.381E-01    0.628E-02
DAV:   9    -0.191565599968E+03    0.44878E-04   -0.25155E-04  6920   0.584E-02
  39 F= -.19156560E+03 E0= -.19145596E+03  d E =-.627708E-01
       N       E                     dE             d eps       ncg     rms          rms(c)
DAV:   1    -0.191639775361E+03   -0.74131E-01   -0.59027E+00  8160   0.514E+00    0.545E-01
DAV:   2    -0.191656928516E+03   -0.17153E-01   -0.13744E-01 13440   0.166E+00    0.131E+00
DAV:   3    -0.191643296149E+03    0.13632E-01   -0.46696E-02 11520   0.138E+00    0.525E-01
DAV:   4    -0.191645010262E+03   -0.17141E-02   -0.19554E-02 12000   0.887E-01    0.702E-01
DAV:   5    -0.191640097756E+03    0.49125E-02   -0.13132E-02 10200   0.757E-01    0.260E-01
DAV:   6    -0.191640297308E+03   -0.19955E-03   -0.54477E-03 11280   0.387E-01    0.326E-01
DAV:   7    -0.191639587264E+03    0.71004E-03   -0.39262E-03 10440   0.384E-01    0.181E-01
DAV:   8    -0.191639233028E+03    0.35424E-03   -0.71734E-04  8280   0.146E-01    0.338E-02
DAV:   9    -0.191639222306E+03    0.10722E-04   -0.79653E-05  6840   0.338E-02
  40 F= -.19163922E+03 E0= -.19153118E+03  d E =-.736223E-01
       N       E                     dE             d eps       ncg     rms          rms(c)
DAV:   1    -0.191638148535E+03    0.10845E-02   -0.13473E-01  8160   0.774E-01    0.984E-02
DAV:   2    -0.191639812210E+03   -0.16637E-02   -0.61503E-03 13560   0.416E-01    0.407E-01
DAV:   3    -0.191638245982E+03    0.15662E-02   -0.33755E-03 10360   0.362E-01    0.710E-02
DAV:   4    -0.191638236932E+03    0.90506E-05   -0.23846E-04  6320   0.786E-02
  41 F= -.19163824E+03 E0= -.19153007E+03  d E =0.985375E-03
       N       E                     dE             d eps       ncg     rms          rms(c)
DAV:   1    -0.191753701250E+03   -0.11546E+00   -0.10587E+01  8160   0.686E+00    0.606E-01
DAV:   2    -0.191771827347E+03   -0.18126E-01   -0.21815E-01 11360   0.153E+00    0.903E-01
DAV:   3    -0.191771345224E+03    0.48212E-03   -0.53952E-02 12760   0.146E+00    0.938E-01
DAV:   4    -0.191765086944E+03    0.62583E-02   -0.22387E-02 11440   0.915E-01    0.502E-01
DAV:   5    -0.191763139298E+03    0.19476E-02   -0.88513E-03 10520   0.693E-01    0.348E-01
DAV:   6    -0.191762259734E+03    0.87956E-03   -0.50720E-03 12520   0.422E-01    0.186E-01
DAV:   7    -0.191762708961E+03   -0.44923E-03   -0.35432E-03 11520   0.371E-01    0.317E-01
DAV:   8    -0.191761739441E+03    0.96952E-03   -0.18101E-03  9720   0.278E-01    0.391E-02
DAV:   9    -0.191761749593E+03   -0.10152E-04   -0.10083E-04  5640   0.419E-02
  42 F= -.19176175E+03 E0= -.19166020E+03  d E =-.123513E+00
       N       E                     dE             d eps       ncg     rms          rms(c)
DAV:   1    -0.191652660126E+03    0.10908E+00   -0.80763E+00  8160   0.608E+00    0.704E-01
DAV:   2    -0.191679946296E+03   -0.27286E-01   -0.25400E-01 12400   0.203E+00    0.140E+00
DAV:   3    -0.191665737478E+03    0.14209E-01   -0.78235E-02 12200   0.181E+00    0.879E-01
DAV:   4    -0.191660933121E+03    0.48044E-02   -0.26216E-02 12040   0.977E-01    0.598E-01
DAV:   5    -0.191658731814E+03    0.22013E-02   -0.15056E-02 10880   0.855E-01    0.444E-01
DAV:   6    -0.191657374377E+03    0.13574E-02   -0.80006E-03 12400   0.522E-01    0.333E-01
DAV:   7    -0.191657247639E+03    0.12674E-03   -0.60477E-03  9920   0.478E-01    0.305E-01
DAV:   8    -0.191656312223E+03    0.93542E-03   -0.20280E-03  9680   0.255E-01    0.466E-02
DAV:   9    -0.191656312563E+03   -0.33929E-06   -0.15343E-04  6360   0.465E-02
  43 F= -.19165631E+03 E0= -.19154938E+03  d E =0.105437E+00
       N       E                     dE             d eps       ncg     rms          rms(c)
DAV:   1    -0.191870281086E+03   -0.21397E+00   -0.33499E+01  8160   0.124E+01    0.123E+00
DAV:   2    -0.191937144635E+03   -0.66864E-01   -0.83765E-01 12320   0.332E+00    0.185E+00
DAV:   3    -0.191920088827E+03    0.17056E-01   -0.17293E-01 12160   0.289E+00    0.135E+00
DAV:   4    -0.191907926239E+03    0.12163E-01   -0.72124E-02 12280   0.174E+00    0.116E+00
DAV:   5    -0.191898043716E+03    0.98825E-02   -0.45123E-02 11040   0.151E+00    0.794E-01
DAV:   6    -0.191892848531E+03    0.51952E-02   -0.20475E-02 12480   0.810E-01    0.323E-01
DAV:   7    -0.191893181027E+03   -0.33250E-03   -0.85982E-03 11720   0.580E-01    0.469E-01
DAV:   8    -0.191891055725E+03    0.21253E-02   -0.41102E-03 11040   0.439E-01    0.927E-02
DAV:   9    -0.191890976196E+03    0.79529E-04   -0.43453E-04  9320   0.871E-02
  44 F= -.19189098E+03 E0= -.19179674E+03  d E =-.234664E+00
       N       E                     dE             d eps       ncg     rms          rms(c)
DAV:   1    -0.191972946449E+03   -0.81891E-01   -0.46781E+00  8160   0.457E+00    0.411E-01
DAV:   2    -0.191983417754E+03   -0.10471E-01   -0.11009E-01 11840   0.114E+00    0.750E-01
DAV:   3    -0.191980561437E+03    0.28563E-02   -0.24140E-02 12200   0.102E+00    0.523E-01
DAV:   4    -0.191978364009E+03    0.21974E-02   -0.65154E-03 11200   0.512E-01    0.271E-01
DAV:   5    -0.191977985393E+03    0.37862E-03   -0.33215E-03 11600   0.446E-01    0.235E-01
DAV:   6    -0.191977683347E+03    0.30205E-03   -0.24571E-03 12200   0.304E-01    0.150E-01
DAV:   7    -0.191977655066E+03    0.28280E-04   -0.12371E-03 10680   0.246E-01    0.172E-01
DAV:   8    -0.191977354271E+03    0.30080E-03   -0.50674E-04  8440   0.168E-01    0.295E-02
DAV:   9    -0.191977355718E+03   -0.14474E-05   -0.51726E-05  5840   0.317E-02
  45 F= -.19197736E+03 E0= -.19188761E+03  d E =-.863795E-01
       N       E                     dE             d eps       ncg     rms          rms(c)
DAV:   1    -0.192115960230E+03   -0.13861E+00   -0.18000E+01  8160   0.906E+00    0.921E-01
DAV:   2    -0.192163711112E+03   -0.47751E-01   -0.51985E-01 11760   0.259E+00    0.165E+00
DAV:   3    -0.192148781814E+03    0.14929E-01   -0.11006E-01 12320   0.230E+00    0.109E+00
DAV:   4    -0.192139359039E+03    0.94228E-02   -0.33880E-02 12360   0.123E+00    0.697E-01
DAV:   5    -0.192135507842E+03    0.38512E-02   -0.18639E-02 11400   0.106E+00    0.512E-01
DAV:   6    -0.192134484912E+03    0.10229E-02   -0.13854E-02 12400   0.706E-01    0.416E-01
DAV:   7    -0.192133679125E+03    0.80579E-03   -0.65590E-03 12600   0.630E-01    0.351E-01
DAV:   8    -0.192132242014E+03    0.14371E-02   -0.22134E-03 10920   0.348E-01    0.613E-02
DAV:   9    -0.192132212021E+03    0.29993E-04   -0.28382E-04  8040   0.634E-02
  46 F= -.19213221E+03 E0= -.19204761E+03  d E =-.154856E+00
       N       E                     dE             d eps       ncg     rms          rms(c)
DAV:   1    -0.192227531210E+03   -0.95289E-01   -0.23415E+01  8160   0.103E+01    0.105E+00
DAV:   2    -0.192300890826E+03   -0.73360E-01   -0.77342E-01 11600   0.289E+00    0.164E+00
DAV:   3    -0.192287636570E+03    0.13254E-01   -0.13507E-01 11920   0.266E+00    0.138E+00
DAV:   4    -0.192269452646E+03    0.18184E-01   -0.41455E-02 12480   0.141E+00    0.568E-01
DAV:   5    -0.192268835505E+03    0.61714E-03   -0.15891E-02 11920   0.960E-01    0.592E-01
DAV:   6    -0.192267019633E+03    0.18159E-02   -0.12871E-02 12720   0.827E-01    0.436E-01
DAV:   7    -0.192266101579E+03    0.91805E-03   -0.82756E-03 12280   0.639E-01    0.359E-01
DAV:   8    -0.192264592625E+03    0.15090E-02   -0.27143E-03 10680   0.396E-01    0.769E-02
DAV:   9    -0.192264523118E+03    0.69507E-04   -0.38825E-04  9120   0.849E-02
  47 F= -.19226452E+03 E0= -.19218162E+03  d E =-.132311E+00
       N       E                     dE             d eps       ncg     rms          rms(c)
DAV:   1    -0.192271708469E+03   -0.71158E-02   -0.58840E-01  8160   0.176E+00    0.367E-01
DAV:   2    -0.192271618066E+03    0.90402E-04   -0.27344E-02 11480   0.851E-01    0.529E-01
DAV:   3    -0.192269189601E+03    0.24285E-02   -0.10027E-02 11440   0.841E-01    0.305E-01
DAV:   4    -0.192267884089E+03    0.13055E-02   -0.38063E-03 11720   0.422E-01    0.198E-01
DAV:   5    -0.192268033318E+03   -0.14923E-03   -0.36176E-03 11760   0.368E-01    0.287E-01
DAV:   6    -0.192267200009E+03    0.83331E-03   -0.19001E-03 10760   0.314E-01    0.831E-02
DAV:   7    -0.192267131112E+03    0.68897E-04   -0.24859E-04  7800   0.844E-02
  48 F= -.19226713E+03 E0= -.19218353E+03  d E =-.260799E-02
       N       E                     dE             d eps       ncg     rms          rms(c)
DAV:   1    -0.192295154154E+03   -0.27954E-01   -0.20649E+00  8160   0.304E+00    0.344E-01
DAV:   2    -0.192303261825E+03   -0.81077E-02   -0.78782E-02 11240   0.105E+00    0.599E-01
DAV:   3    -0.192300384640E+03    0.28772E-02   -0.15607E-02 12160   0.905E-01    0.377E-01
DAV:   4    -0.192299493729E+03    0.89091E-03   -0.46190E-03 11840   0.481E-01    0.279E-01
DAV:   5    -0.192298806528E+03    0.68720E-03   -0.20869E-03 10240   0.357E-01    0.152E-01
DAV:   6    -0.192298767060E+03    0.39468E-04   -0.11170E-03 11360   0.211E-01    0.128E-01
DAV:   7    -0.192298747952E+03    0.19109E-04   -0.87233E-04 10520   0.218E-01
  49 F= -.19229875E+03 E0= -.19221516E+03  d E =-.316168E-01
       N       E                     dE             d eps       ncg     rms          rms(c)
DAV:   1    -0.192316812255E+03   -0.18045E-01   -0.92860E-01  8160   0.209E+00    0.290E-01
DAV:   2    -0.192318970746E+03   -0.21585E-02   -0.39608E-02 11280   0.577E-01    0.311E-01
DAV:   3    -0.192319779211E+03   -0.80847E-03   -0.90714E-03 12160   0.669E-01    0.454E-01
DAV:   4    -0.192317759454E+03    0.20198E-02   -0.42437E-03 11280   0.481E-01    0.153E-01
DAV:   5    -0.192317544421E+03    0.21503E-03   -0.12040E-03 10280   0.201E-01    0.129E-01
DAV:   6    -0.192317572351E+03   -0.27930E-04   -0.93502E-04 10800   0.240E-01
  50 F= -.19231757E+03 E0= -.19223323E+03  d E =-.188244E-01
       N       E                     dE             d eps       ncg     rms          rms(c)
DAV:   1    -0.192342050446E+03   -0.24506E-01   -0.38523E+00  8160   0.421E+00    0.526E-01
DAV:   2    -0.192359776153E+03   -0.17726E-01   -0.14825E-01 11920   0.151E+00    0.993E-01
DAV:   3    -0.192350450846E+03    0.93253E-02   -0.30856E-02 11960   0.141E+00    0.517E-01
DAV:   4    -0.192348341250E+03    0.21096E-02   -0.77392E-03 12200   0.623E-01    0.337E-01
DAV:   5    -0.192347208838E+03    0.11324E-02   -0.42360E-03 11160   0.500E-01    0.214E-01
DAV:   6    -0.192347083108E+03    0.12573E-03   -0.23048E-03 11920   0.333E-01    0.164E-01
DAV:   7    -0.192346871802E+03    0.21131E-03   -0.14433E-03 10720   0.246E-01    0.153E-01
DAV:   8    -0.192346633432E+03    0.23837E-03   -0.51801E-04  8720   0.162E-01    0.363E-02
DAV:   9    -0.192346624057E+03    0.93745E-05   -0.55310E-05  6000   0.393E-02
  51 F= -.19234662E+03 E0= -.19226191E+03  d E =-.290517E-01
       N       E                     dE             d eps       ncg     rms          rms(c)
DAV:   1    -0.192359480698E+03   -0.12847E-01   -0.26529E+00  8160   0.349E+00    0.412E-01
DAV:   2    -0.192367996093E+03   -0.85154E-02   -0.10937E-01 11360   0.958E-01    0.479E-01
DAV:   3    -0.192368396238E+03   -0.40014E-03   -0.20049E-02 12400   0.969E-01    0.570E-01
DAV:   4    -0.192365338579E+03    0.30577E-02   -0.78787E-03 12040   0.650E-01    0.263E-01
DAV:   5    -0.192364763492E+03    0.57509E-03   -0.24922E-03 10640   0.375E-01    0.189E-01
DAV:   6    -0.192364639516E+03    0.12398E-03   -0.15634E-03 12000   0.294E-01    0.135E-01
DAV:   7    -0.192364377393E+03    0.26212E-03   -0.71437E-04 10480   0.160E-01    0.595E-02
DAV:   8    -0.192364354036E+03    0.23357E-04   -0.14104E-04  7080   0.971E-02
  52 F= -.19236435E+03 E0= -.19227939E+03  d E =-.177300E-01
       N       E                     dE             d eps       ncg     rms          rms(c)
DAV:   1    -0.192370574033E+03   -0.61966E-02   -0.33372E+00  8160   0.393E+00    0.471E-01
DAV:   2    -0.192382679136E+03   -0.12105E-01   -0.12871E-01 11560   0.120E+00    0.717E-01
DAV:   3    -0.192379618034E+03    0.30611E-02   -0.23209E-02 12120   0.120E+00    0.556E-01
DAV:   4    -0.192376398071E+03    0.32200E-02   -0.64628E-03 12120   0.604E-01    0.231E-01
DAV:   5    -0.192376040079E+03    0.35799E-03   -0.28478E-03 11200   0.388E-01    0.205E-01
DAV:   6    -0.192375853705E+03    0.18637E-03   -0.18126E-03 12000   0.340E-01    0.146E-01
DAV:   7    -0.192375510819E+03    0.34289E-03   -0.74323E-04 10400   0.174E-01    0.391E-02
DAV:   8    -0.192375496452E+03    0.14368E-04   -0.10653E-04  6880   0.631E-02
  53 F= -.19237550E+03 E0= -.19229031E+03  d E =-.111424E-01
       N       E                     dE             d eps       ncg     rms          rms(c)
DAV:   1    -0.192377401994E+03   -0.18912E-02   -0.24650E-01  8160   0.107E+00    0.124E-01
DAV:   2    -0.192378183234E+03   -0.78124E-03   -0.10032E-02 11200   0.293E-01    0.142E-01
DAV:   3    -0.192378324090E+03   -0.14086E-03   -0.17524E-03 11160   0.299E-01    0.191E-01
DAV:   4    -0.192377926642E+03    0.39745E-03   -0.66682E-04  8720   0.187E-01    0.497E-02
DAV:   5    -0.192377947257E+03   -0.20615E-04   -0.18725E-04  7080   0.108E-01
  54 F= -.19237795E+03 E0= -.19229297E+03  d E =-.245081E-02
       N       E                     dE             d eps       ncg     rms          rms(c)
DAV:   1    -0.192379313114E+03   -0.13865E-02   -0.17442E-01  8160   0.902E-01    0.103E-01
DAV:   2    -0.192379920072E+03   -0.60696E-03   -0.70619E-03 11040   0.258E-01    0.134E-01
DAV:   3    -0.192379915914E+03    0.41574E-05   -0.11152E-03 11000   0.250E-01    0.138E-01
DAV:   4    -0.192379709718E+03    0.20620E-03   -0.37280E-04  8200   0.146E-01    0.511E-02
DAV:   5    -0.192379719400E+03   -0.96826E-05   -0.13465E-04  6200   0.100E-01
  55 F= -.19237972E+03 E0= -.19229511E+03  d E =-.177214E-02
       N       E                     dE             d eps       ncg     rms          rms(c)
DAV:   1    -0.192379869148E+03   -0.15943E-03   -0.13755E+00  8160   0.252E+00    0.268E-01
DAV:   2    -0.192383892380E+03   -0.40232E-02   -0.53161E-02 11080   0.651E-01    0.247E-01
DAV:   3    -0.192385040465E+03   -0.11481E-02   -0.64784E-03 12440   0.615E-01    0.417E-01
DAV:   4    -0.192383022858E+03    0.20176E-02   -0.28723E-03 11800   0.436E-01    0.915E-02
DAV:   5    -0.192383084555E+03   -0.61697E-04   -0.78553E-04 10200   0.128E-01
  56 F= -.19238308E+03 E0= -.19229926E+03  d E =-.336515E-02
       N       E                     dE             d eps       ncg     rms          rms(c)
DAV:   1    -0.192382402421E+03    0.62044E-03   -0.10111E-01  8160   0.703E-01    0.144E-01
DAV:   2    -0.192386771961E+03   -0.43695E-02   -0.11674E-02 12160   0.724E-01    0.623E-01
DAV:   3    -0.192382497196E+03    0.42748E-02   -0.63289E-03 10760   0.623E-01    0.626E-02
DAV:   4    -0.192382501645E+03   -0.44486E-05   -0.26705E-04  8640   0.105E-01
  57 F= -.19238250E+03 E0= -.19229856E+03  d E =0.582910E-03
