<?xml version="1.0" encoding="ISO-8859-1"?>
<modeling>
 <generator>
  <i name="program" type="string">vasp </i>
  <i name="version" type="string">5.4.1  </i>
  <i name="subversion" type="string">05Feb16 (build Jul 05 2020 17:13:04) complex                          parallel </i>
  <i name="platform" type="string">IFC91_ompi </i>
  <i name="date" type="string">2024 04 21 </i>
  <i name="time" type="string">04:42:26 </i>
 </generator>
 <incar>
  <i type="int" name="ISTART">     0</i>
  <i type="string" name="PREC">normal</i>
  <i type="string" name="ALGO"> Normal</i>
  <i type="int" name="ISPIN">     1</i>
  <i type="int" name="ICHARG">     2</i>
  <i type="int" name="IBRION">     1</i>
  <i type="int" name="NSW">   100</i>
  <i type="int" name="ISIF">     3</i>
  <i type="int" name="ISYM">     0</i>
  <i name="SYMPREC">      0.00000001</i>
  <i name="POTIM">      0.50000000</i>
  <i type="logical" name="LREAL"> F  </i>
  <i type="logical" name="LPLANE"> F  </i>
  <i type="int" name="ISMEAR">     0</i>
  <i type="logical" name="LWAVE"> F  </i>
  <i type="logical" name="LCHARG"> F  </i>
  <v type="int" name="KPOINT_BSE">    -1     0     0     0</v>
 </incar>
 <kpoints>
  <generation param="Gamma">
   <v type="int" name="divisions">       8        8        1 </v>
   <v name="usershift">      0.00000000       0.00000000       0.00000000 </v>
   <v name="genvec1">      0.12500000       0.00000000       0.00000000 </v>
   <v name="genvec2">     -0.00000000       0.12500000       0.00000000 </v>
   <v name="genvec3">      0.00000000       0.00000000       1.00000000 </v>
   <v name="shift">      0.00000000       0.00000000       0.00000000 </v>
  </generation>
  <varray name="kpointlist" >
   <v>       0.00000000       0.00000000       0.00000000 </v>
   <v>       0.12500000       0.00000000       0.00000000 </v>
   <v>       0.25000000       0.00000000       0.00000000 </v>
   <v>       0.37500000       0.00000000       0.00000000 </v>
   <v>       0.50000000       0.00000000       0.00000000 </v>
   <v>       0.00000000       0.12500000       0.00000000 </v>
   <v>       0.12500000       0.12500000       0.00000000 </v>
   <v>       0.25000000       0.12500000       0.00000000 </v>
   <v>       0.37500000       0.12500000       0.00000000 </v>
   <v>       0.50000000       0.12500000       0.00000000 </v>
   <v>      -0.37500000       0.12500000       0.00000000 </v>
   <v>      -0.25000000       0.12500000       0.00000000 </v>
   <v>      -0.12500000       0.12500000       0.00000000 </v>
   <v>       0.00000000       0.25000000       0.00000000 </v>
   <v>       0.12500000       0.25000000       0.00000000 </v>
   <v>       0.25000000       0.25000000       0.00000000 </v>
   <v>       0.37500000       0.25000000       0.00000000 </v>
   <v>       0.50000000       0.25000000       0.00000000 </v>
   <v>      -0.37500000       0.25000000       0.00000000 </v>
   <v>      -0.25000000       0.25000000       0.00000000 </v>
   <v>      -0.12500000       0.25000000       0.00000000 </v>
   <v>      -0.00000000       0.37500000       0.00000000 </v>
   <v>       0.12500000       0.37500000       0.00000000 </v>
   <v>       0.25000000       0.37500000       0.00000000 </v>
   <v>       0.37500000       0.37500000       0.00000000 </v>
   <v>       0.50000000       0.37500000       0.00000000 </v>
   <v>      -0.37500000       0.37500000       0.00000000 </v>
   <v>      -0.25000000       0.37500000       0.00000000 </v>
   <v>      -0.12500000       0.37500000       0.00000000 </v>
   <v>       0.00000000       0.50000000       0.00000000 </v>
   <v>       0.12500000       0.50000000       0.00000000 </v>
   <v>       0.25000000       0.50000000       0.00000000 </v>
   <v>       0.37500000       0.50000000       0.00000000 </v>
   <v>       0.50000000       0.50000000       0.00000000 </v>
  </varray>
  <varray name="weights" >
   <v>       0.01562500 </v>
   <v>       0.03125000 </v>
   <v>       0.03125000 </v>
   <v>       0.03125000 </v>
   <v>       0.01562500 </v>
   <v>       0.03125000 </v>
   <v>       0.03125000 </v>
   <v>       0.03125000 </v>
   <v>       0.03125000 </v>
   <v>       0.03125000 </v>
   <v>       0.03125000 </v>
   <v>       0.03125000 </v>
   <v>       0.03125000 </v>
   <v>       0.03125000 </v>
   <v>       0.03125000 </v>
   <v>       0.03125000 </v>
   <v>       0.03125000 </v>
   <v>       0.03125000 </v>
   <v>       0.03125000 </v>
   <v>       0.03125000 </v>
   <v>       0.03125000 </v>
   <v>       0.03125000 </v>
   <v>       0.03125000 </v>
   <v>       0.03125000 </v>
   <v>       0.03125000 </v>
   <v>       0.03125000 </v>
   <v>       0.03125000 </v>
   <v>       0.03125000 </v>
   <v>       0.03125000 </v>
   <v>       0.01562500 </v>
   <v>       0.03125000 </v>
   <v>       0.03125000 </v>
   <v>       0.03125000 </v>
   <v>       0.01562500 </v>
  </varray>
 </kpoints>
 <parameters>
  <separator name="general" >
   <i type="string" name="SYSTEM">unknown system</i>
   <i type="logical" name="LCOMPAT"> F  </i>
  </separator>
  <separator name="electronic" >
   <i type="string" name="PREC">normal</i>
   <i name="ENMAX">    280.00000000</i>
   <i name="ENAUG">    373.43800000</i>
   <i name="EDIFF">      0.00010000</i>
   <i type="int" name="IALGO">    38</i>
   <i type="int" name="IWAVPR">    11</i>
   <i type="int" name="NBANDS">   120</i>
   <i name="NELECT">    159.00000000</i>
   <i type="int" name="TURBO">     0</i>
   <i type="int" name="IRESTART">     0</i>
   <i type="int" name="NREBOOT">     0</i>
   <i type="int" name="NMIN">     0</i>
   <i name="EREF">      0.00000000</i>
   <separator name="electronic smearing" >
    <i type="int" name="ISMEAR">     0</i>
    <i name="SIGMA">      0.20000000</i>
    <i name="KSPACING">      0.50000000</i>
    <i type="logical" name="KGAMMA"> T  </i>
   </separator>
   <separator name="electronic projectors" >
    <i type="logical" name="LREAL"> F  </i>
    <v name="ROPT">      0.00000000      0.00000000      0.00000000      0.00000000</v>
    <i type="int" name="LMAXPAW">  -100</i>
    <i type="int" name="LMAXMIX">     2</i>
    <i type="logical" name="NLSPLINE"> F  </i>
   </separator>
   <separator name="electronic startup" >
    <i type="int" name="ISTART">     0</i>
    <i type="int" name="ICHARG">     2</i>
    <i type="int" name="INIWAV">     1</i>
   </separator>
   <separator name="electronic spin" >
    <i type="int" name="ISPIN">     1</i>
    <i type="logical" name="LNONCOLLINEAR"> F  </i>
    <v name="MAGMOM">      1.00000000      1.00000000      1.00000000      1.00000000      1.00000000      1.00000000      1.00000000      1.00000000      1.00000000      1.00000000      1.00000000      1.00000000      1.00000000      1.00000000      1.00000000      1.00000000      1.00000000      1.00000000      1.00000000      1.00000000
      1.00000000      1.00000000      1.00000000      1.00000000      1.00000000      1.00000000      1.00000000</v>
    <i name="NUPDOWN">     -1.00000000</i>
    <i type="logical" name="LSORBIT"> F  </i>
    <v name="SAXIS">      0.00000000      0.00000000      1.00000000</v>
    <i type="logical" name="LSPIRAL"> F  </i>
    <v name="QSPIRAL">      0.00000000      0.00000000      0.00000000</v>
    <i type="logical" name="LZEROZ"> F  </i>
   </separator>
   <separator name="electronic exchange-correlation" >
    <i type="logical" name="LASPH"> F  </i>
    <i type="logical" name="LMETAGGA"> F  </i>
   </separator>
   <separator name="electronic convergence" >
    <i type="int" name="NELM">    60</i>
    <i type="int" name="NELMDL">    -5</i>
    <i type="int" name="NELMIN">     2</i>
    <i name="ENINI">    280.00000000</i>
    <separator name="electronic convergence detail" >
     <i type="logical" name="LDIAG"> T  </i>
     <i type="logical" name="LSUBROT"> F  </i>
     <i name="WEIMIN">      0.00100000</i>
     <i name="EBREAK">      0.00000021</i>
     <i name="DEPER">      0.30000000</i>
     <i type="int" name="NRMM">     4</i>
     <i name="TIME">      0.40000000</i>
    </separator>
   </separator>
   <separator name="electronic mixer" >
    <i name="AMIX">      0.40000000</i>
    <i name="BMIX">      1.00000000</i>
    <i name="AMIN">      0.10000000</i>
    <i name="AMIX_MAG">      1.60000000</i>
    <i name="BMIX_MAG">      1.00000000</i>
    <separator name="electronic mixer details" >
     <i type="int" name="IMIX">     4</i>
     <i type="logical" name="MIXFIRST"> F  </i>
     <i type="int" name="MAXMIX">   -45</i>
     <i name="WC">    100.00000000</i>
     <i type="int" name="INIMIX">     1</i>
     <i type="int" name="MIXPRE">     1</i>
     <i type="int" name="MREMOVE">     5</i>
    </separator>
   </separator>
   <separator name="electronic dipolcorrection" >
    <i type="logical" name="LDIPOL"> F  </i>
    <i type="logical" name="LMONO"> F  </i>
    <i type="int" name="IDIPOL">     0</i>
    <i name="EPSILON">      1.00000000</i>
    <v name="DIPOL">   -100.00000000   -100.00000000   -100.00000000</v>
    <i name="EFIELD">      0.00000000</i>
   </separator>
  </separator>
  <separator name="grids" >
   <i type="int" name="NGX">    42</i>
   <i type="int" name="NGY">    42</i>
   <i type="int" name="NGZ">   126</i>
   <i type="int" name="NGXF">    84</i>
   <i type="int" name="NGYF">    84</i>
   <i type="int" name="NGZF">   252</i>
   <i type="logical" name="ADDGRID"> F  </i>
  </separator>
  <separator name="ionic" >
   <i type="int" name="NSW">   100</i>
   <i type="int" name="IBRION">     1</i>
   <i type="int" name="ISIF">     3</i>
   <i name="PSTRESS">      0.00000000</i>
   <i name="EDIFFG">      0.00100000</i>
   <i type="int" name="NFREE">     0</i>
   <i name="POTIM">      0.50000000</i>
   <i name="SMASS">     -3.00000000</i>
   <i name="SCALEE">      1.00000000</i>
  </separator>
  <separator name="ionic md" >
   <i name="TEBEG">      0.00010000</i>
   <i name="TEEND">      0.00010000</i>
   <i type="int" name="NBLOCK">     1</i>
   <i type="int" name="KBLOCK">   100</i>
   <i type="int" name="NPACO">   256</i>
   <i name="APACO">     16.00000000</i>
  </separator>
  <separator name="symmetry" >
   <i type="int" name="ISYM">     0</i>
   <i name="SYMPREC">      0.00000001</i>
  </separator>
  <separator name="dos" >
   <i type="logical" name="LORBIT"> F  </i>
   <v name="RWIGS">     -1.00000000     -1.00000000     -1.00000000     -1.00000000</v>
   <i type="int" name="NEDOS">   301</i>
   <i name="EMIN">     10.00000000</i>
   <i name="EMAX">    -10.00000000</i>
   <i name="EFERMI">      0.00000000</i>
  </separator>
  <separator name="writing" >
   <i type="int" name="NWRITE">     2</i>
   <i type="logical" name="LWAVE"> F  </i>
   <i type="logical" name="LCHARG"> F  </i>
   <i type="logical" name="LPARD"> F  </i>
   <i type="logical" name="LVTOT"> F  </i>
   <i type="logical" name="LVHAR"> F  </i>
   <i type="logical" name="LELF"> F  </i>
   <i type="logical" name="LOPTICS"> F  </i>
   <v name="STM">      0.00000000      0.00000000      0.00000000      0.00000000      0.00000000      0.00000000      0.00000000</v>
  </separator>
  <separator name="performance" >
   <i type="int" name="NPAR">    40</i>
   <i type="int" name="NSIM">     4</i>
   <i type="int" name="NBLK">    -1</i>
   <i type="logical" name="LPLANE"> F  </i>
   <i type="logical" name="LSCALAPACK"> T  </i>
   <i type="logical" name="LSCAAWARE"> F  </i>
   <i type="logical" name="LSCALU"> F  </i>
   <i type="logical" name="LASYNC"> F  </i>
   <i type="logical" name="LORBITALREAL"> F  </i>
  </separator>
  <separator name="miscellaneous" >
   <i type="int" name="IDIOT">     3</i>
   <i type="logical" name="LMUSIC"> F  </i>
   <v name="POMASS">     50.94100000     95.94000000    183.85000000     32.06600000</v>
   <v name="DARWINR">      0.00000000      0.00000000      0.00000000      0.00000000</v>
   <v name="DARWINV">      1.00000000      1.00000000      1.00000000      1.00000000</v>
   <i type="logical" name="LCORR"> T  </i>
  </separator>
  <i type="logical" name="GGA_COMPAT"> T  </i>
  <i type="logical" name="LBERRY"> F  </i>
  <i type="int" name="ICORELEVEL">     0</i>
  <i type="logical" name="LDAU"> F  </i>
  <i type="int" name="I_CONSTRAINED_M">     0</i>
  <separator name="electronic exchange-correlation" >
   <i type="string" name="GGA">--</i>
   <i type="int" name="VOSKOWN">     0</i>
   <i type="logical" name="LHFCALC"> F  </i>
   <i type="string" name="PRECFOCK"></i>
   <i type="logical" name="LSYMGRAD"> F  </i>
   <i type="logical" name="LHFONE"> F  </i>
   <i type="logical" name="LRHFCALC"> F  </i>
   <i type="logical" name="LTHOMAS"> F  </i>
   <i type="logical" name="LMODELHF"> F  </i>
   <i name="ENCUT4O">     -1.00000000</i>
   <i type="int" name="EXXOEP">     0</i>
   <i type="int" name="FOURORBIT">     0</i>
   <i name="AEXX">      0.00000000</i>
   <i name="HFALPHA">      0.00000000</i>
   <i name="MCALPHA">      0.00000000</i>
   <i name="ALDAX">      1.00000000</i>
   <i name="AGGAX">      1.00000000</i>
   <i name="ALDAC">      1.00000000</i>
   <i name="AGGAC">      1.00000000</i>
   <i type="int" name="NKREDX">     1</i>
   <i type="int" name="NKREDY">     1</i>
   <i type="int" name="NKREDZ">     1</i>
   <i type="logical" name="SHIFTRED"> F  </i>
   <i type="logical" name="ODDONLY"> F  </i>
   <i type="logical" name="EVENONLY"> F  </i>
   <i type="int" name="LMAXFOCK">     0</i>
   <i type="int" name="NMAXFOCKAE">     0</i>
   <i type="logical" name="LFOCKAEDFT"> F  </i>
   <i name="HFSCREEN">      0.00000000</i>
   <i name="HFSCREENC">      0.00000000</i>
   <i type="int" name="NBANDSGWLOW">     0</i>
  </separator>
  <separator name="vdW DFT" >
   <i type="logical" name="LUSE_VDW"> F  </i>
   <i name="Zab_VDW">     -0.84910000</i>
   <i name="PARAM1">      0.12340000</i>
   <i name="PARAM2">      1.00000000</i>
   <i name="PARAM3">      0.00000000</i>
  </separator>
  <separator name="model GW" >
   <i type="int" name="MODEL_GW">     0</i>
   <i name="MODEL_EPS0">     58.26239943</i>
   <i name="MODEL_ALPHA">      1.00000000</i>
  </separator>
  <separator name="linear response parameters" >
   <i type="logical" name="LEPSILON"> F  </i>
   <i type="logical" name="LRPA"> F  </i>
   <i type="logical" name="LNABLA"> F  </i>
   <i type="logical" name="LVEL"> F  </i>
   <i type="int" name="KINTER">     0</i>
   <i name="CSHIFT">      0.10000000</i>
   <i name="OMEGAMAX">     -1.00000000</i>
   <i name="DEG_THRESHOLD">      0.00200000</i>
  </separator>
  <separator name="orbital magnetization" >
   <i type="logical" name="NUCIND"> F  </i>
   <v name="MAGPOS">      0.00000000      0.00000000      0.00000000</v>
   <i type="logical" name="LNICSALL"> T  </i>
   <i type="logical" name="ORBITALMAG"> F  </i>
   <i type="logical" name="LMAGBLOCH"> F  </i>
   <i type="logical" name="LCHIMAG"> F  </i>
   <i type="logical" name="LGAUGE"> T  </i>
   <i type="int" name="MAGATOM">     0</i>
   <v name="MAGDIPOL">      0.00000000      0.00000000      0.00000000</v>
   <v name="AVECCONST">      0.00000000      0.00000000      0.00000000</v>
  </separator>
  <separator name="response functions" >
   <i type="logical" name="LADDER"> F  </i>
   <i type="logical" name="LFXC"> F  </i>
   <i type="logical" name="LHARTREE"> T  </i>
   <i type="int" name="IBSE">     0</i>
   <v type="int" name="KPOINT">    -1     0     0     0</v>
   <i type="logical" name="LTCTE"> F  </i>
   <i type="logical" name="LTETE"> F  </i>
   <i type="logical" name="LTRIPLET"> F  </i>
   <i type="logical" name="LFXCEPS"> F  </i>
   <i type="logical" name="LFXHEG"> F  </i>
   <i type="int" name="NATURALO">     0</i>
   <i type="logical" name="L2ORDER"> F  </i>
   <i type="logical" name="LUSEW"> F  </i>
   <i name="ENCUTGW">     -2.00000000</i>
   <i name="ENCUTGWSOFT">     -2.00000000</i>
   <i name="ENCUTLF">     -1.00000000</i>
   <i type="int" name="LMAXMP2">    -1</i>
   <i name="SCISSOR">      0.00000000</i>
   <i type="int" name="NOMEGA">     0</i>
   <i type="int" name="NOMEGAR">     0</i>
   <i type="int" name="NBANDSGW">    -1</i>
   <i type="int" name="NBANDSO">    -1</i>
   <i type="int" name="NBANDSV">    -1</i>
   <i type="int" name="NELM">     1</i>
   <i type="int" name="NELMHF">     1</i>
   <i type="int" name="DIM">     3</i>
   <i type="int" name="ANTIRES">     0</i>
   <i name="OMEGAMAX">    -30.00000000</i>
   <i name="OMEGAMIN">    -30.00000000</i>
   <i name="OMEGATL">   -200.00000000</i>
   <i type="int" name="OMEGAGRID">     0</i>
   <i name="CSHIFT">     -0.10000000</i>
   <i type="logical" name="SELFENERGY"> F  </i>
   <i type="logical" name="LSPECTRAL"> F  </i>
   <i type="logical" name="LSPECTRALGW"> F  </i>
   <i type="logical" name="LSINGLES"> F  </i>
   <i type="logical" name="LFERMIGW"> F  </i>
   <i type="logical" name="ODDONLYGW"> F  </i>
   <i type="logical" name="EVENONLYGW"> F  </i>
   <i type="int" name="NKREDLFX">     1</i>
   <i type="int" name="NKREDLFY">     1</i>
   <i type="int" name="NKREDLFZ">     1</i>
   <i type="int" name="MAXMEM">  1800</i>
   <i type="int" name="TELESCOPE">     0</i>
   <i type="int" name="TAUPAR">     1</i>
   <i type="int" name="OMEGAPAR">    -1</i>
   <i name="LAMBDA">      1.00000000</i>
  </separator>
  <separator name="External order field" >
   <i name="OFIELD_KAPPA">      0.00000000</i>
   <v name="OFIELD_K">      0.00000000      0.00000000      0.00000000</v>
   <i name="OFIELD_Q6_NEAR">      0.00000000</i>
   <i name="OFIELD_Q6_FAR">      0.00000000</i>
   <i name="OFIELD_A">      0.00000000</i>
  </separator>
 </parameters>
 <atominfo>
  <atoms>      27 </atoms>
  <types>       4 </types>
  <array name="atoms" >
   <dimension dim="1">ion</dimension>
   <field type="string">element</field>
   <field type="int">atomtype</field>
   <set>
    <rc><c>V </c><c>   1</c></rc>
    <rc><c>V </c><c>   1</c></rc>
    <rc><c>V </c><c>   1</c></rc>
    <rc><c>Mo</c><c>   2</c></rc>
    <rc><c>Mo</c><c>   2</c></rc>
    <rc><c>Mo</c><c>   2</c></rc>
    <rc><c>W </c><c>   3</c></rc>
    <rc><c>W </c><c>   3</c></rc>
    <rc><c>W </c><c>   3</c></rc>
    <rc><c>S </c><c>   4</c></rc>
    <rc><c>S </c><c>   4</c></rc>
    <rc><c>S </c><c>   4</c></rc>
    <rc><c>S </c><c>   4</c></rc>
    <rc><c>S </c><c>   4</c></rc>
    <rc><c>S </c><c>   4</c></rc>
    <rc><c>S </c><c>   4</c></rc>
    <rc><c>S </c><c>   4</c></rc>
    <rc><c>S </c><c>   4</c></rc>
    <rc><c>S </c><c>   4</c></rc>
    <rc><c>S </c><c>   4</c></rc>
    <rc><c>S </c><c>   4</c></rc>
    <rc><c>S </c><c>   4</c></rc>
    <rc><c>S </c><c>   4</c></rc>
    <rc><c>S </c><c>   4</c></rc>
    <rc><c>S </c><c>   4</c></rc>
    <rc><c>S </c><c>   4</c></rc>
    <rc><c>S </c><c>   4</c></rc>
   </set>
  </array>
  <array name="atomtypes" >
   <dimension dim="1">type</dimension>
   <field type="int">atomspertype</field>
   <field type="string">element</field>
   <field>mass</field>
   <field>valence</field>
   <field type="string">pseudopotential</field>
   <set>
    <rc><c>   3</c><c>V </c><c>     50.94100000</c><c>      5.00000000</c><c> PAW_PBE V 08Apr2002                    </c></rc>
    <rc><c>   3</c><c>Mo</c><c>     95.94000000</c><c>      6.00000000</c><c> PAW_PBE Mo 08Apr2002                   </c></rc>
    <rc><c>   3</c><c>W </c><c>    183.85000000</c><c>      6.00000000</c><c> PAW_PBE W 08Apr2002                    </c></rc>
    <rc><c>  18</c><c>S </c><c>     32.06600000</c><c>      6.00000000</c><c>  PAW_PBE S 17Jan2003                   </c></rc>
   </set>
  </array>
 </atominfo>
 <structure name="initialpos" >
  <crystal>
   <varray name="basis" >
    <v>       8.66999996       5.03999989       0.00000000 </v>
    <v>      -8.66999982       5.04000013       0.00000000 </v>
    <v>       0.00000000       0.00000000      30.00000000 </v>
   </varray>
   <i name="volume">   2621.80797419 </i>
   <varray name="rec_basis" >
    <v>       0.05767013       0.09920635       0.00000000 </v>
    <v>      -0.05767013       0.09920635       0.00000000 </v>
    <v>       0.00000000       0.00000000       0.03333333 </v>
   </varray>
  </crystal>
  <varray name="positions" >
   <v>       0.66666669       0.66666669       0.00000000 </v>
   <v>       0.00000000       0.66666669       0.00000000 </v>
   <v>       0.00000000       0.00000000       0.00000000 </v>
   <v>       0.66666669       0.00000000       0.00000000 </v>
   <v>       0.33333334       0.00000000       0.00000000 </v>
   <v>       1.00000000       0.33333334       0.00000000 </v>
   <v>       0.33333334       0.33333334       0.00000000 </v>
   <v>       0.33333334       0.66666669       0.00000000 </v>
   <v>       0.66666669       0.33333334       0.00000000 </v>
   <v>       0.11068511       0.22244981       0.95539999 </v>
   <v>       0.22244981       0.11068511       0.04460000 </v>
   <v>       0.11068511       0.55578315       0.95539999 </v>
   <v>       0.22244981       0.44401845       0.04460000 </v>
   <v>       0.11068511       0.88911647       0.95539999 </v>
   <v>       0.22244981       0.77735180       0.04460000 </v>
   <v>       0.44401845       0.22244981       0.95539999 </v>
   <v>       0.55578315       0.11068511       0.04460000 </v>
   <v>       0.44401845       0.55578315       0.95539999 </v>
   <v>       0.55578315       0.44401845       0.04460000 </v>
   <v>       0.44401845       0.88911647       0.95539999 </v>
   <v>       0.55578315       0.77735180       0.04460000 </v>
   <v>       0.77735180       0.22244981       0.95539999 </v>
   <v>       0.88911647       0.11068511       0.04460000 </v>
   <v>       0.77735180       0.55578315       0.95539999 </v>
   <v>       0.88911647       0.44401845       0.04460000 </v>
   <v>       0.77735180       0.88911647       0.95539999 </v>
   <v>       0.88911647       0.77735180       0.04460000 </v>
  </varray>
 </structure>
 <calculation>
  <scstep>
   <time name="dav">   22.80   22.86</time>
   <time name="total">   22.85   22.91</time>
   <energy>
    <i name="alphaZ">     81.65567618 </i>
    <i name="ewald">  41891.17176702 </i>
    <i name="hartreedc"> -47723.81645260 </i>
    <i name="XCdc">   -242.92502640 </i>
    <i name="pawpsdc">   3467.42045192 </i>
    <i name="pawaedc">  -2871.19716117 </i>
    <i name="eentropy">     -0.54721712 </i>
    <i name="bandstr">   -237.67239980 </i>
    <i name="atom">   6761.44252427 </i>
    <i name="e_fr_energy">   1125.53216230 </i>
    <i name="e_wo_entrp">   1126.07937942 </i>
    <i name="e_0_energy">   1125.80577086 </i>
   </energy>
  </scstep>
  <scstep>
   <time name="dav">   29.51   29.58</time>
   <time name="total">   29.51   29.59</time>
   <energy>
    <i name="e_fr_energy">     -0.65727080 </i>
    <i name="e_wo_entrp">     -0.45070200 </i>
    <i name="e_0_energy">     -0.55398640 </i>
   </energy>
  </scstep>
  <scstep>
   <time name="dav">   28.80   28.87</time>
   <time name="total">   28.81   28.88</time>
   <energy>
    <i name="e_fr_energy">   -199.69658912 </i>
    <i name="e_wo_entrp">   -199.43173646 </i>
    <i name="e_0_energy">   -199.56416279 </i>
   </energy>
  </scstep>
  <scstep>
   <time name="dav">   32.29   32.37</time>
   <time name="total">   32.29   32.37</time>
   <energy>
    <i name="e_fr_energy">   -209.04236884 </i>
    <i name="e_wo_entrp">   -208.75049997 </i>
    <i name="e_0_energy">   -208.89643441 </i>
   </energy>
  </scstep>
  <scstep>
   <time name="dav">   29.56   29.64</time>
   <time name="total">   30.03   30.11</time>
   <energy>
    <i name="e_fr_energy">   -209.30109304 </i>
    <i name="e_wo_entrp">   -209.01151098 </i>
    <i name="e_0_energy">   -209.15630201 </i>
   </energy>
  </scstep>
  <scstep>
   <time name="dav">   31.88   31.96</time>
   <time name="total">   32.38   32.47</time>
   <energy>
    <i name="e_fr_energy">   -237.72590115 </i>
    <i name="e_wo_entrp">   -237.46505067 </i>
    <i name="e_0_energy">   -237.59547591 </i>
   </energy>
  </scstep>
  <scstep>
   <time name="dav">   34.52   34.61</time>
   <time name="total">   35.03   35.12</time>
   <energy>
    <i name="e_fr_energy">   -196.62623798 </i>
    <i name="e_wo_entrp">   -196.30073699 </i>
    <i name="e_0_energy">   -196.46348748 </i>
   </energy>
  </scstep>
  <scstep>
   <time name="dav">   31.02   31.09</time>
   <time name="total">   31.53   31.62</time>
   <energy>
    <i name="e_fr_energy">   -189.63664314 </i>
    <i name="e_wo_entrp">   -189.32992712 </i>
    <i name="e_0_energy">   -189.48328513 </i>
   </energy>
  </scstep>
  <scstep>
   <time name="dav">   33.48   33.56</time>
   <time name="total">   34.00   34.09</time>
   <energy>
    <i name="e_fr_energy">   -188.21738858 </i>
    <i name="e_wo_entrp">   -187.88779991 </i>
    <i name="e_0_energy">   -188.05259424 </i>
   </energy>
  </scstep>
  <scstep>
   <time name="dav">   34.13   34.21</time>
   <time name="total">   34.71   34.80</time>
   <energy>
    <i name="e_fr_energy">   -186.95193446 </i>
    <i name="e_wo_entrp">   -186.59914408 </i>
    <i name="e_0_energy">   -186.77553927 </i>
   </energy>
  </scstep>
  <scstep>
   <time name="dav">   34.64   34.72</time>
   <time name="total">   35.23   35.32</time>
   <energy>
    <i name="e_fr_energy">   -187.04250321 </i>
    <i name="e_wo_entrp">   -186.70268618 </i>
    <i name="e_0_energy">   -186.87259470 </i>
   </energy>
  </scstep>
  <scstep>
   <time name="dav">   32.59   32.67</time>
   <time name="total">   33.19   33.27</time>
   <energy>
    <i name="e_fr_energy">   -186.98435823 </i>
    <i name="e_wo_entrp">   -186.64607801 </i>
    <i name="e_0_energy">   -186.81521812 </i>
   </energy>
  </scstep>
  <scstep>
   <time name="dav">   33.98   34.07</time>
   <time name="total">   34.58   34.67</time>
   <energy>
    <i name="e_fr_energy">   -186.87745879 </i>
    <i name="e_wo_entrp">   -186.54143150 </i>
    <i name="e_0_energy">   -186.70944515 </i>
   </energy>
  </scstep>
  <scstep>
   <time name="dav">   33.11   33.19</time>
   <time name="total">   33.70   33.79</time>
   <energy>
    <i name="e_fr_energy">   -186.84351395 </i>
    <i name="e_wo_entrp">   -186.49832937 </i>
    <i name="e_0_energy">   -186.67092166 </i>
   </energy>
  </scstep>
  <scstep>
   <time name="dav">   32.41   32.49</time>
   <time name="total">   33.00   33.09</time>
   <energy>
    <i name="e_fr_energy">   -186.83934010 </i>
    <i name="e_wo_entrp">   -186.49424301 </i>
    <i name="e_0_energy">   -186.66679156 </i>
   </energy>
  </scstep>
  <scstep>
   <time name="dav">   33.46   33.54</time>
   <time name="total">   34.05   34.13</time>
   <energy>
    <i name="e_fr_energy">   -186.83940127 </i>
    <i name="e_wo_entrp">   -186.49493221 </i>
    <i name="e_0_energy">   -186.66716674 </i>
   </energy>
  </scstep>
  <scstep>
   <time name="dav">   32.18   32.26</time>
   <time name="total">   32.77   32.86</time>
   <energy>
    <i name="e_fr_energy">   -186.83623964 </i>
    <i name="e_wo_entrp">   -186.49308178 </i>
    <i name="e_0_energy">   -186.66466071 </i>
   </energy>
  </scstep>
  <scstep>
   <time name="dav">   31.33   31.40</time>
   <time name="total">   31.91   32.00</time>
   <energy>
    <i name="e_fr_energy">   -186.83597446 </i>
    <i name="e_wo_entrp">   -186.49229996 </i>
    <i name="e_0_energy">   -186.66413721 </i>
   </energy>
  </scstep>
  <scstep>
   <time name="dav">   26.34   26.41</time>
   <time name="total">   26.38   26.45</time>
   <energy>
    <i name="alphaZ">     81.65567618 </i>
    <i name="ewald">  41891.17176702 </i>
    <i name="hartreedc"> -47818.66267723 </i>
    <i name="XCdc">   -231.69435112 </i>
    <i name="pawpsdc">   4194.27318630 </i>
    <i name="pawaedc">  -3612.29193490 </i>
    <i name="eentropy">     -0.34370308 </i>
    <i name="bandstr">  -1452.38649032 </i>
    <i name="atom">   6761.44252427 </i>
    <i name="e_fr_energy">   -186.83600288 </i>
    <i name="e_wo_entrp">   -186.49229980 </i>
    <i name="e_0_energy">   -186.66415134 </i>
   </energy>
  </scstep>
  <structure>
   <crystal>
    <varray name="basis" >
     <v>       8.66999996       5.03999989       0.00000000 </v>
     <v>      -8.66999982       5.04000013       0.00000000 </v>
     <v>       0.00000000       0.00000000      30.00000000 </v>
    </varray>
    <i name="volume">   2621.80797419 </i>
    <varray name="rec_basis" >
     <v>       0.05767013       0.09920635       0.00000000 </v>
     <v>      -0.05767013       0.09920635       0.00000000 </v>
     <v>       0.00000000       0.00000000       0.03333333 </v>
    </varray>
   </crystal>
   <varray name="positions" >
    <v>       0.66666669       0.66666669       0.00000000 </v>
    <v>       0.00000000       0.66666669       0.00000000 </v>
    <v>       0.00000000       0.00000000       0.00000000 </v>
    <v>       0.66666669       0.00000000       0.00000000 </v>
    <v>       0.33333334       0.00000000       0.00000000 </v>
    <v>       1.00000000       0.33333334       0.00000000 </v>
    <v>       0.33333334       0.33333334       0.00000000 </v>
    <v>       0.33333334       0.66666669       0.00000000 </v>
    <v>       0.66666669       0.33333334       0.00000000 </v>
    <v>       0.11068511       0.22244981       0.95539999 </v>
    <v>       0.22244981       0.11068511       0.04460000 </v>
    <v>       0.11068511       0.55578315       0.95539999 </v>
    <v>       0.22244981       0.44401845       0.04460000 </v>
    <v>       0.11068511       0.88911647       0.95539999 </v>
    <v>       0.22244981       0.77735180       0.04460000 </v>
    <v>       0.44401845       0.22244981       0.95539999 </v>
    <v>       0.55578315       0.11068511       0.04460000 </v>
    <v>       0.44401845       0.55578315       0.95539999 </v>
    <v>       0.55578315       0.44401845       0.04460000 </v>
    <v>       0.44401845       0.88911647       0.95539999 </v>
    <v>       0.55578315       0.77735180       0.04460000 </v>
    <v>       0.77735180       0.22244981       0.95539999 </v>
    <v>       0.88911647       0.11068511       0.04460000 </v>
    <v>       0.77735180       0.55578315       0.95539999 </v>
    <v>       0.88911647       0.44401845       0.04460000 </v>
    <v>       0.77735180       0.88911647       0.95539999 </v>
    <v>       0.88911647       0.77735180       0.04460000 </v>
   </varray>
  </structure>
  <varray name="forces" >
   <v>      -0.13463846       0.25683436       0.01253955 </v>
   <v>       0.03262144       0.12776178      -0.00692012 </v>
   <v>      -0.12318913      -0.02573176      -0.00812057 </v>
   <v>      -0.20393615       0.14858214       0.09233899 </v>
   <v>       0.21642741       0.10933339       0.03741522 </v>
   <v>       0.01018704      -0.30211158      -0.06090468 </v>
   <v>       0.00930134      -0.36512026      -0.09603319 </v>
   <v>      -0.30210722       0.16091261      -0.10519541 </v>
   <v>       0.53039563      -0.20149742       0.10411186 </v>
   <v>       0.60981320      -0.52475806      -2.18466268 </v>
   <v>      -0.60215218      -0.54608481       2.15750471 </v>
   <v>      -0.63812170       0.15992360      -2.11558435 </v>
   <v>      -0.06137358       0.14089323       2.84239038 </v>
   <v>      -0.32275787      -0.67430349      -1.38699637 </v>
   <v>      -0.38343954      -0.68890630       2.17858885 </v>
   <v>       0.01101036       0.14513415      -2.87972703 </v>
   <v>      -0.20837564       0.16375031       2.96694815 </v>
   <v>       0.45125679       0.54881952      -2.17089317 </v>
   <v>      -0.45165727       0.57356641       2.12705977 </v>
   <v>       0.23462790      -0.17364285      -2.87307673 </v>
   <v>       0.65709298      -0.12146824       2.09797282 </v>
   <v>      -0.02662746       0.03296498      -2.92889254 </v>
   <v>       0.74405935      -0.01944022       2.10835983 </v>
   <v>      -0.24972251       0.53729584      -1.38189323 </v>
   <v>      -0.63957656       0.53641646       2.13971492 </v>
   <v>       0.90947171       0.00450160      -1.44245134 </v>
   <v>      -0.06858987      -0.00362536       0.77640634 </v>
  </varray>
  <varray name="stress" >
   <v>       7.53616717      -0.04556557      -1.62540445 </v>
   <v>      -0.04556557       4.43586290      -0.01711267 </v>
   <v>      -1.62540427      -0.01711252      31.13953840 </v>
  </varray>
  <energy>
   <i name="e_fr_energy">   -186.83600288 </i>
   <i name="e_wo_entrp">   -186.66415134 </i>
   <i name="e_0_energy">     -0.34370308 </i>
  </energy>
  <time name="totalsc">  649.77  651.48</time>
 </calculation>
 <calculation>
  <scstep>
   <time name="dav">   22.75   22.81</time>
   <time name="total">   23.37   23.43</time>
   <energy>
    <i name="alphaZ">     78.87224288 </i>
    <i name="ewald">  39352.72810692 </i>
    <i name="hartreedc"> -45300.32002525 </i>
    <i name="XCdc">   -239.17368421 </i>
    <i name="pawpsdc">   4193.05272720 </i>
    <i name="pawaedc">  -3611.05278175 </i>
    <i name="eentropy">     -0.28128405 </i>
    <i name="bandstr">  -1422.76105761 </i>
    <i name="atom">   6761.44252427 </i>
    <i name="e_fr_energy">   -187.49323160 </i>
    <i name="e_wo_entrp">   -187.21194755 </i>
    <i name="e_0_energy">   -187.35258957 </i>
   </energy>
  </scstep>
  <scstep>
   <time name="dav">   31.08   31.16</time>
   <time name="total">   31.70   31.78</time>
   <energy>
    <i name="e_fr_energy">   -189.51743703 </i>
    <i name="e_wo_entrp">   -189.18160201 </i>
    <i name="e_0_energy">   -189.34951952 </i>
   </energy>
  </scstep>
  <scstep>
   <time name="dav">   31.53   31.61</time>
   <time name="total">   32.15   32.24</time>
   <energy>
    <i name="e_fr_energy">   -189.33098469 </i>
    <i name="e_wo_entrp">   -189.06982775 </i>
    <i name="e_0_energy">   -189.20040622 </i>
   </energy>
  </scstep>
  <scstep>
   <time name="dav">   29.56   29.63</time>
   <time name="total">   30.18   30.26</time>
   <energy>
    <i name="e_fr_energy">   -188.76753609 </i>
    <i name="e_wo_entrp">   -188.48492631 </i>
    <i name="e_0_energy">   -188.62623120 </i>
   </energy>
  </scstep>
  <scstep>
   <time name="dav">   31.37   31.44</time>
   <time name="total">   31.99   32.07</time>
   <energy>
    <i name="e_fr_energy">   -188.84973850 </i>
    <i name="e_wo_entrp">   -188.56189009 </i>
    <i name="e_0_energy">   -188.70581430 </i>
   </energy>
  </scstep>
  <scstep>
   <time name="dav">   31.57   31.64</time>
   <time name="total">   32.19   32.28</time>
   <energy>
    <i name="e_fr_energy">   -188.72169176 </i>
    <i name="e_wo_entrp">   -188.43801918 </i>
    <i name="e_0_energy">   -188.57985547 </i>
   </energy>
  </scstep>
  <scstep>
   <time name="dav">   30.88   30.95</time>
   <time name="total">   31.50   31.58</time>
   <energy>
    <i name="e_fr_energy">   -188.69072715 </i>
    <i name="e_wo_entrp">   -188.40747034 </i>
    <i name="e_0_energy">   -188.54909875 </i>
   </energy>
  </scstep>
  <scstep>
   <time name="dav">   30.70   30.77</time>
   <time name="total">   31.32   31.40</time>
   <energy>
    <i name="e_fr_energy">   -188.67446643 </i>
    <i name="e_wo_entrp">   -188.39003023 </i>
    <i name="e_0_energy">   -188.53224833 </i>
   </energy>
  </scstep>
  <scstep>
   <time name="dav">   31.15   31.22</time>
   <time name="total">   31.77   31.86</time>
   <energy>
    <i name="e_fr_energy">   -188.64897792 </i>
    <i name="e_wo_entrp">   -188.36712160 </i>
    <i name="e_0_energy">   -188.50804976 </i>
   </energy>
  </scstep>
  <scstep>
   <time name="dav">   27.93   28.00</time>
   <time name="total">   28.56   28.64</time>
   <energy>
    <i name="e_fr_energy">   -188.64584006 </i>
    <i name="e_wo_entrp">   -188.36463957 </i>
    <i name="e_0_energy">   -188.50523981 </i>
   </energy>
  </scstep>
  <scstep>
   <time name="dav">   33.16   33.24</time>
   <time name="total">   33.78   33.87</time>
   <energy>
    <i name="e_fr_energy">   -188.64552291 </i>
    <i name="e_wo_entrp">   -188.36563397 </i>
    <i name="e_0_energy">   -188.50557844 </i>
   </energy>
  </scstep>
  <scstep>
   <time name="dav">   28.39   28.46</time>
   <time name="total">   29.02   29.09</time>
   <energy>
    <i name="e_fr_energy">   -188.64564203 </i>
    <i name="e_wo_entrp">   -188.36563311 </i>
    <i name="e_0_energy">   -188.50563757 </i>
   </energy>
  </scstep>
  <scstep>
   <time name="dav">   20.13   20.18</time>
   <time name="total">   20.16   20.22</time>
   <energy>
    <i name="alphaZ">     78.87224288 </i>
    <i name="ewald">  39352.72810692 </i>
    <i name="hartreedc"> -45317.71177829 </i>
    <i name="XCdc">   -238.02931426 </i>
    <i name="pawpsdc">   3949.56610736 </i>
    <i name="pawaedc">  -3364.05713638 </i>
    <i name="eentropy">     -0.28025066 </i>
    <i name="bandstr">  -1411.17619627 </i>
    <i name="atom">   6761.44252427 </i>
    <i name="e_fr_energy">   -188.64569442 </i>
    <i name="e_wo_entrp">   -188.36544376 </i>
    <i name="e_0_energy">   -188.50556909 </i>
   </energy>
  </scstep>
  <structure>
   <crystal>
    <varray name="basis" >
     <v>       8.86036983       5.10421299       0.00000000 </v>
     <v>      -8.86171263       5.10652340       0.00000000 </v>
     <v>       0.00000000       0.00000000      30.00000000 </v>
    </varray>
    <i name="volume">   2714.33263630 </i>
    <varray name="rec_basis" >
     <v>       0.05643955       0.09794355       0.00000000 </v>
     <v>      -0.05641401       0.09792871       0.00000000 </v>
     <v>       0.00000000       0.00000000       0.03333333 </v>
    </varray>
   </crystal>
   <varray name="positions" >
    <v>       0.66752130       0.66827048       0.00002016 </v>
    <v>       0.00070222       0.66718739      -0.00001113 </v>
    <v>      -0.00046588       0.00021958      -0.00001306 </v>
    <v>       0.66681041       0.00127849       0.00014849 </v>
    <v>       0.33445875      -0.00007887       0.00006017 </v>
    <v>       0.99858244       0.33185910      -0.00009794 </v>
    <v>       0.33161176       0.33156001      -0.00015443 </v>
    <v>       0.33326296       0.66827732      -0.00016916 </v>
    <v>       0.66717797       0.33089334       0.00016742 </v>
    <v>       0.10987023       0.21824173       0.95188686 </v>
    <v>       0.21816098       0.10974684       0.04806946 </v>
    <v>       0.10967514       0.55832390       0.95199794 </v>
    <v>       0.22295337       0.44486352       0.04917081 </v>
    <v>       0.10655994       0.88678723       0.95316958 </v>
    <v>       0.21808593       0.77512150       0.04810336 </v>
    <v>       0.44474369       0.22311379       0.95076913 </v>
    <v>       0.55598712       0.11204855       0.04937111 </v>
    <v>       0.44790056       0.55715432       0.95190900 </v>
    <v>       0.55727165       0.44802011       0.04802050 </v>
    <v>       0.44384017       0.88763264       0.95077983 </v>
    <v>       0.55702995       0.77494231       0.04797372 </v>
    <v>       0.77743548       0.22268166       0.95069007 </v>
    <v>       0.89109352       0.10852198       0.04799043 </v>
    <v>       0.77922851       0.55904941       0.95317778 </v>
    <v>       0.88990434       0.44836513       0.04804085 </v>
    <v>       0.77990364       0.88660771       0.95308040 </v>
    <v>       0.88890829       0.77752527       0.04584853 </v>
   </varray>
  </structure>
  <varray name="forces" >
   <v>      -0.14166354       0.12999966      -0.01318895 </v>
   <v>       0.09672481       0.12635004      -0.09468880 </v>
   <v>      -0.13320361       0.07112633      -0.01562724 </v>
   <v>      -0.52633764       0.16617380       0.04117168 </v>
   <v>       0.34606437       0.34237300      -0.05462807 </v>
   <v>       0.01647679      -0.27095088       0.06386656 </v>
   <v>      -0.05459964      -0.28604931       0.06784794 </v>
   <v>      -0.23062123       0.13377286      -0.03181940 </v>
   <v>       0.58379673      -0.39260470       0.04560225 </v>
   <v>       0.08155262       0.03262252      -0.09408075 </v>
   <v>      -0.07040797       0.04116247      -0.04235841 </v>
   <v>       0.01880809       0.10453140       0.00843325 </v>
   <v>       0.07275153       0.10845585      -0.15668980 </v>
   <v>      -0.00799367      -0.05059821       0.16129002 </v>
   <v>       0.09752502      -0.04322731       0.03431261 </v>
   <v>      -0.07293121       0.11692766       0.01832828 </v>
   <v>      -0.04479994       0.11361654       0.30736385 </v>
   <v>      -0.06809741      -0.07196025       0.13677484 </v>
   <v>       0.06944426      -0.07252621      -0.26456101 </v>
   <v>       0.06347648      -0.10075307      -0.13415293 </v>
   <v>      -0.03474297      -0.09222557      -0.03249073 </v>
   <v>      -0.13045661       0.00394256      -0.21144361 </v>
   <v>       0.06563612      -0.01272344       0.08049468 </v>
   <v>       0.06501074      -0.06441887       0.25403941 </v>
   <v>      -0.08324289      -0.05933682      -0.03891586 </v>
   <v>       0.04058531       0.01312549       0.10555489 </v>
   <v>      -0.01875453       0.01319445      -0.14043469 </v>
  </varray>
  <varray name="stress" >
   <v>     -20.05573670       0.00025400       0.05881194 </v>
   <v>       0.00025395     -19.58014163       0.01415196 </v>
   <v>       0.05881197       0.01415174      -1.72290915 </v>
  </varray>
  <energy>
   <i name="e_fr_energy">   -188.64569442 </i>
   <i name="e_wo_entrp">   -188.50556909 </i>
   <i name="e_0_energy">     -0.28025066 </i>
  </energy>
  <time name="totalsc">  431.49  432.62</time>
 </calculation>
 <calculation>
  <scstep>
   <time name="dav">   24.98   25.04</time>
   <time name="total">   25.59   25.65</time>
   <energy>
    <i name="alphaZ">     82.32795312 </i>
    <i name="ewald">  41294.83588070 </i>
    <i name="hartreedc"> -47290.89431051 </i>
    <i name="XCdc">   -233.86092777 </i>
    <i name="pawpsdc">   3948.77073990 </i>
    <i name="pawaedc">  -3363.25418408 </i>
    <i name="eentropy">     -0.23460116 </i>
    <i name="bandstr">  -1389.73302320 </i>
    <i name="atom">   6761.44252427 </i>
    <i name="e_fr_energy">   -190.59994873 </i>
    <i name="e_wo_entrp">   -190.36534757 </i>
    <i name="e_0_energy">   -190.48264815 </i>
   </energy>
  </scstep>
  <scstep>
   <time name="dav">   31.43   31.50</time>
   <time name="total">   31.97   32.06</time>
   <energy>
    <i name="e_fr_energy">   -190.53257772 </i>
    <i name="e_wo_entrp">   -190.30919279 </i>
    <i name="e_0_energy">   -190.42088525 </i>
   </energy>
  </scstep>
  <scstep>
   <time name="dav">   31.64   31.71</time>
   <time name="total">   32.21   32.30</time>
   <energy>
    <i name="e_fr_energy">   -190.07719655 </i>
    <i name="e_wo_entrp">   -189.82565234 </i>
    <i name="e_0_energy">   -189.95142445 </i>
   </energy>
  </scstep>
  <scstep>
   <time name="dav">   33.51   33.59</time>
   <time name="total">   34.13   34.22</time>
   <energy>
    <i name="e_fr_energy">   -189.85958753 </i>
    <i name="e_wo_entrp">   -189.63250347 </i>
    <i name="e_0_energy">   -189.74604550 </i>
   </energy>
  </scstep>
  <scstep>
   <time name="dav">   31.66   31.74</time>
   <time name="total">   32.28   32.36</time>
   <energy>
    <i name="e_fr_energy">   -189.81270224 </i>
    <i name="e_wo_entrp">   -189.57082758 </i>
    <i name="e_0_energy">   -189.69176491 </i>
   </energy>
  </scstep>
  <scstep>
   <time name="dav">   31.62   31.69</time>
   <time name="total">   32.23   32.31</time>
   <energy>
    <i name="e_fr_energy">   -189.75801912 </i>
    <i name="e_wo_entrp">   -189.52395042 </i>
    <i name="e_0_energy">   -189.64098477 </i>
   </energy>
  </scstep>
  <scstep>
   <time name="dav">   30.64   30.71</time>
   <time name="total">   31.25   31.33</time>
   <energy>
    <i name="e_fr_energy">   -189.75252035 </i>
    <i name="e_wo_entrp">   -189.51638889 </i>
    <i name="e_0_energy">   -189.63445462 </i>
   </energy>
  </scstep>
  <scstep>
   <time name="dav">   30.51   30.58</time>
   <time name="total">   31.12   31.20</time>
   <energy>
    <i name="e_fr_energy">   -189.75321400 </i>
    <i name="e_wo_entrp">   -189.51791209 </i>
    <i name="e_0_energy">   -189.63556305 </i>
   </energy>
  </scstep>
  <scstep>
   <time name="dav">   27.24   27.30</time>
   <time name="total">   27.85   27.92</time>
   <energy>
    <i name="e_fr_energy">   -189.75228616 </i>
    <i name="e_wo_entrp">   -189.51639585 </i>
    <i name="e_0_energy">   -189.63434100 </i>
   </energy>
  </scstep>
  <scstep>
   <time name="dav">   27.53   27.59</time>
   <time name="total">   28.14   28.21</time>
   <energy>
    <i name="e_fr_energy">   -189.75264761 </i>
    <i name="e_wo_entrp">   -189.51703296 </i>
    <i name="e_0_energy">   -189.63484028 </i>
   </energy>
  </scstep>
  <scstep>
   <time name="dav">   27.75   27.81</time>
   <time name="total">   28.36   28.43</time>
   <energy>
    <i name="e_fr_energy">   -189.75235452 </i>
    <i name="e_wo_entrp">   -189.51642264 </i>
    <i name="e_0_energy">   -189.63438858 </i>
   </energy>
  </scstep>
  <scstep>
   <time name="dav">   19.26   19.30</time>
   <time name="total">   19.30   19.35</time>
   <energy>
    <i name="alphaZ">     82.32795312 </i>
    <i name="ewald">  41294.83588070 </i>
    <i name="hartreedc"> -47266.05439256 </i>
    <i name="XCdc">   -235.25680479 </i>
    <i name="pawpsdc">   4038.75748097 </i>
    <i name="pawaedc">  -3454.45658440 </i>
    <i name="eentropy">     -0.23591433 </i>
    <i name="bandstr">  -1411.11255781 </i>
    <i name="atom">   6761.44252427 </i>
    <i name="e_fr_energy">   -189.75241483 </i>
    <i name="e_wo_entrp">   -189.51650050 </i>
    <i name="e_0_energy">   -189.63445767 </i>
   </energy>
  </scstep>
  <structure>
   <crystal>
    <varray name="basis" >
     <v>       8.67016613       4.99724188       0.00000000 </v>
     <v>      -8.67147732       4.99949905       0.00000000 </v>
     <v>       0.00000000       0.00000000      30.00000000 </v>
    </varray>
    <i name="volume">   2600.39870822 </i>
    <varray name="rec_basis" >
     <v>       0.05767768       0.10004017       0.00000000 </v>
     <v>      -0.05765164       0.10002504       0.00000000 </v>
     <v>       0.00000000       0.00000000       0.03333333 </v>
    </varray>
   </crystal>
   <varray name="positions" >
    <v>       0.66760211       0.66862397       0.00001267 </v>
    <v>       0.00100645       0.66730538      -0.00006497 </v>
    <v>      -0.00047529       0.00046659      -0.00002194 </v>
    <v>       0.66658131       0.00206261       0.00017190 </v>
    <v>       0.33536396       0.00016004       0.00002910 </v>
    <v>       0.99814561       0.33139062      -0.00006162 </v>
    <v>       0.33108127       0.33113470      -0.00011585 </v>
    <v>       0.33326442       0.66872273      -0.00018726 </v>
    <v>       0.66708408       0.32967567       0.00019335 </v>
    <v>       0.11000325       0.21821775       0.95183336 </v>
    <v>       0.21816196       0.10988336       0.04804537 </v>
    <v>       0.10986790       0.55848042       0.95200274 </v>
    <v>       0.22320462       0.44497468       0.04908172 </v>
    <v>       0.10646771       0.88671040       0.95326129 </v>
    <v>       0.21810760       0.77495543       0.04812287 </v>
    <v>       0.44486884       0.22337930       0.95077956 </v>
    <v>       0.55613382       0.11228146       0.04954589 </v>
    <v>       0.44771477       0.55709964       0.95198677 </v>
    <v>       0.55721733       0.44783213       0.04787006 </v>
    <v>       0.44373295       0.88740325       0.95070355 </v>
    <v>       0.55684241       0.77482168       0.04795525 </v>
    <v>       0.77731647       0.22281379       0.95056984 </v>
    <v>       0.89113545       0.10843756       0.04803620 </v>
    <v>       0.77918348       0.55887923       0.95332224 </v>
    <v>       0.88972506       0.44834612       0.04801872 </v>
    <v>       0.77996464       0.88659058       0.95314042 </v>
    <v>       0.88891228       0.77756536       0.04576867 </v>
   </varray>
  </structure>
  <varray name="forces" >
   <v>      -0.16449600       0.05843164      -0.02090203 </v>
   <v>       0.15530848       0.12101238      -0.09673733 </v>
   <v>      -0.15930867       0.13825672      -0.01899451 </v>
   <v>      -0.63112667       0.15243951       0.01686988 </v>
   <v>       0.39659382       0.41694942      -0.05325751 </v>
   <v>       0.02607664      -0.25394614       0.06733922 </v>
   <v>      -0.08078708      -0.25774402       0.08854708 </v>
   <v>      -0.19603432       0.11869126       0.00019709 </v>
   <v>       0.59254877      -0.45891444       0.01433091 </v>
   <v>       0.07492347      -0.11615445      -0.62025459 </v>
   <v>      -0.05067526      -0.10745944       0.45818351 </v>
   <v>      -0.09137005       0.02392963      -0.49376532 </v>
   <v>       0.02267390       0.05435541       0.38605484 </v>
   <v>      -0.04531387      -0.10136441      -0.27860452 </v>
   <v>      -0.03121609      -0.10090089       0.54438379 </v>
   <v>      -0.03040051       0.06856744      -0.53949356 </v>
   <v>      -0.00139390       0.03509817       0.91793051 </v>
   <v>       0.00849166       0.05194806      -0.37151771 </v>
   <v>       0.00894044       0.05338187       0.21969487 </v>
   <v>       0.03332762      -0.01371432      -0.70518092 </v>
   <v>       0.06807363      -0.01603169       0.46190100 </v>
   <v>      -0.04136083       0.00137190      -0.78798327 </v>
   <v>       0.14581327      -0.02624931       0.58099897 </v>
   <v>      -0.00125101       0.04445334      -0.18313804 </v>
   <v>      -0.08664996       0.07790126       0.46815465 </v>
   <v>       0.09432465       0.01718389      -0.33726404 </v>
   <v>      -0.01571211       0.01850720       0.28250704 </v>
  </varray>
  <varray name="stress" >
   <v>     -10.23139262       0.00073270       0.05664119 </v>
   <v>       0.00073255      -9.83460717       0.01052127 </v>
   <v>       0.05664126       0.01052116       6.51086258 </v>
  </varray>
  <energy>
   <i name="e_fr_energy">   -189.75241483 </i>
   <i name="e_wo_entrp">   -189.63445767 </i>
   <i name="e_0_energy">     -0.23591433 </i>
  </energy>
  <time name="totalsc">  398.41  399.46</time>
 </calculation>
 <calculation>
  <scstep>
   <time name="dav">   22.76   22.81</time>
   <time name="total">   23.29   23.34</time>
   <energy>
    <i name="alphaZ">     85.81953984 </i>
    <i name="ewald">  42832.81196025 </i>
    <i name="hartreedc"> -48848.79937300 </i>
    <i name="XCdc">   -232.95931416 </i>
    <i name="pawpsdc">   4038.65359117 </i>
    <i name="pawaedc">  -3454.34752065 </i>
    <i name="eentropy">     -0.19698602 </i>
    <i name="bandstr">  -1373.76355763 </i>
    <i name="atom">   6761.44252427 </i>
    <i name="e_fr_energy">   -191.33913592 </i>
    <i name="e_wo_entrp">   -191.14214990 </i>
    <i name="e_0_energy">   -191.24064291 </i>
   </energy>
  </scstep>
  <scstep>
   <time name="dav">   33.23   33.31</time>
   <time name="total">   33.74   33.83</time>
   <energy>
    <i name="e_fr_energy">   -191.16127281 </i>
    <i name="e_wo_entrp">   -190.96656053 </i>
    <i name="e_0_energy">   -191.06391667 </i>
   </energy>
  </scstep>
  <scstep>
   <time name="dav">   31.44   31.52</time>
   <time name="total">   31.95   32.04</time>
   <energy>
    <i name="e_fr_energy">   -191.31846065 </i>
    <i name="e_wo_entrp">   -191.10055338 </i>
    <i name="e_0_energy">   -191.20950702 </i>
   </energy>
  </scstep>
  <scstep>
   <time name="dav">   31.35   31.43</time>
   <time name="total">   31.87   31.96</time>
   <energy>
    <i name="e_fr_energy">   -190.94663452 </i>
    <i name="e_wo_entrp">   -190.73623466 </i>
    <i name="e_0_energy">   -190.84143459 </i>
   </energy>
  </scstep>
  <scstep>
   <time name="dav">   29.27   29.34</time>
   <time name="total">   29.79   29.87</time>
   <energy>
    <i name="e_fr_energy">   -190.92701849 </i>
    <i name="e_wo_entrp">   -190.73901313 </i>
    <i name="e_0_energy">   -190.83301581 </i>
   </energy>
  </scstep>
  <scstep>
   <time name="dav">   30.07   30.15</time>
   <time name="total">   30.59   30.67</time>
   <energy>
    <i name="e_fr_energy">   -190.75567564 </i>
    <i name="e_wo_entrp">   -190.55388709 </i>
    <i name="e_0_energy">   -190.65478136 </i>
   </energy>
  </scstep>
  <scstep>
   <time name="dav">   32.45   32.53</time>
   <time name="total">   32.97   33.06</time>
   <energy>
    <i name="e_fr_energy">   -190.75388842 </i>
    <i name="e_wo_entrp">   -190.55160234 </i>
    <i name="e_0_energy">   -190.65274538 </i>
   </energy>
  </scstep>
  <scstep>
   <time name="dav">   30.87   30.94</time>
   <time name="total">   31.39   31.47</time>
   <energy>
    <i name="e_fr_energy">   -190.75249604 </i>
    <i name="e_wo_entrp">   -190.55017341 </i>
    <i name="e_0_energy">   -190.65133472 </i>
   </energy>
  </scstep>
  <scstep>
   <time name="dav">   29.14   29.21</time>
   <time name="total">   29.65   29.73</time>
   <energy>
    <i name="e_fr_energy">   -190.74757334 </i>
    <i name="e_wo_entrp">   -190.54555397 </i>
    <i name="e_0_energy">   -190.64656365 </i>
   </energy>
  </scstep>
  <scstep>
   <time name="dav">   28.20   28.27</time>
   <time name="total">   28.72   28.80</time>
   <energy>
    <i name="e_fr_energy">   -190.74793066 </i>
    <i name="e_wo_entrp">   -190.54589022 </i>
    <i name="e_0_energy">   -190.64691044 </i>
   </energy>
  </scstep>
  <scstep>
   <time name="dav">   28.31   28.37</time>
   <time name="total">   28.83   28.90</time>
   <energy>
    <i name="e_fr_energy">   -190.74772430 </i>
    <i name="e_wo_entrp">   -190.54557842 </i>
    <i name="e_0_energy">   -190.64665136 </i>
   </energy>
  </scstep>
  <scstep>
   <time name="dav">   19.61   19.66</time>
   <time name="total">   19.65   19.70</time>
   <energy>
    <i name="alphaZ">     85.81953984 </i>
    <i name="ewald">  42832.81196025 </i>
    <i name="hartreedc"> -48820.53975026 </i>
    <i name="XCdc">   -234.29469158 </i>
    <i name="pawpsdc">   4063.71664480 </i>
    <i name="pawaedc">  -3479.59681549 </i>
    <i name="eentropy">     -0.20226377 </i>
    <i name="bandstr">  -1399.90489563 </i>
    <i name="atom">   6761.44252427 </i>
    <i name="e_fr_energy">   -190.74774757 </i>
    <i name="e_wo_entrp">   -190.54548380 </i>
    <i name="e_0_energy">   -190.64661568 </i>
   </energy>
  </scstep>
  <structure>
   <crystal>
    <varray name="basis" >
     <v>       8.48636062       4.89779898       0.00000000 </v>
     <v>      -8.48760975       4.89995176       0.00000000 </v>
     <v>       0.00000000       0.00000000      30.00000000 </v>
    </varray>
    <i name="volume">   2494.60091889 </i>
    <varray name="rec_basis" >
     <v>       0.05892668       0.10207175       0.00000000 </v>
     <v>      -0.05890079       0.10205673       0.00000000 </v>
     <v>       0.00000000       0.00000000       0.03333333 </v>
    </varray>
   </crystal>
   <varray name="positions" >
    <v>       0.66716384       0.66943914      -0.00003710 </v>
    <v>       0.00239608       0.66740566      -0.00026691 </v>
    <v>      -0.00005553       0.00211154      -0.00006410 </v>
    <v>       0.66507251       0.00541202       0.00018631 </v>
    <v>       0.33966583       0.00145232      -0.00007997 </v>
    <v>       0.99670481       0.32973426       0.00008068 </v>
    <v>       0.32920751       0.32991956       0.00008488 </v>
    <v>       0.33331181       0.67008726      -0.00015983 </v>
    <v>       0.66619788       0.32448462       0.00019662 </v>
    <v>       0.10916790       0.21686029       0.95010563 </v>
    <v>       0.21696539       0.10899663       0.04941604 </v>
    <v>       0.10933046       0.55891777       0.95055703 </v>
    <v>       0.22342136       0.44517067       0.05033871 </v>
    <v>       0.10548981       0.88616655       0.95231347 </v>
    <v>       0.21703578       0.77447702       0.04967999 </v>
    <v>       0.44512942       0.22373793       0.94919227 </v>
    <v>       0.55621600       0.11224970       0.05196093 </v>
    <v>       0.44848753       0.55759216       0.95078894 </v>
    <v>       0.55780978       0.44853275       0.04873339 </v>
    <v>       0.44394017       0.88745583       0.94876219 </v>
    <v>       0.55732372       0.77451751       0.04932842 </v>
    <v>       0.77729657       0.22283812       0.94845246 </v>
    <v>       0.89157879       0.10759858       0.04966103 </v>
    <v>       0.77963271       0.55952672       0.95257429 </v>
    <v>       0.89023545       0.44949204       0.04941554 </v>
    <v>       0.78049989       0.88629093       0.95206873 </v>
    <v>       0.88898897       0.77774685       0.04671027 </v>
   </varray>
  </structure>
  <varray name="forces" >
   <v>      -0.17431634       0.03202943      -0.03206874 </v>
   <v>       0.15111600       0.10384370      -0.06546227 </v>
   <v>      -0.17701622       0.16285173      -0.02244219 </v>
   <v>      -0.67600181       0.09933723      -0.02734657 </v>
   <v>       0.45766391       0.46546972      -0.01352352 </v>
   <v>       0.06301127      -0.22146016       0.04503169 </v>
   <v>      -0.14793255      -0.23615991       0.06956196 </v>
   <v>      -0.15296902       0.12732935       0.03913372 </v>
   <v>       0.56444527      -0.46345269      -0.01937088 </v>
   <v>       0.01608635      -0.08546387      -0.44835025 </v>
   <v>       0.05028686      -0.08859456       0.27084597 </v>
   <v>      -0.00602031      -0.01573054      -0.33107401 </v>
   <v>      -0.05142829      -0.00052136       0.23586908 </v>
   <v>       0.02197419       0.05115208      -0.17930320 </v>
   <v>      -0.05448532       0.00965881       0.34879252 </v>
   <v>       0.02016523       0.03325634      -0.33609494 </v>
   <v>       0.01895317      -0.01659425       0.79323169 </v>
   <v>      -0.00964881       0.00202462      -0.25726455 </v>
   <v>       0.07106222       0.00206760       0.08510355 </v>
   <v>       0.02931455       0.04818535      -0.51484040 </v>
   <v>      -0.04082621       0.05803270       0.29415721 </v>
   <v>       0.03566759       0.00113264      -0.57892086 </v>
   <v>       0.02466941      -0.07057220       0.40456931 </v>
   <v>       0.06450797      -0.05238185      -0.08021469 </v>
   <v>      -0.03080891      -0.01230801       0.29412804 </v>
   <v>      -0.05669134       0.03469176      -0.23506036 </v>
   <v>      -0.01077887       0.03217635       0.26091269 </v>
  </varray>
  <varray name="stress" >
   <v>      -5.69505393      -0.06535651      -0.13362366 </v>
   <v>      -0.06535651      -5.86942380      -0.10705054 </v>
   <v>      -0.13362339      -0.10705059       4.55008596 </v>
  </varray>
  <energy>
   <i name="e_fr_energy">   -190.74774757 </i>
   <i name="e_wo_entrp">   -190.64661568 </i>
   <i name="e_0_energy">     -0.20226377 </i>
  </energy>
  <time name="totalsc">  396.38  397.42</time>
 </calculation>
 <calculation>
  <scstep>
   <time name="dav">   22.77   22.83</time>
   <time name="total">   23.29   23.34</time>
   <energy>
    <i name="alphaZ">     90.17376244 </i>
    <i name="ewald">  44671.54071032 </i>
    <i name="hartreedc"> -50714.30164952 </i>
    <i name="XCdc">   -231.81538667 </i>
    <i name="pawpsdc">   4063.71446815 </i>
    <i name="pawaedc">  -3479.59074293 </i>
    <i name="eentropy">     -0.18598958 </i>
    <i name="bandstr">  -1353.10207346 </i>
    <i name="atom">   6761.44252427 </i>
    <i name="e_fr_energy">   -192.12437698 </i>
    <i name="e_wo_entrp">   -191.93838739 </i>
    <i name="e_0_energy">   -192.03138219 </i>
   </energy>
  </scstep>
  <scstep>
   <time name="dav">   29.98   30.05</time>
   <time name="total">   30.48   30.56</time>
   <energy>
    <i name="e_fr_energy">   -191.88369059 </i>
    <i name="e_wo_entrp">   -191.68434740 </i>
    <i name="e_0_energy">   -191.78401899 </i>
   </energy>
  </scstep>
  <scstep>
   <time name="dav">   30.78   30.85</time>
   <time name="total">   31.29   31.37</time>
   <energy>
    <i name="e_fr_energy">   -192.38005297 </i>
    <i name="e_wo_entrp">   -192.19539457 </i>
    <i name="e_0_energy">   -192.28772377 </i>
   </energy>
  </scstep>
  <scstep>
   <time name="dav">   30.58   30.66</time>
   <time name="total">   31.09   31.17</time>
   <energy>
    <i name="e_fr_energy">   -191.65450352 </i>
    <i name="e_wo_entrp">   -191.46043051 </i>
    <i name="e_0_energy">   -191.55746702 </i>
   </energy>
  </scstep>
  <scstep>
   <time name="dav">   30.75   30.82</time>
   <time name="total">   31.26   31.34</time>
   <energy>
    <i name="e_fr_energy">   -191.59740496 </i>
    <i name="e_wo_entrp">   -191.39868700 </i>
    <i name="e_0_energy">   -191.49804598 </i>
   </energy>
  </scstep>
  <scstep>
   <time name="dav">   32.24   32.32</time>
   <time name="total">   32.75   32.84</time>
   <energy>
    <i name="e_fr_energy">   -191.42488176 </i>
    <i name="e_wo_entrp">   -191.23467709 </i>
    <i name="e_0_energy">   -191.32977943 </i>
   </energy>
  </scstep>
  <scstep>
   <time name="dav">   32.00   32.08</time>
   <time name="total">   32.51   32.59</time>
   <energy>
    <i name="e_fr_energy">   -191.41447392 </i>
    <i name="e_wo_entrp">   -191.21128445 </i>
    <i name="e_0_energy">   -191.31287918 </i>
   </energy>
  </scstep>
  <scstep>
   <time name="dav">   29.64   29.71</time>
   <time name="total">   30.15   30.23</time>
   <energy>
    <i name="e_fr_energy">   -191.40083754 </i>
    <i name="e_wo_entrp">   -191.20735087 </i>
    <i name="e_0_energy">   -191.30409420 </i>
   </energy>
  </scstep>
  <scstep>
   <time name="dav">   30.43   30.51</time>
   <time name="total">   30.94   31.03</time>
   <energy>
    <i name="e_fr_energy">   -191.39512373 </i>
    <i name="e_wo_entrp">   -191.20015623 </i>
    <i name="e_0_energy">   -191.29763998 </i>
   </energy>
  </scstep>
  <scstep>
   <time name="dav">   31.36   31.43</time>
   <time name="total">   31.87   31.95</time>
   <energy>
    <i name="e_fr_energy">   -191.39508510 </i>
    <i name="e_wo_entrp">   -191.19938554 </i>
    <i name="e_0_energy">   -191.29723532 </i>
   </energy>
  </scstep>
  <scstep>
   <time name="dav">   28.48   28.55</time>
   <time name="total">   28.52   28.60</time>
   <energy>
    <i name="alphaZ">     90.17376244 </i>
    <i name="ewald">  44671.54071032 </i>
    <i name="hartreedc"> -50680.46786880 </i>
    <i name="XCdc">   -233.34081055 </i>
    <i name="pawpsdc">   4086.73554705 </i>
    <i name="pawaedc">  -3502.73534065 </i>
    <i name="eentropy">     -0.19579725 </i>
    <i name="bandstr">  -1384.54787204 </i>
    <i name="atom">   6761.44252427 </i>
    <i name="e_fr_energy">   -191.39514520 </i>
    <i name="e_wo_entrp">   -191.19934795 </i>
    <i name="e_0_energy">   -191.29724658 </i>
   </energy>
  </scstep>
  <structure>
   <crystal>
    <varray name="basis" >
     <v>       8.28077671       4.77265079       0.00000000 </v>
     <v>      -8.28578396       4.78131262       0.00000000 </v>
     <v>       0.00000000       0.00000000      30.00000000 </v>
    </varray>
    <i name="volume">   2374.14406510 </i>
    <varray name="rec_basis" >
     <v>       0.06041730       0.10470027       0.00000000 </v>
     <v>      -0.06030785       0.10463700       0.00000000 </v>
     <v>       0.00000000       0.00000000       0.03333333 </v>
    </varray>
   </crystal>
   <varray name="positions" >
    <v>       0.66614486       0.67091893      -0.00016551 </v>
    <v>       0.00482823       0.66752175      -0.00054424 </v>
    <v>       0.00080417       0.00550332      -0.00015430 </v>
    <v>       0.66146058       0.01153013       0.00007801 </v>
    <v>       0.34868104       0.00400311      -0.00015296 </v>
    <v>       0.99443295       0.32661804       0.00027384 </v>
    <v>       0.32536808       0.32811246       0.00038984 </v>
    <v>       0.33374467       0.67263296       0.00000525 </v>
    <v>       0.66438840       0.31468323       0.00010770 </v>
    <v>       0.10781896       0.21519679       0.94773810 </v>
    <v>       0.21573015       0.10718294       0.05106487 </v>
    <v>       0.10867627       0.55886584       0.94868125 </v>
    <v>       0.22298051       0.44547345       0.05187011 </v>
    <v>       0.10574940       0.88636579       0.95113097 </v>
    <v>       0.21624171       0.77482013       0.05165064 </v>
    <v>       0.44561751       0.22390070       0.94722205 </v>
    <v>       0.55606204       0.11172776       0.05574895 </v>
    <v>       0.44901574       0.55797314       0.94922470 </v>
    <v>       0.55861436       0.44865431       0.04960417 </v>
    <v>       0.44482949       0.88802432       0.94607902 </v>
    <v>       0.55810490       0.77533250       0.05105332 </v>
    <v>       0.77762538       0.22252328       0.94550069 </v>
    <v>       0.89117311       0.10635925       0.05183314 </v>
    <v>       0.77974378       0.55907224       0.95178451 </v>
    <v>       0.89034519       0.45014975       0.05115575 </v>
    <v>       0.78073593       0.88686296       0.95066132 </v>
    <v>       0.88929705       0.77820538       0.04815871 </v>
   </varray>
  </structure>
  <varray name="forces" >
   <v>      -0.13984000       0.09808145      -0.00190209 </v>
   <v>       0.05369617       0.05852506      -0.01879300 </v>
   <v>      -0.17060232       0.07130747       0.02953707 </v>
   <v>      -0.10200339      -0.05647887      -0.01214657 </v>
   <v>       0.23307524       0.11885832       0.06888508 </v>
   <v>       0.14959073      -0.06680056      -0.01768547 </v>
   <v>      -0.25269917      -0.15729699       0.01366088 </v>
   <v>      -0.05029475       0.12740289      -0.01618037 </v>
   <v>       0.17867727      -0.11271466       0.02949815 </v>
   <v>      -0.04036698      -0.01106043      -0.15509980 </v>
   <v>       0.14902819      -0.01570338      -0.05092664 </v>
   <v>       0.09572970      -0.01200499      -0.01122416 </v>
   <v>      -0.11227131      -0.03881987       0.04778143 </v>
   <v>       0.10552159       0.24969147       0.07340090 </v>
   <v>      -0.02650666       0.11552222       0.05572593 </v>
   <v>       0.04346838       0.01364173      -0.00988413 </v>
   <v>       0.01328908      -0.02353321       0.36797699 </v>
   <v>      -0.05931875      -0.08400929      -0.00810421 </v>
   <v>       0.16375345      -0.08643003      -0.18258562 </v>
   <v>       0.03620203       0.07878620      -0.17418790 </v>
   <v>      -0.15289633       0.11804019       0.01599620 </v>
   <v>       0.07542477       0.01705808      -0.23693815 </v>
   <v>      -0.11912666      -0.14007895       0.05707458 </v>
   <v>       0.14356761      -0.20886932       0.14053433 </v>
   <v>       0.02693961      -0.13383876      -0.00385155 </v>
   <v>      -0.23567693       0.04351001      -0.01535521 </v>
   <v>      -0.00636058       0.03721421       0.01479334 </v>
  </varray>
  <varray name="stress" >
   <v>       0.34761704      -0.05112710      -0.24845107 </v>
   <v>      -0.05112692       0.01519587      -0.27993158 </v>
   <v>      -0.24845114      -0.27993144      -0.29699770 </v>
  </varray>
  <energy>
   <i name="e_fr_energy">   -191.39514520 </i>
   <i name="e_wo_entrp">   -191.29724658 </i>
   <i name="e_0_energy">     -0.19579725 </i>
  </energy>
  <time name="totalsc">  377.97  378.97</time>
 </calculation>
 <calculation>
  <scstep>
   <time name="dav">   22.75   22.80</time>
   <time name="total">   23.26   23.31</time>
   <energy>
    <i name="alphaZ">     90.04589826 </i>
    <i name="ewald">  44592.59910286 </i>
    <i name="hartreedc"> -50601.07848198 </i>
    <i name="XCdc">   -233.51486421 </i>
    <i name="pawpsdc">   4087.10528060 </i>
    <i name="pawaedc">  -3503.10227120 </i>
    <i name="eentropy">     -0.19884796 </i>
    <i name="bandstr">  -1384.72837151 </i>
    <i name="atom">   6761.44252427 </i>
    <i name="e_fr_energy">   -191.43003087 </i>
    <i name="e_wo_entrp">   -191.23118291 </i>
    <i name="e_0_energy">   -191.33060689 </i>
   </energy>
  </scstep>
  <scstep>
   <time name="dav">   32.69   32.77</time>
   <time name="total">   33.20   33.29</time>
   <energy>
    <i name="e_fr_energy">   -191.46989333 </i>
    <i name="e_wo_entrp">   -191.26198866 </i>
    <i name="e_0_energy">   -191.36594099 </i>
   </energy>
  </scstep>
  <scstep>
   <time name="dav">   31.79   31.87</time>
   <time name="total">   32.30   32.39</time>
   <energy>
    <i name="e_fr_energy">   -191.43957089 </i>
    <i name="e_wo_entrp">   -191.24075046 </i>
    <i name="e_0_energy">   -191.34016068 </i>
   </energy>
  </scstep>
  <scstep>
   <time name="dav">   29.13   29.20</time>
   <time name="total">   29.64   29.72</time>
   <energy>
    <i name="e_fr_energy">   -191.43989441 </i>
    <i name="e_wo_entrp">   -191.24000738 </i>
    <i name="e_0_energy">   -191.33995090 </i>
   </energy>
  </scstep>
  <scstep>
   <time name="dav">   28.27   28.34</time>
   <time name="total">   28.78   28.86</time>
   <energy>
    <i name="e_fr_energy">   -191.43805662 </i>
    <i name="e_wo_entrp">   -191.23761547 </i>
    <i name="e_0_energy">   -191.33783604 </i>
   </energy>
  </scstep>
  <scstep>
   <time name="dav">   29.95   30.02</time>
   <time name="total">   30.46   30.54</time>
   <energy>
    <i name="e_fr_energy">   -191.43799580 </i>
    <i name="e_wo_entrp">   -191.23761942 </i>
    <i name="e_0_energy">   -191.33780761 </i>
   </energy>
  </scstep>
  <scstep>
   <time name="dav">   27.14   27.20</time>
   <time name="total">   27.64   27.72</time>
   <energy>
    <i name="e_fr_energy">   -191.43823587 </i>
    <i name="e_wo_entrp">   -191.23906662 </i>
    <i name="e_0_energy">   -191.33865125 </i>
   </energy>
  </scstep>
  <scstep>
   <time name="dav">   23.95   24.01</time>
   <time name="total">   24.46   24.53</time>
   <energy>
    <i name="e_fr_energy">   -191.43768633 </i>
    <i name="e_wo_entrp">   -191.23771000 </i>
    <i name="e_0_energy">   -191.33769816 </i>
   </energy>
  </scstep>
  <scstep>
   <time name="dav">   18.04   18.09</time>
   <time name="total">   18.08   18.24</time>
   <energy>
    <i name="alphaZ">     90.04589826 </i>
    <i name="ewald">  44592.59910286 </i>
    <i name="hartreedc"> -50603.12870958 </i>
    <i name="XCdc">   -233.45587612 </i>
    <i name="pawpsdc">   4082.59382421 </i>
    <i name="pawaedc">  -3498.52717990 </i>
    <i name="eentropy">     -0.19999237 </i>
    <i name="bandstr">  -1382.80729652 </i>
    <i name="atom">   6761.44252427 </i>
    <i name="e_fr_energy">   -191.43770490 </i>
    <i name="e_wo_entrp">   -191.23771252 </i>
    <i name="e_0_energy">   -191.33770871 </i>
   </energy>
  </scstep>
  <structure>
   <crystal>
    <varray name="basis" >
     <v>       8.28954810       4.77298689       0.00000000 </v>
     <v>      -8.29575973       4.78372981       0.00000000 </v>
     <v>       0.00000000       0.00000000      30.00000000 </v>
    </varray>
    <i name="volume">   2377.51532348 </i>
    <varray name="rec_basis" >
     <v>       0.06036213       0.10467768       0.00000000 </v>
     <v>      -0.06022658       0.10459930       0.00000000 </v>
     <v>       0.00000000       0.00000000       0.03333333 </v>
    </varray>
   </crystal>
   <varray name="positions" >
    <v>       0.66624953       0.67177181      -0.00016630 </v>
    <v>       0.00522518       0.66765603      -0.00056872 </v>
    <v>       0.00065506       0.00627607      -0.00010662 </v>
    <v>       0.66095641       0.01143619       0.00006086 </v>
    <v>       0.34977047       0.00388293      -0.00004388 </v>
    <v>       0.99456737       0.32591998       0.00024278 </v>
    <v>       0.32394455       0.32808554       0.00040570 </v>
    <v>       0.33422065       0.67335786      -0.00002293 </v>
    <v>       0.66437337       0.31379327       0.00015543 </v>
    <v>       0.10767801       0.21529064       0.94754251 </v>
    <v>       0.21610187       0.10671969       0.05095085 </v>
    <v>       0.10890434       0.55853611       0.94870185 </v>
    <v>       0.22248035       0.44559590       0.05191206 </v>
    <v>       0.10727518       0.88729187       0.95127104 </v>
    <v>       0.21675308       0.77545766       0.05169768 </v>
    <v>       0.44579998       0.22384313       0.94724720 </v>
    <v>       0.55598776       0.11158574       0.05625257 </v>
    <v>       0.44841997       0.55771903       0.94924470 </v>
    <v>       0.55863711       0.44775860       0.04929806 </v>
    <v>       0.44530252       0.88829664       0.94585953 </v>
    <v>       0.55823384       0.77633192       0.05104278 </v>
    <v>       0.77791640       0.22239995       0.94518786 </v>
    <v>       0.89015193       0.10603229       0.05187912 </v>
    <v>       0.77912003       0.55764235       0.95202285 </v>
    <v>       0.88975733       0.44939925       0.05111376 </v>
    <v>       0.78027561       0.88773576       0.95066655 </v>
    <v>       0.88945655       0.77839823       0.04815261 </v>
   </varray>
  </structure>
  <varray name="forces" >
   <v>      -0.13333107       0.13830709      -0.00239914 </v>
   <v>       0.03865145       0.06112614      -0.04221741 </v>
   <v>      -0.18411128       0.05700271       0.02465210 </v>
   <v>      -0.18373721      -0.02671592      -0.01137069 </v>
   <v>       0.28369845       0.12091293       0.01886795 </v>
   <v>       0.15509416      -0.08709060      -0.03027097 </v>
   <v>      -0.28537777      -0.17664250       0.02156174 </v>
   <v>      -0.07351156       0.14430202      -0.03232702 </v>
   <v>       0.29290658      -0.14527252       0.00164971 </v>
   <v>      -0.02360628      -0.02329859      -0.14097672 </v>
   <v>       0.08184198      -0.01251925      -0.06845276 </v>
   <v>       0.06523173      -0.00215997       0.02514307 </v>
   <v>      -0.08447834      -0.01405178       0.03343418 </v>
   <v>       0.06067524       0.15946426       0.10609390 </v>
   <v>       0.00085805       0.06131264       0.04815750 </v>
   <v>       0.01131158      -0.00321008       0.07216553 </v>
   <v>       0.03053535      -0.00091417       0.21668189 </v>
   <v>      -0.04251282      -0.05538711       0.01034264 </v>
   <v>       0.08261146      -0.07020333      -0.19126393 </v>
   <v>       0.02191596       0.03631153      -0.11841372 </v>
   <v>      -0.08342140       0.05623411       0.03342883 </v>
   <v>       0.04338000       0.00655903      -0.10613666 </v>
   <v>      -0.06010390      -0.08208661       0.05005392 </v>
   <v>       0.07909223      -0.12433237       0.14241332 </v>
   <v>       0.04388326      -0.06881863      -0.01377564 </v>
   <v>      -0.12869480       0.02758834      -0.02597754 </v>
   <v>      -0.00880105       0.02358262      -0.02106410 </v>
  </varray>
  <varray name="stress" >
   <v>      -0.24806753       0.03905919      -0.08745320 </v>
   <v>       0.03905918      -0.25319192      -0.13566305 </v>
   <v>      -0.08745315      -0.13566296      -1.09564203 </v>
  </varray>
  <energy>
   <i name="e_fr_energy">   -191.43770490 </i>
   <i name="e_wo_entrp">   -191.33770871 </i>
   <i name="e_0_energy">     -0.19999237 </i>
  </energy>
  <time name="totalsc">  291.43  292.30</time>
 </calculation>
 <calculation>
  <scstep>
   <time name="dav">   22.77   22.83</time>
   <time name="total">   23.28   23.34</time>
   <energy>
    <i name="alphaZ">     90.28634397 </i>
    <i name="ewald">  44694.40515724 </i>
    <i name="hartreedc"> -50707.78865717 </i>
    <i name="XCdc">   -233.32063265 </i>
    <i name="pawpsdc">   4082.41328336 </i>
    <i name="pawaedc">  -3498.34472181 </i>
    <i name="eentropy">     -0.20196069 </i>
    <i name="bandstr">  -1380.37656464 </i>
    <i name="atom">   6761.44252427 </i>
    <i name="e_fr_energy">   -191.48522812 </i>
    <i name="e_wo_entrp">   -191.28326744 </i>
    <i name="e_0_energy">   -191.38424778 </i>
   </energy>
  </scstep>
  <scstep>
   <time name="dav">   33.71   33.79</time>
   <time name="total">   34.22   34.31</time>
   <energy>
    <i name="e_fr_energy">   -191.53588073 </i>
    <i name="e_wo_entrp">   -191.32014382 </i>
    <i name="e_0_energy">   -191.42801227 </i>
   </energy>
  </scstep>
  <scstep>
   <time name="dav">   31.97   32.05</time>
   <time name="total">   32.48   32.57</time>
   <energy>
    <i name="e_fr_energy">   -191.49613814 </i>
    <i name="e_wo_entrp">   -191.29446442 </i>
    <i name="e_0_energy">   -191.39530128 </i>
   </energy>
  </scstep>
  <scstep>
   <time name="dav">   28.70   28.77</time>
   <time name="total">   29.21   29.29</time>
   <energy>
    <i name="e_fr_energy">   -191.49395195 </i>
    <i name="e_wo_entrp">   -191.29066700 </i>
    <i name="e_0_energy">   -191.39230948 </i>
   </energy>
  </scstep>
  <scstep>
   <time name="dav">   29.73   29.80</time>
   <time name="total">   30.24   30.32</time>
   <energy>
    <i name="e_fr_energy">   -191.49184109 </i>
    <i name="e_wo_entrp">   -191.28731573 </i>
    <i name="e_0_energy">   -191.38957841 </i>
   </energy>
  </scstep>
  <scstep>
   <time name="dav">   29.72   29.80</time>
   <time name="total">   30.23   30.31</time>
   <energy>
    <i name="e_fr_energy">   -191.49098477 </i>
    <i name="e_wo_entrp">   -191.28619805 </i>
    <i name="e_0_energy">   -191.38859141 </i>
   </energy>
  </scstep>
  <scstep>
   <time name="dav">   29.63   29.70</time>
   <time name="total">   30.13   30.21</time>
   <energy>
    <i name="e_fr_energy">   -191.49157057 </i>
    <i name="e_wo_entrp">   -191.28866309 </i>
    <i name="e_0_energy">   -191.39011683 </i>
   </energy>
  </scstep>
  <scstep>
   <time name="dav">   25.78   25.85</time>
   <time name="total">   26.29   26.36</time>
   <energy>
    <i name="e_fr_energy">   -191.49034106 </i>
    <i name="e_wo_entrp">   -191.28579567 </i>
    <i name="e_0_energy">   -191.38806837 </i>
   </energy>
  </scstep>
  <scstep>
   <time name="dav">   17.30   17.35</time>
   <time name="total">   17.35   17.39</time>
   <energy>
    <i name="alphaZ">     90.28634397 </i>
    <i name="ewald">  44694.40515724 </i>
    <i name="hartreedc"> -50706.49630853 </i>
    <i name="XCdc">   -233.37707603 </i>
    <i name="pawpsdc">   4084.92595982 </i>
    <i name="pawaedc">  -3500.89075442 </i>
    <i name="eentropy">     -0.20432513 </i>
    <i name="bandstr">  -1381.58187852 </i>
    <i name="atom">   6761.44252427 </i>
    <i name="e_fr_energy">   -191.49035733 </i>
    <i name="e_wo_entrp">   -191.28603220 </i>
    <i name="e_0_energy">   -191.38819476 </i>
   </energy>
  </scstep>
  <structure>
   <crystal>
    <varray name="basis" >
     <v>       8.27943178       4.76734226       0.00000000 </v>
     <v>      -8.28455312       4.77619189       0.00000000 </v>
     <v>       0.00000000       0.00000000      30.00000000 </v>
    </varray>
    <i name="volume">   2371.18365339 </i>
    <varray name="rec_basis" >
     <v>       0.06042795       0.10481541       0.00000000 </v>
     <v>      -0.06031598       0.10475062       0.00000000 </v>
     <v>       0.00000000       0.00000000       0.03333333 </v>
    </varray>
   </crystal>
   <varray name="positions" >
    <v>       0.66661534       0.67327506      -0.00017597 </v>
    <v>       0.00588330       0.66791956      -0.00066827 </v>
    <v>       0.00035925       0.00751125      -0.00005580 </v>
    <v>       0.65992900       0.01216988       0.00003232 </v>
    <v>       0.35201947       0.00369328      -0.00000120 </v>
    <v>       0.99450861       0.32461661       0.00018532 </v>
    <v>       0.32149678       0.32793926       0.00046311 </v>
    <v>       0.33492866       0.67470767      -0.00008561 </v>
    <v>       0.66445824       0.31133616       0.00015825 </v>
    <v>       0.10736992       0.21516074       0.94713844 </v>
    <v>       0.21629360       0.10622842       0.05087507 </v>
    <v>       0.10911558       0.55825783       0.94867418 </v>
    <v>       0.22202310       0.44583835       0.05205362 </v>
    <v>       0.10863236       0.88816004       0.95144586 </v>
    <v>       0.21714563       0.77590106       0.05188569 </v>
[...]
      <set comment="kpoint 31">
       <r>  -17.4929    1.0000 </r>
       <r>  -17.2838    1.0000 </r>
       <r>  -16.9068    1.0000 </r>
       <r>  -16.6515    1.0000 </r>
       <r>  -16.4952    1.0000 </r>
       <r>  -16.4051    1.0000 </r>
       <r>  -16.3099    1.0000 </r>
       <r>  -16.2362    1.0000 </r>
       <r>  -16.0808    1.0000 </r>
       <r>  -16.0539    1.0000 </r>
       <r>  -15.9437    1.0000 </r>
       <r>  -15.9006    1.0000 </r>
       <r>  -15.8155    1.0000 </r>
       <r>  -15.6484    1.0000 </r>
       <r>  -15.5921    1.0000 </r>
       <r>  -15.5211    1.0000 </r>
       <r>  -15.4141    1.0000 </r>
       <r>  -15.2027    1.0000 </r>
       <r>   -9.7550    1.0000 </r>
       <r>   -9.4961    1.0000 </r>
       <r>   -9.2712    1.0000 </r>
       <r>   -8.9587    1.0000 </r>
       <r>   -8.8484    1.0000 </r>
       <r>   -8.7036    1.0000 </r>
       <r>   -8.5264    1.0000 </r>
       <r>   -8.4931    1.0000 </r>
       <r>   -8.3585    1.0000 </r>
       <r>   -8.3294    1.0000 </r>
       <r>   -8.3094    1.0000 </r>
       <r>   -8.1705    1.0000 </r>
       <r>   -8.1424    1.0000 </r>
       <r>   -8.0782    1.0000 </r>
       <r>   -7.9861    1.0000 </r>
       <r>   -7.8754    1.0000 </r>
       <r>   -7.8061    1.0000 </r>
       <r>   -7.6817    1.0000 </r>
       <r>   -7.5775    1.0000 </r>
       <r>   -7.4264    1.0000 </r>
       <r>   -7.3470    1.0000 </r>
       <r>   -7.2407    1.0000 </r>
       <r>   -7.1439    1.0000 </r>
       <r>   -7.0816    1.0000 </r>
       <r>   -6.9956    1.0000 </r>
       <r>   -6.9714    1.0000 </r>
       <r>   -6.7995    1.0000 </r>
       <r>   -6.7122    1.0000 </r>
       <r>   -6.6365    1.0000 </r>
       <r>   -6.6152    1.0000 </r>
       <r>   -6.5792    1.0000 </r>
       <r>   -6.4814    1.0000 </r>
       <r>   -6.4695    1.0000 </r>
       <r>   -6.3457    1.0000 </r>
       <r>   -6.2673    1.0000 </r>
       <r>   -6.2022    1.0000 </r>
       <r>   -6.1435    1.0000 </r>
       <r>   -6.0760    1.0000 </r>
       <r>   -6.0491    1.0000 </r>
       <r>   -5.9476    1.0000 </r>
       <r>   -5.8979    1.0000 </r>
       <r>   -5.8100    1.0000 </r>
       <r>   -5.7322    1.0000 </r>
       <r>   -5.6791    1.0000 </r>
       <r>   -5.5695    1.0000 </r>
       <r>   -5.3202    1.0000 </r>
       <r>   -5.2515    1.0000 </r>
       <r>   -5.1365    1.0000 </r>
       <r>   -5.0449    1.0000 </r>
       <r>   -4.9569    1.0000 </r>
       <r>   -4.8885    1.0000 </r>
       <r>   -4.6385    1.0000 </r>
       <r>   -4.5405    1.0000 </r>
       <r>   -4.4955    1.0000 </r>
       <r>   -4.4173    1.0000 </r>
       <r>   -4.2485    1.0000 </r>
       <r>   -4.1934    1.0000 </r>
       <r>   -4.1227    1.0000 </r>
       <r>   -3.7899    1.0000 </r>
       <r>   -3.6801    0.9993 </r>
       <r>   -3.4754    0.9584 </r>
       <r>   -3.0001    0.0517 </r>
       <r>   -2.9574    0.0268 </r>
       <r>   -2.7574    0.0004 </r>
       <r>   -2.6407    0.0000 </r>
       <r>   -2.5629    0.0000 </r>
       <r>   -2.4945    0.0000 </r>
       <r>   -2.4125    0.0000 </r>
       <r>   -2.2666    0.0000 </r>
       <r>   -2.1397    0.0000 </r>
       <r>   -2.0966    0.0000 </r>
       <r>   -2.0036    0.0000 </r>
       <r>   -1.8947    0.0000 </r>
       <r>   -1.6798    0.0000 </r>
       <r>   -1.4893    0.0000 </r>
       <r>   -1.2464    0.0000 </r>
       <r>   -1.1844    0.0000 </r>
       <r>   -1.1372    0.0000 </r>
       <r>   -1.1146    0.0000 </r>
       <r>   -1.0323    0.0000 </r>
       <r>   -0.9805    0.0000 </r>
       <r>   -0.8772    0.0000 </r>
       <r>   -0.7840    0.0000 </r>
       <r>   -0.7254    0.0000 </r>
       <r>   -0.6855    0.0000 </r>
       <r>   -0.5214    0.0000 </r>
       <r>   -0.4801    0.0000 </r>
       <r>   -0.3367    0.0000 </r>
       <r>   -0.2344    0.0000 </r>
       <r>   -0.0898    0.0000 </r>
       <r>    0.0852    0.0000 </r>
       <r>    0.1612    0.0000 </r>
       <r>    0.4722    0.0000 </r>
       <r>    0.6215    0.0000 </r>
       <r>    0.7766    0.0000 </r>
       <r>    0.8692    0.0000 </r>
       <r>    1.0495    0.0000 </r>
       <r>    1.1420    0.0000 </r>
       <r>    1.3251    0.0000 </r>
       <r>    2.1192    0.0000 </r>
       <r>    2.2824    0.0000 </r>
       <r>    2.3824    0.0000 </r>
      </set>
      <set comment="kpoint 32">
       <r>  -17.5062    1.0000 </r>
       <r>  -17.2233    1.0000 </r>
       <r>  -17.0070    1.0000 </r>
       <r>  -16.6465    1.0000 </r>
       <r>  -16.4219    1.0000 </r>
       <r>  -16.3630    1.0000 </r>
       <r>  -16.2953    1.0000 </r>
       <r>  -16.2491    1.0000 </r>
       <r>  -16.1409    1.0000 </r>
       <r>  -16.0598    1.0000 </r>
       <r>  -15.9562    1.0000 </r>
       <r>  -15.8844    1.0000 </r>
       <r>  -15.8278    1.0000 </r>
       <r>  -15.6825    1.0000 </r>
       <r>  -15.5643    1.0000 </r>
       <r>  -15.5188    1.0000 </r>
       <r>  -15.4044    1.0000 </r>
       <r>  -15.2035    1.0000 </r>
       <r>   -9.6823    1.0000 </r>
       <r>   -9.5640    1.0000 </r>
       <r>   -9.3631    1.0000 </r>
       <r>   -8.9462    1.0000 </r>
       <r>   -8.7093    1.0000 </r>
       <r>   -8.6048    1.0000 </r>
       <r>   -8.5525    1.0000 </r>
       <r>   -8.4346    1.0000 </r>
       <r>   -8.4047    1.0000 </r>
       <r>   -8.3633    1.0000 </r>
       <r>   -8.3149    1.0000 </r>
       <r>   -8.2064    1.0000 </r>
       <r>   -8.1572    1.0000 </r>
       <r>   -8.0899    1.0000 </r>
       <r>   -8.0286    1.0000 </r>
       <r>   -7.9157    1.0000 </r>
       <r>   -7.7513    1.0000 </r>
       <r>   -7.7265    1.0000 </r>
       <r>   -7.5674    1.0000 </r>
       <r>   -7.4291    1.0000 </r>
       <r>   -7.3508    1.0000 </r>
       <r>   -7.2978    1.0000 </r>
       <r>   -7.1737    1.0000 </r>
       <r>   -7.0873    1.0000 </r>
       <r>   -7.0097    1.0000 </r>
       <r>   -6.8519    1.0000 </r>
       <r>   -6.8013    1.0000 </r>
       <r>   -6.7543    1.0000 </r>
       <r>   -6.6914    1.0000 </r>
       <r>   -6.6040    1.0000 </r>
       <r>   -6.5535    1.0000 </r>
       <r>   -6.5063    1.0000 </r>
       <r>   -6.4425    1.0000 </r>
       <r>   -6.3490    1.0000 </r>
       <r>   -6.3165    1.0000 </r>
       <r>   -6.2294    1.0000 </r>
       <r>   -6.1432    1.0000 </r>
       <r>   -6.0512    1.0000 </r>
       <r>   -5.9886    1.0000 </r>
       <r>   -5.9470    1.0000 </r>
       <r>   -5.8507    1.0000 </r>
       <r>   -5.7405    1.0000 </r>
       <r>   -5.6878    1.0000 </r>
       <r>   -5.6058    1.0000 </r>
       <r>   -5.5152    1.0000 </r>
       <r>   -5.4520    1.0000 </r>
       <r>   -5.2749    1.0000 </r>
       <r>   -5.2140    1.0000 </r>
       <r>   -5.0647    1.0000 </r>
       <r>   -4.9528    1.0000 </r>
       <r>   -4.8532    1.0000 </r>
       <r>   -4.6596    1.0000 </r>
       <r>   -4.5614    1.0000 </r>
       <r>   -4.5156    1.0000 </r>
       <r>   -4.3757    1.0000 </r>
       <r>   -4.2505    1.0000 </r>
       <r>   -4.1883    1.0000 </r>
       <r>   -4.0874    1.0000 </r>
       <r>   -3.8087    1.0000 </r>
       <r>   -3.6763    0.9992 </r>
       <r>   -3.4166    0.9060 </r>
       <r>   -3.1402    0.2619 </r>
       <r>   -2.9737    0.0347 </r>
       <r>   -2.7495    0.0003 </r>
       <r>   -2.6406    0.0000 </r>
       <r>   -2.5320    0.0000 </r>
       <r>   -2.4624    0.0000 </r>
       <r>   -2.3927    0.0000 </r>
       <r>   -2.2870    0.0000 </r>
       <r>   -2.1277    0.0000 </r>
       <r>   -2.0689    0.0000 </r>
       <r>   -1.9769    0.0000 </r>
       <r>   -1.8685    0.0000 </r>
       <r>   -1.7620    0.0000 </r>
       <r>   -1.4996    0.0000 </r>
       <r>   -1.2335    0.0000 </r>
       <r>   -1.1831    0.0000 </r>
       <r>   -1.1191    0.0000 </r>
       <r>   -1.0962    0.0000 </r>
       <r>   -0.9952    0.0000 </r>
       <r>   -0.9290    0.0000 </r>
       <r>   -0.9067    0.0000 </r>
       <r>   -0.7820    0.0000 </r>
       <r>   -0.7358    0.0000 </r>
       <r>   -0.6923    0.0000 </r>
       <r>   -0.5553    0.0000 </r>
       <r>   -0.4724    0.0000 </r>
       <r>   -0.3798    0.0000 </r>
       <r>   -0.2439    0.0000 </r>
       <r>   -0.1038    0.0000 </r>
       <r>    0.0372    0.0000 </r>
       <r>    0.1229    0.0000 </r>
       <r>    0.4325    0.0000 </r>
       <r>    0.6517    0.0000 </r>
       <r>    0.7882    0.0000 </r>
       <r>    0.9128    0.0000 </r>
       <r>    1.0298    0.0000 </r>
       <r>    1.1931    0.0000 </r>
       <r>    1.3300    0.0000 </r>
       <r>    2.0905    0.0000 </r>
       <r>    2.2502    0.0000 </r>
       <r>    2.5446    0.0000 </r>
      </set>
      <set comment="kpoint 33">
       <r>  -17.4829    1.0000 </r>
       <r>  -17.3032    1.0000 </r>
       <r>  -16.9009    1.0000 </r>
       <r>  -16.6469    1.0000 </r>
       <r>  -16.4849    1.0000 </r>
       <r>  -16.4078    1.0000 </r>
       <r>  -16.3157    1.0000 </r>
       <r>  -16.2246    1.0000 </r>
       <r>  -16.0978    1.0000 </r>
       <r>  -16.0485    1.0000 </r>
       <r>  -15.9470    1.0000 </r>
       <r>  -15.8736    1.0000 </r>
       <r>  -15.8125    1.0000 </r>
       <r>  -15.7223    1.0000 </r>
       <r>  -15.5481    1.0000 </r>
       <r>  -15.5096    1.0000 </r>
       <r>  -15.4247    1.0000 </r>
       <r>  -15.2056    1.0000 </r>
       <r>   -9.7260    1.0000 </r>
       <r>   -9.4558    1.0000 </r>
       <r>   -9.3257    1.0000 </r>
       <r>   -8.9340    1.0000 </r>
       <r>   -8.8130    1.0000 </r>
       <r>   -8.7287    1.0000 </r>
       <r>   -8.5551    1.0000 </r>
       <r>   -8.4935    1.0000 </r>
       <r>   -8.4234    1.0000 </r>
       <r>   -8.3405    1.0000 </r>
       <r>   -8.2879    1.0000 </r>
       <r>   -8.1739    1.0000 </r>
       <r>   -8.1284    1.0000 </r>
       <r>   -8.0485    1.0000 </r>
       <r>   -7.9856    1.0000 </r>
       <r>   -7.8532    1.0000 </r>
       <r>   -7.7877    1.0000 </r>
       <r>   -7.6769    1.0000 </r>
       <r>   -7.6252    1.0000 </r>
       <r>   -7.4147    1.0000 </r>
       <r>   -7.3278    1.0000 </r>
       <r>   -7.2702    1.0000 </r>
       <r>   -7.2216    1.0000 </r>
       <r>   -7.0986    1.0000 </r>
       <r>   -7.0330    1.0000 </r>
       <r>   -6.8977    1.0000 </r>
       <r>   -6.8003    1.0000 </r>
       <r>   -6.7231    1.0000 </r>
       <r>   -6.6631    1.0000 </r>
       <r>   -6.6000    1.0000 </r>
       <r>   -6.5252    1.0000 </r>
       <r>   -6.5047    1.0000 </r>
       <r>   -6.4418    1.0000 </r>
       <r>   -6.3562    1.0000 </r>
       <r>   -6.3195    1.0000 </r>
       <r>   -6.2329    1.0000 </r>
       <r>   -6.1397    1.0000 </r>
       <r>   -6.0883    1.0000 </r>
       <r>   -6.0063    1.0000 </r>
       <r>   -5.9338    1.0000 </r>
       <r>   -5.8660    1.0000 </r>
       <r>   -5.8108    1.0000 </r>
       <r>   -5.6931    1.0000 </r>
       <r>   -5.6422    1.0000 </r>
       <r>   -5.5982    1.0000 </r>
       <r>   -5.3714    1.0000 </r>
       <r>   -5.2546    1.0000 </r>
       <r>   -5.1728    1.0000 </r>
       <r>   -5.0448    1.0000 </r>
       <r>   -4.8957    1.0000 </r>
       <r>   -4.7943    1.0000 </r>
       <r>   -4.7315    1.0000 </r>
       <r>   -4.5114    1.0000 </r>
       <r>   -4.4888    1.0000 </r>
       <r>   -4.3636    1.0000 </r>
       <r>   -4.2515    1.0000 </r>
       <r>   -4.1889    1.0000 </r>
       <r>   -4.0855    1.0000 </r>
       <r>   -3.8009    1.0000 </r>
       <r>   -3.6906    0.9994 </r>
       <r>   -3.4575    0.9459 </r>
       <r>   -3.2300    0.4988 </r>
       <r>   -2.9653    0.0304 </r>
       <r>   -2.7517    0.0004 </r>
       <r>   -2.6329    0.0000 </r>
       <r>   -2.5466    0.0000 </r>
       <r>   -2.4334    0.0000 </r>
       <r>   -2.3944    0.0000 </r>
       <r>   -2.2877    0.0000 </r>
       <r>   -2.1166    0.0000 </r>
       <r>   -2.0274    0.0000 </r>
       <r>   -1.9462    0.0000 </r>
       <r>   -1.8884    0.0000 </r>
       <r>   -1.7577    0.0000 </r>
       <r>   -1.4898    0.0000 </r>
       <r>   -1.2520    0.0000 </r>
       <r>   -1.1861    0.0000 </r>
       <r>   -1.1263    0.0000 </r>
       <r>   -1.0671    0.0000 </r>
       <r>   -0.9684    0.0000 </r>
       <r>   -0.9147    0.0000 </r>
       <r>   -0.8794    0.0000 </r>
       <r>   -0.7920    0.0000 </r>
       <r>   -0.7523    0.0000 </r>
       <r>   -0.6823    0.0000 </r>
       <r>   -0.5838    0.0000 </r>
       <r>   -0.5117    0.0000 </r>
       <r>   -0.4018    0.0000 </r>
       <r>   -0.2338    0.0000 </r>
       <r>   -0.1664    0.0000 </r>
       <r>   -0.0470    0.0000 </r>
       <r>    0.1665    0.0000 </r>
       <r>    0.3479    0.0000 </r>
       <r>    0.6269    0.0000 </r>
       <r>    0.8423    0.0000 </r>
       <r>    0.9696    0.0000 </r>
       <r>    1.0614    0.0000 </r>
       <r>    1.2219    0.0000 </r>
       <r>    1.3950    0.0000 </r>
       <r>    2.1219    0.0000 </r>
       <r>    2.2789    0.0000 </r>
       <r>    2.3733    0.0000 </r>
      </set>
      <set comment="kpoint 34">
       <r>  -17.4419    1.0000 </r>
       <r>  -17.3778    1.0000 </r>
       <r>  -16.7636    1.0000 </r>
       <r>  -16.6832    1.0000 </r>
       <r>  -16.5843    1.0000 </r>
       <r>  -16.4244    1.0000 </r>
       <r>  -16.3097    1.0000 </r>
       <r>  -16.2273    1.0000 </r>
       <r>  -16.0666    1.0000 </r>
       <r>  -16.0422    1.0000 </r>
       <r>  -15.9364    1.0000 </r>
       <r>  -15.8462    1.0000 </r>
       <r>  -15.8125    1.0000 </r>
       <r>  -15.7451    1.0000 </r>
       <r>  -15.5442    1.0000 </r>
       <r>  -15.4955    1.0000 </r>
       <r>  -15.4497    1.0000 </r>
       <r>  -15.2069    1.0000 </r>
       <r>   -9.7569    1.0000 </r>
       <r>   -9.3595    1.0000 </r>
       <r>   -9.2600    1.0000 </r>
       <r>   -8.9434    1.0000 </r>
       <r>   -8.9028    1.0000 </r>
       <r>   -8.8585    1.0000 </r>
       <r>   -8.5472    1.0000 </r>
       <r>   -8.5274    1.0000 </r>
       <r>   -8.4482    1.0000 </r>
       <r>   -8.3208    1.0000 </r>
       <r>   -8.2463    1.0000 </r>
       <r>   -8.1830    1.0000 </r>
       <r>   -8.1106    1.0000 </r>
       <r>   -8.0180    1.0000 </r>
       <r>   -7.9287    1.0000 </r>
       <r>   -7.8347    1.0000 </r>
       <r>   -7.7781    1.0000 </r>
       <r>   -7.6998    1.0000 </r>
       <r>   -7.5530    1.0000 </r>
       <r>   -7.4133    1.0000 </r>
       <r>   -7.3958    1.0000 </r>
       <r>   -7.2563    1.0000 </r>
       <r>   -7.2102    1.0000 </r>
       <r>   -7.1392    1.0000 </r>
       <r>   -7.0345    1.0000 </r>
       <r>   -6.9183    1.0000 </r>
       <r>   -6.7602    1.0000 </r>
       <r>   -6.7058    1.0000 </r>
       <r>   -6.6417    1.0000 </r>
       <r>   -6.5646    1.0000 </r>
       <r>   -6.5576    1.0000 </r>
       <r>   -6.5031    1.0000 </r>
       <r>   -6.4185    1.0000 </r>
       <r>   -6.3362    1.0000 </r>
       <r>   -6.3142    1.0000 </r>
       <r>   -6.2530    1.0000 </r>
       <r>   -6.2347    1.0000 </r>
       <r>   -6.1000    1.0000 </r>
       <r>   -6.0317    1.0000 </r>
       <r>   -5.9277    1.0000 </r>
       <r>   -5.8698    1.0000 </r>
       <r>   -5.8188    1.0000 </r>
       <r>   -5.7626    1.0000 </r>
       <r>   -5.6539    1.0000 </r>
       <r>   -5.5603    1.0000 </r>
       <r>   -5.4283    1.0000 </r>
       <r>   -5.2462    1.0000 </r>
       <r>   -5.0332    1.0000 </r>
       <r>   -5.0155    1.0000 </r>
       <r>   -4.9364    1.0000 </r>
       <r>   -4.8359    1.0000 </r>
       <r>   -4.6649    1.0000 </r>
       <r>   -4.4964    1.0000 </r>
       <r>   -4.4547    1.0000 </r>
       <r>   -4.3580    1.0000 </r>
       <r>   -4.2490    1.0000 </r>
       <r>   -4.1947    1.0000 </r>
       <r>   -4.1008    1.0000 </r>
       <r>   -3.7825    1.0000 </r>
       <r>   -3.7019    0.9996 </r>
       <r>   -3.5295    0.9828 </r>
       <r>   -3.2404    0.5281 </r>
       <r>   -2.9529    0.0249 </r>
       <r>   -2.7547    0.0004 </r>
       <r>   -2.6288    0.0000 </r>
       <r>   -2.5626    0.0000 </r>
       <r>   -2.4296    0.0000 </r>
       <r>   -2.3932    0.0000 </r>
       <r>   -2.2837    0.0000 </r>
       <r>   -2.1135    0.0000 </r>
       <r>   -2.0042    0.0000 </r>
       <r>   -1.9496    0.0000 </r>
       <r>   -1.8870    0.0000 </r>
       <r>   -1.7418    0.0000 </r>
       <r>   -1.4757    0.0000 </r>
       <r>   -1.2653    0.0000 </r>
       <r>   -1.1934    0.0000 </r>
       <r>   -1.1297    0.0000 </r>
       <r>   -1.0532    0.0000 </r>
       <r>   -0.9814    0.0000 </r>
       <r>   -0.8867    0.0000 </r>
       <r>   -0.8555    0.0000 </r>
       <r>   -0.8212    0.0000 </r>
       <r>   -0.7357    0.0000 </r>
       <r>   -0.6732    0.0000 </r>
       <r>   -0.6369    0.0000 </r>
       <r>   -0.5013    0.0000 </r>
       <r>   -0.4252    0.0000 </r>
       <r>   -0.2205    0.0000 </r>
       <r>   -0.2014    0.0000 </r>
       <r>   -0.0594    0.0000 </r>
       <r>    0.1700    0.0000 </r>
       <r>    0.3007    0.0000 </r>
       <r>    0.6149    0.0000 </r>
       <r>    0.8738    0.0000 </r>
       <r>    0.9976    0.0000 </r>
       <r>    1.0793    0.0000 </r>
       <r>    1.2316    0.0000 </r>
       <r>    1.4370    0.0000 </r>
       <r>    2.2048    0.0000 </r>
       <r>    2.2232    0.0000 </r>
       <r>    2.3620    0.0000 </r>
      </set>
     </set>
    </set>
   </array>
  </eigenvalues>
  <separator name="orbital magnetization" >
   <v name="MAGDIPOLOUT">      0.00000000      0.00000000      0.00000000</v>
  </separator>
 </calculation>
 <structure name="finalpos" >
  <crystal>
   <varray name="basis" >
    <v>       8.39170576       4.83852781       0.00000000 </v>
    <v>      -8.37969584       4.81758151       0.00000000 </v>
    <v>       0.00000000       0.00000000      30.00000000 </v>
   </varray>
   <i name="volume">   2429.19353548 </i>
   <varray name="rec_basis" >
    <v>       0.05949606       0.10348738       0.00000000 </v>
    <v>      -0.05975474       0.10363570       0.00000000 </v>
    <v>       0.00000000       0.00000000       0.03333333 </v>
   </varray>
  </crystal>
  <varray name="positions" >
   <v>       0.65354866       0.68582636      -0.00096668 </v>
   <v>       0.03411127       0.68708706      -0.00162836 </v>
   <v>      -0.02112957       0.00254871       0.00000537 </v>
   <v>       0.66597225       0.00672639       0.00017778 </v>
   <v>       0.35383455       0.00226207       0.00000036 </v>
   <v>       0.95922223       0.31157132       0.00046022 </v>
   <v>       0.34951704       0.30908727       0.00144864 </v>
   <v>       0.35060032       0.70137575       0.00031847 </v>
   <v>       0.65180929       0.30193030      -0.00059043 </v>
   <v>       0.10895147       0.21987389       0.95253275 </v>
   <v>       0.21461149       0.09873907       0.05007198 </v>
   <v>       0.11349803       0.55662184       0.95165166 </v>
   <v>       0.22165812       0.44163664       0.04083630 </v>
   <v>       0.11135580       0.89483596       0.95232939 </v>
   <v>       0.22295574       0.77860202       0.05416978 </v>
   <v>       0.44526395       0.21736214       0.94368065 </v>
   <v>       0.55779563       0.10781449       0.05698164 </v>
   <v>       0.44424193       0.55483565       0.95172701 </v>
   <v>       0.56325361       0.44876608       0.04922832 </v>
   <v>       0.44949015       0.89184888       0.94358165 </v>
   <v>       0.55774348       0.77898292       0.05407365 </v>
   <v>       0.77082873       0.21780282       0.94305279 </v>
   <v>       0.88707596       0.10684958       0.05367960 </v>
   <v>       0.78119031       0.55979050       0.95955042 </v>
   <v>       0.88505569       0.44869343       0.04969252 </v>
   <v>       0.77880870       0.88884158       0.94847688 </v>
   <v>       0.88694963       0.77790173       0.04545755 </v>
  </varray>
 </structure>
</modeling>
