unknown system                          
           1
     8.860370    5.104213    0.000000
    -8.861713    5.106523    0.000000
     0.000000    0.000000   30.000000
   V    Mo   W    S 
   3   3   3  18
Direct configuration=     1
   0.66666669  0.66666669  0.00000000
   0.00000000  0.66666669  0.00000000
   0.00000000  0.00000000  0.00000000
   0.66666669  0.00000000  0.00000000
   0.33333334  0.00000000  0.00000000
   1.00000000  0.33333334  0.00000000
   0.33333334  0.33333334  0.00000000
   0.33333334  0.66666669  0.00000000
   0.66666669  0.33333334  0.00000000
   0.11068511  0.22244981  0.95539999
   0.22244981  0.11068511  0.04460000
   0.11068511  0.55578315  0.95539999
   0.22244981  0.44401845  0.04460000
   0.11068511  0.88911647  0.95539999
   0.22244981  0.77735180  0.04460000
   0.44401845  0.22244981  0.95539999
   0.55578315  0.11068511  0.04460000
   0.44401845  0.55578315  0.95539999
   0.55578315  0.44401845  0.04460000
   0.44401845  0.88911647  0.95539999
   0.55578315  0.77735180  0.04460000
   0.77735180  0.22244981  0.95539999
   0.88911647  0.11068511  0.04460000
   0.77735180  0.55578315  0.95539999
   0.88911647  0.44401845  0.04460000
   0.77735180  0.88911647  0.95539999
   0.88911647  0.77735180  0.04460000
unknown system                          
           1
     8.670166    4.997242    0.000000
    -8.671477    4.999499    0.000000
     0.000000    0.000000   30.000000
   V    Mo   W    S 
   3   3   3  18
Direct configuration=     2
   0.66752130  0.66827048  0.00002016
   0.00070222  0.66718739 -0.00001113
  -0.00046588  0.00021958 -0.00001306
   0.66681041  0.00127849  0.00014849
   0.33445875 -0.00007887  0.00006017
   0.99858244  0.33185910 -0.00009794
   0.33161176  0.33156001 -0.00015443
   0.33326296  0.66827732 -0.00016916
   0.66717797  0.33089334  0.00016742
   0.10987023  0.21824173  0.95188686
   0.21816098  0.10974684  0.04806946
   0.10967514  0.55832390  0.95199794
   0.22295337  0.44486352  0.04917081
   0.10655994  0.88678723  0.95316958
   0.21808593  0.77512150  0.04810336
   0.44474369  0.22311379  0.95076913
   0.55598712  0.11204855  0.04937111
   0.44790056  0.55715432  0.95190900
   0.55727165  0.44802011  0.04802050
   0.44384017  0.88763264  0.95077983
   0.55702995  0.77494231  0.04797372
   0.77743548  0.22268166  0.95069007
   0.89109352  0.10852198  0.04799043
   0.77922851  0.55904941  0.95317778
   0.88990434  0.44836513  0.04804085
   0.77990364  0.88660771  0.95308040
   0.88890829  0.77752527  0.04584853
unknown system                          
           1
     8.486361    4.897799    0.000000
    -8.487610    4.899952    0.000000
     0.000000    0.000000   30.000000
   V    Mo   W    S 
   3   3   3  18
Direct configuration=     3
   0.66760211  0.66862397  0.00001267
   0.00100645  0.66730538 -0.00006497
  -0.00047529  0.00046659 -0.00002194
   0.66658131  0.00206261  0.00017190
   0.33536396  0.00016004  0.00002910
   0.99814561  0.33139062 -0.00006162
   0.33108127  0.33113470 -0.00011585
   0.33326442  0.66872273 -0.00018726
   0.66708408  0.32967567  0.00019335
   0.11000325  0.21821775  0.95183336
   0.21816196  0.10988336  0.04804537
   0.10986790  0.55848042  0.95200274
   0.22320462  0.44497468  0.04908172
   0.10646771  0.88671040  0.95326129
   0.21810760  0.77495543  0.04812287
   0.44486884  0.22337930  0.95077956
   0.55613382  0.11228146  0.04954589
   0.44771477  0.55709964  0.95198677
   0.55721733  0.44783213  0.04787006
   0.44373295  0.88740325  0.95070355
   0.55684241  0.77482168  0.04795525
   0.77731647  0.22281379  0.95056984
   0.89113545  0.10843756  0.04803620
   0.77918348  0.55887923  0.95332224
   0.88972506  0.44834612  0.04801872
   0.77996464  0.88659058  0.95314042
   0.88891228  0.77756536  0.04576867
unknown system                          
           1
     8.280777    4.772651    0.000000
    -8.285784    4.781313    0.000000
     0.000000    0.000000   30.000000
   V    Mo   W    S 
   3   3   3  18
Direct configuration=     4
   0.66716384  0.66943914 -0.00003710
   0.00239608  0.66740566 -0.00026691
  -0.00005553  0.00211154 -0.00006410
   0.66507251  0.00541202  0.00018631
   0.33966583  0.00145232 -0.00007997
   0.99670481  0.32973426  0.00008068
   0.32920751  0.32991956  0.00008488
   0.33331181  0.67008726 -0.00015983
   0.66619788  0.32448462  0.00019662
   0.10916790  0.21686029  0.95010563
   0.21696539  0.10899663  0.04941604
   0.10933046  0.55891777  0.95055703
   0.22342136  0.44517067  0.05033871
   0.10548981  0.88616655  0.95231347
   0.21703578  0.77447702  0.04967999
   0.44512942  0.22373793  0.94919227
   0.55621600  0.11224970  0.05196093
   0.44848753  0.55759216  0.95078894
   0.55780978  0.44853275  0.04873339
   0.44394017  0.88745583  0.94876219
   0.55732372  0.77451751  0.04932842
   0.77729657  0.22283812  0.94845246
   0.89157879  0.10759858  0.04966103
   0.77963271  0.55952672  0.95257429
   0.89023545  0.44949204  0.04941554
   0.78049989  0.88629093  0.95206873
   0.88898897  0.77774685  0.04671027
unknown system                          
           1
     8.289548    4.772987    0.000000
    -8.295760    4.783730    0.000000
     0.000000    0.000000   30.000000
   V    Mo   W    S 
   3   3   3  18
Direct configuration=     5
   0.66614486  0.67091893 -0.00016551
   0.00482823  0.66752175 -0.00054424
   0.00080417  0.00550332 -0.00015430
   0.66146058  0.01153013  0.00007801
   0.34868104  0.00400311 -0.00015296
   0.99443295  0.32661804  0.00027384
   0.32536808  0.32811246  0.00038984
   0.33374467  0.67263296  0.00000525
   0.66438840  0.31468323  0.00010770
   0.10781896  0.21519679  0.94773810
   0.21573015  0.10718294  0.05106487
   0.10867627  0.55886584  0.94868125
   0.22298051  0.44547345  0.05187011
   0.10574940  0.88636579  0.95113097
   0.21624171  0.77482013  0.05165064
   0.44561751  0.22390070  0.94722205
   0.55606204  0.11172776  0.05574895
   0.44901574  0.55797314  0.94922470
   0.55861436  0.44865431  0.04960417
   0.44482949  0.88802432  0.94607902
   0.55810490  0.77533250  0.05105332
   0.77762538  0.22252328  0.94550069
   0.89117311  0.10635925  0.05183314
   0.77974378  0.55907224  0.95178451
   0.89034519  0.45014975  0.05115575
   0.78073593  0.88686296  0.95066132
   0.88929705  0.77820538  0.04815871
unknown system                          
           1
     8.279432    4.767342    0.000000
    -8.284553    4.776192    0.000000
     0.000000    0.000000   30.000000
   V    Mo   W    S 
   3   3   3  18
Direct configuration=     6
   0.66624953  0.67177181 -0.00016630
   0.00522518  0.66765603 -0.00056872
   0.00065506  0.00627607 -0.00010662
   0.66095641  0.01143619  0.00006086
   0.34977047  0.00388293 -0.00004388
   0.99456737  0.32591998  0.00024278
   0.32394455  0.32808554  0.00040570
   0.33422065  0.67335786 -0.00002293
   0.66437337  0.31379327  0.00015543
   0.10767801  0.21529064  0.94754251
   0.21610187  0.10671969  0.05095085
   0.10890434  0.55853611  0.94870185
   0.22248035  0.44559590  0.05191206
   0.10727518  0.88729187  0.95127104
   0.21675308  0.77545766  0.05169768
   0.44579998  0.22384313  0.94724720
   0.55598776  0.11158574  0.05625257
   0.44841997  0.55771903  0.94924470
   0.55863711  0.44775860  0.04929806
   0.44530252  0.88829664  0.94585953
   0.55823384  0.77633192  0.05104278
   0.77791640  0.22239995  0.94518786
   0.89015193  0.10603229  0.05187912
   0.77912003  0.55764235  0.95202285
   0.88975733  0.44939925  0.05111376
   0.78027561  0.88773576  0.95066655
   0.88945655  0.77839823  0.04815261
unknown system                          
           1
     8.288793    4.771527    0.000000
    -8.294098    4.780692    0.000000
     0.000000    0.000000   30.000000
   V    Mo   W    S 
   3   3   3  18
Direct configuration=     7
   0.66661534  0.67327506 -0.00017597
   0.00588330  0.66791956 -0.00066827
   0.00035925  0.00751125 -0.00005580
   0.65992900  0.01216988  0.00003232
   0.35201947  0.00369328 -0.00000120
   0.99450861  0.32461661  0.00018532
   0.32149678  0.32793926  0.00046311
   0.33492866  0.67470767 -0.00008561
   0.66445824  0.31133616  0.00015825
   0.10736992  0.21516074  0.94713844
   0.21629360  0.10622842  0.05087507
   0.10911558  0.55825783  0.94867418
   0.22202310  0.44583835  0.05205362
   0.10863236  0.88816004  0.95144586
   0.21714563  0.77590106  0.05188569
   0.44584874  0.22377968  0.94731226
   0.55608454  0.11143328  0.05688478
   0.44789578  0.55752298  0.94919790
   0.55852708  0.44695584  0.04892663
   0.44568472  0.88849254  0.94548827
   0.55833158  0.77709682  0.05118718
   0.77815332  0.22225922  0.94482646
   0.88932103  0.10565345  0.05207776
   0.77858009  0.55644801  0.95229313
   0.88945358  0.44877880  0.05115915
   0.77995737  0.88846576  0.95055074
   0.88959779  0.77861289  0.04817063
unknown system                          
           1
     8.293879    4.772480    0.000000
    -8.299112    4.781519    0.000000
     0.000000    0.000000   30.000000
   V    Mo   W    S 
   3   3   3  18
Direct configuration=     8
   0.66685576  0.67364870 -0.00017086
   0.00590409  0.66800221 -0.00068377
   0.00020761  0.00760273 -0.00004604
   0.65997018  0.01189595  0.00003206
   0.35187322  0.00334822  0.00002108
   0.99463888  0.32446721  0.00019091
   0.32103832  0.32804262  0.00047597
   0.33508133  0.67488571 -0.00009468
   0.66472201  0.31148725  0.00018785
   0.10735211  0.21514419  0.94713835
   0.21632403  0.10624172  0.05078085
   0.10917268  0.55824908  0.94874611
   0.22197279  0.44590973  0.05201842
   0.10872586  0.88824423  0.95153330
   0.21718655  0.77589277  0.05184585
   0.44581639  0.22378216  0.94743342
   0.55610338  0.11142170  0.05682533
   0.44785784  0.55749555  0.94925216
   0.55842760  0.44686280  0.04879445
   0.44571277  0.88846322  0.94550851
   0.55828184  0.77708121  0.05116018
   0.77819574  0.22222246  0.94486251
   0.88926264  0.10563862  0.05203984
   0.77852103  0.55637284  0.95237806
   0.88945894  0.44870254  0.05109631
   0.77995675  0.88847790  0.95056313
   0.88959411  0.77863114  0.04811059
unknown system                          
           1
     8.280504    4.768943    0.000000
    -8.286536    4.779376    0.000000
     0.000000    0.000000   30.000000
   V    Mo   W    S 
   3   3   3  18
Direct configuration=     9
   0.66750854  0.67508035 -0.00016644
   0.00624451  0.66829784 -0.00076769
  -0.00019719  0.00834988 -0.00001188
   0.65950440  0.01185326  0.00001268
   0.35276849  0.00259373  0.00006023
   0.99477790  0.32352433  0.00017146
   0.31900525  0.32818610  0.00051762
   0.33570355  0.67585061 -0.00014835
   0.66530077  0.31050399  0.00022810
   0.10713864  0.21499603  0.94691345
   0.21638997  0.10603263  0.05061119
   0.10933758  0.55813201  0.94883186
   0.22169078  0.44617223  0.05207061
   0.10935178  0.88871241  0.95173086
   0.21736357  0.77601391  0.05190619
   0.44578036  0.22377078  0.94767443
   0.55617828  0.11130694  0.05704456
   0.44762980  0.55739685  0.94930046
   0.55820208  0.44640007  0.04840985
   0.44592962  0.88849293  0.94533526
   0.55823954  0.77731464  0.05122404
   0.77835170  0.22208206  0.94472899
   0.88886354  0.10543009  0.05211751
   0.77821844  0.55582109  0.95261639
   0.88940323  0.44837347  0.05105509
   0.77987243  0.88875164  0.95048195
   0.88965689  0.77877460  0.04805148
unknown system                          
           1
     8.277472    4.769101    0.000000
    -8.283990    4.780383    0.000000
     0.000000    0.000000   30.000000
   V    Mo   W    S 
   3   3   3  18
Direct configuration=    10
   0.66580247  0.67178717 -0.00019256
   0.00559462  0.66759437 -0.00057922
   0.00073047  0.00691653 -0.00007936
   0.66033893  0.01230963  0.00005490
   0.35143561  0.00472423 -0.00003023
   0.99454096  0.32550722  0.00019518
   0.32327038  0.32762559  0.00044512
   0.33433457  0.67380378 -0.00002064
   0.66373740  0.31206980  0.00010552
   0.10762976  0.21534221  0.94737171
   0.21627021  0.10632338  0.05100821
   0.10904098  0.55833937  0.94861100
   0.22228484  0.44558593  0.05193868
   0.10839106  0.88790435  0.95135952
   0.21708397  0.77592989  0.05178158
   0.44589985  0.22377338  0.94705287
   0.55603777  0.11156140  0.05673404
   0.44795645  0.55757103  0.94918405
   0.55875952  0.44726421  0.04925792
   0.44549998  0.88850509  0.94568114
   0.55839307  0.77709096  0.05106407
   0.77805480  0.22241088  0.94496062
   0.88952667  0.10580605  0.05194428
   0.77875808  0.55667664  0.95215584
   0.88936061  0.44890169  0.05112699
   0.77993473  0.88841832  0.95072483
   0.88954671  0.77847134  0.04814385
unknown system                          
           1
     8.271863    4.766795    0.000000
    -8.278368    4.778057    0.000000
     0.000000    0.000000   30.000000
   V    Mo   W    S 
   3   3   3  18
Direct configuration=    11
   0.66423937  0.66932605 -0.00023299
   0.00536666  0.66698285 -0.00046308
   0.00142309  0.00625815 -0.00012418
   0.66072722  0.01306008  0.00008034
   0.35127838  0.00689256 -0.00003701
   0.99436003  0.32677648  0.00020156
   0.32626491  0.32679817  0.00042308
   0.33335470  0.67259637  0.00007943
   0.66206239  0.31238407  0.00005565
   0.10802179  0.21559497  0.94761379
   0.21629061  0.10637414  0.05131452
   0.10894170  0.55841508  0.94841768
   0.22264147  0.44517682  0.05182861
   0.10832916  0.88767498  0.95121309
   0.21711124  0.77617842  0.05170001
   0.44600940  0.22379423  0.94647290
   0.55600051  0.11182314  0.05676004
   0.44787763  0.55750302  0.94910543
   0.55913448  0.44757905  0.04978765
   0.44530731  0.88861840  0.94585215
   0.55857269  0.77728325  0.05092559
   0.77800825  0.22266528  0.94497956
   0.88970047  0.10600162  0.05183383
   0.77890642  0.55674493  0.95195714
   0.88909318  0.44896224  0.05112781
   0.77975445  0.88850047  0.95098709
   0.88943695  0.77824964  0.04814020
unknown system                          
           1
     8.278266    4.769649    0.000000
    -8.284756    4.780883    0.000000
     0.000000    0.000000   30.000000
   V    Mo   W    S 
   3   3   3  18
Direct configuration=    12
   0.66379899  0.66914000 -0.00028007
   0.00575965  0.66681532 -0.00050016
   0.00152334  0.00659338 -0.00014361
   0.66060977  0.01364325  0.00007260
   0.35202000  0.00777703  0.00000361
   0.99396805  0.32663847  0.00017333
   0.32681869  0.32601945  0.00040958
   0.33323420  0.67297977  0.00010165
   0.66122118  0.31150649  0.00002023
   0.10821131  0.21568650  0.94763745
   0.21646180  0.10630679  0.05135003
   0.10909900  0.55838666  0.94840222
   0.22270481  0.44509872  0.05170732
   0.10893137  0.88800374  0.95137737
   0.21739524  0.77652481  0.05166260
   0.44602664  0.22377549  0.94632155
   0.55605901  0.11189762  0.05698275
   0.44744072  0.55717629  0.94916213
   0.55908024  0.44726086  0.04975397
   0.44536347  0.88878903  0.94587483
   0.55857094  0.77753979  0.05084729
   0.77808586  0.22278952  0.94492336
   0.88949104  0.10602083  0.05180016
   0.77868045  0.55625216  0.95212749
   0.88881130  0.44866617  0.05105023
   0.77949542  0.88875280  0.95114408
   0.88935196  0.77817352  0.04801789
unknown system                          
           1
     8.280948    4.770715    0.000000
    -8.287599    4.782227    0.000000
     0.000000    0.000000   30.000000
   V    Mo   W    S 
   3   3   3  18
Direct configuration=    13
   0.66413792  0.67017005 -0.00028711
   0.00613388  0.66693463 -0.00056064
   0.00121253  0.00719178 -0.00011855
   0.66042784  0.01358886  0.00008730
   0.35253454  0.00732827  0.00006414
   0.99383015  0.32594657  0.00017050
   0.32573626  0.32583907  0.00044091
   0.33370626  0.67386024  0.00007835
   0.66151872  0.31089104  0.00006682
   0.10808308  0.21559074  0.94747825
   0.21647506  0.10615340  0.05127602
   0.10922827  0.55828453  0.94843364
   0.22257149  0.44525617  0.05167731
   0.10932775  0.88833458  0.95150833
   0.21750198  0.77662141  0.05173866
   0.44598779  0.22374288  0.94641813
   0.55613804  0.11182570  0.05714253
   0.44721767  0.55705080  0.94920223
   0.55894142  0.44697063  0.04951166
   0.44551558  0.88884711  0.94573439
   0.55852065  0.77764044  0.05090927
   0.77819029  0.22272665  0.94480359
   0.88926906  0.10592448  0.05187393
   0.77846358  0.55589430  0.95229769
   0.88875737  0.44845501  0.05102332
   0.77943288  0.88890975  0.95106258
   0.88935440  0.77823536  0.04796665
unknown system                          
           1
     8.274699    4.767314    0.000000
    -8.281447    4.778995    0.000000
     0.000000    0.000000   30.000000
   V    Mo   W    S 
   3   3   3  18
Direct configuration=    14
   0.66433824  0.67085669 -0.00030271
   0.00646461  0.66698388 -0.00060745
   0.00098830  0.00758970 -0.00010601
   0.66031240  0.01359156  0.00008800
   0.35292044  0.00716736  0.00009230
   0.99366638  0.32548495  0.00015205
   0.32507964  0.32547904  0.00045378
   0.33400546  0.67461056  0.00005587
   0.66161068  0.31039438  0.00007370
   0.10801962  0.21553568  0.94739484
   0.21646206  0.10602306  0.05123331
   0.10933511  0.55822752  0.94846819
   0.22252490  0.44536723  0.05161492
   0.10960167  0.88854156  0.95163036
   0.21756390  0.77668697  0.05177848
   0.44598026  0.22370317  0.94648037
   0.55621276  0.11178903  0.05725257
   0.44701676  0.55695470  0.94925551
   0.55885809  0.44676763  0.04934911
   0.44561828  0.88892224  0.94566631
   0.55847544  0.77772377  0.05094813
   0.77823007  0.22268728  0.94474851
   0.88912470  0.10587372  0.05192267
   0.77833715  0.55563075  0.95244445
   0.88871316  0.44831390  0.05098763
   0.77939420  0.88904541  0.95101975
   0.88936019  0.77826271  0.04790526
unknown system                          
           1
     8.264358    4.761102    0.000000
    -8.270439    4.771625    0.000000
     0.000000    0.000000   30.000000
   V    Mo   W    S 
   3   3   3  18
Direct configuration=    15
   0.66419599  0.67010325 -0.00028622
   0.00629510  0.66688933 -0.00056860
   0.00133299  0.00724377 -0.00011679
   0.66033788  0.01375610  0.00006848
   0.35267682  0.00728757  0.00004781
   0.99391457  0.32610263  0.00015944
   0.32560885  0.32598016  0.00042622
   0.33341935  0.67374246  0.00007143
   0.66153321  0.31074211  0.00004663
   0.10812444  0.21565455  0.94745531
   0.21655927  0.10620323  0.05126706
   0.10922104  0.55829835  0.94844029
   0.22252603  0.44523479  0.05170518
   0.10942285  0.88832249  0.95153271
   0.21747766  0.77661031  0.05173058
   0.44598108  0.22375227  0.94645820
   0.55614802  0.11182742  0.05718707
   0.44712000  0.55696472  0.94918101
   0.55886193  0.44683815  0.04950337
   0.44552133  0.88883939  0.94572948
   0.55849878  0.77769306  0.05092269
   0.77819494  0.22274694  0.94480164
   0.88920475  0.10592347  0.05189179
   0.77850682  0.55581850  0.95231864
   0.88874438  0.44845716  0.05101249
   0.77937951  0.88897241  0.95104637
   0.88940684  0.77820986  0.04796761
unknown system                          
           1
     8.277792    4.768452    0.000000
    -8.284245    4.779619    0.000000
     0.000000    0.000000   30.000000
   V    Mo   W    S 
   3   3   3  18
Direct configuration=    16
   0.66399876  0.66958699 -0.00025951
   0.00634446  0.66678738 -0.00050485
   0.00160050  0.00728996 -0.00010424
   0.66019603  0.01400863  0.00009098
   0.35296000  0.00722279  0.00006591
   0.99440613  0.32653521  0.00018822
   0.32548990  0.32672857  0.00041469
   0.33299097  0.67295954  0.00010255
   0.66147950  0.31059074  0.00007606
   0.10813649  0.21576391  0.94738084
   0.21674408  0.10633752  0.05127151
   0.10914256  0.55824268  0.94828854
   0.22241826  0.44518829  0.05185365
   0.10959706  0.88837075  0.95146182
   0.21746331  0.77666547  0.05179086
   0.44594372  0.22377500  0.94645198
   0.55610037  0.11183460  0.05724374
   0.44709064  0.55693688  0.94908908
   0.55878113  0.44673202  0.04955941
   0.44551786  0.88874666  0.94568788
   0.55847348  0.77775203  0.05086744
   0.77827377  0.22281432  0.94472194
   0.88911072  0.10594163  0.05187721
   0.77853762  0.55574732  0.95223994
   0.88869751  0.44847566  0.05106832
   0.77925771  0.88901740  0.95106373
   0.88946191  0.77816251  0.04801220
unknown system                          
           1
     8.288579    4.773678    0.000000
    -8.295347    4.785390    0.000000
     0.000000    0.000000   30.000000
   V    Mo   W    S 
   3   3   3  18
Direct configuration=    17
   0.66447748  0.67124318 -0.00029969
   0.00664373  0.66702079 -0.00061728
   0.00088069  0.00783412 -0.00009150
   0.66018038  0.01359295  0.00009975
   0.35322002  0.00694852  0.00011465
   0.99371045  0.32525977  0.00015599
   0.32451546  0.32551530  0.00046273
   0.33416382  0.67491899  0.00004956
   0.66174427  0.31006183  0.00009553
   0.10796342  0.21552097  0.94731908
   0.21649633  0.10598231  0.05119191
   0.10937834  0.55817051  0.94845980
   0.22245932  0.44544779  0.05161507
   0.10978086  0.88867071  0.95168056
   0.21758574  0.77671536  0.05181848
   0.44596504  0.22368952  0.94654923
   0.55624274  0.11175815  0.05730673
   0.44691774  0.55691405  0.94927314
   0.55877774  0.44662714  0.04924035
   0.44568374  0.88893296  0.94560957
   0.55843174  0.77776700  0.05095926
   0.77827090  0.22266032  0.94469859
   0.88901453  0.10584442  0.05194804
   0.77826922  0.55547776  0.95251163
   0.88869893  0.44824141  0.05098039
   0.77935870  0.88911935  0.95098233
   0.88938310  0.77827927  0.04788602
unknown system                          
           1
     8.289554    4.774100    0.000000
    -8.296289    4.785754    0.000000
     0.000000    0.000000   30.000000
   V    Mo   W    S 
   3   3   3  18
Direct configuration=    18
   0.66518986  0.67344834 -0.00034146
   0.00718595  0.66726691 -0.00075527
  -0.00002573  0.00862621 -0.00006714
   0.66001568  0.01305132  0.00009650
   0.35369947  0.00626629  0.00017666
   0.99306554  0.32372315  0.00010925
   0.32276078  0.32431327  0.00051968
   0.33553806  0.67737250 -0.00002942
   0.66231935  0.30925831  0.00012470
   0.10770005  0.21524608  0.94714774
   0.21625626  0.10554336  0.05108024
   0.10966229  0.55804735  0.94863655
   0.22243124  0.44584493  0.05139251
   0.11010771  0.88907743  0.95194806
   0.21768887  0.77675768  0.05191038
   0.44596875  0.22359871  0.94673404
   0.55641348  0.11162258  0.05745107
   0.44666322  0.55687299  0.94946527
   0.55868449  0.44638345  0.04880262
   0.44594540  0.88915155  0.94544463
   0.55834921  0.77782573  0.05111562
   0.77830634  0.22244132  0.94462137
   0.88879185  0.10569987  0.05208660
   0.77795774  0.55508034  0.95284853
   0.88873674  0.44796872  0.05090646
   0.77944927  0.88930673  0.95081078
   0.88935260  0.77841935  0.04776393
unknown system                          
           1
     8.287722    4.772277    0.000000
    -8.294526    4.784049    0.000000
     0.000000    0.000000   30.000000
   V    Mo   W    S 
   3   3   3  18
Direct configuration=    19
   0.66511934  0.67303282 -0.00032814
   0.00714229  0.66721810 -0.00072745
   0.00018267  0.00853898 -0.00006981
   0.66002709  0.01315939  0.00008702
   0.35361875  0.00625209  0.00016173
   0.99335328  0.32407702  0.00010994
   0.32286261  0.32471438  0.00050280
   0.33516121  0.67676223 -0.00002323
   0.66230280  0.30941526  0.00011663
   0.10771861  0.21529044  0.94714412
   0.21631774  0.10563246  0.05109578
   0.10959628  0.55807174  0.94857357
   0.22238801  0.44578567  0.05149548
   0.11008313  0.88901736  0.95189641
   0.21765908  0.77674901  0.05192014
   0.44595351  0.22361589  0.94671955
   0.55637448  0.11163632  0.05745978
   0.44670883  0.55689005  0.94939913
   0.55866831  0.44638727  0.04888279
   0.44590858  0.88908656  0.94545343
   0.55835434  0.77782944  0.05109506
   0.77832249  0.22248449  0.94461424
   0.88880860  0.10571074  0.05207326
   0.77803107  0.55513241  0.95277691
   0.88873603  0.44803099  0.05094334
   0.77942772  0.88929400  0.95083135
   0.88938758  0.77839934  0.04779607
unknown system                          
           1
     8.287205    4.772155    0.000000
    -8.294036    4.783974    0.000000
     0.000000    0.000000   30.000000
   V    Mo   W    S 
   3   3   3  18
Direct configuration=    20
   0.66562142  0.67435926 -0.00032689
   0.00746635  0.66734235 -0.00078645
  -0.00029451  0.00909423 -0.00004004
   0.65984284  0.01285677  0.00010123
   0.35398880  0.00568635  0.00020182
   0.99321472  0.32321344  0.00010852
   0.32141233  0.32425335  0.00054629
   0.33593830  0.67806725 -0.00006546
   0.66280686  0.30887549  0.00016593
   0.10755053  0.21514976  0.94701632
   0.21621568  0.10544552  0.05098472
   0.10979005  0.55798931  0.94866965
   0.22232905  0.44605315  0.05138628
   0.11027430  0.88926140  0.95205265
   0.21774770  0.77674495  0.05196935
   0.44594277  0.22358924  0.94691530
   0.55648246  0.11155931  0.05748071
   0.44656288  0.55688857  0.94951656
   0.55852150  0.44616904  0.04856272
   0.44606398  0.88917332  0.94535628
   0.55823574  0.77783067  0.05116590
   0.77835135  0.22234571  0.94457937
   0.88866408  0.10565684  0.05213892
   0.77784271  0.55488826  0.95297165
   0.88876551  0.44783157  0.05089488
   0.77948813  0.88938594  0.95070600
   0.88938891  0.77850337  0.04772765
unknown system                          
           1
     8.281135    4.771480    0.000000
    -8.289055    4.785196    0.000000
     0.000000    0.000000   30.000000
   V    Mo   W    S 
   3   3   3  18
Direct configuration=    21
   0.66555706  0.67428374 -0.00033199
   0.00744425  0.66733686 -0.00078608
  -0.00028462  0.00903521 -0.00004304
   0.65987496  0.01287593  0.00010713
   0.35395789  0.00579648  0.00020317
   0.99311139  0.32322367  0.00011106
   0.32163403  0.32415575  0.00054633
   0.33593989  0.67809241 -0.00005770
   0.66271330  0.30889781  0.00016314
   0.10757652  0.21516043  0.94704059
   0.21621214  0.10544302  0.05099989
   0.10978315  0.55799335  0.94867414
   0.22235900  0.44602877  0.05136115
   0.11025481  0.88924327  0.95204411
   0.21774121  0.77675020  0.05195947
   0.44595090  0.22358563  0.94688144
   0.55648033  0.11156987  0.05747423
   0.44656205  0.55688105  0.94952016
   0.55855553  0.44620229  0.04859143
   0.44605090  0.88918460  0.94536558
   0.55825057  0.77783274  0.05116227
   0.77833923  0.22235445  0.94458341
   0.88868010  0.10566358  0.05213172
   0.77784986  0.55490556  0.95296375
   0.88875637  0.44784346  0.05088902
   0.77948476  0.88938449  0.95071726
   0.88937887  0.77848984  0.04772825
unknown system                          
           1
     8.295742    4.777550    0.000000
    -8.303369    4.790753    0.000000
     0.000000    0.000000   30.000000
   V    Mo   W    S 
   3   3   3  18
Direct configuration=    22
   0.66475351  0.67316843 -0.00041447
   0.00724319  0.66729571 -0.00075845
   0.00004088  0.00844235 -0.00009903
   0.66045124  0.01324412  0.00015366
   0.35347880  0.00732597  0.00019848
   0.99179485  0.32327676  0.00011935
   0.32434840  0.32269626  0.00052073
   0.33577798  0.67832826  0.00002118
   0.66145608  0.30922459  0.00009857
   0.10781645  0.21522981  0.94732641
   0.21610797  0.10531648  0.05124879
   0.10971833  0.55800895  0.94867426
   0.22273773  0.44579571  0.05106615
   0.11002062  0.88907752  0.95191763
   0.21763829  0.77681231  0.05190295
   0.44602959  0.22350156  0.94641142
   0.55644123  0.11165480  0.05747480
   0.44651575  0.55685236  0.94955647
   0.55898521  0.44663592  0.04901270
   0.44592187  0.88931561  0.94545648
   0.55842262  0.77790063  0.05112864
   0.77820809  0.22242752  0.94461147
   0.88883970  0.10567638  0.05206405
   0.77795953  0.55510501  0.95282621
   0.88868045  0.44802046  0.05085232
   0.77949767  0.88949207  0.95087357
   0.88932842  0.77838890  0.04775558
unknown system                          
           1
     8.293453    4.776421    0.000000
    -8.301398    4.790175    0.000000
     0.000000    0.000000   30.000000
   V    Mo   W    S 
   3   3   3  18
Direct configuration=    23
   0.66569996  0.67531259 -0.00040346
   0.00778398  0.66744478 -0.00086699
  -0.00068328  0.00920746 -0.00006004
   0.66009904  0.01251221  0.00013511
   0.35378957  0.00603102  0.00024316
   0.99174371  0.32212558  0.00009952
   0.32193991  0.32230511  0.00056470
   0.33691898  0.68024783 -0.00006891
   0.66251956  0.30866269  0.00016942
   0.10753538  0.21502253  0.94704022
   0.21595649  0.10502287  0.05112527
   0.10995408  0.55790485  0.94879080
   0.22257804  0.44621994  0.05101344
   0.11024907  0.88936819  0.95211677
   0.21771889  0.77682984  0.05203656
   0.44599734  0.22353003  0.94671969
   0.55654850  0.11151518  0.05757046
   0.44635672  0.55682707  0.94968168
   0.55871843  0.44627611  0.04852035
   0.44618115  0.88947629  0.94525320
   0.55826203  0.77788174  0.05131200
   0.77829127  0.22223397  0.94450129
   0.88860318  0.10557101  0.05224822
   0.77773070  0.55479776  0.95309618
   0.88875419  0.44779490  0.05085361
   0.77960548  0.88955233  0.95060744
   0.88936208  0.77854056  0.04770021
unknown system                          
           1
     8.290721    4.774221    0.000000
    -8.298674    4.787988    0.000000
     0.000000    0.000000   30.000000
   V    Mo   W    S 
   3   3   3  18
Direct configuration=    24
   0.66595440  0.67601724 -0.00041912
   0.00794069  0.66750162 -0.00090630
  -0.00091600  0.00938529 -0.00005887
   0.66010710  0.01229805  0.00014496
   0.35380858  0.00591706  0.00025534
   0.99137025  0.32158922  0.00009672
   0.32149951  0.32167022  0.00057808
   0.33738968  0.68115283 -0.00008338
   0.66267849  0.30847767  0.00017506
   0.10746714  0.21494282  0.94702101
   0.21585090  0.10487230  0.05111990
   0.11005565  0.55787263  0.94886388
   0.22262362  0.44635555  0.05089437
   0.11024300  0.88942950  0.95217761
   0.21772355  0.77681795  0.05205716
   0.44601736  0.22352325  0.94675362
   0.55658114  0.11147157  0.05758072
   0.44629079  0.55684649  0.94976284
   0.55872432  0.44624750  0.04841145
   0.44625029  0.88957177  0.94519986