   27   27  100    1
  0.9710400E+02  0.1002848E-08  0.1002848E-08  0.3000000E-08  0.5000000E-15
  1.000000000000000E-004
  CAR 
 unknown system                          
    159     34    120
 
  0.0000000E+00  0.0000000E+00  0.0000000E+00  0.1562500E-01
    1      -17.825794   1.000000
    2      -16.775854   1.000000
    3      -16.608111   1.000000
    4      -16.596108   1.000000
    5      -16.535719   1.000000
    6      -16.525134   1.000000
    7      -16.417584   1.000000
    8      -16.255982   1.000000
    9      -16.199782   1.000000
   10      -16.152324   1.000000
   11      -16.105470   1.000000
   12      -15.939275   1.000000
   13      -15.909386   1.000000
   14      -15.644941   1.000000
   15      -15.595948   1.000000
   16      -15.493769   1.000000
   17      -15.272520   1.000000
   18      -15.218744   1.000000
   19       -9.308824   1.000000
   20       -9.045292   1.000000
   21       -8.938250   1.000000
   22       -8.851958   1.000000
   23       -8.726464   1.000000
   24       -8.709559   1.000000
   25       -8.692024   1.000000
   26       -8.669048   1.000000
   27       -8.541784   1.000000
   28       -8.480226   1.000000
   29       -8.467260   1.000000
   30       -8.416444   1.000000
   31       -8.346694   1.000000
   32       -8.160661   1.000000
   33       -8.066758   1.000000
   34       -8.000177   1.000000
   35       -7.805242   1.000000
   36       -7.742652   1.000000
   37       -7.684038   1.000000
   38       -7.518894   1.000000
   39       -7.506114   1.000000
   40       -7.379342   1.000000
   41       -7.336389   1.000000
   42       -7.209723   1.000000
   43       -7.068143   1.000000
   44       -6.941330   1.000000
   45       -6.866982   1.000000
   46       -6.798533   1.000000
   47       -6.739422   1.000000
   48       -6.666275   1.000000
   49       -6.606144   1.000000
   50       -6.527612   1.000000
   51       -6.442095   1.000000
   52       -6.262231   1.000000
   53       -6.223472   1.000000
   54       -6.173424   1.000000
   55       -6.152682   1.000000
   56       -6.064729   1.000000
   57       -5.999875   1.000000
   58       -5.900282   1.000000
   59       -5.881998   1.000000
   60       -5.634702   1.000000
   61       -5.610930   1.000000
   62       -5.350973   1.000000
   63       -5.303466   1.000000
   64       -5.077904   1.000000
   65       -5.022076   1.000000
   66       -4.924296   1.000000
   67       -4.899906   1.000000
   68       -4.828999   1.000000
   69       -4.762535   1.000000
   70       -4.707255   1.000000
   71       -4.682321   1.000000
   72       -4.667926   1.000000
   73       -4.459896   1.000000
   74       -4.373867   1.000000
   75       -4.306170   1.000000
   76       -3.974162   1.000000
   77       -3.785348   0.999968
   78       -3.608393   0.996957
   79       -3.499434   0.975732
   80       -3.191317   0.418370
   81       -3.173680   0.370406
   82       -2.853369   0.004720
   83       -2.767981   0.000688
   84       -2.630474   0.000015
   85       -2.572345   0.000002
   86       -2.491420   0.000000
   87       -2.246011   0.000000
   88       -2.225100   0.000000
   89       -2.204975   0.000000
   90       -2.065637   0.000000
   91       -1.705661   0.000000
   92       -1.629424   0.000000
   93       -1.380610   0.000000
   94       -1.206060   0.000000
   95       -1.074780   0.000000
   96       -0.995045   0.000000
   97       -0.949993   0.000000
   98       -0.904410   0.000000
   99       -0.822502   0.000000
  100       -0.635028   0.000000
  101       -0.597397   0.000000
  102       -0.528633   0.000000
  103       -0.383992   0.000000
  104       -0.285480   0.000000
  105       -0.225225   0.000000
  106       -0.157200   0.000000
  107       -0.103753   0.000000
  108       -0.054721   0.000000
  109        0.068962   0.000000
  110        0.231836   0.000000
  111        0.295301   0.000000
  112        0.410772   0.000000
  113        0.827854   0.000000
  114        0.947797   0.000000
  115        1.004404   0.000000
  116        1.143422   0.000000
  117        1.217216   0.000000
  118        1.653895   0.000000
  119        1.846503   0.000000
  120        2.170501   0.000000
 
  0.1250000E+00  0.2775558E-16  0.0000000E+00  0.3125000E-01
    1      -17.799991   1.000000
    2      -16.785087   1.000000
    3      -16.757890   1.000000
    4      -16.626820   1.000000
    5      -16.546818   1.000000
    6      -16.437028   1.000000
    7      -16.376326   1.000000
    8      -16.327943   1.000000
    9      -16.209596   1.000000
   10      -16.086189   1.000000
   11      -16.020158   1.000000
   12      -15.968169   1.000000
   13      -15.865121   1.000000
   14      -15.640378   1.000000
   15      -15.593783   1.000000
   16      -15.503788   1.000000
   17      -15.291078   1.000000
   18      -15.224680   1.000000
   19       -9.293599   1.000000
   20       -9.182266   1.000000
   21       -9.084386   1.000000
   22       -8.961046   1.000000
   23       -8.777372   1.000000
   24       -8.722417   1.000000
   25       -8.670327   1.000000
   26       -8.622022   1.000000
   27       -8.543947   1.000000
   28       -8.463251   1.000000
   29       -8.396265   1.000000
   30       -8.377551   1.000000
   31       -8.269592   1.000000
   32       -8.009015   1.000000
   33       -7.969354   1.000000
   34       -7.948780   1.000000
   35       -7.808845   1.000000
   36       -7.734112   1.000000
   37       -7.695472   1.000000
   38       -7.553337   1.000000
   39       -7.443521   1.000000
   40       -7.382186   1.000000
   41       -7.296684   1.000000
   42       -7.256493   1.000000
   43       -7.091886   1.000000
   44       -6.978386   1.000000
   45       -6.908843   1.000000
   46       -6.800245   1.000000
   47       -6.729092   1.000000
   48       -6.664720   1.000000
   49       -6.615061   1.000000
   50       -6.500289   1.000000
   51       -6.439799   1.000000
   52       -6.302851   1.000000
   53       -6.236418   1.000000
   54       -6.196774   1.000000
   55       -6.138171   1.000000
   56       -6.046694   1.000000
   57       -5.991408   1.000000
   58       -5.899343   1.000000
   59       -5.792493   1.000000
   60       -5.617084   1.000000
   61       -5.553723   1.000000
   62       -5.368590   1.000000
   63       -5.337357   1.000000
   64       -5.207324   1.000000
   65       -5.081336   1.000000
   66       -5.035446   1.000000
   67       -4.912767   1.000000
   68       -4.875791   1.000000
   69       -4.818502   1.000000
   70       -4.679566   1.000000
   71       -4.606553   1.000000
   72       -4.540523   1.000000
   73       -4.448689   1.000000
   74       -4.341275   1.000000
   75       -4.238168   1.000000
   76       -3.913616   1.000000
   77       -3.820382   0.999989
   78       -3.711015   0.999739
   79       -3.482337   0.967970
   80       -3.415165   0.915710
   81       -2.967127   0.036620
   82       -2.877640   0.007673
   83       -2.759150   0.000553
   84       -2.611005   0.000008
   85       -2.560723   0.000002
   86       -2.481694   0.000000
   87       -2.256054   0.000000
   88       -2.196705   0.000000
   89       -2.167741   0.000000
   90       -2.057786   0.000000
   91       -1.707623   0.000000
   92       -1.608880   0.000000
   93       -1.381248   0.000000
   94       -1.213627   0.000000
   95       -1.079722   0.000000
   96       -1.013132   0.000000
   97       -0.957492   0.000000
   98       -0.896620   0.000000
   99       -0.822758   0.000000
  100       -0.690932   0.000000
  101       -0.630522   0.000000
  102       -0.565088   0.000000
  103       -0.458985   0.000000
  104       -0.364314   0.000000
  105       -0.323232   0.000000
  106       -0.255499   0.000000
  107       -0.116599   0.000000
  108        0.018459   0.000000
  109        0.059244   0.000000
  110        0.261712   0.000000
  111        0.381171   0.000000
  112        0.473649   0.000000
  113        0.753555   0.000000
  114        0.923486   0.000000
  115        1.018704   0.000000
  116        1.154970   0.000000
  117        1.285104   0.000000
  118        1.699122   0.000000
  119        1.884514   0.000000
  120        2.206054   0.000000
 
  0.2500000E+00  0.5551115E-16  0.0000000E+00  0.3125000E-01
    1      -17.723680   1.000000
    2      -16.993357   1.000000
    3      -16.772287   1.000000
    4      -16.674747   1.000000
    5      -16.586726   1.000000
    6      -16.432320   1.000000
    7      -16.364699   1.000000
    8      -16.264326   1.000000
    9      -16.184681   1.000000
   10      -16.050748   1.000000
   11      -15.986496   1.000000
   12      -15.880278   1.000000
   13      -15.807821   1.000000
   14      -15.621015   1.000000
   15      -15.583335   1.000000
   16      -15.527186   1.000000
   17      -15.331784   1.000000
   18      -15.246967   1.000000
   19       -9.513894   1.000000
   20       -9.259381   1.000000
   21       -9.187002   1.000000
   22       -9.091005   1.000000
   23       -8.835767   1.000000
   24       -8.784039   1.000000
   25       -8.689969   1.000000
   26       -8.564186   1.000000
   27       -8.505961   1.000000
   28       -8.437931   1.000000
   29       -8.283411   1.000000
   30       -8.240253   1.000000
   31       -8.133059   1.000000
   32       -8.068562   1.000000
   33       -7.904442   1.000000
   34       -7.810181   1.000000
   35       -7.764256   1.000000
   36       -7.701440   1.000000
   37       -7.582792   1.000000
   38       -7.517504   1.000000
   39       -7.450335   1.000000
   40       -7.357936   1.000000
   41       -7.305676   1.000000
   42       -7.207213   1.000000
   43       -7.126965   1.000000
   44       -6.967520   1.000000
   45       -6.905049   1.000000
   46       -6.831749   1.000000
   47       -6.758045   1.000000
   48       -6.675954   1.000000
   49       -6.543091   1.000000
   50       -6.480399   1.000000
   51       -6.413252   1.000000
   52       -6.337247   1.000000
   53       -6.306242   1.000000
   54       -6.177205   1.000000
   55       -6.130622   1.000000
   56       -6.064181   1.000000
   57       -5.911484   1.000000
   58       -5.862018   1.000000
   59       -5.709674   1.000000
   60       -5.656435   1.000000
   61       -5.535376   1.000000
   62       -5.523581   1.000000
   63       -5.497114   1.000000
   64       -5.281870   1.000000
   65       -5.150771   1.000000
   66       -5.119770   1.000000
   67       -5.015122   1.000000
   68       -4.854986   1.000000
   69       -4.825687   1.000000
   70       -4.610140   1.000000
   71       -4.519090   1.000000
   72       -4.465402   1.000000
   73       -4.375844   1.000000
   74       -4.283442   1.000000
   75       -4.139775   1.000000
   76       -4.044393   1.000000
   77       -3.935485   1.000000
   78       -3.767509   0.999945
   79       -3.503626   0.977373
   80       -3.394644   0.890964
   81       -2.961701   0.033648
   82       -2.840112   0.003578
   83       -2.709914   0.000153
   84       -2.611270   0.000008
   85       -2.547533   0.000001
   86       -2.431183   0.000000
   87       -2.255813   0.000000
   88       -2.154303   0.000000
   89       -2.087913   0.000000
   90       -2.013651   0.000000
   91       -1.713900   0.000000
   92       -1.547986   0.000000
   93       -1.383864   0.000000
   94       -1.237393   0.000000
   95       -1.102597   0.000000
   96       -1.073208   0.000000
   97       -1.009392   0.000000
   98       -0.901574   0.000000
   99       -0.837052   0.000000
  100       -0.791002   0.000000
  101       -0.703023   0.000000
  102       -0.633584   0.000000
  103       -0.607815   0.000000
  104       -0.500638   0.000000
  105       -0.398869   0.000000
  106       -0.335892   0.000000
  107       -0.236175   0.000000
  108        0.006830   0.000000
  109        0.030102   0.000000
  110        0.271887   0.000000
  111        0.465853   0.000000
  112        0.580217   0.000000
  113        0.730058   0.000000
  114        0.935662   0.000000
  115        1.025563   0.000000
  116        1.164134   0.000000
  117        1.425307   0.000000
  118        1.824577   0.000000
  119        1.994823   0.000000
  120        2.311525   0.000000
 
  0.3750000E+00  0.0000000E+00  0.0000000E+00  0.3125000E-01
    1      -17.601153   1.000000
    2      -17.215444   1.000000
    3      -16.785259   1.000000
    4      -16.687022   1.000000
    5      -16.626836   1.000000
    6      -16.475735   1.000000
    7      -16.332333   1.000000
    8      -16.202760   1.000000
    9      -16.155812   1.000000
   10      -16.058702   1.000000
   11      -15.892404   1.000000
   12      -15.831884   1.000000
   13      -15.782672   1.000000
   14      -15.632517   1.000000
   15      -15.580078   1.000000
   16      -15.494854   1.000000
   17      -15.361681   1.000000
   18      -15.286057   1.000000
   19       -9.738061   1.000000
   20       -9.341542   1.000000
   21       -9.273053   1.000000
   22       -9.027643   1.000000
   23       -8.906141   1.000000
   24       -8.832096   1.000000
   25       -8.650072   1.000000
   26       -8.556314   1.000000
   27       -8.464365   1.000000
   28       -8.317836   1.000000
   29       -8.286701   1.000000
   30       -8.186169   1.000000
   31       -8.122792   1.000000
   32       -7.983683   1.000000
   33       -7.911185   1.000000
   34       -7.854462   1.000000
   35       -7.791951   1.000000
   36       -7.735548   1.000000
   37       -7.586591   1.000000
   38       -7.519295   1.000000
   39       -7.353772   1.000000
   40       -7.323060   1.000000
   41       -7.178311   1.000000
   42       -7.137519   1.000000
   43       -7.051259   1.000000
   44       -6.935799   1.000000
   45       -6.874291   1.000000
   46       -6.784806   1.000000
   47       -6.696988   1.000000
   48       -6.667617   1.000000
   49       -6.520615   1.000000
   50       -6.496594   1.000000
   51       -6.356163   1.000000
   52       -6.293650   1.000000
   53       -6.248736   1.000000
   54       -6.205014   1.000000
   55       -6.082103   1.000000
   56       -6.046372   1.000000
   57       -6.014874   1.000000
   58       -5.979927   1.000000
   59       -5.860765   1.000000
   60       -5.683648   1.000000
   61       -5.663528   1.000000
   62       -5.567805   1.000000
   63       -5.489713   1.000000
   64       -5.352135   1.000000
   65       -5.186943   1.000000
   66       -5.075728   1.000000
   67       -4.997934   1.000000
   68       -4.831633   1.000000
   69       -4.771989   1.000000
   70       -4.721829   1.000000
   71       -4.558299   1.000000
   72       -4.459219   1.000000
   73       -4.312640   1.000000
   74       -4.279640   1.000000
   75       -4.184035   1.000000
   76       -4.118583   1.000000
   77       -3.869607   0.999998
   78       -3.761539   0.999935
   79       -3.568644   0.993092
   80       -3.217498   0.491647
   81       -3.009478   0.067868
   82       -2.833253   0.003091
   83       -2.687087   0.000081
   84       -2.633510   0.000017
   85       -2.536557   0.000001
   86       -2.370821   0.000000
   87       -2.222792   0.000000
   88       -2.121890   0.000000
   89       -2.030295   0.000000
   90       -1.942775   0.000000
   91       -1.714972   0.000000
   92       -1.500294   0.000000
   93       -1.367068   0.000000
   94       -1.263508   0.000000
   95       -1.191068   0.000000
   96       -1.144275   0.000000
   97       -1.067168   0.000000
   98       -0.951201   0.000000
   99       -0.867012   0.000000
  100       -0.808058   0.000000
  101       -0.786254   0.000000
  102       -0.720008   0.000000
  103       -0.653992   0.000000
  104       -0.575827   0.000000
  105       -0.481634   0.000000
  106       -0.406759   0.000000
  107       -0.316162   0.000000
  108       -0.056650   0.000000
  109       -0.030377   0.000000
  110        0.269453   0.000000
  111        0.461324   0.000000
  112        0.576995   0.000000
  113        0.880820   0.000000
  114        0.955891   0.000000
  115        1.024555   0.000000
  116        1.203840   0.000000
  117        1.536167   0.000000
  118        2.011788   0.000000
  119        2.170383   0.000000
  120        2.483828   0.000000
 
  0.5000000E+00  0.1110223E-15  0.0000000E+00  0.1562500E-01
    1      -17.475271   1.000000
    2      -17.376349   1.000000
    3      -16.793865   1.000000
    4      -16.680722   1.000000
    5      -16.647166   1.000000
    6      -16.490583   1.000000
    7      -16.322410   1.000000
    8      -16.183496   1.000000
    9      -16.149330   1.000000
   10      -16.052211   1.000000
   11      -15.825565   1.000000
   12      -15.824288   1.000000
   13      -15.775838   1.000000
   14      -15.680119   1.000000
   15      -15.576722   1.000000
   16      -15.461896   1.000000
   17      -15.349798   1.000000
   18      -15.325220   1.000000
   19       -9.818812   1.000000
   20       -9.375331   1.000000
   21       -9.314038   1.000000
   22       -8.965875   1.000000
   23       -8.935632   1.000000
   24       -8.815497   1.000000
   25       -8.672538   1.000000
   26       -8.588669   1.000000
   27       -8.430079   1.000000
   28       -8.298070   1.000000
   29       -8.232430   1.000000
   30       -8.150057   1.000000
   31       -8.102373   1.000000
   32       -8.018607   1.000000
   33       -7.912903   1.000000
   34       -7.863339   1.000000
   35       -7.853191   1.000000
   36       -7.732236   1.000000
   37       -7.614260   1.000000
   38       -7.513361   1.000000
   39       -7.396225   1.000000
   40       -7.344136   1.000000
   41       -7.115828   1.000000
   42       -7.035459   1.000000
   43       -6.986368   1.000000
   44       -6.865942   1.000000
   45       -6.816758   1.000000
   46       -6.706256   1.000000
   47       -6.618674   1.000000
   48       -6.602824   1.000000
   49       -6.538145   1.000000
   50       -6.511184   1.000000
   51       -6.430802   1.000000
   52       -6.386950   1.000000
   53       -6.280260   1.000000
   54       -6.258199   1.000000
   55       -6.178944   1.000000
   56       -6.038700   1.000000
   57       -5.999853   1.000000
   58       -5.841659   1.000000
   59       -5.815850   1.000000
   60       -5.799469   1.000000
   61       -5.632545   1.000000
   62       -5.591950   1.000000
   63       -5.485332   1.000000
   64       -5.411176   1.000000
   65       -5.208086   1.000000
   66       -5.115219   1.000000
   67       -4.994668   1.000000
   68       -4.902662   1.000000
   69       -4.826804   1.000000
   70       -4.599684   1.000000
   71       -4.561065   1.000000
   72       -4.528432   1.000000
   73       -4.319351   1.000000
   74       -4.286219   1.000000
   75       -4.211755   1.000000
   76       -4.075731   1.000000
   77       -3.797181   0.999977
   78       -3.742583   0.999889
   79       -3.635250   0.998322
   80       -3.112941   0.223546
   81       -3.001373   0.060670
   82       -2.898314   0.011366
   83       -2.694426   0.000100
   84       -2.622083   0.000012
   85       -2.532402   0.000001
   86       -2.346717   0.000000
   87       -2.198290   0.000000
   88       -2.108257   0.000000
   89       -2.010794   0.000000
   90       -1.915103   0.000000
   91       -1.714703   0.000000
   92       -1.495716   0.000000
   93       -1.325739   0.000000
   94       -1.293310   0.000000
   95       -1.236125   0.000000
   96       -1.177511   0.000000
   97       -1.084458   0.000000
   98       -0.979640   0.000000
   99       -0.893303   0.000000
  100       -0.835358   0.000000
  101       -0.793629   0.000000
  102       -0.740691   0.000000
  103       -0.626151   0.000000
  104       -0.607272   0.000000
  105       -0.573674   0.000000
  106       -0.424411   0.000000
  107       -0.330883   0.000000
  108       -0.086159   0.000000
  109       -0.059631   0.000000
  110        0.267086   0.000000
  111        0.443194   0.000000
  112        0.592255   0.000000
  113        0.933355   0.000000
  114        0.955411   0.000000
  115        1.037374   0.000000
  116        1.223195   0.000000
  117        1.577796   0.000000
  118        2.230896   0.000000
  119        2.271076   0.000000
  120        2.395509   0.000000
 
  0.0000000E+00  0.1250000E+00  0.0000000E+00  0.3125000E-01
    1      -17.801142   1.000000
    2      -16.782686   1.000000
    3      -16.731936   1.000000
    4      -16.651365   1.000000
    5      -16.543065   1.000000
    6      -16.466898   1.000000
    7      -16.384345   1.000000
    8      -16.297643   1.000000
    9      -16.197385   1.000000
   10      -16.081941   1.000000
   11      -16.031668   1.000000
   12      -15.973732   1.000000
   13      -15.863884   1.000000
   14      -15.642425   1.000000
   15      -15.594870   1.000000
   16      -15.499213   1.000000
   17      -15.291750   1.000000
   18      -15.225467   1.000000
   19       -9.311964   1.000000
   20       -9.103989   1.000000
   21       -9.079163   1.000000
   22       -8.969214   1.000000
   23       -8.802633   1.000000
   24       -8.732033   1.000000
   25       -8.678889   1.000000
   26       -8.649448   1.000000
   27       -8.547052   1.000000
   28       -8.527214   1.000000
   29       -8.449874   1.000000
   30       -8.301165   1.000000
   31       -8.210474   1.000000
   32       -8.027108   1.000000
   33       -7.975137   1.000000
   34       -7.880170   1.000000
   35       -7.850898   1.000000
   36       -7.730829   1.000000
   37       -7.686319   1.000000
   38       -7.534890   1.000000
   39       -7.447125   1.000000
   40       -7.402518   1.000000
   41       -7.330145   1.000000
   42       -7.203688   1.000000
   43       -7.120847   1.000000
   44       -6.978690   1.000000
   45       -6.889546   1.000000
   46       -6.808297   1.000000
   47       -6.753336   1.000000
   48       -6.665512   1.000000
   49       -6.594191   1.000000
   50       -6.514652   1.000000
   51       -6.442454   1.000000
   52       -6.308496   1.000000
   53       -6.254619   1.000000
   54       -6.181120   1.000000
   55       -6.091259   1.000000
   56       -6.068887   1.000000
   57       -6.025976   1.000000
   58       -5.890571   1.000000
   59       -5.771571   1.000000
   60       -5.603086   1.000000
   61       -5.569071   1.000000
   62       -5.357403   1.000000
   63       -5.321781   1.000000
   64       -5.217150   1.000000
   65       -5.100938   1.000000
   66       -5.025568   1.000000
   67       -4.949457   1.000000
   68       -4.875255   1.000000
   69       -4.820446   1.000000
   70       -4.668406   1.000000
   71       -4.623870   1.000000
   72       -4.513521   1.000000
   73       -4.399676   1.000000
   74       -4.327036   1.000000
   75       -4.285268   1.000000
   76       -3.917907   1.000000
   77       -3.827322   0.999991
   78       -3.690252   0.999553
   79       -3.495735   0.974202
   80       -3.412442   0.912692
   81       -2.967142   0.036629
   82       -2.871064   0.006744
   83       -2.755503   0.000505
   84       -2.610720   0.000008
   85       -2.563966   0.000002
   86       -2.487803   0.000000
   87       -2.253267   0.000000
   88       -2.199305   0.000000
   89       -2.170627   0.000000
   90       -2.065199   0.000000
   91       -1.703568   0.000000
   92       -1.609427   0.000000
   93       -1.379890   0.000000
   94       -1.212186   0.000000
   95       -1.090946   0.000000
   96       -0.990539   0.000000
   97       -0.957459   0.000000
   98       -0.901755   0.000000
   99       -0.836701   0.000000
  100       -0.701701   0.000000
  101       -0.634697   0.000000
  102       -0.595322   0.000000
  103       -0.486073   0.000000
  104       -0.362273   0.000000
  105       -0.293678   0.000000
  106       -0.145290   0.000000
  107       -0.112615   0.000000
  108        0.031652   0.000000
  109        0.043212   0.000000
  110        0.228177   0.000000
  111        0.290586   0.000000
  112        0.464233   0.000000
  113        0.755851   0.000000
  114        0.897176   0.000000
  115        1.045420   0.000000
  116        1.197969   0.000000
  117        1.302006   0.000000
  118        1.698541   0.000000
  119        1.885280   0.000000
  120        2.205857   0.000000
 
  0.1250000E+00  0.1250000E+00  0.0000000E+00  0.3125000E-01
    1      -17.750573   1.000000
    2      -16.894158   1.000000
    3      -16.779172   1.000000
    4      -16.737851   1.000000
    5      -16.509259   1.000000
    6      -16.425056   1.000000
    7      -16.405642   1.000000
    8      -16.272495   1.000000
    9      -16.168389   1.000000
   10      -16.084763   1.000000
   11      -16.025344   1.000000
   12      -15.884268   1.000000
   13      -15.815136   1.000000
   14      -15.622472   1.000000
   15      -15.580883   1.000000
   16      -15.506148   1.000000
   17      -15.330623   1.000000
   18      -15.249134   1.000000
   19       -9.372856   1.000000
   20       -9.304088   1.000000
   21       -9.151250   1.000000
   22       -9.064685   1.000000
   23       -8.859442   1.000000
   24       -8.746129   1.000000
   25       -8.640367   1.000000
   26       -8.563096   1.000000
   27       -8.520474   1.000000
   28       -8.471213   1.000000
   29       -8.436242   1.000000
   30       -8.288922   1.000000
   31       -8.169816   1.000000
   32       -8.052443   1.000000
   33       -7.930883   1.000000
   34       -7.809033   1.000000
   35       -7.692130   1.000000
   36       -7.651986   1.000000
   37       -7.594206   1.000000
   38       -7.529872   1.000000
   39       -7.478380   1.000000
   40       -7.328673   1.000000
   41       -7.275136   1.000000
   42       -7.240656   1.000000
   43       -7.152225   1.000000
   44       -7.009378   1.000000
   45       -6.938178   1.000000
   46       -6.862432   1.000000
   47       -6.743701   1.000000
   48       -6.680372   1.000000
   49       -6.542877   1.000000
   50       -6.518325   1.000000
   51       -6.407463   1.000000
   52       -6.379308   1.000000
   53       -6.300357   1.000000
   54       -6.190621   1.000000
   55       -6.120752   1.000000
   56       -6.041788   1.000000
   57       -5.919695   1.000000
   58       -5.763540   1.000000
   59       -5.729174   1.000000
   60       -5.644262   1.000000
   61       -5.531935   1.000000
   62       -5.493428   1.000000
   63       -5.320344   1.000000
   64       -5.266154   1.000000
   65       -5.227566   1.000000
   66       -5.144376   1.000000
   67       -5.054188   1.000000
   68       -4.871750   1.000000
   69       -4.813887   1.000000
   70       -4.654549   1.000000
   71       -4.508532   1.000000
   72       -4.468856   1.000000
   73       -4.346757   1.000000
   74       -4.274933   1.000000
   75       -4.167212   1.000000
   76       -4.011459   1.000000
   77       -3.884209   0.999999
   78       -3.695347   0.999607
   79       -3.617672   0.997513
   80       -3.386885   0.880365
   81       -2.968865   0.037616
   82       -2.859520   0.005352
   83       -2.716641   0.000184
   84       -2.588089   0.000004
   85       -2.550567   0.000001
   86       -2.469079   0.000000
   87       -2.296137   0.000000
   88       -2.180487   0.000000
   89       -2.111965   0.000000
   90       -2.029858   0.000000
   91       -1.700132   0.000000
   92       -1.555112   0.000000
   93       -1.380434   0.000000
   94       -1.227771   0.000000
   95       -1.112382   0.000000
   96       -1.043050   0.000000
   97       -0.955316   0.000000
   98       -0.911489   0.000000
   99       -0.844849   0.000000
  100       -0.714880   0.000000
  101       -0.701898   0.000000
  102       -0.662797   0.000000
  103       -0.550517   0.000000
  104       -0.438198   0.000000
  105       -0.408665   0.000000
  106       -0.270959   0.000000
  107       -0.182812   0.000000
  108       -0.007904   0.000000
  109        0.021437   0.000000
  110        0.237610   0.000000
  111        0.404132   0.000000
  112        0.571940   0.000000
  113        0.618049   0.000000
  114        0.895314   0.000000
  115        1.092674   0.000000
  116        1.221510   0.000000
  117        1.463966   0.000000
  118        1.784992   0.000000
  119        1.957655   0.000000
  120        2.276605   0.000000
 
  0.2500000E+00  0.1250000E+00  0.0000000E+00  0.3125000E-01
    1      -17.651767   1.000000
    2      -17.094465   1.000000
    3      -16.879817   1.000000
    4      -16.717824   1.000000
    5      -16.497355   1.000000
    6      -16.455039   1.000000
    7      -16.347164   1.000000
    8      -16.236643   1.000000
    9      -16.146964   1.000000
   10      -16.073011   1.000000
   11      -15.991319   1.000000
   12      -15.828709   1.000000
   13      -15.779019   1.000000
   14      -15.598732   1.000000
   15      -15.555640   1.000000
   16      -15.504654   1.000000
   17      -15.365249   1.000000
   18      -15.288870   1.000000
   19       -9.615628   1.000000
   20       -9.420583   1.000000
   21       -9.279148   1.000000
   22       -9.036892   1.000000
   23       -8.823715   1.000000
   24       -8.773321   1.000000
   25       -8.603866   1.000000
   26       -8.531360   1.000000
   27       -8.459302   1.000000
   28       -8.373644   1.000000
   29       -8.316030   1.000000
   30       -8.261861   1.000000
   31       -8.156823   1.000000
   32       -8.097764   1.000000
   33       -7.930399   1.000000
   34       -7.925367   1.000000
   35       -7.816263   1.000000
   36       -7.652859   1.000000
   37       -7.458315   1.000000
   38       -7.401152   1.000000
   39       -7.354049   1.000000
   40       -7.294922   1.000000
   41       -7.250588   1.000000
   42       -7.208694   1.000000
   43       -7.088188   1.000000
   44       -6.967808   1.000000
   45       -6.876979   1.000000
   46       -6.837674   1.000000
   47       -6.758160   1.000000