       N       E                     dE             d eps       ncg     rms          rms(c)
DAV:   1     0.112443869194E+04    0.11244E+04   -0.35855E+04  8160   0.577E+02
DAV:   2    -0.140184571528E+01   -0.11258E+04   -0.10831E+04 11040   0.173E+02
DAV:   3    -0.199538715347E+03   -0.19814E+03   -0.18975E+03 10880   0.821E+01
DAV:   4    -0.208927422272E+03   -0.93887E+01   -0.90828E+01 12040   0.263E+01
DAV:   5    -0.209278493893E+03   -0.35107E+00   -0.35007E+00 11560   0.374E+00    0.275E+01
DAV:   6    -0.237180590719E+03   -0.27902E+02   -0.10781E+02 12760   0.605E+01    0.594E+01
DAV:   7    -0.196646970208E+03    0.40534E+02   -0.17757E+02 13080   0.152E+02    0.204E+01
DAV:   8    -0.190114184975E+03    0.65328E+01   -0.20466E+01 11760   0.134E+01    0.138E+01
DAV:   9    -0.188311461355E+03    0.18027E+01   -0.35069E+00 12000   0.623E+00    0.939E+00
DAV:  10    -0.187134016057E+03    0.11774E+01   -0.17804E+00 13240   0.755E+00    0.348E+00
DAV:  11    -0.187009702000E+03    0.12431E+00   -0.67700E-01 12600   0.252E+00    0.235E+00
DAV:  12    -0.187017070737E+03   -0.73687E-02   -0.44835E-01 13000   0.310E+00    0.330E+00
DAV:  13    -0.186929583897E+03    0.87487E-01   -0.25552E-01 13320   0.306E+00    0.191E+00
DAV:  14    -0.186900242651E+03    0.29341E-01   -0.10524E-01 13040   0.174E+00    0.905E-01
DAV:  15    -0.186894054428E+03    0.61882E-02   -0.37833E-02 12280   0.908E-01    0.884E-01
DAV:  16    -0.186889770533E+03    0.42839E-02   -0.14192E-02 13280   0.637E-01    0.500E-01
DAV:  17    -0.186887059822E+03    0.27107E-02   -0.73268E-03 12960   0.394E-01    0.176E-01
DAV:  18    -0.186886519929E+03    0.53989E-03   -0.20250E-03 11880   0.152E-01    0.177E-01
DAV:  19    -0.186886280417E+03    0.23951E-03   -0.79289E-04 11400   0.138E-01    0.456E-02
DAV:  20    -0.186887177749E+03   -0.89733E-03   -0.84917E-04  9120   0.565E-02    0.423E-02
DAV:  21    -0.186888043821E+03   -0.86607E-03   -0.22040E-04  8280   0.523E-02    0.358E-02
DAV:  22    -0.186888854094E+03   -0.81027E-03   -0.10190E-04  6760   0.292E-02    0.337E-02
DAV:  23    -0.186890010698E+03   -0.11566E-02   -0.13802E-04  7520   0.409E-02    0.172E-02
DAV:  24    -0.186890588734E+03   -0.57804E-03   -0.26684E-05  6720   0.187E-02    0.442E-03
DAV:  25    -0.186890958653E+03   -0.36992E-03   -0.16983E-05  5560   0.901E-03    0.485E-03
DAV:  26    -0.186891193930E+03   -0.23528E-03   -0.90376E-06  6800   0.721E-03    0.156E-03
DAV:  27    -0.186891283342E+03   -0.89413E-04   -0.31496E-06  7240   0.380E-03
   1 F= -.18689128E+03 E0= -.18672064E+03  d E =-.186891E+03
       N       E                     dE             d eps       ncg     rms          rms(c)
DAV:   1    -0.187534161298E+03   -0.64297E+00   -0.27110E+02  8160   0.350E+01    0.469E+00
DAV:   2    -0.189604023688E+03   -0.20699E+01   -0.20456E+01 12280   0.159E+01    0.101E+01
DAV:   3    -0.189346161681E+03    0.25786E+00   -0.46091E+00 12400   0.126E+01    0.627E+00
DAV:   4    -0.188788950126E+03    0.55721E+00   -0.54319E-01 12520   0.426E+00    0.170E+00
DAV:   5    -0.188903385268E+03   -0.11444E+00   -0.47796E-01 12040   0.357E+00    0.508E+00
DAV:   6    -0.188751014751E+03    0.15237E+00   -0.65072E-01 12560   0.424E+00    0.197E+00
DAV:   7    -0.188741865985E+03    0.91488E-02   -0.15176E-01 11920   0.210E+00    0.200E+00
DAV:   8    -0.188711554476E+03    0.30312E-01   -0.82666E-02 13560   0.176E+00    0.920E-01
DAV:   9    -0.188702827114E+03    0.87274E-02   -0.16322E-02 10720   0.598E-01    0.247E-01
DAV:  10    -0.188702733060E+03    0.94054E-04   -0.37594E-03 11840   0.208E-01    0.182E-01
DAV:  11    -0.188702204625E+03    0.52843E-03   -0.20230E-03 11600   0.139E-01    0.106E-01
DAV:  12    -0.188702351944E+03   -0.14732E-03   -0.80649E-04 11320   0.865E-02    0.941E-02
DAV:  13    -0.188702254313E+03    0.97631E-04   -0.23737E-04  7920   0.527E-02
   2 F= -.18870225E+03 E0= -.18856403E+03  d E =-.181097E+01
       N       E                     dE             d eps       ncg     rms          rms(c)
DAV:   1    -0.190632739591E+03   -0.19304E+01   -0.31292E+01  9160   0.142E+01    0.445E+00
DAV:   2    -0.190583239874E+03    0.49500E-01   -0.27603E+00 11200   0.948E+00    0.725E+00
DAV:   3    -0.190115603898E+03    0.46764E+00   -0.13197E+00 12360   0.862E+00    0.426E+00
DAV:   4    -0.189902141737E+03    0.21346E+00   -0.70917E-01 12640   0.422E+00    0.251E+00
DAV:   5    -0.189858963817E+03    0.43178E-01   -0.34496E-01 12320   0.277E+00    0.241E+00
DAV:   6    -0.189804176103E+03    0.54788E-01   -0.12411E-01 12720   0.221E+00    0.776E-01
DAV:   7    -0.189797324143E+03    0.68520E-02   -0.14233E-02 11520   0.573E-01    0.213E-01
DAV:   8    -0.189798068193E+03   -0.74405E-03   -0.40521E-03 12440   0.327E-01    0.342E-01
DAV:   9    -0.189797324887E+03    0.74331E-03   -0.22837E-03 10760   0.308E-01    0.147E-01
DAV:  10    -0.189797635222E+03   -0.31034E-03   -0.93867E-04  9760   0.133E-01    0.130E-01
DAV:  11    -0.189797349220E+03    0.28600E-03   -0.47541E-04  9120   0.778E-02    0.209E-02
DAV:  12    -0.189797376161E+03   -0.26941E-04   -0.74840E-05  7200   0.285E-02
   3 F= -.18979738E+03 E0= -.18968091E+03  d E =-.109512E+01
       N       E                     dE             d eps       ncg     rms          rms(c)
DAV:   1    -0.191372114409E+03   -0.15748E+01   -0.75114E+01  8160   0.197E+01    0.457E+00
DAV:   2    -0.191188634277E+03    0.18348E+00   -0.53582E+00 13360   0.760E+00    0.449E+00
DAV:   3    -0.191344938338E+03   -0.15630E+00   -0.15081E+00 12200   0.905E+00    0.675E+00
DAV:   4    -0.190943215772E+03    0.40172E+00   -0.13494E+00 12440   0.764E+00    0.293E+00
DAV:   5    -0.190900123023E+03    0.43093E-01   -0.41373E-01 12280   0.387E+00    0.283E+00
DAV:   6    -0.190814702629E+03    0.85420E-01   -0.19659E-01 12320   0.310E+00    0.119E+00
DAV:   7    -0.190802817318E+03    0.11885E-01   -0.43184E-02 12560   0.110E+00    0.450E-01
DAV:   8    -0.190799381463E+03    0.34359E-02   -0.64590E-03 10240   0.326E-01    0.157E-01
DAV:   9    -0.190800325793E+03   -0.94433E-03   -0.24479E-03 12600   0.316E-01    0.317E-01
DAV:  10    -0.190799697821E+03    0.62797E-03   -0.22696E-03 11280   0.315E-01    0.118E-01
DAV:  11    -0.190799554304E+03    0.14352E-03   -0.53002E-04  9120   0.105E-01    0.482E-02
DAV:  12    -0.190799547911E+03    0.63930E-05   -0.11403E-04  7400   0.438E-02
   4 F= -.19079955E+03 E0= -.19070179E+03  d E =-.100217E+01
       N       E                     dE             d eps       ncg     rms          rms(c)
DAV:   1    -0.192240868713E+03   -0.14413E+01   -0.16107E+02  8160   0.283E+01    0.564E+00
DAV:   2    -0.191970614929E+03    0.27025E+00   -0.93970E+00 11040   0.775E+00    0.355E+00
DAV:   3    -0.192043100617E+03   -0.72486E-01   -0.17971E+00 12240   0.781E+00    0.604E+00
DAV:   4    -0.191850306298E+03    0.19279E+00   -0.14751E+00 12000   0.937E+00    0.458E+00
DAV:   5    -0.191597983035E+03    0.25232E+00   -0.59421E-01 12320   0.459E+00    0.154E+00
DAV:   6    -0.191584803861E+03    0.13179E-01   -0.14921E-01 12600   0.267E+00    0.152E+00
DAV:   7    -0.191567170170E+03    0.17634E-01   -0.80577E-02 12320   0.203E+00    0.712E-01
DAV:   8    -0.191560589072E+03    0.65811E-02   -0.13470E-02 11760   0.730E-01    0.389E-01
DAV:   9    -0.191559504463E+03    0.10846E-02   -0.44886E-03 11800   0.467E-01    0.205E-01
DAV:  10    -0.191559531050E+03   -0.26586E-04   -0.21863E-03 11440   0.194E-01    0.808E-02
DAV:  11    -0.191559479940E+03    0.51110E-04   -0.51097E-04 10800   0.841E-02
   5 F= -.19155948E+03 E0= -.19147315E+03  d E =-.759932E+00
       N       E                     dE             d eps       ncg     rms          rms(c)
DAV:   1    -0.191677006883E+03   -0.11748E+00   -0.86323E+00  8160   0.625E+00    0.739E-01
DAV:   2    -0.191740420764E+03   -0.63414E-01   -0.34764E-01 12880   0.295E+00    0.206E+00
DAV:   3    -0.191694632375E+03    0.45788E-01   -0.98563E-02 12480   0.237E+00    0.483E-01
DAV:   4    -0.191694743717E+03   -0.11134E-03   -0.12410E-02 11640   0.750E-01    0.593E-01
DAV:   5    -0.191691430339E+03    0.33134E-02   -0.83777E-03 11560   0.695E-01    0.269E-01
DAV:   6    -0.191691304115E+03    0.12622E-03   -0.35990E-03 11320   0.310E-01    0.191E-01
DAV:   7    -0.191690852338E+03    0.45178E-03   -0.19982E-03 11600   0.254E-01    0.173E-01
DAV:   8    -0.191690587349E+03    0.26499E-03   -0.71659E-04  8960   0.189E-01    0.502E-02
DAV:   9    -0.191690592643E+03   -0.52946E-05   -0.10254E-04  6080   0.540E-02
   6 F= -.19169059E+03 E0= -.19160580E+03  d E =-.131113E+00
       N       E                     dE             d eps       ncg     rms          rms(c)
DAV:   1    -0.191817961582E+03   -0.12737E+00   -0.10861E+01  8160   0.702E+00    0.740E-01
DAV:   2    -0.191861891207E+03   -0.43930E-01   -0.35137E-01 12480   0.246E+00    0.151E+00
DAV:   3    -0.191839147098E+03    0.22744E-01   -0.70812E-02 12520   0.206E+00    0.623E-01
DAV:   4    -0.191835442368E+03    0.37047E-02   -0.10856E-02 11800   0.709E-01    0.447E-01
DAV:   5    -0.191834543903E+03    0.89847E-03   -0.78868E-03 11680   0.692E-01    0.386E-01
DAV:   6    -0.191833784061E+03    0.75984E-03   -0.52601E-03 11760   0.441E-01    0.203E-01
DAV:   7    -0.191832922076E+03    0.86199E-03   -0.17202E-03 10320   0.170E-01    0.492E-02
DAV:   8    -0.191832999903E+03   -0.77828E-04   -0.31725E-04  8560   0.114E-01
   7 F= -.19183300E+03 E0= -.19175070E+03  d E =-.142407E+00
       N       E                     dE             d eps       ncg     rms          rms(c)
DAV:   1    -0.191961080673E+03   -0.12816E+00   -0.13116E+01  8160   0.776E+00    0.803E-01
DAV:   2    -0.192000055755E+03   -0.38975E-01   -0.44649E-01 12480   0.231E+00    0.108E+00
DAV:   3    -0.191994441278E+03    0.56145E-02   -0.56461E-02 12440   0.193E+00    0.856E-01
DAV:   4    -0.191984032447E+03    0.10409E-01   -0.12792E-02 12160   0.874E-01    0.269E-01
DAV:   5    -0.191987173466E+03   -0.31410E-02   -0.96172E-03 12720   0.707E-01    0.610E-01
DAV:   6    -0.191984006921E+03    0.31665E-02   -0.89139E-03 11800   0.743E-01    0.252E-01
DAV:   7    -0.191982995731E+03    0.10112E-02   -0.19178E-03 11400   0.233E-01    0.497E-02
DAV:   8    -0.191983048830E+03   -0.53099E-04   -0.32546E-04  8680   0.101E-01
   8 F= -.19198305E+03 E0= -.19190218E+03  d E =-.150049E+00
       N       E                     dE             d eps       ncg     rms          rms(c)
DAV:   1    -0.192118121575E+03   -0.13513E+00   -0.65005E+01  8160   0.173E+01    0.177E+00
DAV:   2    -0.192288879205E+03   -0.17076E+00   -0.23038E+00 11480   0.439E+00    0.163E+00
DAV:   3    -0.192330594967E+03   -0.41716E-01   -0.24898E-01 12080   0.417E+00    0.245E+00
DAV:   4    -0.192253081164E+03    0.77514E-01   -0.81493E-02 11760   0.265E+00    0.768E-01
DAV:   5    -0.192257718433E+03   -0.46373E-02   -0.36002E-02 12200   0.162E+00    0.108E+00
DAV:   6    -0.192246960157E+03    0.10758E-01   -0.32618E-02 12400   0.133E+00    0.448E-01
DAV:   7    -0.192245016302E+03    0.19439E-02   -0.96126E-03 11800   0.721E-01    0.373E-01
DAV:   8    -0.192243543851E+03    0.14725E-02   -0.28206E-03 11960   0.428E-01    0.106E-01
DAV:   9    -0.192243372879E+03    0.17097E-03   -0.73246E-04 10200   0.112E-01    0.535E-02
DAV:  10    -0.192243325659E+03    0.47220E-04   -0.24003E-04  8040   0.498E-02
   9 F= -.19224333E+03 E0= -.19216796E+03  d E =-.260277E+00
       N       E                     dE             d eps       ncg     rms          rms(c)
DAV:   1    -0.192293549120E+03   -0.50176E-01   -0.70684E+00  8160   0.571E+00    0.700E-01
DAV:   2    -0.192320346725E+03   -0.26798E-01   -0.31706E-01 12000   0.192E+00    0.101E+00
DAV:   3    -0.192316743571E+03    0.36032E-02   -0.44180E-02 12440   0.179E+00    0.834E-01
DAV:   4    -0.192308162352E+03    0.85812E-02   -0.11707E-02 12440   0.925E-01    0.309E-01
DAV:   5    -0.192308888022E+03   -0.72567E-03   -0.63254E-03 11880   0.679E-01    0.423E-01
DAV:   6    -0.192306911074E+03    0.19769E-02   -0.52974E-03 11840   0.540E-01    0.139E-01
DAV:   7    -0.192306775654E+03    0.13542E-03   -0.11380E-03 10840   0.242E-01    0.134E-01
DAV:   8    -0.192306583621E+03    0.19203E-03   -0.38718E-04  9600   0.167E-01    0.463E-02
DAV:   9    -0.192306560263E+03    0.23358E-04   -0.73141E-05  6680   0.498E-02
  10 F= -.19230656E+03 E0= -.19223348E+03  d E =-.632346E-01
       N       E                     dE             d eps       ncg     rms          rms(c)
DAV:   1    -0.192336656351E+03   -0.30073E-01   -0.30321E+00  8160   0.365E+00    0.426E-01
DAV:   2    -0.192352556957E+03   -0.15901E-01   -0.12748E-01 11160   0.144E+00    0.860E-01
DAV:   3    -0.192345476567E+03    0.70804E-02   -0.19255E-02 12480   0.121E+00    0.386E-01
DAV:   4    -0.192343770017E+03    0.17065E-02   -0.29215E-03 11880   0.417E-01    0.166E-01
DAV:   5    -0.192343898280E+03   -0.12826E-03   -0.17384E-03 12560   0.349E-01    0.202E-01
DAV:   6    -0.192343632154E+03    0.26613E-03   -0.14287E-03 11960   0.291E-01    0.107E-01
DAV:   7    -0.192343417598E+03    0.21456E-03   -0.42926E-04 10280   0.103E-01    0.255E-02
DAV:   8    -0.192343433315E+03   -0.15718E-04   -0.65706E-05  7000   0.611E-02
  11 F= -.19234343E+03 E0= -.19227226E+03  d E =-.368731E-01
       N       E                     dE             d eps       ncg     rms          rms(c)
DAV:   1    -0.192365437694E+03   -0.22020E-01   -0.16628E+00  8160   0.276E+00    0.351E-01
DAV:   2    -0.192372866933E+03   -0.74292E-02   -0.68236E-02 12080   0.107E+00    0.659E-01
DAV:   3    -0.192369099066E+03    0.37679E-02   -0.12443E-02 12440   0.965E-01    0.335E-01
DAV:   4    -0.192367699090E+03    0.14000E-02   -0.22649E-03 12520   0.356E-01    0.134E-01
DAV:   5    -0.192367803514E+03   -0.10442E-03   -0.13874E-03 12040   0.281E-01    0.180E-01
DAV:   6    -0.192367523584E+03    0.27993E-03   -0.11287E-03 10760   0.274E-01    0.903E-02
DAV:   7    -0.192367386927E+03    0.13666E-03   -0.25393E-04  8080   0.104E-01    0.265E-02
DAV:   8    -0.192367389745E+03   -0.28176E-05   -0.57416E-05  7920   0.573E-02
  12 F= -.19236739E+03 E0= -.19229730E+03  d E =-.239564E-01
       N       E                     dE             d eps       ncg     rms          rms(c)
DAV:   1    -0.192392893042E+03   -0.25506E-01   -0.17517E+01  8160   0.885E+00    0.970E-01
DAV:   2    -0.192469052810E+03   -0.76160E-01   -0.64398E-01 11400   0.315E+00    0.184E+00
DAV:   3    -0.192437344674E+03    0.31708E-01   -0.97475E-02 12400   0.269E+00    0.908E-01
DAV:   4    -0.192426911358E+03    0.10433E-01   -0.15704E-02 12480   0.948E-01    0.326E-01
DAV:   5    -0.192426534113E+03    0.37724E-03   -0.82494E-03 12480   0.556E-01    0.338E-01
DAV:   6    -0.192427187748E+03   -0.65363E-03   -0.79541E-03 12160   0.731E-01    0.418E-01
DAV:   7    -0.192424925086E+03    0.22627E-02   -0.34564E-03 11880   0.458E-01    0.104E-01
DAV:   8    -0.192424877965E+03    0.47120E-04   -0.47611E-04  9360   0.163E-01
  13 F= -.19242488E+03 E0= -.19235829E+03  d E =-.574882E-01
       N       E                     dE             d eps       ncg     rms          rms(c)
DAV:   1    -0.192433322394E+03   -0.83973E-02   -0.13995E+00  8160   0.251E+00    0.299E-01
DAV:   2    -0.192441083616E+03   -0.77612E-02   -0.71205E-02 12480   0.998E-01    0.546E-01
DAV:   3    -0.192438644039E+03    0.24396E-02   -0.95680E-03 12480   0.844E-01    0.305E-01
DAV:   4    -0.192437466539E+03    0.11775E-02   -0.16399E-03 11920   0.321E-01    0.106E-01
DAV:   5    -0.192437575111E+03   -0.10857E-03   -0.92296E-04 10520   0.223E-01    0.152E-01
DAV:   6    -0.192437425394E+03    0.14972E-03   -0.88083E-04 10680   0.240E-01    0.935E-02
DAV:   7    -0.192437317661E+03    0.10773E-03   -0.27130E-04  8040   0.124E-01    0.541E-02
DAV:   8    -0.192437288177E+03    0.29484E-04   -0.68043E-05  6760   0.741E-02
  14 F= -.19243729E+03 E0= -.19237122E+03  d E =-.124102E-01
       N       E                     dE             d eps       ncg     rms          rms(c)
DAV:   1    -0.192441634000E+03   -0.43163E-02   -0.39085E+00  8160   0.417E+00    0.458E-01
DAV:   2    -0.192459182637E+03   -0.17549E-01   -0.16181E-01 11960   0.149E+00    0.797E-01
DAV:   3    -0.192454024506E+03    0.51581E-02   -0.21055E-02 12160   0.126E+00    0.477E-01
DAV:   4    -0.192451189766E+03    0.28347E-02   -0.38842E-03 12480   0.499E-01    0.147E-01
DAV:   5    -0.192451076569E+03    0.11320E-03   -0.17091E-03 12320   0.211E-01    0.132E-01
DAV:   6    -0.192451184441E+03   -0.10787E-03   -0.14159E-03 12080   0.290E-01    0.169E-01
DAV:   7    -0.192450810967E+03    0.37347E-03   -0.53854E-04  9400   0.191E-01    0.318E-02
DAV:   8    -0.192450820760E+03   -0.97928E-05   -0.78156E-05  6160   0.655E-02
  15 F= -.19245082E+03 E0= -.19238581E+03  d E =-.135326E-01
       N       E                     dE             d eps       ncg     rms          rms(c)
DAV:   1    -0.192453110900E+03   -0.22999E-02   -0.17739E-01  8160   0.897E-01    0.104E-01
DAV:   2    -0.192453825113E+03   -0.71421E-03   -0.93311E-03 11440   0.308E-01    0.103E-01
DAV:   3    -0.192453828537E+03   -0.34237E-05   -0.70549E-04 11120   0.223E-01
  16 F= -.19245383E+03 E0= -.19238900E+03  d E =-.300778E-02
       N       E                     dE             d eps       ncg     rms          rms(c)
DAV:   1    -0.192455362085E+03   -0.15370E-02   -0.87625E-02  8160   0.640E-01    0.904E-02
DAV:   2    -0.192455787095E+03   -0.42501E-03   -0.40143E-03 12320   0.238E-01    0.148E-01
DAV:   3    -0.192455594077E+03    0.19302E-03   -0.67268E-04 11080   0.225E-01    0.895E-02
DAV:   4    -0.192455515215E+03    0.78862E-04   -0.17068E-04  6640   0.106E-01
  17 F= -.19245552E+03 E0= -.19239096E+03  d E =-.168668E-02
       N       E                     dE             d eps       ncg     rms          rms(c)
DAV:   1    -0.192457289119E+03   -0.16950E-02   -0.13075E-01  8160   0.769E-01    0.104E-01
DAV:   2    -0.192458095694E+03   -0.80657E-03   -0.66337E-03 12280   0.324E-01    0.196E-01
DAV:   3    -0.192457701266E+03    0.39443E-03   -0.10331E-03 11080   0.285E-01    0.888E-02
DAV:   4    -0.192457646607E+03    0.54659E-04   -0.20486E-04  7680   0.121E-01
  18 F= -.19245765E+03 E0= -.19239330E+03  d E =-.213139E-02
       N       E                     dE             d eps       ncg     rms          rms(c)
DAV:   1    -0.192459224064E+03   -0.15228E-02   -0.14636E-01  8160   0.817E-01    0.110E-01
DAV:   2    -0.192459829810E+03   -0.60575E-03   -0.68494E-03 11560   0.285E-01    0.152E-01
DAV:   3    -0.192459681022E+03    0.14879E-03   -0.96529E-04 11040   0.263E-01    0.115E-01
DAV:   4    -0.192459541598E+03    0.13942E-03   -0.28592E-04  8240   0.140E-01    0.633E-02
DAV:   5    -0.192459538294E+03    0.33038E-05   -0.16642E-04  7560   0.121E-01
  19 F= -.19245954E+03 E0= -.19239558E+03  d E =-.189169E-02
       N       E                     dE             d eps       ncg     rms          rms(c)
DAV:   1    -0.192460855731E+03   -0.13141E-02   -0.22758E-01  8160   0.101E+00    0.121E-01
DAV:   2    -0.192462096167E+03   -0.12404E-02   -0.11277E-02 11440   0.417E-01    0.222E-01
DAV:   3    -0.192461656940E+03    0.43923E-03   -0.15403E-03 11560   0.332E-01    0.115E-01
DAV:   4    -0.192461500686E+03    0.15625E-03   -0.23551E-04  7880   0.132E-01    0.526E-02
DAV:   5    -0.192461508625E+03   -0.79391E-05   -0.12247E-04  7160   0.106E-01
  20 F= -.19246151E+03 E0= -.19239789E+03  d E =-.197033E-02
       N       E                     dE             d eps       ncg     rms          rms(c)
DAV:   1    -0.192459884952E+03    0.16157E-02   -0.16888E+00  8160   0.275E+00    0.316E-01
DAV:   2    -0.192466705901E+03   -0.68209E-02   -0.82626E-02 11040   0.887E-01    0.337E-01
DAV:   3    -0.192467606768E+03   -0.90087E-03   -0.79414E-03 12440   0.769E-01    0.455E-01
DAV:   4    -0.192465057121E+03    0.25496E-02   -0.28427E-03 11800   0.481E-01    0.942E-02
DAV:   5    -0.192465194332E+03   -0.13721E-03   -0.10929E-03 10960   0.184E-01    0.136E-01
DAV:   6    -0.192465059132E+03    0.13520E-03   -0.73515E-04 10840   0.230E-01    0.993E-02
DAV:   7    -0.192464939924E+03    0.11921E-03   -0.18185E-04  6800   0.112E-01    0.290E-02
DAV:   8    -0.192464940010E+03   -0.86183E-07   -0.54968E-05  6760   0.518E-02
  21 F= -.19246494E+03 E0= -.19240215E+03  d E =-.343139E-02
       N       E                     dE             d eps       ncg     rms          rms(c)
DAV:   1    -0.192465078269E+03   -0.13834E-03   -0.36353E-03  8560   0.142E-01    0.277E-02
DAV:   2    -0.192465102934E+03   -0.24665E-04   -0.14290E-04  7400   0.816E-02
  22 F= -.19246510E+03 E0= -.19240232E+03  d E =-.162923E-03
