 vasp.5.4.1 05Feb16 (build Jul 05 2020 17:13:04) complex                        
  
 executed on           IFC91_ompi date 2024.04.23  14:15:26
 running on   40 total cores
 distrk:  each k-point on   40 cores,    1 groups
 distr:  one band on NCORES_PER_BAND=   1 cores,   40 groups


--------------------------------------------------------------------------------------------------------


 INCAR:
 POTCAR:   PAW_PBE V 08Apr2002                    
 POTCAR:   PAW_PBE Mo 08Apr2002                   
 POTCAR:   PAW_PBE W 08Apr2002                    
 POTCAR:    PAW_PBE S 17Jan2003                   

 ----------------------------------------------------------------------------- 
|                                                                             |
|           W    W    AA    RRRRR   N    N  II  N    N   GGGG   !!!           |
|           W    W   A  A   R    R  NN   N  II  NN   N  G    G  !!!           |
|           W    W  A    A  R    R  N N  N  II  N N  N  G       !!!           |
|           W WW W  AAAAAA  RRRRR   N  N N  II  N  N N  G  GGG   !            |
|           WW  WW  A    A  R   R   N   NN  II  N   NN  G    G                |
|           W    W  A    A  R    R  N    N  II  N    N   GGGG   !!!           |
|                                                                             |
|      For optimal performance we recommend to set                            |
|        NCORE= 4 - approx SQRT( number of cores)                             |
|      NCORE specifies how many cores store one orbital (NPAR=cpu/NCORE).     |
|      This setting can  greatly improve the performance of VASP for DFT.     |
|      The default, NPAR=number of cores might be grossly inefficient         |
|      on modern multi-core architectures or massively parallel machines.     |
|      Do your own testing !!!!                                               |
|      Unfortunately you need to use the default for GW and RPA calculations. |
|      (for HF NCORE is supported but not extensively tested yet)             |
|                                                                             |
 ----------------------------------------------------------------------------- 

 POTCAR:   PAW_PBE V 08Apr2002                    
   VRHFIN =V: p6 d4 s1                                                          
   LEXCH  = PE                                                                  
   EATOM  =   170.8679 eV,   12.5584 Ry                                         
                                                                                
   TITEL  = PAW_PBE V 08Apr2002                                                 
   LULTRA =        F    use ultrasoft PP ?                                      
   IUNSCR =        1    unscreen: 0-lin 1-nonlin 2-no                           
   RPACOR =    2.000    partial core radius                                     
   POMASS =   50.941; ZVAL   =    5.000    mass and valenz                      
   RCORE  =    2.700    outmost cutoff radius                                   
   RWIGS  =    2.500; RWIGS  =    1.323    wigner-seitz radius (au A)           
   ENMAX  =  192.543; ENMIN  =  144.408 eV                                      
   RCLOC  =    1.779    cutoff for local pot                                    
   LCOR   =        T    correct aug charges                                     
   LPAW   =        T    paw PP                                                  
   EAUG   =  358.662                                                            
   DEXC   =    -.034                                                            
   RMAX   =    3.323    core radius for proj-oper                               
   RAUG   =    1.300    factor for augmentation sphere                          
   RDEP   =    2.762    radius for radial grids                                 
   QCUT   =   -3.762; QGAM   =    7.524    optimization parameters              
                                                                                
   Description                                                                  
     l     E      TYP  RCUT    TYP  RCUT                                        
     2   .000     23  2.700                                                     
     2   .000     23  2.700                                                     
     0   .000     23  2.700                                                     
     0  2.000     23  2.700                                                     
     1   .000     23  2.700                                                     
     1  2.000     23  2.700                                                     
     3   .000      7   .000                                                     
  local pseudopotential read in
  partial core-charges read in
  atomic valenz-charges read in
  non local Contribution for L=           2  read in
    real space projection operators read in
  non local Contribution for L=           2  read in
    real space projection operators read in
  non local Contribution for L=           0  read in
    real space projection operators read in
  non local Contribution for L=           0  read in
    real space projection operators read in
  non local Contribution for L=           1  read in
    real space projection operators read in
  non local Contribution for L=           1  read in
    real space projection operators read in
    PAW grid and wavefunctions read in
 
   number of l-projection  operators is LMAX  =           6
   number of lm-projection operators is LMMAX =          18
 
 POTCAR:   PAW_PBE Mo 08Apr2002                   
   VRHFIN =Mo: 4p5s4d                                                           
   LEXCH  = PE                                                                  
   EATOM  =   217.5180 eV,   15.9871 Ry                                         
                                                                                
   TITEL  = PAW_PBE Mo 08Apr2002                                                
   LULTRA =        F    use ultrasoft PP ?                                      
   IUNSCR =        1    unscreen: 0-lin 1-nonlin 2-no                           
   RPACOR =    2.200    partial core radius                                     
   POMASS =   95.940; ZVAL   =    6.000    mass and valenz                      
   RCORE  =    2.750    outmost cutoff radius                                   
   RWIGS  =    2.750; RWIGS  =    1.455    wigner-seitz radius (au A)           
   ENMAX  =  224.584; ENMIN  =  168.438 eV                                      
   RCLOC  =    2.111    cutoff for local pot                                    
   LCOR   =        T    correct aug charges                                     
   LPAW   =        T    paw PP                                                  
   EAUG   =  345.278                                                            
   DEXC   =    -.088                                                            
   RMAX   =    3.077    core radius for proj-oper                               
   RAUG   =    1.300    factor for augmentation sphere                          
   RDEP   =    2.815    radius for radial grids                                 
   QCUT   =   -4.063; QGAM   =    8.126    optimization parameters              
                                                                                
   Description                                                                  
     l     E      TYP  RCUT    TYP  RCUT                                        
     2   .000     23  2.500                                                     
     2   .000     23  2.500                                                     
     0   .000     23  2.600                                                     
     0  1.000     23  2.600                                                     
     1   .400     23  2.750                                                     
     1  2.000     23  2.750                                                     
     3   .000      7   .000                                                     
  local pseudopotential read in
  partial core-charges read in
  atomic valenz-charges read in
  non local Contribution for L=           2  read in
    real space projection operators read in
  non local Contribution for L=           2  read in
    real space projection operators read in
  non local Contribution for L=           0  read in
    real space projection operators read in
  non local Contribution for L=           0  read in
    real space projection operators read in
  non local Contribution for L=           1  read in
    real space projection operators read in
  non local Contribution for L=           1  read in
    real space projection operators read in
    PAW grid and wavefunctions read in
 
   number of l-projection  operators is LMAX  =           6
   number of lm-projection operators is LMMAX =          18
 
 POTCAR:   PAW_PBE W 08Apr2002                    
   VRHFIN =W : 6s5d                                                             
   LEXCH  = PE                                                                  
   EATOM  =   204.6100 eV,   15.0384 Ry                                         
                                                                                
   TITEL  = PAW_PBE W 08Apr2002                                                 
   LULTRA =        F    use ultrasoft PP ?                                      
   IUNSCR =        1    unscreen: 0-lin 1-nonlin 2-no                           
   RPACOR =    2.330    partial core radius                                     
   POMASS =  183.850; ZVAL   =    6.000    mass and valenz                      
   RCORE  =    2.750    outmost cutoff radius                                   
   RWIGS  =    2.750; RWIGS  =    1.455    wigner-seitz radius (au A)           
   ENMAX  =  223.057; ENMIN  =  167.293 eV                                      
   RCLOC  =    2.147    cutoff for local pot                                    
   LCOR   =        T    correct aug charges                                     
   LPAW   =        T    paw PP                                                  
   EAUG   =  373.438                                                            
   DEXC   =    -.060                                                            
   RMAX   =    3.087    core radius for proj-oper                               
   RAUG   =    1.300    factor for augmentation sphere                          
   RDEP   =    2.886    radius for radial grids                                 
   QCUT   =   -4.049; QGAM   =    8.098    optimization parameters              
                                                                                
   Description                                                                  
     l     E      TYP  RCUT    TYP  RCUT                                        
     2   .000     23  2.500                                                     
     2   .000     23  2.500                                                     
     0   .000     23  2.500                                                     
     0   .000     23  2.500                                                     
     1   .200     23  2.750                                                     
     1  2.000     23  2.750                                                     
     3   .000      7   .000                                                     
  local pseudopotential read in
  partial core-charges read in
  atomic valenz-charges read in
  non local Contribution for L=           2  read in
    real space projection operators read in
  non local Contribution for L=           2  read in
    real space projection operators read in
  non local Contribution for L=           0  read in
    real space projection operators read in
  non local Contribution for L=           0  read in
    real space projection operators read in
  non local Contribution for L=           1  read in
    real space projection operators read in
  non local Contribution for L=           1  read in
    real space projection operators read in
    PAW grid and wavefunctions read in
 
   number of l-projection  operators is LMAX  =           6
   number of lm-projection operators is LMMAX =          18
 
 POTCAR:    PAW_PBE S 17Jan2003                   
   VRHFIN =S : s2p4                                                             
   LEXCH  = PE                                                                  
   EATOM  =   276.8230 eV,   20.3459 Ry                                         
                                                                                
   TITEL  = PAW_PBE S 17Jan2003                                                 
   LULTRA =        F    use ultrasoft PP ?                                      
   IUNSCR =        1    unscreen: 0-lin 1-nonlin 2-no                           
   RPACOR =    1.500    partial core radius                                     
   POMASS =   32.066; ZVAL   =    6.000    mass and valenz                      
   RCORE  =    1.900    outmost cutoff radius                                   
   RWIGS  =    2.200; RWIGS  =    1.164    wigner-seitz radius (au A)           
   ENMAX  =  280.000; ENMIN  =  194.016 eV                                      
   ICORE  =        2    local potential                                         
   LCOR   =        T    correct aug charges                                     
   LPAW   =        T    paw PP                                                  
   EAUG   =  335.092                                                            
   DEXC   =     .000                                                            
   RMAX   =    2.867    core radius for proj-oper                               
   RAUG   =    1.300    factor for augmentation sphere                          
   RDEP   =    1.954    radius for radial grids                                 
   QCUT   =   -4.360; QGAM   =    8.721    optimization parameters              
                                                                                
   Description                                                                  
     l     E      TYP  RCUT    TYP  RCUT                                        
     0   .000     23  1.900                                                     
     0   .000     23  1.900                                                     
     1   .000     23  1.900                                                     
     1   .000     23  1.900                                                     
     2   .000     23  1.900                                                     
  local pseudopotential read in
  partial core-charges read in
  atomic valenz-charges read in
  non local Contribution for L=           0  read in
    real space projection operators read in
  non local Contribution for L=           0  read in
    real space projection operators read in
  non local Contribution for L=           1  read in
    real space projection operators read in
  non local Contribution for L=           1  read in
    real space projection operators read in
    PAW grid and wavefunctions read in
 
   number of l-projection  operators is LMAX  =           4
   number of lm-projection operators is LMMAX =           8
 

 ----------------------------------------------------------------------------- 
|                                                                             |
|  ADVICE TO THIS USER RUNNING 'VASP/VAMP'   (HEAR YOUR MASTER'S VOICE ...):  |
|                                                                             |
|      You have a (more or less) 'large supercell' and for larger cells       |
|      it might be more efficient to use real space projection operators      |
|      So try LREAL= Auto  in the INCAR   file.                               |
|      Mind: If you want to do a very accurate calculations keep the          |
|      reciprocal projection scheme          (i.e. LREAL=.FALSE.)             |
|                                                                             |
 ----------------------------------------------------------------------------- 

 PAW_PBE V 08Apr2002                    :
 energy of atom  1       EATOM= -170.8679
 kinetic energy error for atom=    0.0047 (will be added to EATOM!!)
 PAW_PBE Mo 08Apr2002                   :
 energy of atom  2       EATOM= -217.5180
 kinetic energy error for atom=    0.0215 (will be added to EATOM!!)
 PAW_PBE W 08Apr2002                    :
 energy of atom  3       EATOM= -204.6100
 kinetic energy error for atom=    0.0205 (will be added to EATOM!!)
  PAW_PBE S 17Jan2003                   :
 energy of atom  4       EATOM= -276.8230
 kinetic energy error for atom=    0.0122 (will be added to EATOM!!)
 
 
 POSCAR: crystal structure from VMoWS2 with Hexag
  positions in cartesian coordinates
  No initial velocities read in
 exchange correlation table for  LEXCH =        8
   RHO(1)=    0.500       N(1)  =     2000
   RHO(2)=  100.500       N(2)  =     4000
 


--------------------------------------------------------------------------------------------------------


 ion  position               nearest neighbor table
   1  1.000  0.333  0.000-  25 2.34  10 2.34  13 2.36  12 2.36  22 2.36  23 2.36
   2  0.667  0.333  0.000-  19 2.34  22 2.34  25 2.36  24 2.36  17 2.36  16 2.36
   3  0.333  0.000  0.000-  11 2.34  20 2.34  17 2.36  16 2.36  15 2.36  14 2.36
   4  0.667  0.667  0.000-  21 2.34  24 2.34  27 2.36  26 2.36  19 2.36  18 2.36   7 3.34   9 3.34
                             8 3.34   6 3.36   5 3.36
   5  0.333  0.333  0.000-  13 2.34  16 2.34  19 2.36  18 2.36  11 2.36  10 2.36   8 3.34   6 3.36
                             4 3.36
   6  0.000  0.000  0.000-  23 2.34  14 2.34  11 2.36  10 2.36  27 2.36  26 2.36   9 3.34   7 3.34
                             4 3.36   5 3.36
   7  0.000  0.667  0.000-  27 2.34  12 2.34  14 2.36  15 2.36  24 2.36  25 2.36   4 3.34   6 3.34
                             8 3.34
   8  0.333  0.667  0.000-  15 2.34  18 2.34  20 2.36  21 2.36  13 2.36  12 2.36   5 3.34   7 3.34
                             4 3.34   9 3.36
   9  0.667  0.000  0.000-  17 2.34  26 2.34  23 2.36  22 2.36  21 2.36  20 2.36   6 3.34   4 3.34
                             8 3.36
  10  0.111  0.222  0.955-   1 2.34   6 2.36   5 2.36
  11  0.222  0.111  0.045-   3 2.34   6 2.36   5 2.36
  12  0.111  0.556  0.955-   7 2.34   1 2.36   8 2.36
  13  0.222  0.444  0.045-   5 2.34   1 2.36   8 2.36
  14  0.111  0.889  0.955-   6 2.34   7 2.36   3 2.36
  15  0.222  0.777  0.045-   8 2.34   7 2.36   3 2.36
  16  0.444  0.222  0.955-   5 2.34   3 2.36   2 2.36
  17  0.556  0.111  0.045-   9 2.34   3 2.36   2 2.36
  18  0.444  0.556  0.955-   8 2.34   5 2.36   4 2.36
  19  0.556  0.444  0.045-   2 2.34   5 2.36   4 2.36
  20  0.444  0.889  0.955-   3 2.34   8 2.36   9 2.36
  21  0.556  0.777  0.045-   4 2.34   8 2.36   9 2.36
  22  0.777  0.222  0.955-   2 2.34   9 2.36   1 2.36
  23  0.889  0.111  0.045-   6 2.34   9 2.36   1 2.36
  24  0.777  0.556  0.955-   4 2.34   2 2.36   7 2.36
  25  0.889  0.444  0.045-   1 2.34   2 2.36   7 2.36
  26  0.777  0.889  0.955-   9 2.34   4 2.36   6 2.36
  27  0.889  0.777  0.045-   7 2.34   4 2.36   6 2.36
 

IMPORTANT INFORMATION: All symmetrisations will be switched off!
NOSYMM: (Re-)initialisation of all symmetry stuff for point group C_1.

 
 
 KPOINTS: K-POINTS 	#supercell of CrS2 in hexagona

Automatic generation of k-mesh.
Space group operators:
 irot       det(A)        alpha          n_x          n_y          n_z        tau_x        tau_y        tau_z
    1     1.000000     0.000000     1.000000     0.000000     0.000000     0.000000     0.000000     0.000000
 
 Subroutine IBZKPT returns following result:
 ===========================================
 
 Found     34 irreducible k-points:
 
 Following reciprocal coordinates:
            Coordinates               Weight
  0.000000  0.000000  0.000000      1.000000
  0.125000  0.000000  0.000000      2.000000
  0.250000  0.000000  0.000000      2.000000
  0.375000  0.000000  0.000000      2.000000
  0.500000  0.000000  0.000000      1.000000
  0.000000  0.125000  0.000000      2.000000
  0.125000  0.125000  0.000000      2.000000
  0.250000  0.125000  0.000000      2.000000
  0.375000  0.125000  0.000000      2.000000
  0.500000  0.125000  0.000000      2.000000
 -0.375000  0.125000  0.000000      2.000000
 -0.250000  0.125000  0.000000      2.000000
 -0.125000  0.125000  0.000000      2.000000
  0.000000  0.250000  0.000000      2.000000
  0.125000  0.250000  0.000000      2.000000
  0.250000  0.250000  0.000000      2.000000
  0.375000  0.250000  0.000000      2.000000
  0.500000  0.250000  0.000000      2.000000
 -0.375000  0.250000  0.000000      2.000000
 -0.250000  0.250000  0.000000      2.000000
 -0.125000  0.250000  0.000000      2.000000
 -0.000000  0.375000  0.000000      2.000000
  0.125000  0.375000  0.000000      2.000000
  0.250000  0.375000  0.000000      2.000000
  0.375000  0.375000  0.000000      2.000000
  0.500000  0.375000  0.000000      2.000000
 -0.375000  0.375000  0.000000      2.000000
 -0.250000  0.375000  0.000000      2.000000
 -0.125000  0.375000  0.000000      2.000000
  0.000000  0.500000  0.000000      1.000000
  0.125000  0.500000  0.000000      2.000000
  0.250000  0.500000  0.000000      2.000000
  0.375000  0.500000  0.000000      2.000000
  0.500000  0.500000  0.000000      1.000000
 
 Following cartesian coordinates:
            Coordinates               Weight
  0.000000  0.000000  0.000000      1.000000
  0.007209  0.012401  0.000000      2.000000
  0.014418  0.024802  0.000000      2.000000
  0.021626  0.037202  0.000000      2.000000
  0.028835  0.049603  0.000000      1.000000
 -0.007209  0.012401  0.000000      2.000000
  0.000000  0.024802  0.000000      2.000000
  0.007209  0.037202  0.000000      2.000000
  0.014418  0.049603  0.000000      2.000000
  0.021626  0.062004  0.000000      2.000000
 -0.028835 -0.024802  0.000000      2.000000
 -0.021626 -0.012401  0.000000      2.000000
 -0.014418  0.000000  0.000000      2.000000
 -0.014418  0.024802  0.000000      2.000000
 -0.007209  0.037202  0.000000      2.000000
  0.000000  0.049603  0.000000      2.000000
  0.007209  0.062004  0.000000      2.000000
  0.014418  0.074405  0.000000      2.000000
 -0.036044 -0.012401  0.000000      2.000000
 -0.028835  0.000000  0.000000      2.000000
 -0.021626  0.012401  0.000000      2.000000
 -0.021626  0.037202  0.000000      2.000000
 -0.014418  0.049603  0.000000      2.000000
 -0.007209  0.062004  0.000000      2.000000
  0.000000  0.074405  0.000000      2.000000
  0.007209  0.086806  0.000000      2.000000
 -0.043253  0.000000  0.000000      2.000000
 -0.036044  0.012401  0.000000      2.000000
 -0.028835  0.024802  0.000000      2.000000
 -0.028835  0.049603  0.000000      1.000000
 -0.021626  0.062004  0.000000      2.000000
 -0.014418  0.074405  0.000000      2.000000
 -0.007209  0.086806  0.000000      2.000000
  0.000000  0.099206  0.000000      1.000000
 


--------------------------------------------------------------------------------------------------------




 Dimension of arrays:
   k-points           NKPTS =     34   k-points in BZ     NKDIM =     34   number of bands    NBANDS=    120
   number of dos      NEDOS =    301   number of ions     NIONS =     27
   non local maximal  LDIM  =      6   non local SUM 2l+1 LMDIM =     18
   total plane-waves  NPLWV = 222264
   max r-space proj   IRMAX =      1   max aug-charges    IRDMAX=   5642
   dimension x,y,z NGX =    42 NGY =   42 NGZ =  126
   dimension x,y,z NGXF=    84 NGYF=   84 NGZF=  252
   support grid    NGXF=    84 NGYF=   84 NGZF=  252
   ions per type =               3   3   3  18
 NGX,Y,Z   is equivalent  to a cutoff of   6.96,  6.96,  6.98 a.u.
 NGXF,Y,Z  is equivalent  to a cutoff of  13.92, 13.92, 13.96 a.u.


 I would recommend the setting:
   dimension x,y,z NGX =    41 NGY =   41 NGZ =  123
 SYSTEM =  unknown system                          
 POSCAR =  crystal structure from VMoWS2 with Hexag

 Startparameter for this run:
   NWRITE =      2    write-flag & timer
   PREC   = normal    normal or accurate (medium, high low for compatibility)
   ISTART =      0    job   : 0-new  1-cont  2-samecut
   ICHARG =      2    charge: 1-file 2-atom 10-const
   ISPIN  =      1    spin polarized calculation?
   LNONCOLLINEAR =      F non collinear calculations
   LSORBIT =      F    spin-orbit coupling
   INIWAV =      1    electr: 0-lowe 1-rand  2-diag
   LASPH  =      F    aspherical Exc in radial PAW
   METAGGA=      F    non-selfconsistent MetaGGA calc.

 Electronic Relaxation 1
   ENCUT  =  280.0 eV  20.58 Ry    4.54 a.u.  13.68 13.68 40.93*2*pi/ulx,y,z
   ENINI  =  280.0     initial cutoff
   ENAUG  =  373.4 eV  augmentation charge cutoff
   NELM   =     60;   NELMIN=  2; NELMDL= -5     # of ELM steps 
   EDIFF  = 0.1E-03   stopping-criterion for ELM
   LREAL  =      F    real-space projection
   NLSPLINE    = F    spline interpolate recip. space projectors
   LCOMPAT=      F    compatible to vasp.4.4
   GGA_COMPAT  = T    GGA compatible to vasp.4.4-vasp.4.6
   LMAXPAW     = -100 max onsite density
   LMAXMIX     =    2 max onsite mixed and CHGCAR
   VOSKOWN=      0    Vosko Wilk Nusair interpolation
   ROPT   =    0.00000   0.00000   0.00000   0.00000
 Ionic relaxation
   EDIFFG = 0.1E-02   stopping-criterion for IOM
   NSW    =    100    number of steps for IOM
   NBLOCK =      1;   KBLOCK =    100    inner block; outer block 
   IBRION =      1    ionic relax: 0-MD 1-quasi-New 2-CG
   NFREE  =      0    steps in history (QN), initial steepest desc. (CG)
   ISIF   =      3    stress and relaxation
   IWAVPR =     11    prediction:  0-non 1-charg 2-wave 3-comb
   ISYM   =      0    0-nonsym 1-usesym 2-fastsym
   LCORR  =      T    Harris-Foulkes like correction to forces

   POTIM  = 0.5000    time-step for ionic-motion
   TEIN   =    0.0    initial temperature
   TEBEG  =    0.0;   TEEND  =   0.0 temperature during run
   SMASS  =  -3.00    Nose mass-parameter (am)
   estimated Nose-frequenzy (Omega)   =  0.10E-29 period in steps =****** mass=  -0.230E-26a.u.
   SCALEE = 1.0000    scale energy and forces
   NPACO  =    256;   APACO  = 16.0  distance and # of slots for P.C.
   PSTRESS=    0.0 pullay stress

  Mass of Ions in am
   POMASS =  50.94 95.94183.85 32.07
  Ionic Valenz
   ZVAL   =   5.00  6.00  6.00  6.00
  Atomic Wigner-Seitz radii
   RWIGS  =  -1.00 -1.00 -1.00 -1.00
  virtual crystal weights 
   VCA    =   1.00  1.00  1.00  1.00
   NELECT =     159.0000    total number of electrons
   NUPDOWN=      -1.0000    fix difference up-down

 DOS related values:
   EMIN   =  10.00;   EMAX   =-10.00  energy-range for DOS
   EFERMI =   0.00
   ISMEAR =     0;   SIGMA  =   0.20  broadening in eV -4-tet -1-fermi 0-gaus

 Electronic relaxation 2 (details)
   IALGO  =     38    algorithm
   LDIAG  =      T    sub-space diagonalisation (order eigenvalues)
   LSUBROT=      F    optimize rotation matrix (better conditioning)
   TURBO    =      0    0=normal 1=particle mesh
   IRESTART =      0    0=no restart 2=restart with 2 vectors
   NREBOOT  =      0    no. of reboots
   NMIN     =      0    reboot dimension
   EREF     =   0.00    reference energy to select bands
   IMIX   =      4    mixing-type and parameters
     AMIX     =   0.40;   BMIX     =  1.00
     AMIX_MAG =   1.60;   BMIX_MAG =  1.00
     AMIN     =   0.10
     WC   =   100.;   INIMIX=   1;  MIXPRE=   1;  MAXMIX= -45

 Intra band minimization:
   WEIMIN = 0.0010     energy-eigenvalue tresh-hold
   EBREAK =  0.21E-06  absolut break condition
   DEPER  =   0.30     relativ break condition  

   TIME   =   0.40     timestep for ELM

  volume/ion in A,a.u.               =      97.10       655.29
  Fermi-wavevector in a.u.,A,eV,Ry     =   0.643191  1.215456  5.628665  0.413695
  Thomas-Fermi vector in A             =   1.710110
 
 Write flags
   LWAVE  =      F    write WAVECAR
   LCHARG =      F    write CHGCAR
   LVTOT  =      F    write LOCPOT, total local potential
   LVHAR  =      F    write LOCPOT, Hartree potential only
   LELF   =      F    write electronic localiz. function (ELF)
   LORBIT =      0    0 simple, 1 ext, 2 COOP (PROOUT)


 Dipole corrections
   LMONO  =      F    monopole corrections only (constant potential shift)
   LDIPOL =      F    correct potential (dipole corrections)
   IDIPOL =      0    1-x, 2-y, 3-z, 4-all directions 
   EPSILON=  1.0000000 bulk dielectric constant

 Exchange correlation treatment:
   GGA     =    --    GGA type
   LEXCH   =     8    internal setting for exchange type
   VOSKOWN=      0    Vosko Wilk Nusair interpolation
   LHFCALC =     F    Hartree Fock is set to
   LHFONE  =     F    Hartree Fock one center treatment
   AEXX    =    0.0000 exact exchange contribution

 Linear response parameters
   LEPSILON=     F    determine dielectric tensor
   LRPA    =     F    only Hartree local field effects (RPA)
   LNABLA  =     F    use nabla operator in PAW spheres
   LVEL    =     F    velocity operator in full k-point grid
   LINTERFAST=   F  fast interpolation
   KINTER  =     0    interpolate to denser k-point grid
   CSHIFT  =0.1000    complex shift for real part using Kramers Kronig
   OMEGAMAX=  -1.0    maximum frequency
   DEG_THRESHOLD= 0.2000000E-02 threshold for treating states as degnerate
   RTIME   =    0.100 relaxation time in fs

 Orbital magnetization related:
   ORBITALMAG=     F  switch on orbital magnetization
   LCHIMAG   =     F  perturbation theory with respect to B field
   DQ        =  0.001000  dq finite difference perturbation B field



--------------------------------------------------------------------------------------------------------


 quasi-Newton-method for relaxation of ions
 charge density and potential will be updated during run
 non-spin polarized calculation
 Variant of blocked Davidson
 Davidson routine will perform the subspace rotation
 perform sub-space diagonalisation
    after iterative eigenvector-optimisation
 modified Broyden-mixing scheme, WC =      100.0
 initial mixing is a Kerker type mixing with AMIX =  0.4000 and BMIX =      1.0000
 Hartree-type preconditioning will be used
 using additional bands           40
 reciprocal scheme for non local part
 use partial core corrections
 calculate Harris-corrections to forces 
   (improved forces if not selfconsistent)
 use gradient corrections 
 use of overlap-Matrix (Vanderbilt PP)
 Gauss-broadening in eV      SIGMA  =   0.20


--------------------------------------------------------------------------------------------------------


  energy-cutoff  :      280.00
  volume of cell :     2621.81
      direct lattice vectors                 reciprocal lattice vectors
     8.669999960  5.039999894  0.000000000     0.057670129  0.099206348  0.000000000
    -8.669999821  5.040000133  0.000000000    -0.057670126  0.099206350  0.000000000
     0.000000000  0.000000000 30.000000000     0.000000000  0.000000000  0.033333333

  length of vectors
    10.028484344 10.028484344 30.000000000     0.114750788  0.114750788  0.033333333


 
 k-points in units of 2pi/SCALE and weight: K-POINTS 	#supercell of CrS2 in hexagona
   0.00000000  0.00000000  0.00000000       0.016
   0.00720877  0.01240079  0.00000000       0.031
   0.01441753  0.02480159  0.00000000       0.031
   0.02162630  0.03720238  0.00000000       0.031
   0.02883506  0.04960317  0.00000000       0.016
  -0.00720877  0.01240079  0.00000000       0.031
   0.00000000  0.02480159  0.00000000       0.031
   0.00720877  0.03720238  0.00000000       0.031
   0.01441753  0.04960317  0.00000000       0.031
   0.02162630  0.06200397  0.00000000       0.031
  -0.02883506 -0.02480159  0.00000000       0.031
  -0.02162630 -0.01240079  0.00000000       0.031
  -0.01441753  0.00000000  0.00000000       0.031
  -0.01441753  0.02480159  0.00000000       0.031
  -0.00720877  0.03720238  0.00000000       0.031
   0.00000000  0.04960317  0.00000000       0.031
   0.00720877  0.06200397  0.00000000       0.031
   0.01441753  0.07440476  0.00000000       0.031
  -0.03604383 -0.01240079  0.00000000       0.031
  -0.02883506  0.00000000  0.00000000       0.031
  -0.02162630  0.01240079  0.00000000       0.031
  -0.02162630  0.03720238  0.00000000       0.031
  -0.01441753  0.04960317  0.00000000       0.031
  -0.00720877  0.06200397  0.00000000       0.031
   0.00000000  0.07440476  0.00000000       0.031
   0.00720877  0.08680556  0.00000000       0.031
  -0.04325260  0.00000000  0.00000000       0.031
  -0.03604383  0.01240079  0.00000000       0.031
  -0.02883506  0.02480159  0.00000000       0.031
  -0.02883506  0.04960317  0.00000000       0.016
  -0.02162630  0.06200397  0.00000000       0.031
  -0.01441753  0.07440476  0.00000000       0.031
  -0.00720876  0.08680556  0.00000000       0.031
   0.00000000  0.09920635  0.00000000       0.016
 
 k-points in reciprocal lattice and weights: K-POINTS 	#supercell of CrS2 in hexagona
   0.00000000  0.00000000  0.00000000       0.016
   0.12500000  0.00000000  0.00000000       0.031
   0.25000000  0.00000000  0.00000000       0.031
   0.37500000  0.00000000  0.00000000       0.031
   0.50000000  0.00000000  0.00000000       0.016
   0.00000000  0.12500000  0.00000000       0.031
   0.12500000  0.12500000  0.00000000       0.031
   0.25000000  0.12500000  0.00000000       0.031
   0.37500000  0.12500000  0.00000000       0.031
   0.50000000  0.12500000  0.00000000       0.031
  -0.37500000  0.12500000  0.00000000       0.031
  -0.25000000  0.12500000  0.00000000       0.031
  -0.12500000  0.12500000  0.00000000       0.031
   0.00000000  0.25000000  0.00000000       0.031
   0.12500000  0.25000000  0.00000000       0.031
   0.25000000  0.25000000  0.00000000       0.031
   0.37500000  0.25000000  0.00000000       0.031
   0.50000000  0.25000000  0.00000000       0.031
  -0.37500000  0.25000000  0.00000000       0.031
  -0.25000000  0.25000000  0.00000000       0.031
  -0.12500000  0.25000000  0.00000000       0.031
  -0.00000000  0.37500000  0.00000000       0.031
   0.12500000  0.37500000  0.00000000       0.031
   0.25000000  0.37500000  0.00000000       0.031
   0.37500000  0.37500000  0.00000000       0.031
   0.50000000  0.37500000  0.00000000       0.031
  -0.37500000  0.37500000  0.00000000       0.031
  -0.25000000  0.37500000  0.00000000       0.031
  -0.12500000  0.37500000  0.00000000       0.031
   0.00000000  0.50000000  0.00000000       0.016
   0.12500000  0.50000000  0.00000000       0.031
   0.25000000  0.50000000  0.00000000       0.031
   0.37500000  0.50000000  0.00000000       0.031
   0.50000000  0.50000000  0.00000000       0.016
 
 position of ions in fractional coordinates (direct lattice) 
   1.00000000  0.33333334  0.00000000
   0.66666669  0.33333334  0.00000000
   0.33333334  0.00000000  0.00000000
   0.66666669  0.66666669  0.00000000
   0.33333334  0.33333334  0.00000000
   0.00000000  0.00000000  0.00000000
   0.00000000  0.66666669  0.00000000
   0.33333334  0.66666669  0.00000000
   0.66666669  0.00000000  0.00000000
   0.11068511  0.22244981  0.95539999
   0.22244981  0.11068511  0.04460000
   0.11068511  0.55578315  0.95539999
   0.22244981  0.44401845  0.04460000
   0.11068511  0.88911647  0.95539999
   0.22244981  0.77735180  0.04460000
   0.44401845  0.22244981  0.95539999
   0.55578315  0.11068511  0.04460000
   0.44401845  0.55578315  0.95539999
   0.55578315  0.44401845  0.04460000
   0.44401845  0.88911647  0.95539999
   0.55578315  0.77735180  0.04460000
   0.77735180  0.22244981  0.95539999
   0.88911647  0.11068511  0.04460000
   0.77735180  0.55578315  0.95539999
   0.88911647  0.44401845  0.04460000
   0.77735180  0.88911647  0.95539999
   0.88911647  0.77735180  0.04460000
 
 position of ions in cartesian coordinates  (Angst):
   5.77999993  6.71999999  0.00000000
   2.89000012  5.04000012  0.00000000
   2.89000007  1.68000002  0.00000000
   0.00000009  6.72000022  0.00000000
   0.00000005  3.36000011  0.00000000
   0.00000000  0.00000000  0.00000000
  -5.78000005  3.36000019  0.00000000
  -2.88999998  5.04000020  0.00000000
   5.78000015  3.36000003  0.00000000
  -0.96899991  1.67900001 28.66199970
   0.96899995  1.67899998  1.33799996
  -3.85899993  3.35900011 28.66199970
  -1.92100007  3.35900008  1.33799996
  -6.74899970  5.03900005 28.66199970
  -4.81100010  5.03900017  1.33799996
   1.92100017  3.35900003 28.66199970
   3.85900003  3.35900000  1.33799996
  -0.96899986  5.03900012 28.66199970
   0.96900000  5.03900009  1.33799996
  -3.85899963  6.71900006 28.66199970
  -1.92100003  6.71900019  1.33799996
   4.81100024  5.03900004 28.66199970
   6.74899984  5.03899987  1.33799996
   1.92100021  6.71900014 28.66199970
   3.85899981  6.71899996  1.33799996
  -0.96899956  8.39900008 28.66199970
   0.96899979  8.39900005  1.33799996
 


--------------------------------------------------------------------------------------------------------


 k-point  1 :   0.0000 0.0000 0.0000  plane waves:   27959
 k-point  2 :   0.1250 0.0000 0.0000  plane waves:   27889
 k-point  3 :   0.2500 0.0000 0.0000  plane waves:   27875
 k-point  4 :   0.3750 0.0000 0.0000  plane waves:   27893
 k-point  5 :   0.5000 0.0000 0.0000  plane waves:   27932
 k-point  6 :   0.0000 0.1250 0.0000  plane waves:   27889
 k-point  7 :   0.1250 0.1250 0.0000  plane waves:   27906
 k-point  8 :   0.2500 0.1250 0.0000  plane waves:   27898
 k-point  9 :   0.3750 0.1250 0.0000  plane waves:   27888
 k-point 10 :   0.5000 0.1250 0.0000  plane waves:   27873
 k-point 11 :  -0.3750 0.1250 0.0000  plane waves:   27874
 k-point 12 :  -0.2500 0.1250 0.0000  plane waves:   27895
 k-point 13 :  -0.1250 0.1250 0.0000  plane waves:   27879
 k-point 14 :   0.0000 0.2500 0.0000  plane waves:   27875
 k-point 15 :   0.1250 0.2500 0.0000  plane waves:   27898
 k-point 16 :   0.2500 0.2500 0.0000  plane waves:   27920
 k-point 17 :   0.3750 0.2500 0.0000  plane waves:   27901
 k-point 18 :   0.5000 0.2500 0.0000  plane waves:   27875
 k-point 19 :  -0.3750 0.2500 0.0000  plane waves:   27894
 k-point 20 :  -0.2500 0.2500 0.0000  plane waves:   27870
 k-point 21 :  -0.1250 0.2500 0.0000  plane waves:   27895
 k-point 22 :  -0.0000 0.3750 0.0000  plane waves:   27893
 k-point 23 :   0.1250 0.3750 0.0000  plane waves:   27888
 k-point 24 :   0.2500 0.3750 0.0000  plane waves:   27901
 k-point 25 :   0.3750 0.3750 0.0000  plane waves:   27860
 k-point 26 :   0.5000 0.3750 0.0000  plane waves:   27895
 k-point 27 :  -0.3750 0.3750 0.0000  plane waves:   27858
 k-point 28 :  -0.2500 0.3750 0.0000  plane waves:   27894
 k-point 29 :  -0.1250 0.3750 0.0000  plane waves:   27874
 k-point 30 :   0.0000 0.5000 0.0000  plane waves:   27932
 k-point 31 :   0.1250 0.5000 0.0000  plane waves:   27873
 k-point 32 :   0.2500 0.5000 0.0000  plane waves:   27875
 k-point 33 :   0.3750 0.5000 0.0000  plane waves:   27895
 k-point 34 :   0.5000 0.5000 0.0000  plane waves:   27910

 maximum and minimum number of plane-waves per node :     27959    27858

 maximum number of plane-waves:     27959
 maximum index in each direction: 
   IXMAX=   14   IYMAX=   13   IZMAX=   40
   IXMIN=  -14   IYMIN=  -14   IZMIN=  -40

 WARNING: aliasing errors must be expected set NGX to  58 to avoid them
 WARNING: aliasing errors must be expected set NGY to  56 to avoid them
 WARNING: aliasing errors must be expected set NGZ to 162 to avoid them
 aliasing errors are usually negligible using standard VASP settings
 and one can safely disregard these warnings

 serial   3D FFT for wavefunctions

 total amount of memory used by VASP on root node   650782. kBytes
========================================================================

   base      :      30000. kBytes
   nonl-proj :     559647. kBytes
   fftplans  :       2414. kBytes
   grid      :      12150. kBytes
   one-center:        419. kBytes
   wavefun   :      46152. kBytes
 
     INWAV:  cpu time    0.0001: real time    0.0002
 Broyden mixing: mesh for mixing (old mesh)
   NGX = 27   NGY = 27   NGZ = 81
  (NGX  = 84   NGY  = 84   NGZ  =252)
  gives a total of  59049 points

 initial charge density was supplied:
 charge density of overlapping atoms calculated
 number of electron     159.0000000 magnetization 
 keeping initial charge density in first step


--------------------------------------------------------------------------------------------------------


 Maximum index for augmentation-charges          148 (set IRDMAX)


--------------------------------------------------------------------------------------------------------


 First call to EWALD:  gamma=   0.129
 Maximum number of real-space cells 4x 4x 2
 Maximum number of reciprocal cells 2x 2x 5

 FEWALD executed in parallel
    FEWALD:  cpu time    0.0016: real time    0.0017


----------------------------------------- Iteration    1(   1)  ---------------------------------------


    POTLOK:  cpu time    0.0385: real time    0.0386
    SETDIJ:  cpu time    0.0035: real time    0.0036
     EDDAV:  cpu time   23.2471: real time   23.3048
       DOS:  cpu time    0.0022: real time    0.0024
    --------------------------------------------
      LOOP:  cpu time   23.2949: real time   23.3563

 eigenvalue-minimisations  :  8160
 total energy-change (2. order) : 0.1124439E+04  (-0.3585473E+04)
 number of electron     159.0000000 magnetization 
 augmentation part      159.0000000 magnetization 

 Free energy of the ion-electron system (eV)
  ---------------------------------------------------
  alpha Z        PSCENC =        81.65567618
  Ewald energy   TEWEN  =     41890.23011115
  -Hartree energ DENC   =    -47722.85863136
  -exchange      EXHF   =         0.00000000
  -V(xc)+E(xc)   XCENC  =      -242.92963144
  PAW double counting   =      3467.42045192    -2871.19716117
  entropy T*S    EENTRO =        -0.54019041
  eigenvalues    EBANDS =      -238.78445720
  atomic energy  EATOM  =      6761.44252427
  Solvation  Ediel_sol  =         0.00000000
  ---------------------------------------------------
  free energy    TOTEN  =      1124.43869194 eV

  energy without entropy =     1124.97888235  energy(sigma->0) =     1124.70878715


--------------------------------------------------------------------------------------------------------




----------------------------------------- Iteration    1(   2)  ---------------------------------------


     EDDAV:  cpu time   29.5491: real time   29.6205
       DOS:  cpu time    0.0009: real time    0.0009
    --------------------------------------------
      LOOP:  cpu time   29.5507: real time   29.6287

 eigenvalue-minimisations  : 11040
 total energy-change (2. order) :-0.1125841E+04  (-0.1083067E+04)
 number of electron     159.0000000 magnetization 
 augmentation part      159.0000000 magnetization 

 Free energy of the ion-electron system (eV)
  ---------------------------------------------------
  alpha Z        PSCENC =        81.65567618
  Ewald energy   TEWEN  =     41890.23011115
  -Hartree energ DENC   =    -47722.85863136
  -exchange      EXHF   =         0.00000000
  -V(xc)+E(xc)   XCENC  =      -242.92963144
  PAW double counting   =      3467.42045192    -2871.19716117
  entropy T*S    EENTRO =        -0.18070840
  eigenvalues    EBANDS =     -1364.98447687
  atomic energy  EATOM  =      6761.44252427
  Solvation  Ediel_sol  =         0.00000000
  ---------------------------------------------------
  free energy    TOTEN  =        -1.40184572 eV

  energy without entropy =       -1.22113732  energy(sigma->0) =       -1.31149152


--------------------------------------------------------------------------------------------------------




----------------------------------------- Iteration    1(   3)  ---------------------------------------


     EDDAV:  cpu time   29.3448: real time   29.4158
       DOS:  cpu time    0.0010: real time    0.0010
    --------------------------------------------
      LOOP:  cpu time   29.3470: real time   29.4238

 eigenvalue-minimisations  : 10880
 total energy-change (2. order) :-0.1981369E+03  (-0.1897508E+03)
 number of electron     159.0000000 magnetization 
 augmentation part      159.0000000 magnetization 

 Free energy of the ion-electron system (eV)
  ---------------------------------------------------
  alpha Z        PSCENC =        81.65567618
  Ewald energy   TEWEN  =     41890.23011115
  -Hartree energ DENC   =    -47722.85863136
  -exchange      EXHF   =         0.00000000
  -V(xc)+E(xc)   XCENC  =      -242.92963144
  PAW double counting   =      3467.42045192    -2871.19716117
  entropy T*S    EENTRO =        -0.26806051
  eigenvalues    EBANDS =     -1563.03399438
  atomic energy  EATOM  =      6761.44252427
  Solvation  Ediel_sol  =         0.00000000
  ---------------------------------------------------
  free energy    TOTEN  =      -199.53871535 eV

  energy without entropy =     -199.27065483  energy(sigma->0) =     -199.40468509


--------------------------------------------------------------------------------------------------------




----------------------------------------- Iteration    1(   4)  ---------------------------------------


     EDDAV:  cpu time   31.7160: real time   31.7928
       DOS:  cpu time    0.0011: real time    0.0011
    --------------------------------------------
      LOOP:  cpu time   31.7179: real time   31.8004

 eigenvalue-minimisations  : 12040
 total energy-change (2. order) :-0.9388707E+01  (-0.9082796E+01)
 number of electron     159.0000000 magnetization 
 augmentation part      159.0000000 magnetization 

 Free energy of the ion-electron system (eV)
  ---------------------------------------------------
  alpha Z        PSCENC =        81.65567618
  Ewald energy   TEWEN  =     41890.23011115
  -Hartree energ DENC   =    -47722.85863136
  -exchange      EXHF   =         0.00000000
  -V(xc)+E(xc)   XCENC  =      -242.92963144
  PAW double counting   =      3467.42045192    -2871.19716117
  entropy T*S    EENTRO =        -0.29801114
  eigenvalues    EBANDS =     -1572.39275068
  atomic energy  EATOM  =      6761.44252427
  Solvation  Ediel_sol  =         0.00000000
  ---------------------------------------------------
  free energy    TOTEN  =      -208.92742227 eV

  energy without entropy =     -208.62941113  energy(sigma->0) =     -208.77841670


--------------------------------------------------------------------------------------------------------




----------------------------------------- Iteration    1(   5)  ---------------------------------------


     EDDAV:  cpu time   30.7321: real time   30.8067
       DOS:  cpu time    0.0010: real time    0.0010
    CHARGE:  cpu time    0.4660: real time    0.4671
    MIXING:  cpu time    0.0021: real time    0.0022
    --------------------------------------------
      LOOP:  cpu time   31.2023: real time   31.2839

 eigenvalue-minimisations  : 11560
 total energy-change (2. order) :-0.3510716E+00  (-0.3500738E+00)
 number of electron     159.0000111 magnetization 
 augmentation part       -9.7957067 magnetization 

 Broyden mixing:
  rms(total) = 0.27469E+01    rms(broyden)= 0.27465E+01
  rms(prec ) = 0.29322E+01
  weight for this iteration     100.00

 Free energy of the ion-electron system (eV)
  ---------------------------------------------------
  alpha Z        PSCENC =        81.65567618
  Ewald energy   TEWEN  =     41890.23011115
  -Hartree energ DENC   =    -47722.85863136
  -exchange      EXHF   =         0.00000000
  -V(xc)+E(xc)   XCENC  =      -242.92963144
  PAW double counting   =      3467.42045192    -2871.19716117
  entropy T*S    EENTRO =        -0.29459551
  eigenvalues    EBANDS =     -1572.74723793
  atomic energy  EATOM  =      6761.44252427
  Solvation  Ediel_sol  =         0.00000000
  ---------------------------------------------------
  free energy    TOTEN  =      -209.27849389 eV

  energy without entropy =     -208.98389838  energy(sigma->0) =     -209.13119614


--------------------------------------------------------------------------------------------------------




----------------------------------------- Iteration    1(   6)  ---------------------------------------


    POTLOK:  cpu time    0.0351: real time    0.0352
    SETDIJ:  cpu time    0.0030: real time    0.0030
     EDDAV:  cpu time   33.2428: real time   33.3232
       DOS:  cpu time    0.0011: real time    0.0011
    CHARGE:  cpu time    0.4591: real time    0.4602
    MIXING:  cpu time    0.0019: real time    0.0019
    --------------------------------------------
      LOOP:  cpu time   33.7439: real time   33.8333

 eigenvalue-minimisations  : 12760
 total energy-change (2. order) :-0.2790210E+02  (-0.1078116E+02)
 number of electron     159.0000106 magnetization 
 augmentation part        7.0894610 magnetization 

 Broyden mixing:
  rms(total) = 0.59393E+01    rms(broyden)= 0.59387E+01
  rms(prec ) = 0.65210E+01
  weight for this iteration     100.00

 eigenvalues of (default mixing * dielectric matrix)
  average eigenvalue GAMMA=   0.2933
  0.2933

 Free energy of the ion-electron system (eV)
  ---------------------------------------------------
  alpha Z        PSCENC =        81.65567618
  Ewald energy   TEWEN  =     41890.23011115
  -Hartree energ DENC   =    -47701.21466323
  -exchange      EXHF   =         0.00000000
  -V(xc)+E(xc)   XCENC  =      -233.63006575
  PAW double counting   =      3676.45215512    -3082.54212407
  entropy T*S    EENTRO =        -0.27132696
  eigenvalues    EBANDS =     -1629.30287743
  atomic energy  EATOM  =      6761.44252427
  Solvation  Ediel_sol  =         0.00000000
  ---------------------------------------------------
  free energy    TOTEN  =      -237.18059072 eV

  energy without entropy =     -236.90926376  energy(sigma->0) =     -237.04492724


--------------------------------------------------------------------------------------------------------




----------------------------------------- Iteration    1(   7)  ---------------------------------------


    POTLOK:  cpu time    0.0323: real time    0.0324
    SETDIJ:  cpu time    0.0027: real time    0.0027
     EDDAV:  cpu time   33.9887: real time   34.0707
       DOS:  cpu time    0.0010: real time    0.0010
    CHARGE:  cpu time    0.4729: real time    0.4740
    MIXING:  cpu time    0.0013: real time    0.0013
    --------------------------------------------
      LOOP:  cpu time   34.4999: real time   34.5908

 eigenvalue-minimisations  : 13080
 total energy-change (2. order) : 0.4053362E+02  (-0.1775673E+02)
 number of electron     159.0000087 magnetization 
 augmentation part       -6.2260007 magnetization 

 Broyden mixing:
  rms(total) = 0.20372E+01    rms(broyden)= 0.20352E+01
  rms(prec ) = 0.22618E+01
  weight for this iteration     100.00

 eigenvalues of (default mixing * dielectric matrix)
  average eigenvalue GAMMA=   0.5399
  0.8686  0.2112

 Free energy of the ion-electron system (eV)
  ---------------------------------------------------
  alpha Z        PSCENC =        81.65567618
  Ewald energy   TEWEN  =     41890.23011115
  -Hartree energ DENC   =    -47738.75383593
  -exchange      EXHF   =         0.00000000
  -V(xc)+E(xc)   XCENC  =      -235.01325401
  PAW double counting   =      3764.26388566    -3178.30776606
  entropy T*S    EENTRO =        -0.33703688
  eigenvalues    EBANDS =     -1541.82727458
  atomic energy  EATOM  =      6761.44252427
  Solvation  Ediel_sol  =         0.00000000
  ---------------------------------------------------
  free energy    TOTEN  =      -196.64697021 eV

  energy without entropy =     -196.30993332  energy(sigma->0) =     -196.47845177


--------------------------------------------------------------------------------------------------------




----------------------------------------- Iteration    1(   8)  ---------------------------------------


    POTLOK:  cpu time    0.0316: real time    0.0320
    SETDIJ:  cpu time    0.0038: real time    0.0038
     EDDAV:  cpu time   31.0321: real time   31.1070
       DOS:  cpu time    0.0011: real time    0.0011
    CHARGE:  cpu time    0.4713: real time    0.4724
    MIXING:  cpu time    0.0014: real time    0.0014
    --------------------------------------------
      LOOP:  cpu time   31.5425: real time   31.6265

 eigenvalue-minimisations  : 11760
 total energy-change (2. order) : 0.6532785E+01  (-0.2046632E+01)
 number of electron     159.0000095 magnetization 
 augmentation part       -6.4021501 magnetization 

 Broyden mixing:
  rms(total) = 0.13754E+01    rms(broyden)= 0.13749E+01
  rms(prec ) = 0.14864E+01
  weight for this iteration     100.00

 eigenvalues of (default mixing * dielectric matrix)
  average eigenvalue GAMMA=   0.5258
  1.0474  0.2650  0.2650

 Free energy of the ion-electron system (eV)
  ---------------------------------------------------
  alpha Z        PSCENC =        81.65567618
  Ewald energy   TEWEN  =     41890.23011115
  -Hartree energ DENC   =    -47761.61735408
  -exchange      EXHF   =         0.00000000
  -V(xc)+E(xc)   XCENC  =      -235.04945762
  PAW double counting   =      3902.82992861    -3318.42472083
  entropy T*S    EENTRO =        -0.26825151
  eigenvalues    EBANDS =     -1510.91264113
  atomic energy  EATOM  =      6761.44252427
  Solvation  Ediel_sol  =         0.00000000
  ---------------------------------------------------
  free energy    TOTEN  =      -190.11418498 eV

  energy without entropy =     -189.84593346  energy(sigma->0) =     -189.98005922


--------------------------------------------------------------------------------------------------------




----------------------------------------- Iteration    1(   9)  ---------------------------------------


    POTLOK:  cpu time    0.0322: real time    0.0323
    SETDIJ:  cpu time    0.0028: real time    0.0029
     EDDAV:  cpu time   31.6540: real time   31.7307
       DOS:  cpu time    0.0011: real time    0.0011
    CHARGE:  cpu time    0.4862: real time    0.4874
    MIXING:  cpu time    0.0044: real time    0.0044
    --------------------------------------------
      LOOP:  cpu time   32.1818: real time   32.2671

 eigenvalue-minimisations  : 12000
 total energy-change (2. order) : 0.1802724E+01  (-0.3506896E+00)
 number of electron     159.0000094 magnetization 
 augmentation part       -5.7269530 magnetization 

 Broyden mixing:
  rms(total) = 0.93899E+00    rms(broyden)= 0.93855E+00
  rms(prec ) = 0.10105E+01
  weight for this iteration     100.00

 eigenvalues of (default mixing * dielectric matrix)
  average eigenvalue GAMMA=   0.6943
  1.7037  0.5734  0.2198  0.2801

 Free energy of the ion-electron system (eV)
  ---------------------------------------------------
  alpha Z        PSCENC =        81.65567618
  Ewald energy   TEWEN  =     41890.23011115
  -Hartree energ DENC   =    -47765.64830376
  -exchange      EXHF   =         0.00000000
  -V(xc)+E(xc)   XCENC  =      -234.37107498
  PAW double counting   =      3960.87590990    -3377.18518382
  entropy T*S    EENTRO =        -0.32727697
  eigenvalues    EBANDS =     -1504.98384332
  atomic energy  EATOM  =      6761.44252427
  Solvation  Ediel_sol  =         0.00000000
  ---------------------------------------------------
  free energy    TOTEN  =      -188.31146135 eV

  energy without entropy =     -187.98418439  energy(sigma->0) =     -188.14782287


--------------------------------------------------------------------------------------------------------




----------------------------------------- Iteration    1(  10)  ---------------------------------------


    POTLOK:  cpu time    0.0328: real time    0.0329
    SETDIJ:  cpu time    0.0027: real time    0.0027
     EDDAV:  cpu time   34.2370: real time   34.3198
       DOS:  cpu time    0.0010: real time    0.0010
    CHARGE:  cpu time    0.4928: real time    0.4940
    MIXING:  cpu time    0.0015: real time    0.0015
    --------------------------------------------
      LOOP:  cpu time   34.7688: real time   34.8610

 eigenvalue-minimisations  : 13240
 total energy-change (2. order) : 0.1177445E+01  (-0.1780392E+00)
 number of electron     159.0000092 magnetization 
 augmentation part       -4.4095146 magnetization 

 Broyden mixing:
  rms(total) = 0.34807E+00    rms(broyden)= 0.34775E+00
  rms(prec ) = 0.38091E+00
  weight for this iteration     100.00

 eigenvalues of (default mixing * dielectric matrix)
  average eigenvalue GAMMA=   0.6928
  1.8681  0.6126  0.5015  0.2243  0.2578

 Free energy of the ion-electron system (eV)
  ---------------------------------------------------
  alpha Z        PSCENC =        81.65567618
  Ewald energy   TEWEN  =     41890.23011115
  -Hartree energ DENC   =    -47777.84929462
  -exchange      EXHF   =         0.00000000
  -V(xc)+E(xc)   XCENC  =      -232.75554612
  PAW double counting   =      4088.66779732    -3506.61507939
  entropy T*S    EENTRO =        -0.34130220
  eigenvalues    EBANDS =     -1491.56890264
  atomic energy  EATOM  =      6761.44252427
  Solvation  Ediel_sol  =         0.00000000
  ---------------------------------------------------
  free energy    TOTEN  =      -187.13401606 eV

  energy without entropy =     -186.79271385  energy(sigma->0) =     -186.96336495


--------------------------------------------------------------------------------------------------------




----------------------------------------- Iteration    1(  11)  ---------------------------------------


    POTLOK:  cpu time    0.0324: real time    0.0325
    SETDIJ:  cpu time    0.0027: real time    0.0027
     EDDAV:  cpu time   33.0045: real time   33.0845
       DOS:  cpu time    0.0010: real time    0.0010
    CHARGE:  cpu time    0.4996: real time    0.5008
    MIXING:  cpu time    0.0015: real time    0.0015
    --------------------------------------------
      LOOP:  cpu time   33.5437: real time   33.6315

 eigenvalue-minimisations  : 12600
 total energy-change (2. order) : 0.1243141E+00  (-0.6769970E-01)
 number of electron     159.0000092 magnetization 
 augmentation part       -4.2817727 magnetization 

 Broyden mixing:
  rms(total) = 0.23473E+00    rms(broyden)= 0.23435E+00
  rms(prec ) = 0.25749E+00
  weight for this iteration     100.00

 eigenvalues of (default mixing * dielectric matrix)
  average eigenvalue GAMMA=   0.8675
  1.9161  1.9161  0.6151  0.2875  0.2219  0.2480

 Free energy of the ion-electron system (eV)
  ---------------------------------------------------
  alpha Z        PSCENC =        81.65567618
  Ewald energy   TEWEN  =     41890.23011115
  -Hartree energ DENC   =    -47783.81037179
  -exchange      EXHF   =         0.00000000
  -V(xc)+E(xc)   XCENC  =      -232.40213493
  PAW double counting   =      4126.06987635    -3544.32692652
  entropy T*S    EENTRO =        -0.34862259
  eigenvalues    EBANDS =     -1485.51983411
  atomic energy  EATOM  =      6761.44252427
  Solvation  Ediel_sol  =         0.00000000
  ---------------------------------------------------
  free energy    TOTEN  =      -187.00970200 eV

  energy without entropy =     -186.66107941  energy(sigma->0) =     -186.83539071


--------------------------------------------------------------------------------------------------------




----------------------------------------- Iteration    1(  12)  ---------------------------------------


    POTLOK:  cpu time    0.0323: real time    0.0326
    SETDIJ:  cpu time    0.0028: real time    0.0028
     EDDAV:  cpu time   33.7435: real time   33.8248
       DOS:  cpu time    0.0011: real time    0.0011
    CHARGE:  cpu time    0.4978: real time    0.4990
    MIXING:  cpu time    0.0016: real time    0.0016
    --------------------------------------------
      LOOP:  cpu time   34.2791: real time   34.3702

 eigenvalue-minimisations  : 13000
 total energy-change (2. order) :-0.7368737E-02  (-0.4483460E-01)
 number of electron     159.0000089 magnetization 
 augmentation part       -4.4688749 magnetization 

 Broyden mixing:
  rms(total) = 0.32968E+00    rms(broyden)= 0.32958E+00
  rms(prec ) = 0.36535E+00
  weight for this iteration     100.00

 eigenvalues of (default mixing * dielectric matrix)
  average eigenvalue GAMMA=   0.7964
  1.9932  1.9932  0.6172  0.2762  0.2762  0.2133  0.2054

 Free energy of the ion-electron system (eV)
  ---------------------------------------------------
  alpha Z        PSCENC =        81.65567618
  Ewald energy   TEWEN  =     41890.23011115
  -Hartree energ DENC   =    -47796.76136830
  -exchange      EXHF   =         0.00000000
  -V(xc)+E(xc)   XCENC  =      -232.07252642
  PAW double counting   =      4179.91960536    -3598.14848613
  entropy T*S    EENTRO =        -0.33403181
  eigenvalues    EBANDS =     -1472.94857502
  atomic energy  EATOM  =      6761.44252427
  Solvation  Ediel_sol  =         0.00000000
  ---------------------------------------------------
  free energy    TOTEN  =      -187.01707074 eV

  energy without entropy =     -186.68303892  energy(sigma->0) =     -186.85005483


--------------------------------------------------------------------------------------------------------




----------------------------------------- Iteration    1(  13)  ---------------------------------------


    POTLOK:  cpu time    0.0321: real time    0.0322
    SETDIJ:  cpu time    0.0027: real time    0.0027
     EDDAV:  cpu time   34.5688: real time   34.6525
       DOS:  cpu time    0.0010: real time    0.0010
    CHARGE:  cpu time    0.4999: real time    0.5011
    MIXING:  cpu time    0.0016: real time    0.0016
    --------------------------------------------
      LOOP:  cpu time   35.1073: real time   35.2003

 eigenvalue-minimisations  : 13320
 total energy-change (2. order) : 0.8748684E-01  (-0.2555180E-01)
 number of electron     159.0000089 magnetization 
 augmentation part       -4.4076193 magnetization 

 Broyden mixing:
  rms(total) = 0.19079E+00    rms(broyden)= 0.19064E+00
  rms(prec ) = 0.21146E+00
  weight for this iteration     100.00

 eigenvalues of (default mixing * dielectric matrix)
  average eigenvalue GAMMA=   0.7796
  2.2852  1.7038  0.7493  0.5901  0.2993  0.2246  0.2409  0.1431

 Free energy of the ion-electron system (eV)
  ---------------------------------------------------
  alpha Z        PSCENC =        81.65567618
  Ewald energy   TEWEN  =     41890.23011115
  -Hartree energ DENC   =    -47799.24010248
  -exchange      EXHF   =         0.00000000
  -V(xc)+E(xc)   XCENC  =      -231.98834649
  PAW double counting   =      4187.66866368    -3605.88733717
  entropy T*S    EENTRO =        -0.33640367
  eigenvalues    EBANDS =     -1470.47436937
  atomic energy  EATOM  =      6761.44252427
  Solvation  Ediel_sol  =         0.00000000
  ---------------------------------------------------
  free energy    TOTEN  =      -186.92958390 eV

  energy without entropy =     -186.59318022  energy(sigma->0) =     -186.76138206


--------------------------------------------------------------------------------------------------------




----------------------------------------- Iteration    1(  14)  ---------------------------------------


    POTLOK:  cpu time    0.0325: real time    0.0326
    SETDIJ:  cpu time    0.0028: real time    0.0028
     EDDAV:  cpu time   33.8318: real time   33.9133
       DOS:  cpu time    0.0010: real time    0.0010
    CHARGE:  cpu time    0.4965: real time    0.4977
    MIXING:  cpu time    0.0017: real time    0.0017
    --------------------------------------------
      LOOP:  cpu time   34.3673: real time   34.4581

 eigenvalue-minimisations  : 13040
 total energy-change (2. order) : 0.2934125E-01  (-0.1052370E-01)
 number of electron     159.0000089 magnetization 
 augmentation part       -4.1699073 magnetization 

 Broyden mixing:
  rms(total) = 0.90476E-01    rms(broyden)= 0.90333E-01
  rms(prec ) = 0.10207E+00
  weight for this iteration     100.00

 eigenvalues of (default mixing * dielectric matrix)
  average eigenvalue GAMMA=   0.7429
  2.2879  1.6425  0.9870  0.5989  0.3003  0.2741  0.2291  0.2291  0.1374

 Free energy of the ion-electron system (eV)
  ---------------------------------------------------
  alpha Z        PSCENC =        81.65567618
  Ewald energy   TEWEN  =     41890.23011115
  -Hartree energ DENC   =    -47802.59990237
  -exchange      EXHF   =         0.00000000
  -V(xc)+E(xc)   XCENC  =      -231.87277080
  PAW double counting   =      4192.46044049    -3610.65248275
  entropy T*S    EENTRO =        -0.34101087
  eigenvalues    EBANDS =     -1467.22282794
  atomic energy  EATOM  =      6761.44252427
  Solvation  Ediel_sol  =         0.00000000
  ---------------------------------------------------
  free energy    TOTEN  =      -186.90024265 eV

  energy without entropy =     -186.55923178  energy(sigma->0) =     -186.72973722


--------------------------------------------------------------------------------------------------------




----------------------------------------- Iteration    1(  15)  ---------------------------------------


    POTLOK:  cpu time    0.0326: real time    0.0327
    SETDIJ:  cpu time    0.0027: real time    0.0027
     EDDAV:  cpu time   32.2382: real time   32.3161
       DOS:  cpu time    0.0002: real time    0.0010
    CHARGE:  cpu time    0.4984: real time    0.4996
    MIXING:  cpu time    0.0018: real time    0.0018
    --------------------------------------------
      LOOP:  cpu time   32.7756: real time   32.8638

 eigenvalue-minimisations  : 12280
 total energy-change (2. order) : 0.6188223E-02  (-0.3783308E-02)
 number of electron     159.0000090 magnetization 
 augmentation part       -4.1168559 magnetization 

 Broyden mixing:
  rms(total) = 0.88424E-01    rms(broyden)= 0.88354E-01
  rms(prec ) = 0.98056E-01
  weight for this iteration     100.00

 eigenvalues of (default mixing * dielectric matrix)
  average eigenvalue GAMMA=   0.7012
  2.2880  1.6387  1.0927  0.5967  0.3504  0.3031  0.2279  0.2337  0.1482  0.1327

 Free energy of the ion-electron system (eV)
  ---------------------------------------------------
  alpha Z        PSCENC =        81.65567618
  Ewald energy   TEWEN  =     41890.23011115
  -Hartree energ DENC   =    -47804.90016972
  -exchange      EXHF   =         0.00000000
  -V(xc)+E(xc)   XCENC  =      -231.83672735
  PAW double counting   =      4192.79600475    -3610.95841851
  entropy T*S    EENTRO =        -0.34323524
  eigenvalues    EBANDS =     -1464.97981996
  atomic energy  EATOM  =      6761.44252427
  Solvation  Ediel_sol  =         0.00000000
  ---------------------------------------------------
  free energy    TOTEN  =      -186.89405443 eV

  energy without entropy =     -186.55081919  energy(sigma->0) =     -186.72243681


--------------------------------------------------------------------------------------------------------




----------------------------------------- Iteration    1(  16)  ---------------------------------------


    POTLOK:  cpu time    0.0311: real time    0.0325
    SETDIJ:  cpu time    0.0027: real time    0.0027
     EDDAV:  cpu time   34.3625: real time   34.4465
       DOS:  cpu time    0.0002: real time    0.0010
    CHARGE:  cpu time    0.4963: real time    0.4975
    MIXING:  cpu time    0.0019: real time    0.0019
    --------------------------------------------
      LOOP:  cpu time   34.8978: real time   34.9910

 eigenvalue-minimisations  : 13280
 total energy-change (2. order) : 0.4283895E-02  (-0.1419157E-02)
 number of electron     159.0000090 magnetization 
 augmentation part       -4.1301164 magnetization 

 Broyden mixing:
  rms(total) = 0.49983E-01    rms(broyden)= 0.49951E-01
  rms(prec ) = 0.56363E-01
  weight for this iteration     100.00

 eigenvalues of (default mixing * dielectric matrix)
  average eigenvalue GAMMA=   0.7657
  2.3708  1.9262  1.5088  0.6984  0.6206  0.3084  0.2677  0.2246  0.2401  0.1392
  0.1183

 Free energy of the ion-electron system (eV)
  ---------------------------------------------------
  alpha Z        PSCENC =        81.65567618
  Ewald energy   TEWEN  =     41890.23011115
  -Hartree energ DENC   =    -47806.21801702
  -exchange      EXHF   =         0.00000000
  -V(xc)+E(xc)   XCENC  =      -231.81960972
  PAW double counting   =      4193.09865201    -3611.24677915
  entropy T*S    EENTRO =        -0.34326374
  eigenvalues    EBANDS =     -1463.68906450
  atomic energy  EATOM  =      6761.44252427
  Solvation  Ediel_sol  =         0.00000000
  ---------------------------------------------------
  free energy    TOTEN  =      -186.88977053 eV

  energy without entropy =     -186.54650679  energy(sigma->0) =     -186.71813866


--------------------------------------------------------------------------------------------------------




----------------------------------------- Iteration    1(  17)  ---------------------------------------


    POTLOK:  cpu time    0.0320: real time    0.0321
    SETDIJ:  cpu time    0.0027: real time    0.0027
     EDDAV:  cpu time   33.7078: real time   33.7890
       DOS:  cpu time    0.0011: real time    0.0011
    CHARGE:  cpu time    0.5024: real time    0.5036
    MIXING:  cpu time    0.0019: real time    0.0019
    --------------------------------------------
      LOOP:  cpu time   34.2487: real time   34.3389

 eigenvalue-minimisations  : 12960
 total energy-change (2. order) : 0.2710711E-02  (-0.7326754E-03)
 number of electron     159.0000090 magnetization 
 augmentation part       -4.1930696 magnetization 

 Broyden mixing:
  rms(total) = 0.17559E-01    rms(broyden)= 0.17496E-01
  rms(prec ) = 0.21510E-01
  weight for this iteration     100.00

 eigenvalues of (default mixing * dielectric matrix)
  average eigenvalue GAMMA=   0.7793
  2.3447  2.3447  1.4385  0.8583  0.6038  0.4726  0.3089  0.2239  0.2559  0.2438
  0.1391  0.1177

 Free energy of the ion-electron system (eV)
  ---------------------------------------------------
  alpha Z        PSCENC =        81.65567618
  Ewald energy   TEWEN  =     41890.23011115
  -Hartree energ DENC   =    -47811.80016657
  -exchange      EXHF   =         0.00000000
  -V(xc)+E(xc)   XCENC  =      -231.74701316
  PAW double counting   =      4194.69316363    -3612.78211843
  entropy T*S    EENTRO =        -0.34133013
  eigenvalues    EBANDS =     -1458.23790675
  atomic energy  EATOM  =      6761.44252427
  Solvation  Ediel_sol  =         0.00000000
  ---------------------------------------------------
  free energy    TOTEN  =      -186.88705982 eV

  energy without entropy =     -186.54572969  energy(sigma->0) =     -186.71639476


--------------------------------------------------------------------------------------------------------




----------------------------------------- Iteration    1(  18)  ---------------------------------------


    POTLOK:  cpu time    0.0320: real time    0.0323
    SETDIJ:  cpu time    0.0026: real time    0.0026
     EDDAV:  cpu time   31.2721: real time   31.3477
       DOS:  cpu time    0.0010: real time    0.0010
    CHARGE:  cpu time    0.4985: real time    0.4997
    MIXING:  cpu time    0.0023: real time    0.0024
    --------------------------------------------
      LOOP:  cpu time   31.8099: real time   31.8944

 eigenvalue-minimisations  : 11880
 total energy-change (2. order) : 0.5398924E-03  (-0.2024991E-03)
 number of electron     159.0000090 magnetization 
 augmentation part       -4.2079322 magnetization 

 Broyden mixing:
  rms(total) = 0.17672E-01    rms(broyden)= 0.17662E-01
  rms(prec ) = 0.20523E-01
  weight for this iteration     100.00

 eigenvalues of (default mixing * dielectric matrix)
  average eigenvalue GAMMA=   0.7860
  2.3662  2.3662  1.2617  1.2617  0.6745  0.6185  0.3821  0.3066  0.2242  0.2576
  0.2421  0.1391  0.1176

 Free energy of the ion-electron system (eV)
  ---------------------------------------------------
  alpha Z        PSCENC =        81.65567618
  Ewald energy   TEWEN  =     41890.23011115
  -Hartree energ DENC   =    -47815.27833094
  -exchange      EXHF   =         0.00000000
  -V(xc)+E(xc)   XCENC  =      -231.71295209
  PAW double counting   =      4194.96037908    -3613.01588874
  entropy T*S    EENTRO =        -0.34105327
  eigenvalues    EBANDS =     -1454.82698556
  atomic energy  EATOM  =      6761.44252427
  Solvation  Ediel_sol  =         0.00000000
  ---------------------------------------------------
  free energy    TOTEN  =      -186.88651993 eV

  energy without entropy =     -186.54546666  energy(sigma->0) =     -186.71599329


--------------------------------------------------------------------------------------------------------




----------------------------------------- Iteration    1(  19)  ---------------------------------------


    POTLOK:  cpu time    0.0328: real time    0.0329
    SETDIJ:  cpu time    0.0028: real time    0.0028
     EDDAV:  cpu time   30.3322: real time   30.4054
       DOS:  cpu time    0.0011: real time    0.0011
    CHARGE:  cpu time    0.4988: real time    0.5001
    MIXING:  cpu time    0.0021: real time    0.0021
    --------------------------------------------
      LOOP:  cpu time   30.8707: real time   30.9533

 eigenvalue-minimisations  : 11400
 total energy-change (2. order) : 0.2395121E-03  (-0.7928879E-04)
 number of electron     159.0000090 magnetization 
 augmentation part       -4.1831287 magnetization 

 Broyden mixing:
  rms(total) = 0.45587E-02    rms(broyden)= 0.45420E-02
  rms(prec ) = 0.75299E-02
  weight for this iteration     100.00

 eigenvalues of (default mixing * dielectric matrix)
  average eigenvalue GAMMA=   0.8839
  2.6898  2.6898  1.5968  1.4825  0.9968  0.6283  0.6283  0.3737  0.3073  0.2242
  0.2577  0.2422  0.1391  0.1176

 Free energy of the ion-electron system (eV)
  ---------------------------------------------------
  alpha Z        PSCENC =        81.65567618
  Ewald energy   TEWEN  =     41890.23011115
  -Hartree energ DENC   =    -47817.69698986
  -exchange      EXHF   =         0.00000000
  -V(xc)+E(xc)   XCENC  =      -231.69271115
  PAW double counting   =      4194.41218994    -3612.45445650
  entropy T*S    EENTRO =        -0.34157433
  eigenvalues    EBANDS =     -1452.44105011
  atomic energy  EATOM  =      6761.44252427
  Solvation  Ediel_sol  =         0.00000000
  ---------------------------------------------------
  free energy    TOTEN  =      -186.88628042 eV

  energy without entropy =     -186.54470609  energy(sigma->0) =     -186.71549325


--------------------------------------------------------------------------------------------------------




----------------------------------------- Iteration    1(  20)  ---------------------------------------


    POTLOK:  cpu time    0.0322: real time    0.0325
    SETDIJ:  cpu time    0.0026: real time    0.0026
     EDDAV:  cpu time   25.2277: real time   25.2881
       DOS:  cpu time    0.0011: real time    0.0011
    CHARGE:  cpu time    0.4977: real time    0.4988
    MIXING:  cpu time    0.0022: real time    0.0022
    --------------------------------------------
      LOOP:  cpu time   25.7647: real time   25.8344

 eigenvalue-minimisations  :  9120
 total energy-change (2. order) :-0.8973317E-03  (-0.8491657E-04)
 number of electron     159.0000090 magnetization 
 augmentation part       -4.1873296 magnetization 

 Broyden mixing:
  rms(total) = 0.42289E-02    rms(broyden)= 0.42279E-02
  rms(prec ) = 0.56634E-02
  weight for this iteration     100.00

 eigenvalues of (default mixing * dielectric matrix)
  average eigenvalue GAMMA=   0.9202
  3.1203  2.5679  1.8779  1.5108  0.8990  0.8990  0.6334  0.6334  0.3737  0.3073
  0.2242  0.2577  0.2422  0.1391  0.1176

 Free energy of the ion-electron system (eV)
  ---------------------------------------------------
  alpha Z        PSCENC =        81.65567618
  Ewald energy   TEWEN  =     41890.23011115
  -Hartree energ DENC   =    -47824.33561086
  -exchange      EXHF   =         0.00000000
  -V(xc)+E(xc)   XCENC  =      -231.63633085
  PAW double counting   =      4193.08524280    -3611.10591049
  entropy T*S    EENTRO =        -0.34125556
  eigenvalues    EBANDS =     -1445.88162438
  atomic energy  EATOM  =      6761.44252427
  Solvation  Ediel_sol  =         0.00000000
  ---------------------------------------------------
  free energy    TOTEN  =      -186.88717775 eV

  energy without entropy =     -186.54592219  energy(sigma->0) =     -186.71654997


--------------------------------------------------------------------------------------------------------




----------------------------------------- Iteration    1(  21)  ---------------------------------------


    POTLOK:  cpu time    0.0328: real time    0.0329
    SETDIJ:  cpu time    0.0027: real time    0.0027
     EDDAV:  cpu time   23.5603: real time   23.6171
       DOS:  cpu time    0.0010: real time    0.0010
    CHARGE:  cpu time    0.4987: real time    0.4999
    MIXING:  cpu time    0.0023: real time    0.0023
    --------------------------------------------
      LOOP:  cpu time   24.0987: real time   24.1642

 eigenvalue-minimisations  :  8280
 total energy-change (2. order) :-0.8660722E-03  (-0.2204034E-04)
 number of electron     159.0000090 magnetization 
 augmentation part       -4.1804223 magnetization 

 Broyden mixing:
  rms(total) = 0.35767E-02    rms(broyden)= 0.35726E-02
  rms(prec ) = 0.45823E-02
  weight for this iteration     100.00

 eigenvalues of (default mixing * dielectric matrix)
  average eigenvalue GAMMA=   0.9534
  3.6104  2.4181  2.1727  1.5962  1.0534  1.0534  0.6360  0.6360  0.4159  0.3739
  0.3073  0.2242  0.2422  0.2577  0.1391  0.1176

 Free energy of the ion-electron system (eV)
  ---------------------------------------------------
  alpha Z        PSCENC =        81.65567618
  Ewald energy   TEWEN  =     41890.23011115
  -Hartree energ DENC   =    -47827.09936271
  -exchange      EXHF   =         0.00000000
  -V(xc)+E(xc)   XCENC  =      -231.61765073
  PAW double counting   =      4192.73042880    -3610.75102695
  entropy T*S    EENTRO =        -0.34138838
  eigenvalues    EBANDS =     -1443.13735545
  atomic energy  EATOM  =      6761.44252427
  Solvation  Ediel_sol  =         0.00000000
  ---------------------------------------------------
  free energy    TOTEN  =      -186.88804382 eV

  energy without entropy =     -186.54665544  energy(sigma->0) =     -186.71734963


--------------------------------------------------------------------------------------------------------




----------------------------------------- Iteration    1(  22)  ---------------------------------------


    POTLOK:  cpu time    0.0322: real time    0.0326
    SETDIJ:  cpu time    0.0028: real time    0.0028
     EDDAV:  cpu time   20.2107: real time   20.2590
       DOS:  cpu time    0.0011: real time    0.0011
    CHARGE:  cpu time    0.4979: real time    0.4991
    MIXING:  cpu time    0.0023: real time    0.0023
    --------------------------------------------
      LOOP:  cpu time   20.7483: real time   20.8056

 eigenvalue-minimisations  :  6760
 total energy-change (2. order) :-0.8102731E-03  (-0.1018978E-04)
 number of electron     159.0000090 magnetization 
 augmentation part       -4.1795196 magnetization 

 Broyden mixing:
  rms(total) = 0.33717E-02    rms(broyden)= 0.33704E-02
  rms(prec ) = 0.39822E-02
  weight for this iteration     100.00

 eigenvalues of (default mixing * dielectric matrix)
  average eigenvalue GAMMA=   1.0843
  4.8936  2.5287  2.5287  1.7184  1.4868  0.9900  0.9900  0.6270  0.6270  0.2242
  0.2422  0.2577  0.3073  0.3722  0.3823  0.1391  0.1176

 Free energy of the ion-electron system (eV)
  ---------------------------------------------------
  alpha Z        PSCENC =        81.65567618
  Ewald energy   TEWEN  =     41890.23011115
  -Hartree energ DENC   =    -47829.21780794
[...]
    104      -0.6196      0.00000
    105      -0.4299      0.00000
    106      -0.2813      0.00000
    107      -0.1533      0.00000
    108      -0.0215      0.00000
    109       0.0263      0.00000
    110       0.1198      0.00000
    111       0.4216      0.00000
    112       0.7137      0.00000
    113       0.8136      0.00000
    114       0.8825      0.00000
    115       1.0801      0.00000
    116       1.2325      0.00000
    117       1.2925      0.00000
    118       2.1299      0.00000
    119       2.3170      0.00000
    120       2.3859      0.00000

 k-point    34 :       0.5000    0.5000    0.0000
  band No.  band energies     occupation 
      1     -17.5055      2.00000
      2     -17.3589      2.00000
      3     -16.7595      2.00000
      4     -16.6790      2.00000
      5     -16.6728      2.00000
      6     -16.4365      2.00000
      7     -16.3312      2.00000
      8     -16.2412      2.00000
      9     -16.0439      2.00000
     10     -15.9957      2.00000
     11     -15.9370      2.00000
     12     -15.8466      2.00000
     13     -15.7232      2.00000
     14     -15.7085      2.00000
     15     -15.6552      2.00000
     16     -15.5572      2.00000
     17     -15.2895      2.00000
     18     -15.2548      2.00000
     19      -9.8368      2.00000
     20      -9.4163      2.00000
     21      -9.1694      2.00000
     22      -9.1061      2.00000
     23      -8.9551      2.00000
     24      -8.8275      2.00000
     25      -8.5374      2.00000
     26      -8.4616      2.00000
     27      -8.4194      2.00000
     28      -8.3041      2.00000
     29      -8.2773      2.00000
     30      -8.1961      2.00000
     31      -8.1477      2.00000
     32      -8.1069      2.00000
     33      -7.9667      2.00000
     34      -7.8815      2.00000
     35      -7.7769      2.00000
     36      -7.7357      2.00000
     37      -7.5221      2.00000
     38      -7.3548      2.00000
     39      -7.3117      2.00000
     40      -7.2372      2.00000
     41      -7.1271      2.00000
     42      -7.0829      2.00000
     43      -7.0533      2.00000
     44      -7.0437      2.00000
     45      -6.8177      2.00000
     46      -6.7470      2.00000
     47      -6.6170      2.00000
     48      -6.5829      2.00000
     49      -6.5616      2.00000
     50      -6.5327      2.00000
     51      -6.4516      2.00000
     52      -6.3418      2.00000
     53      -6.2595      2.00000
     54      -6.2227      2.00000
     55      -6.1675      2.00000
     56      -6.0735      2.00000
     57      -6.0439      2.00000
     58      -5.8799      2.00000
     59      -5.8413      2.00000
     60      -5.7982      2.00000
     61      -5.7059      2.00000
     62      -5.6108      2.00000
     63      -5.5335      2.00000
     64      -5.4028      2.00000
     65      -5.2768      2.00000
     66      -5.1957      2.00000
     67      -4.9554      2.00000
     68      -4.8682      2.00000
     69      -4.7933      2.00000
     70      -4.6580      2.00000
     71      -4.5176      2.00000
     72      -4.4472      2.00000
     73      -4.3572      2.00000
     74      -4.2303      2.00000
     75      -4.1578      2.00000
     76      -4.0479      2.00000
     77      -4.0248      2.00000
     78      -3.7260      1.99965
     79      -3.5504      1.98037
     80      -3.0942      0.37179
     81      -2.9890      0.10166
     82      -2.7696      0.00143
     83      -2.6607      0.00008
     84      -2.5476      0.00000
     85      -2.4498      0.00000
     86      -2.3619      0.00000
     87      -2.0525      0.00000
     88      -2.0206      0.00000
     89      -1.9763      0.00000
     90      -1.8224      0.00000
     91      -1.7020      0.00000
     92      -1.6237      0.00000
     93      -1.5128      0.00000
     94      -1.4379      0.00000
     95      -1.3321      0.00000
     96      -1.2125      0.00000
     97      -1.0692      0.00000
     98      -1.0605      0.00000
     99      -0.9742      0.00000
    100      -0.9093      0.00000
    101      -0.8569      0.00000
    102      -0.6862      0.00000
    103      -0.6481      0.00000
    104      -0.6247      0.00000
    105      -0.4050      0.00000
    106      -0.2797      0.00000
    107      -0.1649      0.00000
    108       0.0135      0.00000
    109       0.0291      0.00000
    110       0.0972      0.00000
    111       0.4334      0.00000
    112       0.7597      0.00000
    113       0.8286      0.00000
    114       0.9112      0.00000
    115       1.0619      0.00000
    116       1.1963      0.00000
    117       1.2653      0.00000
    118       2.1904      0.00000
    119       2.2570      0.00000
    120       2.4094      0.00000


--------------------------------------------------------------------------------------------------------


 soft charge-density along one line, spin component           1
         0         1         2         3         4         5         6         7         8         9
 total charge-density along one line
 
 pseudopotential strength for first ion, spin component:           1
 -7.223  -0.019  -0.015   0.010   0.000   0.675   0.005   0.004
 -0.019  -7.155   0.007   0.011  -0.010   0.005   0.654  -0.002
 -0.015   0.007  -7.092  -0.005  -0.028   0.004  -0.002   0.637
  0.010   0.011  -0.005  -7.115  -0.003  -0.003  -0.003   0.002
  0.000  -0.010  -0.028  -0.003  -7.226  -0.000   0.003   0.008
  0.675   0.005   0.004  -0.003  -0.000   0.333  -0.001  -0.001
  0.005   0.654  -0.002  -0.003   0.003  -0.001   0.339   0.001
  0.004  -0.002   0.637   0.002   0.008  -0.001   0.001   0.343
 -0.003  -0.003   0.002   0.642   0.002   0.001   0.001  -0.001
 -0.000   0.003   0.008   0.002   0.676   0.000  -0.001  -0.002
 -0.004  -0.003  -0.020   0.004  -0.008   0.001   0.001   0.005
 -0.001  -0.001  -0.007   0.001  -0.003   0.000   0.000   0.002
  0.006  -0.000  -0.000  -0.000  -0.000   0.001   0.001   0.000
 -0.000   0.000  -0.004   0.011  -0.004   0.000  -0.000   0.001
  0.001  -0.000  -0.001  -0.008   0.006  -0.000   0.000  -0.001
  0.004   0.002  -0.000  -0.000  -0.000  -0.000  -0.000   0.000
 -0.000   0.000  -0.001   0.008  -0.004   0.000  -0.000   0.000
  0.000  -0.000   0.000  -0.005   0.004  -0.000   0.000  -0.000
 total augmentation occupancy for first ion, spin component:           1
  0.850   0.127  -0.031   0.008   0.007   0.442   0.196  -0.004  -0.004   0.003   0.000   0.001  -0.011  -0.002   0.006  -0.003
  0.127   1.086   0.021  -0.006  -0.001   0.194   0.646  -0.002   0.001   0.001  -0.003   0.000   0.059  -0.003  -0.007   0.002
 -0.031   0.021   0.842  -0.044  -0.050  -0.002  -0.003   0.338  -0.037   0.004   0.165   0.004  -0.005  -0.007   0.083   0.000
  0.008  -0.006  -0.044   1.066  -0.159  -0.004   0.001  -0.037   0.633  -0.226  -0.026  -0.006   0.002   0.091  -0.102   0.000
  0.007  -0.001  -0.050  -0.159   0.785   0.002   0.002   0.002  -0.228   0.417   0.053  -0.002   0.005  -0.078  -0.014   0.000
  0.442   0.194  -0.002  -0.004   0.002   0.356   0.197  -0.003  -0.002   0.002   0.002   0.000   0.034   0.001  -0.002  -0.000
  0.196   0.646  -0.003   0.001   0.002   0.197   0.564  -0.001  -0.000   0.002  -0.008  -0.000   0.061  -0.001   0.001   0.005
 -0.004  -0.002   0.338  -0.037   0.002  -0.003  -0.001   0.269  -0.026   0.008   0.043   0.009   0.001  -0.004   0.022   0.000
 -0.004   0.001  -0.037   0.633  -0.228  -0.002  -0.000  -0.026   0.576  -0.226  -0.053  -0.008   0.001   0.104  -0.098   0.000
  0.003   0.001   0.004  -0.226   0.417   0.002   0.002   0.008  -0.226   0.376  -0.015  -0.001   0.000  -0.085   0.030   0.000
  0.000  -0.003   0.165  -0.026   0.053   0.002  -0.008   0.043  -0.053  -0.015   1.384   0.136  -0.002  -0.025   0.052  -0.000
  0.001   0.000   0.004  -0.006  -0.002   0.000  -0.000   0.009  -0.008  -0.001   0.136   0.026  -0.000  -0.002   0.010  -0.000
 -0.011   0.059  -0.005   0.002   0.005   0.034   0.061   0.001   0.001   0.000  -0.002  -0.000   0.340  -0.002   0.001   0.027
 -0.002  -0.003  -0.007   0.091  -0.078   0.001  -0.001  -0.004   0.104  -0.085  -0.025  -0.002  -0.002   0.418  -0.015  -0.000
  0.006  -0.007   0.083  -0.102  -0.014  -0.002   0.001   0.022  -0.098   0.030   0.052   0.010   0.001  -0.015   0.358   0.000
 -0.003   0.002   0.000   0.000   0.000  -0.000   0.005   0.000   0.000   0.000  -0.000  -0.000   0.027  -0.000   0.000   0.003
 -0.000  -0.000   0.000  -0.001  -0.003   0.000  -0.000   0.000   0.006  -0.006  -0.001  -0.000  -0.000   0.028  -0.000  -0.000
 -0.000   0.000   0.003  -0.003  -0.004  -0.000   0.000   0.004  -0.008  -0.000   0.002   0.001   0.000  -0.000   0.026   0.000


------------------------ aborting loop because EDIFF is reached ----------------------------------------


    CHARGE:  cpu time    0.4607: real time    0.4618
    FORLOC:  cpu time    0.0090: real time    0.0090
    FORNL :  cpu time    6.8506: real time    6.8670
    STRESS:  cpu time   32.8780: real time   32.9566
    FORCOR:  cpu time    0.0385: real time    0.0385
    FORHAR:  cpu time    0.0150: real time    0.0150
    MIXING:  cpu time    0.0011: real time    0.0011
    OFIELD:  cpu time    0.0000: real time    0.0000

  FORCE on cell =-STRESS in cart. coord.  units (eV):
  Direction    XX          YY          ZZ          XY          YZ          ZX
  --------------------------------------------------------------------------------------
  Alpha Z    89.19253    89.19253    89.19253
  Ewald   49148.53905 49236.26158-54126.15884     1.29465     1.81461   -21.12549
  Hartree 49879.78933 49935.02364-49549.11639     0.84003     0.26468   -13.32612
  E(xc)    -611.40533  -609.03418  -617.68536     0.01974    -0.08420     0.93634
  Local  ************************101113.05691    -1.68121    -1.98428    44.35948
  n-local  1216.61150  1213.24542  1248.52112    -0.14339     0.49123     3.01728
  augment  -212.36837  -213.45990  -214.75857     0.39439     0.35685    -0.78622
  Kinetic  2020.46619  2002.01611  2054.98466    -0.72541    -0.84396   -12.98724
  Fock        0.00000     0.00000     0.00000     0.00000     0.00000     0.00000
  -------------------------------------------------------------------------------------
  Total       0.27814     0.18107    -1.96393    -0.00120     0.01494     0.08802
  in kB       0.18566     0.12086    -1.31093    -0.00080     0.00997     0.05876
  external pressure =       -0.33 kB  Pullay stress =        0.00 kB


 VOLUME and BASIS-vectors are now :
 -----------------------------------------------------------------------------
  energy-cutoff  :      280.00
  volume of cell :     2400.26
      direct lattice vectors                 reciprocal lattice vectors
     8.335697979  4.793085647  0.000000000     0.060021328  0.104250242  0.000000000
    -8.340932220  4.802231759  0.000000000    -0.059907014  0.104184822  0.000000000
     0.000000000  0.000000000 30.000000000     0.000000000  0.000000000  0.033333333

  length of vectors
     9.615483910  9.624582077 30.000000000     0.120294110  0.120180395  0.033333333


 FORCES acting on ions
    electron-ion (+dipol)            ewald-force                    non-local-force                 convergence-correction
 -----------------------------------------------------------------------------------------------
   0.225E+02 -.279E+00 -.236E+02   -.239E+02 0.266E+00 0.234E+02   0.145E+01 0.923E-02 0.199E+00   0.169E-01 0.241E-02 0.911E-02
   -.266E+02 0.200E+01 0.119E+02   0.281E+02 -.240E+01 -.117E+02   -.156E+01 0.376E+00 -.181E+00   0.303E-01 0.228E-01 0.640E-02
   -.219E+02 0.196E+00 0.229E+02   0.233E+02 0.111E+00 -.228E+02   -.140E+01 -.282E+00 -.150E+00   -.131E-02 -.248E-01 0.521E-02
   -.745E+01 0.408E+01 0.215E+01   0.727E+01 -.401E+01 -.221E+01   0.232E+00 -.900E-01 0.633E-01   -.528E-01 0.227E-01 0.298E-02
   -.482E+01 0.198E+02 0.160E+01   0.488E+01 -.198E+02 -.157E+01   0.506E-01 -.147E-01 -.291E-01   -.114E+00 -.416E-01 0.119E-01
   -.660E+00 -.231E+02 0.841E+00   0.736E+00 0.229E+02 -.894E+00   0.613E-02 0.119E+00 0.500E-01   -.832E-01 0.209E-01 0.874E-02
   -.345E+02 -.348E+01 0.120E+02   0.356E+02 0.358E+01 -.119E+02   -.111E+01 -.110E+00 -.151E+00   0.265E-01 0.468E-02 0.462E-02
   0.366E+02 0.618E+01 -.162E+02   -.374E+02 -.644E+01 0.160E+02   0.825E+00 0.304E+00 0.197E+00   0.810E-02 -.479E-01 0.666E-02
   0.359E+02 -.545E+01 -.133E+02   -.369E+02 0.572E+01 0.131E+02   0.990E+00 -.308E+00 0.258E+00   0.329E-01 0.447E-01 0.418E-02
   0.682E+01 0.206E+00 0.567E+03   -.872E+01 -.108E+00 -.570E+03   0.200E+01 -.873E-01 0.308E+01   -.104E+00 -.122E-01 0.801E-01
   -.834E+01 -.150E+01 -.564E+03   0.106E+02 0.157E+01 0.567E+03   -.220E+01 -.513E-01 -.299E+01   -.812E-01 -.201E-01 0.362E-01
   0.783E+01 0.483E+01 0.488E+03   -.740E+01 -.497E+01 -.493E+03   -.508E+00 0.192E+00 0.506E+01   0.790E-01 -.600E-01 0.504E-01
   0.223E+02 0.969E+01 -.607E+03   -.229E+02 -.994E+01 0.611E+03   0.619E+00 0.321E+00 -.390E+01   -.384E-01 -.688E-01 -.592E-01
   -.232E+02 -.910E+01 0.604E+03   0.239E+02 0.953E+01 -.608E+03   -.682E+00 -.392E+00 0.376E+01   -.286E-01 -.345E-01 -.373E-01
   -.490E+01 -.350E+01 -.490E+03   0.427E+01 0.363E+01 0.495E+03   0.576E+00 -.875E-01 -.498E+01   0.521E-01 -.378E-01 0.285E-01
   -.218E+02 0.653E+01 0.591E+03   0.228E+02 -.667E+01 -.594E+03   -.949E+00 0.145E+00 0.340E+01   -.347E-01 -.764E-02 -.804E-01
   -.374E+01 0.201E+01 -.484E+03   0.281E+01 -.187E+01 0.488E+03   0.845E+00 -.144E+00 -.475E+01   0.748E-01 0.207E-02 0.573E-01
   0.142E+02 0.693E+01 0.627E+03   -.151E+02 -.749E+01 -.630E+03   0.955E+00 0.564E+00 0.338E+01   -.413E-01 -.109E-01 0.345E-02
   -.205E+02 0.442E+01 -.604E+03   0.220E+02 -.503E+01 0.607E+03   -.142E+01 0.599E+00 -.294E+01   -.548E-01 0.460E-02 0.615E-01
   0.203E+02 0.149E+00 0.507E+03   -.206E+02 -.104E+00 -.512E+03   0.260E+00 -.323E-01 0.503E+01   0.589E-01 -.109E-01 -.145E-01
   0.252E+02 0.454E+00 -.627E+03   -.259E+02 -.565E+00 0.631E+03   0.774E+00 0.114E+00 -.374E+01   -.503E-02 -.127E-02 -.149E-02
   0.990E+01 -.544E+01 0.483E+03   -.101E+02 0.546E+01 -.488E+03   0.829E-01 -.890E-01 0.480E+01   0.118E+00 0.727E-01 0.285E-01
   0.226E+02 -.103E+02 -.603E+03   -.234E+02 0.106E+02 0.607E+03   0.790E+00 -.400E+00 -.375E+01   -.174E-01 0.715E-01 -.646E-01
   -.266E+02 0.346E+01 0.604E+03   0.277E+02 -.364E+01 -.607E+03   -.107E+01 0.141E+00 0.334E+01   -.110E-01 0.406E-01 -.542E-01
   -.151E+02 0.201E+01 -.495E+03   0.150E+02 -.222E+01 0.500E+03   0.149E-01 0.166E+00 -.480E+01   0.133E+00 0.348E-01 0.552E-05
   0.165E+02 -.699E+01 0.629E+03   -.173E+02 0.740E+01 -.632E+03   0.804E+00 -.434E+00 0.343E+01   -.199E-01 0.228E-01 0.148E-01
   -.197E+02 -.387E+01 -.625E+03   0.208E+02 0.439E+01 0.628E+03   -.105E+01 -.540E+00 -.337E+01   -.260E-01 0.154E-01 0.153E-01
 -----------------------------------------------------------------------------------------------
   0.752E+00 0.351E-02 -.429E+00   0.391E-13 -.382E-13 0.682E-12   -.662E+00 -.123E-01 0.324E+00   -.823E-01 0.413E-02 0.124E+00
 
 
 POSITION                                       TOTAL-FORCE (eV/Angst)
 -----------------------------------------------------------------------------------
      5.87899      6.39812      0.08405         0.016084     -0.001369      0.029386
      2.50672      4.79864     -0.04925        -0.005891     -0.000642     -0.003229
      2.44516      1.60471     -0.08178        -0.012271     -0.000110     -0.030359
     -0.04616      6.41403     -0.00772         0.003369     -0.004342      0.003010
     -0.03384      3.38057     -0.00349         0.001540     -0.000358      0.004461
      0.00297     -0.19405     -0.00228        -0.001105      0.001021      0.005800
     -5.85876      3.17345     -0.04345        -0.000495     -0.005149     -0.004945
     -2.47699      4.83551      0.05447         0.000138     -0.000894      0.005350
      5.84908      3.16771      0.04651         0.001034      0.007352      0.006972
     -0.89740      1.59779     28.49044        -0.006085     -0.001210      0.007108
      0.88727      1.60028      1.49996         0.006797      0.000343     -0.008677
     -3.68775      3.17160     28.71823         0.002773     -0.002846      0.011985
     -1.82903      3.19738      1.66859         0.005662      0.005476      0.001753
     -6.51689      4.80939     28.34345        -0.004307     -0.003089     -0.003678
     -4.65284      4.83768      1.28916        -0.004570      0.004541     -0.011793
      1.84517      3.22362     28.38632        -0.002982      0.001209     -0.006346
      3.67522      3.18099      1.26890        -0.003206     -0.002238     -0.015148
     -0.90606      4.82530     28.30982        -0.005222     -0.000467      0.004310
      0.95612      4.81637      1.61511         0.002714      0.000033     -0.005815
     -3.74411      6.39691     28.65390         0.000865      0.002022      0.005147
     -1.83158      6.39867      1.72119         0.002381      0.001645     -0.004566
      4.63959      4.82517     28.73304         0.002156      0.004507      0.009146
      6.50642      4.80337      1.65505         0.005292     -0.002303      0.005850
      1.84965      6.35391     28.35197        -0.001826      0.000504     -0.001833
      3.72400      6.36897      1.31084        -0.002385     -0.000779     -0.003871
     -0.90561      7.97226     28.30336        -0.003685     -0.000973      0.004745
      0.89355      7.96144      1.68359         0.003225     -0.001885     -0.004765
 -----------------------------------------------------------------------------------
    total drift:                                0.007618     -0.004624      0.019006


--------------------------------------------------------------------------------------------------------



  FREE ENERGIE OF THE ION-ELECTRON SYSTEM (eV)
  ---------------------------------------------------
  free  energy   TOTEN  =      -192.46510293 eV

  energy  without entropy=     -192.33953380  energy(sigma->0) =     -192.40231837
 
 d Force = 0.9078070E-04[ 0.613E-04, 0.120E-03]  d Energy = 0.1629232E-03-0.721E-04
 d Force =-0.7103238E+00[-0.710E+00,-0.710E+00]  d Ewald  = 0.8386160E+01-0.910E+01


--------------------------------------------------------------------------------------------------------


    POTLOK:  cpu time    0.0358: real time    0.0359


--------------------------------------------------------------------------------------------------------


 Quasi-Newton relaxation of ions (Broydens 2nd method)
  g(Force)  = 0.188E-03   g(Stress)= 0.197E-03

 retain information from N=  2 steps
 eigenvalues of (default step * inverse Hessian matrix)
  average eigenvalue of G=   4.2988
 eigenvalue spectrum of G is  0.6907  7.9069


--------------------------------------------------------------------------------------------------------


  
 reached required accuracy - stopping structural energy minimisation
     LOOP+:  cpu time   86.3621: real time   86.5780
    4ORBIT:  cpu time    0.0000: real time    0.0000

 total amount of memory used by VASP on root node   650782. kBytes
========================================================================

   base      :      30000. kBytes
   nonl-proj :     559647. kBytes
   fftplans  :       2414. kBytes
   grid      :      12150. kBytes
   one-center:        419. kBytes
   wavefun   :      46152. kBytes
 
  
  
 General timing and accounting informations for this job:
 ========================================================
  
                  Total CPU time used (sec):     6500.062
                            User time (sec):     6441.929
                          System time (sec):       58.134
                         Elapsed time (sec):     6517.229
  
                   Maximum memory used (kb):      730744.
                   Average memory used (kb):           0.
  
                          Minor page faults:      1035635
                          Major page faults:            3
                 Voluntary context switches:         5650
