<?xml version="1.0" encoding="ISO-8859-1"?>
<modeling>
 <generator>
  <i name="program" type="string">vasp </i>
  <i name="version" type="string">5.4.1  </i>
  <i name="subversion" type="string">05Feb16 (build Jul 05 2020 17:13:04) complex                          parallel </i>
  <i name="platform" type="string">IFC91_ompi </i>
  <i name="date" type="string">2024 04 23 </i>
  <i name="time" type="string">14:15:26 </i>
 </generator>
 <incar>
  <i type="int" name="ISTART">     0</i>
  <i type="string" name="PREC">normal</i>
  <i type="string" name="ALGO"> Normal</i>
  <i type="int" name="ISPIN">     1</i>
  <i type="int" name="ICHARG">     2</i>
  <i type="int" name="IBRION">     1</i>
  <i type="int" name="NSW">   100</i>
  <i type="int" name="ISIF">     3</i>
  <i type="int" name="ISYM">     0</i>
  <i name="SYMPREC">      0.00000001</i>
  <i name="POTIM">      0.50000000</i>
  <i type="logical" name="LREAL"> F  </i>
  <i type="logical" name="LPLANE"> F  </i>
  <i type="int" name="ISMEAR">     0</i>
  <i type="logical" name="LWAVE"> F  </i>
  <i type="logical" name="LCHARG"> F  </i>
  <v type="int" name="KPOINT_BSE">    -1     0     0     0</v>
 </incar>
 <kpoints>
  <generation param="Gamma">
   <v type="int" name="divisions">       8        8        1 </v>
   <v name="usershift">      0.00000000       0.00000000       0.00000000 </v>
   <v name="genvec1">      0.12500000       0.00000000       0.00000000 </v>
   <v name="genvec2">     -0.00000000       0.12500000       0.00000000 </v>
   <v name="genvec3">      0.00000000       0.00000000       1.00000000 </v>
   <v name="shift">      0.00000000       0.00000000       0.00000000 </v>
  </generation>
  <varray name="kpointlist" >
   <v>       0.00000000       0.00000000       0.00000000 </v>
   <v>       0.12500000       0.00000000       0.00000000 </v>
   <v>       0.25000000       0.00000000       0.00000000 </v>
   <v>       0.37500000       0.00000000       0.00000000 </v>
   <v>       0.50000000       0.00000000       0.00000000 </v>
   <v>       0.00000000       0.12500000       0.00000000 </v>
   <v>       0.12500000       0.12500000       0.00000000 </v>
   <v>       0.25000000       0.12500000       0.00000000 </v>
   <v>       0.37500000       0.12500000       0.00000000 </v>
   <v>       0.50000000       0.12500000       0.00000000 </v>
   <v>      -0.37500000       0.12500000       0.00000000 </v>
   <v>      -0.25000000       0.12500000       0.00000000 </v>
   <v>      -0.12500000       0.12500000       0.00000000 </v>
   <v>       0.00000000       0.25000000       0.00000000 </v>
   <v>       0.12500000       0.25000000       0.00000000 </v>
   <v>       0.25000000       0.25000000       0.00000000 </v>
   <v>       0.37500000       0.25000000       0.00000000 </v>
   <v>       0.50000000       0.25000000       0.00000000 </v>
   <v>      -0.37500000       0.25000000       0.00000000 </v>
   <v>      -0.25000000       0.25000000       0.00000000 </v>
   <v>      -0.12500000       0.25000000       0.00000000 </v>
   <v>      -0.00000000       0.37500000       0.00000000 </v>
   <v>       0.12500000       0.37500000       0.00000000 </v>
   <v>       0.25000000       0.37500000       0.00000000 </v>
   <v>       0.37500000       0.37500000       0.00000000 </v>
   <v>       0.50000000       0.37500000       0.00000000 </v>
   <v>      -0.37500000       0.37500000       0.00000000 </v>
   <v>      -0.25000000       0.37500000       0.00000000 </v>
   <v>      -0.12500000       0.37500000       0.00000000 </v>
   <v>       0.00000000       0.50000000       0.00000000 </v>
   <v>       0.12500000       0.50000000       0.00000000 </v>
   <v>       0.25000000       0.50000000       0.00000000 </v>
   <v>       0.37500000       0.50000000       0.00000000 </v>
   <v>       0.50000000       0.50000000       0.00000000 </v>
  </varray>
  <varray name="weights" >
   <v>       0.01562500 </v>
   <v>       0.03125000 </v>
   <v>       0.03125000 </v>
   <v>       0.03125000 </v>
   <v>       0.01562500 </v>
   <v>       0.03125000 </v>
   <v>       0.03125000 </v>
   <v>       0.03125000 </v>
   <v>       0.03125000 </v>
   <v>       0.03125000 </v>
   <v>       0.03125000 </v>
   <v>       0.03125000 </v>
   <v>       0.03125000 </v>
   <v>       0.03125000 </v>
   <v>       0.03125000 </v>
   <v>       0.03125000 </v>
   <v>       0.03125000 </v>
   <v>       0.03125000 </v>
   <v>       0.03125000 </v>
   <v>       0.03125000 </v>
   <v>       0.03125000 </v>
   <v>       0.03125000 </v>
   <v>       0.03125000 </v>
   <v>       0.03125000 </v>
   <v>       0.03125000 </v>
   <v>       0.03125000 </v>
   <v>       0.03125000 </v>
   <v>       0.03125000 </v>
   <v>       0.03125000 </v>
   <v>       0.01562500 </v>
   <v>       0.03125000 </v>
   <v>       0.03125000 </v>
   <v>       0.03125000 </v>
   <v>       0.01562500 </v>
  </varray>
 </kpoints>
 <parameters>
  <separator name="general" >
   <i type="string" name="SYSTEM">unknown system</i>
   <i type="logical" name="LCOMPAT"> F  </i>
  </separator>
  <separator name="electronic" >
   <i type="string" name="PREC">normal</i>
   <i name="ENMAX">    280.00000000</i>
   <i name="ENAUG">    373.43800000</i>
   <i name="EDIFF">      0.00010000</i>
   <i type="int" name="IALGO">    38</i>
   <i type="int" name="IWAVPR">    11</i>
   <i type="int" name="NBANDS">   120</i>
   <i name="NELECT">    159.00000000</i>
   <i type="int" name="TURBO">     0</i>
   <i type="int" name="IRESTART">     0</i>
   <i type="int" name="NREBOOT">     0</i>
   <i type="int" name="NMIN">     0</i>
   <i name="EREF">      0.00000000</i>
   <separator name="electronic smearing" >
    <i type="int" name="ISMEAR">     0</i>
    <i name="SIGMA">      0.20000000</i>
    <i name="KSPACING">      0.50000000</i>
    <i type="logical" name="KGAMMA"> T  </i>
   </separator>
   <separator name="electronic projectors" >
    <i type="logical" name="LREAL"> F  </i>
    <v name="ROPT">      0.00000000      0.00000000      0.00000000      0.00000000</v>
    <i type="int" name="LMAXPAW">  -100</i>
    <i type="int" name="LMAXMIX">     2</i>
    <i type="logical" name="NLSPLINE"> F  </i>
   </separator>
   <separator name="electronic startup" >
    <i type="int" name="ISTART">     0</i>
    <i type="int" name="ICHARG">     2</i>
    <i type="int" name="INIWAV">     1</i>
   </separator>
   <separator name="electronic spin" >
    <i type="int" name="ISPIN">     1</i>
    <i type="logical" name="LNONCOLLINEAR"> F  </i>
    <v name="MAGMOM">      1.00000000      1.00000000      1.00000000      1.00000000      1.00000000      1.00000000      1.00000000      1.00000000      1.00000000      1.00000000      1.00000000      1.00000000      1.00000000      1.00000000      1.00000000      1.00000000      1.00000000      1.00000000      1.00000000      1.00000000
      1.00000000      1.00000000      1.00000000      1.00000000      1.00000000      1.00000000      1.00000000</v>
    <i name="NUPDOWN">     -1.00000000</i>
    <i type="logical" name="LSORBIT"> F  </i>
    <v name="SAXIS">      0.00000000      0.00000000      1.00000000</v>
    <i type="logical" name="LSPIRAL"> F  </i>
    <v name="QSPIRAL">      0.00000000      0.00000000      0.00000000</v>
    <i type="logical" name="LZEROZ"> F  </i>
   </separator>
   <separator name="electronic exchange-correlation" >
    <i type="logical" name="LASPH"> F  </i>
    <i type="logical" name="LMETAGGA"> F  </i>
   </separator>
   <separator name="electronic convergence" >
    <i type="int" name="NELM">    60</i>
    <i type="int" name="NELMDL">    -5</i>
    <i type="int" name="NELMIN">     2</i>
    <i name="ENINI">    280.00000000</i>
    <separator name="electronic convergence detail" >
     <i type="logical" name="LDIAG"> T  </i>
     <i type="logical" name="LSUBROT"> F  </i>
     <i name="WEIMIN">      0.00100000</i>
     <i name="EBREAK">      0.00000021</i>
     <i name="DEPER">      0.30000000</i>
     <i type="int" name="NRMM">     4</i>
     <i name="TIME">      0.40000000</i>
    </separator>
   </separator>
   <separator name="electronic mixer" >
    <i name="AMIX">      0.40000000</i>
    <i name="BMIX">      1.00000000</i>
    <i name="AMIN">      0.10000000</i>
    <i name="AMIX_MAG">      1.60000000</i>
    <i name="BMIX_MAG">      1.00000000</i>
    <separator name="electronic mixer details" >
     <i type="int" name="IMIX">     4</i>
     <i type="logical" name="MIXFIRST"> F  </i>
     <i type="int" name="MAXMIX">   -45</i>
     <i name="WC">    100.00000000</i>
     <i type="int" name="INIMIX">     1</i>
     <i type="int" name="MIXPRE">     1</i>
     <i type="int" name="MREMOVE">     5</i>
    </separator>
   </separator>
   <separator name="electronic dipolcorrection" >
    <i type="logical" name="LDIPOL"> F  </i>
    <i type="logical" name="LMONO"> F  </i>
    <i type="int" name="IDIPOL">     0</i>
    <i name="EPSILON">      1.00000000</i>
    <v name="DIPOL">   -100.00000000   -100.00000000   -100.00000000</v>
    <i name="EFIELD">      0.00000000</i>
   </separator>
  </separator>
  <separator name="grids" >
   <i type="int" name="NGX">    42</i>
   <i type="int" name="NGY">    42</i>
   <i type="int" name="NGZ">   126</i>
   <i type="int" name="NGXF">    84</i>
   <i type="int" name="NGYF">    84</i>
   <i type="int" name="NGZF">   252</i>
   <i type="logical" name="ADDGRID"> F  </i>
  </separator>
  <separator name="ionic" >
   <i type="int" name="NSW">   100</i>
   <i type="int" name="IBRION">     1</i>
   <i type="int" name="ISIF">     3</i>
   <i name="PSTRESS">      0.00000000</i>
   <i name="EDIFFG">      0.00100000</i>
   <i type="int" name="NFREE">     0</i>
   <i name="POTIM">      0.50000000</i>
   <i name="SMASS">     -3.00000000</i>
   <i name="SCALEE">      1.00000000</i>
  </separator>
  <separator name="ionic md" >
   <i name="TEBEG">      0.00010000</i>
   <i name="TEEND">      0.00010000</i>
   <i type="int" name="NBLOCK">     1</i>
   <i type="int" name="KBLOCK">   100</i>
   <i type="int" name="NPACO">   256</i>
   <i name="APACO">     16.00000000</i>
  </separator>
  <separator name="symmetry" >
   <i type="int" name="ISYM">     0</i>
   <i name="SYMPREC">      0.00000001</i>
  </separator>
  <separator name="dos" >
   <i type="logical" name="LORBIT"> F  </i>
   <v name="RWIGS">     -1.00000000     -1.00000000     -1.00000000     -1.00000000</v>
   <i type="int" name="NEDOS">   301</i>
   <i name="EMIN">     10.00000000</i>
   <i name="EMAX">    -10.00000000</i>
   <i name="EFERMI">      0.00000000</i>
  </separator>
  <separator name="writing" >
   <i type="int" name="NWRITE">     2</i>
   <i type="logical" name="LWAVE"> F  </i>
   <i type="logical" name="LCHARG"> F  </i>
   <i type="logical" name="LPARD"> F  </i>
   <i type="logical" name="LVTOT"> F  </i>
   <i type="logical" name="LVHAR"> F  </i>
   <i type="logical" name="LELF"> F  </i>
   <i type="logical" name="LOPTICS"> F  </i>
   <v name="STM">      0.00000000      0.00000000      0.00000000      0.00000000      0.00000000      0.00000000      0.00000000</v>
  </separator>
  <separator name="performance" >
   <i type="int" name="NPAR">    40</i>
   <i type="int" name="NSIM">     4</i>
   <i type="int" name="NBLK">    -1</i>
   <i type="logical" name="LPLANE"> F  </i>
   <i type="logical" name="LSCALAPACK"> T  </i>
   <i type="logical" name="LSCAAWARE"> F  </i>
   <i type="logical" name="LSCALU"> F  </i>
   <i type="logical" name="LASYNC"> F  </i>
   <i type="logical" name="LORBITALREAL"> F  </i>
  </separator>
  <separator name="miscellaneous" >
   <i type="int" name="IDIOT">     3</i>
   <i type="logical" name="LMUSIC"> F  </i>
   <v name="POMASS">     50.94100000     95.94000000    183.85000000     32.06600000</v>
   <v name="DARWINR">      0.00000000      0.00000000      0.00000000      0.00000000</v>
   <v name="DARWINV">      1.00000000      1.00000000      1.00000000      1.00000000</v>
   <i type="logical" name="LCORR"> T  </i>
  </separator>
  <i type="logical" name="GGA_COMPAT"> T  </i>
  <i type="logical" name="LBERRY"> F  </i>
  <i type="int" name="ICORELEVEL">     0</i>
  <i type="logical" name="LDAU"> F  </i>
  <i type="int" name="I_CONSTRAINED_M">     0</i>
  <separator name="electronic exchange-correlation" >
   <i type="string" name="GGA">--</i>
   <i type="int" name="VOSKOWN">     0</i>
   <i type="logical" name="LHFCALC"> F  </i>
   <i type="string" name="PRECFOCK"></i>
   <i type="logical" name="LSYMGRAD"> F  </i>
   <i type="logical" name="LHFONE"> F  </i>
   <i type="logical" name="LRHFCALC"> F  </i>
   <i type="logical" name="LTHOMAS"> F  </i>
   <i type="logical" name="LMODELHF"> F  </i>
   <i name="ENCUT4O">     -1.00000000</i>
   <i type="int" name="EXXOEP">     0</i>
   <i type="int" name="FOURORBIT">     0</i>
   <i name="AEXX">      0.00000000</i>
   <i name="HFALPHA">      0.00000000</i>
   <i name="MCALPHA">      0.00000000</i>
   <i name="ALDAX">      1.00000000</i>
   <i name="AGGAX">      1.00000000</i>
   <i name="ALDAC">      1.00000000</i>
   <i name="AGGAC">      1.00000000</i>
   <i type="int" name="NKREDX">     1</i>
   <i type="int" name="NKREDY">     1</i>
   <i type="int" name="NKREDZ">     1</i>
   <i type="logical" name="SHIFTRED"> F  </i>
   <i type="logical" name="ODDONLY"> F  </i>
   <i type="logical" name="EVENONLY"> F  </i>
   <i type="int" name="LMAXFOCK">     0</i>
   <i type="int" name="NMAXFOCKAE">     0</i>
   <i type="logical" name="LFOCKAEDFT"> F  </i>
   <i name="HFSCREEN">      0.00000000</i>
   <i name="HFSCREENC">      0.00000000</i>
   <i type="int" name="NBANDSGWLOW">     0</i>
  </separator>
  <separator name="vdW DFT" >
   <i type="logical" name="LUSE_VDW"> F  </i>
   <i name="Zab_VDW">     -0.84910000</i>
   <i name="PARAM1">      0.12340000</i>
   <i name="PARAM2">      1.00000000</i>
   <i name="PARAM3">      0.00000000</i>
  </separator>
  <separator name="model GW" >
   <i type="int" name="MODEL_GW">     0</i>
   <i name="MODEL_EPS0">     58.26239943</i>
   <i name="MODEL_ALPHA">      1.00000000</i>
  </separator>
  <separator name="linear response parameters" >
   <i type="logical" name="LEPSILON"> F  </i>
   <i type="logical" name="LRPA"> F  </i>
   <i type="logical" name="LNABLA"> F  </i>
   <i type="logical" name="LVEL"> F  </i>
   <i type="int" name="KINTER">     0</i>
   <i name="CSHIFT">      0.10000000</i>
   <i name="OMEGAMAX">     -1.00000000</i>
   <i name="DEG_THRESHOLD">      0.00200000</i>
  </separator>
  <separator name="orbital magnetization" >
   <i type="logical" name="NUCIND"> F  </i>
   <v name="MAGPOS">      0.00000000      0.00000000      0.00000000</v>
   <i type="logical" name="LNICSALL"> T  </i>
   <i type="logical" name="ORBITALMAG"> F  </i>
   <i type="logical" name="LMAGBLOCH"> F  </i>
   <i type="logical" name="LCHIMAG"> F  </i>
   <i type="logical" name="LGAUGE"> T  </i>
   <i type="int" name="MAGATOM">     0</i>
   <v name="MAGDIPOL">      0.00000000      0.00000000      0.00000000</v>
   <v name="AVECCONST">      0.00000000      0.00000000      0.00000000</v>
  </separator>
  <separator name="response functions" >
   <i type="logical" name="LADDER"> F  </i>
   <i type="logical" name="LFXC"> F  </i>
   <i type="logical" name="LHARTREE"> T  </i>
   <i type="int" name="IBSE">     0</i>
   <v type="int" name="KPOINT">    -1     0     0     0</v>
   <i type="logical" name="LTCTE"> F  </i>
   <i type="logical" name="LTETE"> F  </i>
   <i type="logical" name="LTRIPLET"> F  </i>
   <i type="logical" name="LFXCEPS"> F  </i>
   <i type="logical" name="LFXHEG"> F  </i>
   <i type="int" name="NATURALO">     0</i>
   <i type="logical" name="L2ORDER"> F  </i>
   <i type="logical" name="LUSEW"> F  </i>
   <i name="ENCUTGW">     -2.00000000</i>
   <i name="ENCUTGWSOFT">     -2.00000000</i>
   <i name="ENCUTLF">     -1.00000000</i>
   <i type="int" name="LMAXMP2">    -1</i>
   <i name="SCISSOR">      0.00000000</i>
   <i type="int" name="NOMEGA">     0</i>
   <i type="int" name="NOMEGAR">     0</i>
   <i type="int" name="NBANDSGW">    -1</i>
   <i type="int" name="NBANDSO">    -1</i>
   <i type="int" name="NBANDSV">    -1</i>
   <i type="int" name="NELM">     1</i>
   <i type="int" name="NELMHF">     1</i>
   <i type="int" name="DIM">     3</i>
   <i type="int" name="ANTIRES">     0</i>
   <i name="OMEGAMAX">    -30.00000000</i>
   <i name="OMEGAMIN">    -30.00000000</i>
   <i name="OMEGATL">   -200.00000000</i>
   <i type="int" name="OMEGAGRID">     0</i>
   <i name="CSHIFT">     -0.10000000</i>
   <i type="logical" name="SELFENERGY"> F  </i>
   <i type="logical" name="LSPECTRAL"> F  </i>
   <i type="logical" name="LSPECTRALGW"> F  </i>
   <i type="logical" name="LSINGLES"> F  </i>
   <i type="logical" name="LFERMIGW"> F  </i>
   <i type="logical" name="ODDONLYGW"> F  </i>
   <i type="logical" name="EVENONLYGW"> F  </i>
   <i type="int" name="NKREDLFX">     1</i>
   <i type="int" name="NKREDLFY">     1</i>
   <i type="int" name="NKREDLFZ">     1</i>
   <i type="int" name="MAXMEM">  1800</i>
   <i type="int" name="TELESCOPE">     0</i>
   <i type="int" name="TAUPAR">     1</i>
   <i type="int" name="OMEGAPAR">    -1</i>
   <i name="LAMBDA">      1.00000000</i>
  </separator>
  <separator name="External order field" >
   <i name="OFIELD_KAPPA">      0.00000000</i>
   <v name="OFIELD_K">      0.00000000      0.00000000      0.00000000</v>
   <i name="OFIELD_Q6_NEAR">      0.00000000</i>
   <i name="OFIELD_Q6_FAR">      0.00000000</i>
   <i name="OFIELD_A">      0.00000000</i>
  </separator>
 </parameters>
 <atominfo>
  <atoms>      27 </atoms>
  <types>       4 </types>
  <array name="atoms" >
   <dimension dim="1">ion</dimension>
   <field type="string">element</field>
   <field type="int">atomtype</field>
   <set>
    <rc><c>V </c><c>   1</c></rc>
    <rc><c>V </c><c>   1</c></rc>
    <rc><c>V </c><c>   1</c></rc>
    <rc><c>Mo</c><c>   2</c></rc>
    <rc><c>Mo</c><c>   2</c></rc>
    <rc><c>Mo</c><c>   2</c></rc>
    <rc><c>W </c><c>   3</c></rc>
    <rc><c>W </c><c>   3</c></rc>
    <rc><c>W </c><c>   3</c></rc>
    <rc><c>S </c><c>   4</c></rc>
    <rc><c>S </c><c>   4</c></rc>
    <rc><c>S </c><c>   4</c></rc>
    <rc><c>S </c><c>   4</c></rc>
    <rc><c>S </c><c>   4</c></rc>
    <rc><c>S </c><c>   4</c></rc>
    <rc><c>S </c><c>   4</c></rc>
    <rc><c>S </c><c>   4</c></rc>
    <rc><c>S </c><c>   4</c></rc>
    <rc><c>S </c><c>   4</c></rc>
    <rc><c>S </c><c>   4</c></rc>
    <rc><c>S </c><c>   4</c></rc>
    <rc><c>S </c><c>   4</c></rc>
    <rc><c>S </c><c>   4</c></rc>
    <rc><c>S </c><c>   4</c></rc>
    <rc><c>S </c><c>   4</c></rc>
    <rc><c>S </c><c>   4</c></rc>
    <rc><c>S </c><c>   4</c></rc>
   </set>
  </array>
  <array name="atomtypes" >
   <dimension dim="1">type</dimension>
   <field type="int">atomspertype</field>
   <field type="string">element</field>
   <field>mass</field>
   <field>valence</field>
   <field type="string">pseudopotential</field>
   <set>
    <rc><c>   3</c><c>V </c><c>     50.94100000</c><c>      5.00000000</c><c> PAW_PBE V 08Apr2002                    </c></rc>
    <rc><c>   3</c><c>Mo</c><c>     95.94000000</c><c>      6.00000000</c><c> PAW_PBE Mo 08Apr2002                   </c></rc>
    <rc><c>   3</c><c>W </c><c>    183.85000000</c><c>      6.00000000</c><c> PAW_PBE W 08Apr2002                    </c></rc>
    <rc><c>  18</c><c>S </c><c>     32.06600000</c><c>      6.00000000</c><c>  PAW_PBE S 17Jan2003                   </c></rc>
   </set>
  </array>
 </atominfo>
 <structure name="initialpos" >
  <crystal>
   <varray name="basis" >
    <v>       8.66999996       5.03999989       0.00000000 </v>
    <v>      -8.66999982       5.04000013       0.00000000 </v>
    <v>       0.00000000       0.00000000      30.00000000 </v>
   </varray>
   <i name="volume">   2621.80797419 </i>
   <varray name="rec_basis" >
    <v>       0.05767013       0.09920635       0.00000000 </v>
    <v>      -0.05767013       0.09920635       0.00000000 </v>
    <v>       0.00000000       0.00000000       0.03333333 </v>
   </varray>
  </crystal>
  <varray name="positions" >
   <v>       1.00000000       0.33333334       0.00000000 </v>
   <v>       0.66666669       0.33333334       0.00000000 </v>
   <v>       0.33333334       0.00000000       0.00000000 </v>
   <v>       0.66666669       0.66666669       0.00000000 </v>
   <v>       0.33333334       0.33333334       0.00000000 </v>
   <v>       0.00000000       0.00000000       0.00000000 </v>
   <v>       0.00000000       0.66666669       0.00000000 </v>
   <v>       0.33333334       0.66666669       0.00000000 </v>
   <v>       0.66666669       0.00000000       0.00000000 </v>
   <v>       0.11068511       0.22244981       0.95539999 </v>
   <v>       0.22244981       0.11068511       0.04460000 </v>
   <v>       0.11068511       0.55578315       0.95539999 </v>
   <v>       0.22244981       0.44401845       0.04460000 </v>
   <v>       0.11068511       0.88911647       0.95539999 </v>
   <v>       0.22244981       0.77735180       0.04460000 </v>
   <v>       0.44401845       0.22244981       0.95539999 </v>
   <v>       0.55578315       0.11068511       0.04460000 </v>
   <v>       0.44401845       0.55578315       0.95539999 </v>
   <v>       0.55578315       0.44401845       0.04460000 </v>
   <v>       0.44401845       0.88911647       0.95539999 </v>
   <v>       0.55578315       0.77735180       0.04460000 </v>
   <v>       0.77735180       0.22244981       0.95539999 </v>
   <v>       0.88911647       0.11068511       0.04460000 </v>
   <v>       0.77735180       0.55578315       0.95539999 </v>
   <v>       0.88911647       0.44401845       0.04460000 </v>
   <v>       0.77735180       0.88911647       0.95539999 </v>
   <v>       0.88911647       0.77735180       0.04460000 </v>
  </varray>
 </structure>
 <calculation>
  <scstep>
   <time name="dav">   23.25   23.30</time>
   <time name="total">   23.29   23.36</time>
   <energy>
    <i name="alphaZ">     81.65567618 </i>
    <i name="ewald">  41890.23011115 </i>
    <i name="hartreedc"> -47722.85863136 </i>
    <i name="XCdc">   -242.92963144 </i>
    <i name="pawpsdc">   3467.42045192 </i>
    <i name="pawaedc">  -2871.19716117 </i>
    <i name="eentropy">     -0.54019041 </i>
    <i name="bandstr">   -238.78445720 </i>
    <i name="atom">   6761.44252427 </i>
    <i name="e_fr_energy">   1124.43869194 </i>
    <i name="e_wo_entrp">   1124.97888235 </i>
    <i name="e_0_energy">   1124.70878715 </i>
   </energy>
  </scstep>
  <scstep>
   <time name="dav">   29.55   29.62</time>
   <time name="total">   29.55   29.63</time>
   <energy>
    <i name="e_fr_energy">     -1.40184572 </i>
    <i name="e_wo_entrp">     -1.22113732 </i>
    <i name="e_0_energy">     -1.31149152 </i>
   </energy>
  </scstep>
  <scstep>
   <time name="dav">   29.34   29.42</time>
   <time name="total">   29.35   29.42</time>
   <energy>
    <i name="e_fr_energy">   -199.53871535 </i>
    <i name="e_wo_entrp">   -199.27065483 </i>
    <i name="e_0_energy">   -199.40468509 </i>
   </energy>
  </scstep>
  <scstep>
   <time name="dav">   31.72   31.79</time>
   <time name="total">   31.72   31.80</time>
   <energy>
    <i name="e_fr_energy">   -208.92742227 </i>
    <i name="e_wo_entrp">   -208.62941113 </i>
    <i name="e_0_energy">   -208.77841670 </i>
   </energy>
  </scstep>
  <scstep>
   <time name="dav">   30.73   30.81</time>
   <time name="total">   31.20   31.28</time>
   <energy>
    <i name="e_fr_energy">   -209.27849389 </i>
    <i name="e_wo_entrp">   -208.98389838 </i>
    <i name="e_0_energy">   -209.13119614 </i>
   </energy>
  </scstep>
  <scstep>
   <time name="dav">   33.24   33.32</time>
   <time name="total">   33.74   33.83</time>
   <energy>
    <i name="e_fr_energy">   -237.18059072 </i>
    <i name="e_wo_entrp">   -236.90926376 </i>
    <i name="e_0_energy">   -237.04492724 </i>
   </energy>
  </scstep>
  <scstep>
   <time name="dav">   33.99   34.07</time>
   <time name="total">   34.50   34.59</time>
   <energy>
    <i name="e_fr_energy">   -196.64697021 </i>
    <i name="e_wo_entrp">   -196.30993332 </i>
    <i name="e_0_energy">   -196.47845177 </i>
   </energy>
  </scstep>
  <scstep>
   <time name="dav">   31.03   31.11</time>
   <time name="total">   31.54   31.63</time>
   <energy>
    <i name="e_fr_energy">   -190.11418498 </i>
    <i name="e_wo_entrp">   -189.84593346 </i>
    <i name="e_0_energy">   -189.98005922 </i>
   </energy>
  </scstep>
  <scstep>
   <time name="dav">   31.65   31.73</time>
   <time name="total">   32.18   32.27</time>
   <energy>
    <i name="e_fr_energy">   -188.31146135 </i>
    <i name="e_wo_entrp">   -187.98418439 </i>
    <i name="e_0_energy">   -188.14782287 </i>
   </energy>
  </scstep>
  <scstep>
   <time name="dav">   34.24   34.32</time>
   <time name="total">   34.77   34.86</time>
   <energy>
    <i name="e_fr_energy">   -187.13401606 </i>
    <i name="e_wo_entrp">   -186.79271385 </i>
    <i name="e_0_energy">   -186.96336495 </i>
   </energy>
  </scstep>
  <scstep>
   <time name="dav">   33.00   33.08</time>
   <time name="total">   33.54   33.63</time>
   <energy>
    <i name="e_fr_energy">   -187.00970200 </i>
    <i name="e_wo_entrp">   -186.66107941 </i>
    <i name="e_0_energy">   -186.83539071 </i>
   </energy>
  </scstep>
  <scstep>
   <time name="dav">   33.74   33.82</time>
   <time name="total">   34.28   34.37</time>
   <energy>
    <i name="e_fr_energy">   -187.01707074 </i>
    <i name="e_wo_entrp">   -186.68303892 </i>
    <i name="e_0_energy">   -186.85005483 </i>
   </energy>
  </scstep>
  <scstep>
   <time name="dav">   34.57   34.65</time>
   <time name="total">   35.11   35.20</time>
   <energy>
    <i name="e_fr_energy">   -186.92958390 </i>
    <i name="e_wo_entrp">   -186.59318022 </i>
    <i name="e_0_energy">   -186.76138206 </i>
   </energy>
  </scstep>
  <scstep>
   <time name="dav">   33.83   33.91</time>
   <time name="total">   34.37   34.46</time>
   <energy>
    <i name="e_fr_energy">   -186.90024265 </i>
    <i name="e_wo_entrp">   -186.55923178 </i>
    <i name="e_0_energy">   -186.72973722 </i>
   </energy>
  </scstep>
  <scstep>
   <time name="dav">   32.24   32.32</time>
   <time name="total">   32.78   32.86</time>
   <energy>
    <i name="e_fr_energy">   -186.89405443 </i>
    <i name="e_wo_entrp">   -186.55081919 </i>
    <i name="e_0_energy">   -186.72243681 </i>
   </energy>
  </scstep>
  <scstep>
   <time name="dav">   34.36   34.45</time>
   <time name="total">   34.90   34.99</time>
   <energy>
    <i name="e_fr_energy">   -186.88977053 </i>
    <i name="e_wo_entrp">   -186.54650679 </i>
    <i name="e_0_energy">   -186.71813866 </i>
   </energy>
  </scstep>
  <scstep>
   <time name="dav">   33.71   33.79</time>
   <time name="total">   34.25   34.34</time>
   <energy>
    <i name="e_fr_energy">   -186.88705982 </i>
    <i name="e_wo_entrp">   -186.54572969 </i>
    <i name="e_0_energy">   -186.71639476 </i>
   </energy>
  </scstep>
  <scstep>
   <time name="dav">   31.27   31.35</time>
   <time name="total">   31.81   31.89</time>
   <energy>
    <i name="e_fr_energy">   -186.88651993 </i>
    <i name="e_wo_entrp">   -186.54546666 </i>
    <i name="e_0_energy">   -186.71599329 </i>
   </energy>
  </scstep>
  <scstep>
   <time name="dav">   30.33   30.41</time>
   <time name="total">   30.87   30.95</time>
   <energy>
    <i name="e_fr_energy">   -186.88628042 </i>
    <i name="e_wo_entrp">   -186.54470609 </i>
    <i name="e_0_energy">   -186.71549325 </i>
   </energy>
  </scstep>
  <scstep>
   <time name="dav">   25.23   25.29</time>
   <time name="total">   25.76   25.83</time>
   <energy>
    <i name="e_fr_energy">   -186.88717775 </i>
    <i name="e_wo_entrp">   -186.54592219 </i>
    <i name="e_0_energy">   -186.71654997 </i>
   </energy>
  </scstep>
  <scstep>
   <time name="dav">   23.56   23.62</time>
   <time name="total">   24.10   24.16</time>
   <energy>
    <i name="e_fr_energy">   -186.88804382 </i>
    <i name="e_wo_entrp">   -186.54665544 </i>
    <i name="e_0_energy">   -186.71734963 </i>
   </energy>
  </scstep>
  <scstep>
   <time name="dav">   20.21   20.26</time>
   <time name="total">   20.75   20.81</time>
   <energy>
    <i name="e_fr_energy">   -186.88885409 </i>
    <i name="e_wo_entrp">   -186.54750734 </i>
    <i name="e_0_energy">   -186.71818072 </i>
   </energy>
  </scstep>
  <scstep>
   <time name="dav">   21.87   21.92</time>
   <time name="total">   22.40   22.47</time>
   <energy>
    <i name="e_fr_energy">   -186.89001070 </i>
    <i name="e_wo_entrp">   -186.54878482 </i>
    <i name="e_0_energy">   -186.71939776 </i>
   </energy>
  </scstep>
  <scstep>
   <time name="dav">   20.17   20.22</time>
   <time name="total">   20.71   20.76</time>
   <energy>
    <i name="e_fr_energy">   -186.89058873 </i>
    <i name="e_wo_entrp">   -186.54929112 </i>
    <i name="e_0_energy">   -186.71993993 </i>
   </energy>
  </scstep>
  <scstep>
   <time name="dav">   17.69   17.74</time>
   <time name="total">   18.23   18.28</time>
   <energy>
    <i name="e_fr_energy">   -186.89095865 </i>
    <i name="e_wo_entrp">   -186.54964373 </i>
    <i name="e_0_energy">   -186.72030119 </i>
   </energy>
  </scstep>
  <scstep>
   <time name="dav">   20.35   20.40</time>
   <time name="total">   20.89   20.95</time>
   <energy>
    <i name="e_fr_energy">   -186.89119393 </i>
    <i name="e_wo_entrp">   -186.54990139 </i>
    <i name="e_0_energy">   -186.72054766 </i>
   </energy>
  </scstep>
  <scstep>
   <time name="dav">   21.40   21.46</time>
   <time name="total">   21.44   21.50</time>
   <energy>
    <i name="alphaZ">     81.65567618 </i>
    <i name="ewald">  41890.23011115 </i>
    <i name="hartreedc"> -47833.12862753 </i>
    <i name="XCdc">   -231.59833012 </i>
    <i name="pawpsdc">   4192.16265879 </i>
    <i name="pawaedc">  -3610.18675425 </i>
    <i name="eentropy">     -0.34129596 </i>
    <i name="bandstr">  -1437.12724587 </i>
    <i name="atom">   6761.44252427 </i>
    <i name="e_fr_energy">   -186.89128334 </i>
    <i name="e_wo_entrp">   -186.54998738 </i>
    <i name="e_0_energy">   -186.72063536 </i>
   </energy>
  </scstep>
  <structure>
   <crystal>
    <varray name="basis" >
     <v>       8.66999996       5.03999989       0.00000000 </v>
     <v>      -8.66999982       5.04000013       0.00000000 </v>
     <v>       0.00000000       0.00000000      30.00000000 </v>
    </varray>
    <i name="volume">   2621.80797419 </i>
    <varray name="rec_basis" >
     <v>       0.05767013       0.09920635       0.00000000 </v>
     <v>      -0.05767013       0.09920635       0.00000000 </v>
     <v>       0.00000000       0.00000000       0.03333333 </v>
    </varray>
   </crystal>
   <varray name="positions" >
    <v>       1.00000000       0.33333334       0.00000000 </v>
    <v>       0.66666669       0.33333334       0.00000000 </v>
    <v>       0.33333334       0.00000000       0.00000000 </v>
    <v>       0.66666669       0.66666669       0.00000000 </v>
    <v>       0.33333334       0.33333334       0.00000000 </v>
    <v>       0.00000000       0.00000000       0.00000000 </v>
    <v>       0.00000000       0.66666669       0.00000000 </v>
    <v>       0.33333334       0.66666669       0.00000000 </v>
    <v>       0.66666669       0.00000000       0.00000000 </v>
    <v>       0.11068511       0.22244981       0.95539999 </v>
    <v>       0.22244981       0.11068511       0.04460000 </v>
    <v>       0.11068511       0.55578315       0.95539999 </v>
    <v>       0.22244981       0.44401845       0.04460000 </v>
    <v>       0.11068511       0.88911647       0.95539999 </v>
    <v>       0.22244981       0.77735180       0.04460000 </v>
    <v>       0.44401845       0.22244981       0.95539999 </v>
    <v>       0.55578315       0.11068511       0.04460000 </v>
    <v>       0.44401845       0.55578315       0.95539999 </v>
    <v>       0.55578315       0.44401845       0.04460000 </v>
    <v>       0.44401845       0.88911647       0.95539999 </v>
    <v>       0.55578315       0.77735180       0.04460000 </v>
    <v>       0.77735180       0.22244981       0.95539999 </v>
    <v>       0.88911647       0.11068511       0.04460000 </v>
    <v>       0.77735180       0.55578315       0.95539999 </v>
    <v>       0.88911647       0.44401845       0.04460000 </v>
    <v>       0.77735180       0.88911647       0.95539999 </v>
    <v>       0.88911647       0.77735180       0.04460000 </v>
   </varray>
  </structure>
  <varray name="forces" >
   <v>       0.35972110      -0.04179565       0.08285331 </v>
   <v>      -0.35491262      -0.02255071       0.00846764 </v>
   <v>      -0.43083413       0.06675696      -0.08869514 </v>
   <v>      -0.01401096      -0.01321963       0.01925736 </v>
   <v>       0.04788146      -0.01247827      -0.01914602 </v>
   <v>       0.01042804       0.01118883      -0.11577871 </v>
   <v>      -0.50896021      -0.08236615       0.03413471 </v>
   <v>       0.54989981      -0.00382022       0.12007159 </v>
   <v>       0.40397023       0.08014921      -0.00014024 </v>
   <v>      -0.72998329      -0.01056918      -2.10471111 </v>
   <v>       0.73489436       0.01195729       2.10756514 </v>
   <v>       0.45947071      -0.56988997      -2.11375477 </v>
   <v>      -0.65040675      -0.55964381       2.19128879 </v>
   <v>       0.61537425       0.57459619      -2.20344206 </v>
   <v>      -0.45012389       0.56648346       2.11718080 </v>
   <v>       0.90940456      -0.02023386      -1.48630438 </v>
   <v>      -0.74679556      -0.00517419       1.43255621 </v>
   <v>      -0.02373747       0.01484845      -2.91042319 </v>
   <v>       0.73942484       0.00870953       2.10690361 </v>
   <v>      -0.63958542       0.00528959      -2.10744430 </v>
   <v>      -0.27779229      -0.02197257       2.93579791 </v>
   <v>      -0.23773709       0.51954891      -1.39671077 </v>
   <v>      -0.64412877       0.57167770       2.17333115 </v>
   <v>       0.61237520      -0.54630484      -2.17016501 </v>
   <v>       0.25541951      -0.51288737       1.40704292 </v>
   <v>      -0.03403031       0.00918574      -2.91221000 </v>
   <v>       0.04477467      -0.01748542       2.89247455 </v>
  </varray>
  <varray name="stress" >
   <v>       7.48472942       0.00447485      -1.57209464 </v>
   <v>       0.00447488       4.27115743       0.05336116 </v>
   <v>      -1.57209450       0.05336119      30.28646164 </v>
  </varray>
  <energy>
   <i name="e_fr_energy">   -186.89128334 </i>
   <i name="e_wo_entrp">   -186.72063536 </i>
   <i name="e_0_energy">     -0.34129596 </i>
  </energy>
  <time name="totalsc">  832.35  834.57</time>
 </calculation>
 <calculation>
  <scstep>
   <time name="dav">   23.16   23.21</time>
   <time name="total">   23.70   23.76</time>
   <energy>
    <i name="alphaZ">     78.92136981 </i>
    <i name="ewald">  39380.43220999 </i>
    <i name="hartreedc"> -45338.03080730 </i>
    <i name="XCdc">   -239.05072258 </i>
    <i name="pawpsdc">   4192.14581275 </i>
    <i name="pawaedc">  -3610.17000613 </i>
    <i name="eentropy">     -0.27577648 </i>
    <i name="bandstr">  -1412.94876563 </i>
    <i name="atom">   6761.44252427 </i>
    <i name="e_fr_energy">   -187.53416130 </i>
    <i name="e_wo_entrp">   -187.25838482 </i>
    <i name="e_0_energy">   -187.39627306 </i>
   </energy>
  </scstep>
  <scstep>
   <time name="dav">   32.33   32.41</time>
   <time name="total">   32.87   32.95</time>
   <energy>
    <i name="e_fr_energy">   -189.60402369 </i>
    <i name="e_wo_entrp">   -189.26680555 </i>
    <i name="e_0_energy">   -189.43541462 </i>
   </energy>
  </scstep>
  <scstep>
   <time name="dav">   32.40   32.48</time>
   <time name="total">   32.95   33.04</time>
   <energy>
    <i name="e_fr_energy">   -189.34616168 </i>
    <i name="e_wo_entrp">   -189.07733525 </i>
    <i name="e_0_energy">   -189.21174847 </i>
   </energy>
  </scstep>
  <scstep>
   <time name="dav">   32.64   32.71</time>
   <time name="total">   33.18   33.27</time>
   <energy>
    <i name="e_fr_energy">   -188.78895013 </i>
    <i name="e_wo_entrp">   -188.51126344 </i>
    <i name="e_0_energy">   -188.65010678 </i>
   </energy>
  </scstep>
  <scstep>
   <time name="dav">   31.68   31.75</time>
   <time name="total">   32.22   32.30</time>
   <energy>
    <i name="e_fr_energy">   -188.90338527 </i>
    <i name="e_wo_entrp">   -188.61486213 </i>
    <i name="e_0_energy">   -188.75912370 </i>
   </energy>
  </scstep>
  <scstep>
   <time name="dav">   32.76   32.84</time>
   <time name="total">   33.31   33.40</time>
   <energy>
    <i name="e_fr_energy">   -188.75101475 </i>
    <i name="e_wo_entrp">   -188.47467351 </i>
    <i name="e_0_energy">   -188.61284413 </i>
   </energy>
  </scstep>
  <scstep>
   <time name="dav">   31.41   31.48</time>
   <time name="total">   31.96   32.04</time>
   <energy>
    <i name="e_fr_energy">   -188.74186599 </i>
    <i name="e_wo_entrp">   -188.46270357 </i>
    <i name="e_0_energy">   -188.60228478 </i>
   </energy>
  </scstep>
  <scstep>
   <time name="dav">   35.07   35.15</time>
   <time name="total">   35.62   35.71</time>
   <energy>
    <i name="e_fr_energy">   -188.71155448 </i>
    <i name="e_wo_entrp">   -188.43325979 </i>
    <i name="e_0_energy">   -188.57240713 </i>
   </energy>
  </scstep>
  <scstep>
   <time name="dav">   28.78   28.85</time>
   <time name="total">   29.33   29.41</time>
   <energy>
    <i name="e_fr_energy">   -188.70282711 </i>
    <i name="e_wo_entrp">   -188.42613013 </i>
    <i name="e_0_energy">   -188.56447862 </i>
   </energy>
  </scstep>
  <scstep>
   <time name="dav">   31.21   31.29</time>
   <time name="total">   31.77   31.85</time>
   <energy>
    <i name="e_fr_energy">   -188.70273306 </i>
    <i name="e_wo_entrp">   -188.42590620 </i>
    <i name="e_0_energy">   -188.56431963 </i>
   </energy>
  </scstep>
  <scstep>
   <time name="dav">   30.74   30.82</time>
   <time name="total">   31.29   31.37</time>
   <energy>
    <i name="e_fr_energy">   -188.70220463 </i>
    <i name="e_wo_entrp">   -188.42581926 </i>
    <i name="e_0_energy">   -188.56401194 </i>
   </energy>
  </scstep>
  <scstep>
   <time name="dav">   30.21   30.28</time>
   <time name="total">   30.76   30.84</time>
   <energy>
    <i name="e_fr_energy">   -188.70235194 </i>
    <i name="e_wo_entrp">   -188.42595184 </i>
    <i name="e_0_energy">   -188.56415189 </i>
   </energy>
  </scstep>
  <scstep>
   <time name="dav">   22.98   23.04</time>
   <time name="total">   23.02   23.08</time>
   <energy>
    <i name="alphaZ">     78.92136981 </i>
    <i name="ewald">  39380.43220999 </i>
    <i name="hartreedc"> -45348.72664290 </i>
    <i name="XCdc">   -237.96842947 </i>
    <i name="pawpsdc">   3950.67290258 </i>
    <i name="pawaedc">  -3365.19148167 </i>
    <i name="eentropy">     -0.27644682 </i>
    <i name="bandstr">  -1408.00826011 </i>
    <i name="atom">   6761.44252427 </i>
    <i name="e_fr_energy">   -188.70225431 </i>
    <i name="e_wo_entrp">   -188.42580750 </i>
    <i name="e_0_energy">   -188.56403091 </i>
   </energy>
  </scstep>
  <structure>
   <crystal>
    <varray name="basis" >
     <v>       8.85980330       5.10305436       0.00000000 </v>
     <v>      -8.85967127       5.10282772       0.00000000 </v>
     <v>       0.00000000       0.00000000      30.00000000 </v>
    </varray>
    <i name="volume">   2712.64301980 </i>
    <varray name="rec_basis" >
     <v>       0.05643383       0.09798198       0.00000000 </v>
     <v>      -0.05643634       0.09798344       0.00000000 </v>
     <v>       0.00000000       0.00000000       0.03333333 </v>
    </varray>
   </crystal>
   <varray name="positions" >
    <v>       1.00080077       0.33213251       0.00013324 </v>
    <v>       0.66557134       0.33421284       0.00001362 </v>
    <v>       0.33245419       0.00151815      -0.00014263 </v>
    <v>       0.66656444       0.66664240       0.00003097 </v>
    <v>       0.33340684       0.33314041      -0.00003079 </v>
    <v>       0.00008256       0.00002454      -0.00018618 </v>
    <v>      -0.00181021       0.66768849       0.00005489 </v>
    <v>       0.33484497       0.66511849       0.00019309 </v>
    <v>       0.66817419      -0.00074032      -0.00000023 </v>
    <v>       0.10860360       0.22443016       0.95201543 </v>
    <v>       0.22455163       0.10869774       0.04798915 </v>
    <v>       0.10923595       0.55177735       0.95200089 </v>
    <v>       0.21796183       0.44314955       0.04812378 </v>
    <v>       0.11514718       0.89015440       0.95185666 </v>
    <v>       0.22390867       0.78131529       0.04800461 </v>
    <v>       0.44645172       0.21982286       0.95300988 </v>
    <v>       0.55368068       0.11273805       0.04690368 </v>
    <v>       0.44402348       0.55592026       0.95071977 </v>
    <v>       0.55788203       0.44200294       0.04798809 </v>
    <v>       0.44226434       0.89092121       0.95201103 </v>
    <v>       0.55490513       0.77801950       0.04932102 </v>
    <v>       0.77917692       0.22559778       0.95315396 </v>
    <v>       0.89006043       0.11521322       0.04809491 </v>
    <v>       0.77644092       0.55146482       0.95191017 </v>
    <v>       0.88737242       0.44085317       0.04686265 </v>
    <v>       0.77730108       0.88925511       0.95071690 </v>
    <v>       0.88915735       0.77714354       0.04925135 </v>
   </varray>
  </structure>
  <varray name="forces" >
   <v>       0.32551595      -0.00137503      -0.06938048 </v>
   <v>      -0.30013294       0.00561694       0.08540880 </v>
   <v>      -0.40472548       0.00464323       0.05252452 </v>
   <v>      -0.19613144       0.07452075       0.01314807 </v>
   <v>      -0.13506733       0.07822816       0.00343026 </v>
   <v>       0.05652395      -0.15660938      -0.04009514 </v>
   <v>      -0.56302153      -0.00747049       0.08827957 </v>
   <v>       0.62217708       0.08783502      -0.06859901 </v>
   <v>       0.52991682      -0.09528537      -0.10303235 </v>
   <v>      -0.06203156      -0.00205116      -0.07724257 </v>
   <v>       0.05412082       0.00453644       0.04609450 </v>
   <v>      -0.06077838       0.06210881       0.29648642 </v>
   <v>      -0.07382365       0.03768121       0.10270150 </v>
   <v>       0.06972578      -0.04338192      -0.10108239 </v>
   <v>       0.05842048      -0.06389232      -0.26084390 </v>
   <v>       0.03376611       0.00222289      -0.01776184 </v>
   <v>       0.11161763       0.00755054      -0.26922101 </v>
   <v>      -0.13904839       0.00443450      -0.13367208 </v>
   <v>       0.07238907      -0.01018964       0.07207227 </v>
   <v>       0.10038164       0.00072117       0.21638769 </v>
   <v>      -0.08541106      -0.00511654       0.15602504 </v>
   <v>       0.06246708      -0.07688842       0.23489646 </v>
   <v>      -0.07594023      -0.03654741       0.06126690 </v>
   <v>       0.07512859       0.04847459      -0.05732526 </v>
   <v>      -0.07059616       0.07337659      -0.19886473 </v>
   <v>      -0.13956624       0.00381127      -0.16437008 </v>
   <v>       0.13412338       0.00304559       0.13276884 </v>
  </varray>
  <varray name="stress" >
   <v>     -19.94265361       0.00539878       0.17038081 </v>
   <v>       0.00539876     -19.43080747       0.00999934 </v>
   <v>       0.17038077       0.00999914      -1.75471928 </v>
  </varray>
  <energy>
   <i name="e_fr_energy">   -188.70225431 </i>
   <i name="e_wo_entrp">   -188.56403091 </i>
   <i name="e_0_energy">     -0.27644682 </i>
  </energy>
  <time name="totalsc">  446.35  447.52</time>
 </calculation>
 <calculation>
  <scstep>
   <time name="dav">   25.34   25.40</time>
   <time name="total">   25.88   25.94</time>
   <energy>
    <i name="alphaZ">     82.35384375 </i>
    <i name="ewald">  41308.28636211 </i>
    <i name="hartreedc"> -47307.03765888 </i>
    <i name="XCdc">   -233.83787193 </i>
    <i name="pawpsdc">   3949.54080338 </i>
    <i name="pawaedc">  -3364.04875464 </i>
    <i name="eentropy">     -0.23219328 </i>
    <i name="bandstr">  -1387.09979438 </i>
    <i name="atom">   6761.44252427 </i>
    <i name="e_fr_energy">   -190.63273959 </i>
    <i name="e_wo_entrp">   -190.40054631 </i>
    <i name="e_0_energy">   -190.51664295 </i>
   </energy>
  </scstep>
  <scstep>
   <time name="dav">   29.84   29.92</time>
   <time name="total">   30.37   30.45</time>
   <energy>
    <i name="e_fr_energy">   -190.58323987 </i>
    <i name="e_wo_entrp">   -190.35485062 </i>
    <i name="e_0_energy">   -190.46904525 </i>
   </energy>
  </scstep>
  <scstep>
   <time name="dav">   32.26   32.34</time>
   <time name="total">   32.80   32.88</time>
   <energy>
    <i name="e_fr_energy">   -190.11560390 </i>
    <i name="e_wo_entrp">   -189.86664165 </i>
    <i name="e_0_energy">   -189.99112277 </i>
   </energy>
  </scstep>
  <scstep>
   <time name="dav">   32.97   33.05</time>
   <time name="total">   33.50   33.59</time>
   <energy>
    <i name="e_fr_energy">   -189.90214174 </i>
    <i name="e_wo_entrp">   -189.67389275 </i>
    <i name="e_0_energy">   -189.78801725 </i>
   </energy>
  </scstep>
  <scstep>
   <time name="dav">   32.18   32.25</time>
   <time name="total">   32.71   32.80</time>
   <energy>
    <i name="e_fr_energy">   -189.85896382 </i>
    <i name="e_wo_entrp">   -189.62419134 </i>
    <i name="e_0_energy">   -189.74157758 </i>
   </energy>
  </scstep>
  <scstep>
   <time name="dav">   33.17   33.25</time>
   <time name="total">   33.70   33.79</time>
   <energy>
    <i name="e_fr_energy">   -189.80417610 </i>
    <i name="e_wo_entrp">   -189.57020388 </i>
    <i name="e_0_energy">   -189.68718999 </i>
   </energy>
  </scstep>
  <scstep>
   <time name="dav">   30.46   30.53</time>
   <time name="total">   30.99   31.08</time>
   <energy>
    <i name="e_fr_energy">   -189.79732414 </i>
    <i name="e_wo_entrp">   -189.56473965 </i>
    <i name="e_0_energy">   -189.68103190 </i>
   </energy>
  </scstep>
  <scstep>
   <time name="dav">   32.53   32.61</time>
   <time name="total">   33.06   33.15</time>
   <energy>
    <i name="e_fr_energy">   -189.79806819 </i>
    <i name="e_wo_entrp">   -189.56534099 </i>
    <i name="e_0_energy">   -189.68170459 </i>
   </energy>
  </scstep>
  <scstep>
   <time name="dav">   28.86   28.93</time>
   <time name="total">   29.40   29.47</time>
   <energy>
    <i name="e_fr_energy">   -189.79732489 </i>
    <i name="e_wo_entrp">   -189.56448987 </i>
    <i name="e_0_energy">   -189.68090738 </i>
   </energy>
  </scstep>
  <scstep>
   <time name="dav">   26.63   26.69</time>
   <time name="total">   27.16   27.23</time>
   <energy>
    <i name="e_fr_energy">   -189.79763522 </i>
    <i name="e_wo_entrp">   -189.56480011 </i>
    <i name="e_0_energy">   -189.68121767 </i>
   </energy>
  </scstep>
  <scstep>
   <time name="dav">   25.33   25.39</time>
   <time name="total">   25.87   25.94</time>
   <energy>
    <i name="e_fr_energy">   -189.79734922 </i>
    <i name="e_wo_entrp">   -189.56439945 </i>
    <i name="e_0_energy">   -189.68087433 </i>
   </energy>
  </scstep>
  <scstep>
   <time name="dav">   21.33   21.38</time>
   <time name="total">   21.37   21.43</time>
   <energy>
    <i name="alphaZ">     82.35384375 </i>
    <i name="ewald">  41308.28636211 </i>
    <i name="hartreedc"> -47280.53526815 </i>
    <i name="XCdc">   -235.23204995 </i>
    <i name="pawpsdc">   4039.18980555 </i>
    <i name="pawaedc">  -3454.90419673 </i>
    <i name="eentropy">     -0.23292449 </i>
    <i name="bandstr">  -1410.16547253 </i>
    <i name="atom">   6761.44252427 </i>
    <i name="e_fr_energy">   -189.79737616 </i>
    <i name="e_wo_entrp">   -189.56445167 </i>
    <i name="e_0_energy">   -189.68091391 </i>
   </energy>
  </scstep>
  <structure>
   <crystal>
    <varray name="basis" >
     <v>       8.67080582       4.99702449       0.00000000 </v>
     <v>      -8.67061766       4.99670023       0.00000000 </v>
     <v>       0.00000000       0.00000000      30.00000000 </v>
    </varray>
    <i name="volume">   2599.58118744 </i>
    <varray name="rec_basis" >
     <v>       0.05766352       0.10006171       0.00000000 </v>
     <v>      -0.05766726       0.10006388       0.00000000 </v>
     <v>       0.00000000       0.00000000       0.03333333 </v>
    </varray>
   </crystal>
   <varray name="positions" >
    <v>       1.00111188       0.33181679       0.00009378 </v>
    <v>       0.66529176       0.33451121       0.00006219 </v>
    <v>       0.33207228       0.00191560      -0.00011276 </v>
    <v>       0.66650017       0.66695582       0.00003844 </v>
    <v>       0.33340756       0.33340123      -0.00002884 </v>
    <v>      -0.00012481      -0.00029169      -0.00020898 </v>
    <v>      -0.00236478       0.66821811       0.00010510 </v>
    <v>       0.33559083       0.66466626       0.00015407 </v>
    <v>       0.66852511      -0.00140983      -0.00005882 </v>
    <v>       0.10854044       0.22448645       0.95197150 </v>
    <v>       0.22461132       0.10865322       0.04801536 </v>
    <v>       0.10928126       0.55193970       0.95216949 </v>
    <v>       0.21795374       0.44328362       0.04818219 </v>
    <v>       0.11514180       0.89001475       0.95179918 </v>
    <v>       0.22385811       0.78115223       0.04785627 </v>
    <v>       0.44648795       0.21979407       0.95299978 </v>
    <v>       0.55380077       0.11264320       0.04675057 </v>
    <v>       0.44389701       0.55606155       0.95064375 </v>
    <v>       0.55793470       0.44191621       0.04802907 </v>
    <v>       0.44236219       0.89082576       0.95213409 </v>
    <v>       0.55481434       0.77809318       0.04940975 </v>
    <v>       0.77910854       0.22540910       0.95328754 </v>
    <v>       0.88992622       0.11522524       0.04812975 </v>
    <v>       0.77659429       0.55147352       0.95187757 </v>
    <v>       0.88742711       0.44104380       0.04674956 </v>
    <v>       0.77717308       0.88939586       0.95062342 </v>
    <v>       0.88929158       0.77701949       0.04932686 </v>
   </varray>
  </structure>
  <varray name="forces" >
   <v>       0.34435148       0.01841819      -0.08409919 </v>
   <v>      -0.30012558       0.02639972       0.08394808 </v>
   <v>      -0.40979610      -0.04199885       0.07406334 </v>
   <v>      -0.25939503       0.09991127       0.00768881 </v>
   <v>      -0.19695118       0.10078642       0.01249575 </v>
   <v>       0.07504929      -0.20710515      -0.01075430 </v>
   <v>      -0.57587398       0.02166526       0.07033195 </v>
   <v>       0.65261827       0.12219538      -0.08758573 </v>
   <v>       0.57447697      -0.16231424      -0.08894345 </v>
   <v>      -0.12257895       0.00189886      -0.56375335 </v>
   <v>       0.11221484       0.00688739       0.52230353 </v>
   <v>      -0.00786018      -0.04984947      -0.16993237 </v>
   <v>      -0.05810697      -0.09680746       0.62482057 </v>
   <v>       0.06480143       0.08810708      -0.62258186 </v>
   <v>       0.00141634       0.05669932       0.20813073 </v>
   <v>       0.09864712       0.00679365      -0.47586947 </v>
   <v>      -0.02094987       0.00727701       0.16542503 </v>
   <v>      -0.03376479       0.00139243      -0.70162760 </v>
   <v>       0.13388664      -0.01185588       0.55709400 </v>
   <v>      -0.04436556      -0.00155054      -0.26910617 </v>
   <v>      -0.00826931       0.00452676       0.74557372 </v>
   <v>      -0.02102682       0.05066002      -0.20905534 </v>
   <v>      -0.05962411       0.09150141       0.56771986 </v>
   <v>       0.06194663      -0.08576442      -0.56551512 </v>
   <v>       0.01048557      -0.05659692       0.24782819 </v>
   <v>      -0.04022107       0.00342149      -0.73897548 </v>
   <v>       0.02901492       0.00530126       0.70037584 </v>
  </varray>
  <varray name="stress" >
   <v>     -10.17564578      -0.01245136       0.17085770 </v>
   <v>      -0.01245125      -9.76160636      -0.00233088 </v>
   <v>       0.17085799      -0.00233090       6.51745932 </v>
  </varray>
  <energy>
   <i name="e_fr_energy">   -189.79737616 </i>
   <i name="e_wo_entrp">   -189.68091391 </i>
   <i name="e_0_energy">     -0.23292449 </i>
  </energy>
  <time name="totalsc">  401.10  402.15</time>
 </calculation>
 <calculation>
  <scstep>
   <time name="dav">   23.13   23.19</time>
   <time name="total">   23.66   23.72</time>
   <energy>
    <i name="alphaZ">     85.82355161 </i>
    <i name="ewald">  42834.76301719 </i>
    <i name="hartreedc"> -48851.42446633 </i>
    <i name="XCdc">   -232.95704763 </i>
    <i name="pawpsdc">   4039.29423076 </i>
    <i name="pawaedc">  -3455.00651770 </i>
    <i name="eentropy">     -0.19157393 </i>
    <i name="bandstr">  -1373.11583265 </i>
    <i name="atom">   6761.44252427 </i>
    <i name="e_fr_energy">   -191.37211441 </i>
    <i name="e_wo_entrp">   -191.18054047 </i>
    <i name="e_0_energy">   -191.27632744 </i>
   </energy>
  </scstep>
  <scstep>
   <time name="dav">   34.67   34.75</time>
   <time name="total">   35.18   35.27</time>
   <energy>
    <i name="e_fr_energy">   -191.18863428 </i>
    <i name="e_wo_entrp">   -190.99911656 </i>
    <i name="e_0_energy">   -191.09387542 </i>
   </energy>
  </scstep>
  <scstep>
   <time name="dav">   31.90   31.98</time>
   <time name="total">   32.42   32.50</time>
   <energy>
    <i name="e_fr_energy">   -191.34493834 </i>
    <i name="e_wo_entrp">   -191.12098651 </i>
    <i name="e_0_energy">   -191.23296243 </i>
   </energy>
  </scstep>
  <scstep>
   <time name="dav">   32.51   32.59</time>
   <time name="total">   33.04   33.13</time>
   <energy>
    <i name="e_fr_energy">   -190.94321577 </i>
    <i name="e_wo_entrp">   -190.75240042 </i>
    <i name="e_0_energy">   -190.84780810 </i>
   </energy>
  </scstep>
  <scstep>
   <time name="dav">   32.07   32.15</time>
   <time name="total">   32.59   32.68</time>
   <energy>
    <i name="e_fr_energy">   -190.90012302 </i>
    <i name="e_wo_entrp">   -190.70553951 </i>
    <i name="e_0_energy">   -190.80283126 </i>
   </energy>
  </scstep>
  <scstep>
   <time name="dav">   32.23   32.31</time>
   <time name="total">   32.75   32.84</time>
   <energy>
    <i name="e_fr_energy">   -190.81470263 </i>
    <i name="e_wo_entrp">   -190.61653558 </i>
    <i name="e_0_energy">   -190.71561911 </i>
   </energy>
  </scstep>
  <scstep>
   <time name="dav">   32.70   32.78</time>
   <time name="total">   33.22   33.31</time>
   <energy>
    <i name="e_fr_energy">   -190.80281732 </i>
    <i name="e_wo_entrp">   -190.60872433 </i>
    <i name="e_0_energy">   -190.70577082 </i>
   </energy>
  </scstep>
  <scstep>
   <time name="dav">   27.70   27.77</time>
   <time name="total">   28.22   28.30</time>
   <energy>
    <i name="e_fr_energy">   -190.79938146 </i>
    <i name="e_wo_entrp">   -190.60408470 </i>
    <i name="e_0_energy">   -190.70173308 </i>
   </energy>
  </scstep>
  <scstep>
   <time name="dav">   32.87   32.95</time>
   <time name="total">   33.39   33.48</time>
   <energy>
    <i name="e_fr_energy">   -190.80032579 </i>
    <i name="e_wo_entrp">   -190.60473779 </i>
    <i name="e_0_energy">   -190.70253179 </i>
   </energy>
  </scstep>
  <scstep>
   <time name="dav">   29.99   30.07</time>
   <time name="total">   30.51   30.59</time>
   <energy>
    <i name="e_fr_energy">   -190.79969782 </i>
    <i name="e_wo_entrp">   -190.60414818 </i>
    <i name="e_0_energy">   -190.70192300 </i>
   </energy>
  </scstep>
  <scstep>
   <time name="dav">   25.29   25.35</time>
   <time name="total">   25.82   25.89</time>
   <energy>
    <i name="e_fr_energy">   -190.79955430 </i>
    <i name="e_wo_entrp">   -190.60407567 </i>
    <i name="e_0_energy">   -190.70181499 </i>
   </energy>
  </scstep>
  <scstep>
   <time name="dav">   21.78   21.83</time>
   <time name="total">   21.82   21.88</time>
   <energy>
    <i name="alphaZ">     85.82355161 </i>
    <i name="ewald">  42834.76301719 </i>
    <i name="hartreedc"> -48822.85975925 </i>
    <i name="XCdc">   -234.28536993 </i>
    <i name="pawpsdc">   4064.11442831 </i>
    <i name="pawaedc">  -3479.99800051 </i>
    <i name="eentropy">     -0.19551685 </i>
    <i name="bandstr">  -1399.60442275 </i>
    <i name="atom">   6761.44252427 </i>
    <i name="e_fr_energy">   -190.79954791 </i>
    <i name="e_wo_entrp">   -190.60403106 </i>
    <i name="e_0_energy">   -190.70178948 </i>
   </energy>
  </scstep>
  <structure>
   <crystal>
    <varray name="basis" >
     <v>       8.48760040       4.89764347       0.00000000 </v>
     <v>      -8.48815991       4.89861611       0.00000000 </v>
     <v>       0.00000000       0.00000000      30.00000000 </v>
    </varray>
    <i name="volume">   2494.48431024 </i>
    <varray name="rec_basis" >
     <v>       0.05891337       0.10208314       0.00000000 </v>
     <v>      -0.05890167       0.10207641       0.00000000 </v>
     <v>       0.00000000       0.00000000       0.03333333 </v>
    </varray>
   </crystal>
   <varray name="positions" >
    <v>       1.00254769       0.33071017      -0.00009280 </v>
    <v>       0.66442449       0.33581283       0.00023478 </v>
    <v>       0.33020517       0.00302445       0.00005881 </v>
    <v>       0.66616177       0.66867309       0.00004975 </v>
    <v>       0.33329520       0.33488934       0.00000470 </v>
    <v>      -0.00125085      -0.00201315      -0.00020645 </v>
    <v>      -0.00425571       0.67052562       0.00023555 </v>
    <v>       0.33884381       0.66311587      -0.00004334 </v>
    <v>       0.66948055      -0.00473353      -0.00023108 </v>
    <v>       0.10803260       0.22503777       0.95039287 </v>
    <v>       0.22514894       0.10821360       0.04949946 </v>
    <v>       0.10873790       0.55130164       0.95142331 </v>
    <v>       0.21682524       0.44253002       0.04991737 </v>
    <v>       0.11624794       0.89066671       0.95006915 </v>
    <v>       0.22443673       0.78188381       0.04868371 </v>
    <v>       0.44699119       0.21939869       0.95162714 </v>
    <v>       0.55358027       0.11295359       0.04746056 </v>
    <v>       0.44392687       0.55603403       0.94871078 </v>
    <v>       0.55842802       0.44126593       0.04959265 </v>
    <v>       0.44197935       0.89117790       0.95116643 </v>
    <v>       0.55494722       0.77806499       0.05145197 </v>
    <v>       0.77954758       0.22623913       0.95247934 </v>
    <v>       0.89062592       0.11630914       0.04973345 </v>
    <v>       0.77592804       0.55039733       0.95027697 </v>
    <v>       0.88690328       0.44021208       0.04764035 </v>
    <v>       0.77719042       0.88941948       0.94860750 </v>
    <v>       0.88928481       0.77710393       0.05125694 </v>
   </varray>
  </structure>
  <varray name="forces" >
   <v>       0.36432499       0.01145039      -0.07817266 </v>
   <v>      -0.28063668       0.04624780       0.04706512 </v>
   <v>      -0.47922352      -0.07591065       0.07087543 </v>
   <v>      -0.31306510       0.12893251      -0.01340624 </v>
   <v>      -0.23581389       0.11019614       0.01466794 </v>
   <v>       0.09947746      -0.24418655       0.02596550 </v>
   <v>      -0.64611591       0.01154661      -0.00530504 </v>
   <v>       0.73551077       0.16665919      -0.03190310 </v>
   <v>       0.59131733      -0.18502855      -0.01310680 </v>
   <v>       0.01865439      -0.01156357      -0.39650454 </v>
   <v>      -0.02869565       0.01384927       0.36450006 </v>
   <v>      -0.03429425       0.02430861       0.02021180 </v>
   <v>       0.00173374      -0.02361861       0.47323146 </v>
   <v>      -0.01746038       0.04007801      -0.48411267 </v>
   <v>       0.04463280      -0.00150512       0.02336641 </v>
   <v>      -0.00931612       0.01395812      -0.37514197 </v>
   <v>       0.05062190       0.00323557       0.05532016 </v>
   <v>       0.09988623       0.00871585      -0.56702225 </v>
   <v>      -0.00428610       0.00461833       0.39311311 </v>
   <v>       0.01665502       0.00112873      -0.11670532 </v>
   <v>       0.04037356       0.00262095       0.59079658 </v>
   <v>       0.02473890      -0.01898481      -0.08755855 </v>
   <v>       0.01877247       0.01141591       0.37368066 </v>
   <v>      -0.03423225      -0.02946192      -0.37748611 </v>
   <v>      -0.01628133      -0.00269170       0.14730657 </v>
   <v>       0.07003504       0.00939261      -0.59947843 </v>
   <v>      -0.07731343      -0.01540311       0.54580287 </v>
  </varray>
  <varray name="stress" >
   <v>      -5.63076264      -0.00776915      -0.12111466 </v>
   <v>      -0.00776931      -5.91048719      -0.04451043 </v>
   <v>      -0.12111456      -0.04451032       4.52919250 </v>
  </varray>
  <energy>
   <i name="e_fr_energy">   -190.79954791 </i>
   <i name="e_wo_entrp">   -190.70178948 </i>
   <i name="e_0_energy">     -0.19551685 </i>
  </energy>
  <time name="totalsc">  406.86  407.94</time>
 </calculation>
 <calculation>
  <scstep>
   <time name="dav">   23.16   23.21</time>
   <time name="total">   23.67   23.73</time>
   <energy>
    <i name="alphaZ">     90.15859311 </i>
    <i name="ewald">  44668.76095815 </i>
    <i name="hartreedc"> -50711.53509826 </i>
    <i name="XCdc">   -231.80639139 </i>
    <i name="pawpsdc">   4064.07095027 </i>
    <i name="pawaedc">  -3479.95044907 </i>
    <i name="eentropy">     -0.16504369 </i>
    <i name="bandstr">  -1353.21691211 </i>
    <i name="atom">   6761.44252427 </i>
    <i name="e_fr_energy">   -192.24086871 </i>
    <i name="e_wo_entrp">   -192.07582502 </i>
    <i name="e_0_energy">   -192.15834687 </i>
   </energy>
  </scstep>
  <scstep>
   <time name="dav">   29.41   29.48</time>
   <time name="total">   29.92   30.00</time>
   <energy>
    <i name="e_fr_energy">   -191.97061493 </i>
    <i name="e_wo_entrp">   -191.79438621 </i>
    <i name="e_0_energy">   -191.88250057 </i>
   </energy>
  </scstep>
  <scstep>
   <time name="dav">   31.92   31.99</time>
   <time name="total">   32.42   32.51</time>
   <energy>
    <i name="e_fr_energy">   -192.04310062 </i>
    <i name="e_wo_entrp">   -191.86107363 </i>
    <i name="e_0_energy">   -191.95208712 </i>
   </energy>
  </scstep>
  <scstep>
   <time name="dav">   31.41   31.48</time>
   <time name="total">   31.91   32.00</time>
   <energy>
    <i name="e_fr_energy">   -191.85030630 </i>
    <i name="e_wo_entrp">   -191.67216330 </i>
    <i name="e_0_energy">   -191.76123480 </i>
   </energy>
  </scstep>
  <scstep>
   <time name="dav">   32.08   32.16</time>
   <time name="total">   32.59   32.68</time>
   <energy>
    <i name="e_fr_energy">   -191.59798304 </i>
    <i name="e_wo_entrp">   -191.42815615 </i>
    <i name="e_0_energy">   -191.51306959 </i>
   </energy>
  </scstep>
  <scstep>
   <time name="dav">   32.75   32.83</time>
   <time name="total">   33.26   33.35</time>
   <energy>
    <i name="e_fr_energy">   -191.58480386 </i>
    <i name="e_wo_entrp">   -191.40224793 </i>
    <i name="e_0_energy">   -191.49352589 </i>
   </energy>
  </scstep>
  <scstep>
   <time name="dav">   32.13   32.21</time>
   <time name="total">   32.64   32.73</time>
   <energy>
    <i name="e_fr_energy">   -191.56717017 </i>
    <i name="e_wo_entrp">   -191.39992821 </i>
    <i name="e_0_energy">   -191.48354919 </i>
   </energy>
  </scstep>
  <scstep>
   <time name="dav">   30.94   31.01</time>
   <time name="total">   31.45   31.53</time>
   <energy>
    <i name="e_fr_energy">   -191.56058907 </i>
    <i name="e_wo_entrp">   -191.38869915 </i>
    <i name="e_0_energy">   -191.47464411 </i>
   </energy>
  </scstep>
  <scstep>
   <time name="dav">   31.04   31.11</time>
   <time name="total">   31.55   31.64</time>
   <energy>
    <i name="e_fr_energy">   -191.55950446 </i>
    <i name="e_wo_entrp">   -191.38720530 </i>
    <i name="e_0_energy">   -191.47335488 </i>
   </energy>
  </scstep>
  <scstep>
   <time name="dav">   30.22   30.29</time>
   <time name="total">   30.73   30.81</time>
   <energy>
    <i name="e_fr_energy">   -191.55953105 </i>
    <i name="e_wo_entrp">   -191.38705660 </i>
    <i name="e_0_energy">   -191.47329382 </i>
   </energy>
  </scstep>
  <scstep>
   <time name="dav">   28.87   28.94</time>
   <time name="total">   28.91   28.99</time>
   <energy>
    <i name="alphaZ">     90.15859311 </i>
    <i name="ewald">  44668.76095815 </i>
    <i name="hartreedc"> -50677.33567772 </i>
    <i name="XCdc">   -233.32326479 </i>
    <i name="pawpsdc">   4087.74061501 </i>
    <i name="pawaedc">  -3503.72344959 </i>
    <i name="eentropy">     -0.17266853 </i>
    <i name="bandstr">  -1385.10710986 </i>
    <i name="atom">   6761.44252427 </i>
    <i name="e_fr_energy">   -191.55947994 </i>
    <i name="e_wo_entrp">   -191.38681141 </i>
    <i name="e_0_energy">   -191.47314567 </i>
   </energy>
  </scstep>
  <structure>
   <crystal>
    <varray name="basis" >
     <v>       8.28704204       4.77397866       0.00000000 </v>
     <v>      -8.28845872       4.77643595       0.00000000 </v>
     <v>       0.00000000       0.00000000      30.00000000 </v>
    </varray>
    <i name="volume">   2374.54351870 </i>
    <varray name="rec_basis" >
     <v>       0.06034553       0.10471645       0.00000000 </v>
     <v>      -0.06031448       0.10469855       0.00000000 </v>
     <v>       0.00000000       0.00000000       0.03333333 </v>
    </varray>
   </crystal>
   <varray name="positions" >
    <v>       1.00529744       0.32836944      -0.00041674 </v>
    <v>       0.66303773       0.33836560       0.00043729 </v>
    <v>       0.32593879       0.00531050       0.00035913 </v>
    <v>       0.66551072       0.67247913       0.00000287 </v>
    <v>       0.33296781       0.33796773       0.00006975 </v>
    <v>      -0.00357564      -0.00573528      -0.00009574 </v>
    <v>      -0.00846805       0.67521033       0.00023691 </v>
    <v>       0.34596327       0.66006198      -0.00021540 </v>
    <v>       0.67126904      -0.01128085      -0.00030848 </v>
    <v>       0.10782721       0.22502991       0.94828897 </v>
    <v>       0.22533583       0.10835109       0.05146305 </v>
    <v>       0.10847060       0.55129250       0.95096274 </v>
    <v>       0.21602986       0.44177157       0.05234812 </v>
    <v>       0.11712153       0.89164577       0.94760306 </v>
    <v>       0.22502687       0.78211632       0.04931502 </v>
    <v>       0.44730023       0.21942837       0.94966845 </v>
    <v>       0.55369805       0.11292539       0.04814617 </v>
    <v>       0.44475065       0.55537990       0.94587719 </v>
    <v>       0.55864980       0.44109300       0.05168014 </v>
    <v>       0.44180940       0.89135380       0.95016977 </v>
    <v>       0.55536784       0.77776739       0.05440979 </v>
    <v>       0.77978169       0.22648196       0.95165244 </v>
    <v>       0.89133273       0.11684849       0.05178049 </v>
    <v>       0.77493895       0.54974757       0.94821646 </v>
    <v>       0.88646385       0.43968941       0.04869358 </v>
    <v>       0.77783656       0.88897838       0.94563764 </v>
    <v>       0.88853169       0.77756507       0.05401723 </v>
   </varray>
  </structure>
  <varray name="forces" >
   <v>       0.44226244      -0.04570215      -0.00196856 </v>
   <v>      -0.34320616       0.06237759       0.02958701 </v>
   <v>      -0.60632075      -0.04960704      -0.03894262 </v>
   <v>      -0.07484579       0.07344185      -0.07475411 </v>
   <v>      -0.08338297       0.10469350      -0.05255634 </v>
   <v>       0.05169943      -0.16414303      -0.00915308 </v>
   <v>      -0.59409637      -0.03118915      -0.05387850 </v>
   <v>       0.53002177       0.10656404       0.09910630 </v>
   <v>       0.46489522      -0.09965577       0.02884712 </v>
   <v>       0.15049224      -0.03564297      -0.08585200 </v>
   <v>      -0.19897510       0.01472593       0.13058362 </v>
   <v>      -0.09457131       0.18108647       0.34059860 </v>
   <v>       0.03504339       0.06699229       0.17320229 </v>
   <v>      -0.09479426      -0.01118691      -0.19906755 </v>
   <v>       0.14940854      -0.09724117      -0.32840498 </v>
   <v>      -0.09752060      -0.00260411      -0.07763433 </v>
   <v>       0.14689726      -0.03469259      -0.21160350 </v>
   <v>       0.21829412       0.04148033      -0.30047539 </v>
   <v>      -0.14457310       0.02853583       0.09718478 </v>
   <v>       0.11497968      -0.02814173       0.19743539 </v>
   <v>       0.07172746      -0.00073939       0.32617748 </v>
   <v>       0.10887530      -0.12158931       0.15597817 </v>
   <v>       0.07923482      -0.06348396       0.12010176 </v>
   <v>      -0.13598092       0.02869256      -0.13301883 </v>
   <v>      -0.05041307       0.11127441      -0.13629594 </v>
   <v>       0.12123035       0.02901590      -0.27894728 </v>
   <v>      -0.16638160      -0.06326142       0.28375049 </v>
  </varray>
  <varray name="stress" >
   <v>       0.21525326      -0.07366435      -0.44175172 </v>
   <v>      -0.07366421      -0.20581281      -0.12884339 </v>
   <v>      -0.44175173      -0.12884317      -0.15051689 </v>
  </varray>
  <energy>
   <i name="e_fr_energy">   -191.55947994 </i>
   <i name="e_wo_entrp">   -191.47314567 </i>
   <i name="e_0_energy">     -0.17266853 </i>
  </energy>
  <time name="totalsc">  383.52  384.53</time>
 </calculation>
 <calculation>
  <scstep>
   <time name="dav">   23.11   23.17</time>
   <time name="total">   23.62   23.68</time>
   <energy>
    <i name="alphaZ">     90.12621749 </i>
    <i name="ewald">  44634.88707771 </i>
    <i name="hartreedc"> -50643.80995579 </i>
    <i name="XCdc">   -233.43054301 </i>
    <i name="pawpsdc">   4088.09848737 </i>
    <i name="pawaedc">  -3504.07796416 </i>
    <i name="eentropy">     -0.16653070 </i>
    <i name="bandstr">  -1384.74632007 </i>
    <i name="atom">   6761.44252427 </i>
    <i name="e_fr_energy">   -191.67700688 </i>
    <i name="e_wo_entrp">   -191.51047618 </i>
    <i name="e_0_energy">   -191.59374153 </i>
   </energy>
  </scstep>
  <scstep>
   <time name="dav">   33.44   33.52</time>
   <time name="total">   33.94   34.03</time>
   <energy>
    <i name="e_fr_energy">   -191.74042076 </i>
    <i name="e_wo_entrp">   -191.55422800 </i>
    <i name="e_0_energy">   -191.64732438 </i>
   </energy>
  </scstep>
  <scstep>
   <time name="dav">   32.50   32.58</time>
   <time name="total">   33.01   33.10</time>
   <energy>
    <i name="e_fr_energy">   -191.69463238 </i>
    <i name="e_wo_entrp">   -191.52756477 </i>
    <i name="e_0_energy">   -191.61109857 </i>
   </energy>
  </scstep>
  <scstep>
   <time name="dav">   30.67   30.74</time>
   <time name="total">   31.18   31.26</time>
   <energy>
    <i name="e_fr_energy">   -191.69474372 </i>
    <i name="e_wo_entrp">   -191.52489835 </i>
    <i name="e_0_energy">   -191.60982104 </i>
   </energy>
  </scstep>
  <scstep>
   <time name="dav">   30.50   30.58</time>
   <time name="total">   31.01   31.09</time>
   <energy>
    <i name="e_fr_energy">   -191.69143034 </i>
    <i name="e_wo_entrp">   -191.52172960 </i>
    <i name="e_0_energy">   -191.60657997 </i>
   </energy>
  </scstep>
  <scstep>
   <time name="dav">   29.97   30.05</time>
   <time name="total">   30.48   30.56</time>
   <energy>
    <i name="e_fr_energy">   -191.69130411 </i>
    <i name="e_wo_entrp">   -191.52108892 </i>
    <i name="e_0_energy">   -191.60619652 </i>
   </energy>
  </scstep>
  <scstep>
   <time name="dav">   30.66   30.73</time>
   <time name="total">   31.17   31.25</time>
   <energy>
    <i name="e_fr_energy">   -191.69085234 </i>
    <i name="e_wo_entrp">   -191.52131472 </i>
    <i name="e_0_energy">   -191.60608353 </i>
   </energy>
  </scstep>
  <scstep>
   <time name="dav">   24.96   25.02</time>
   <time name="total">   25.47   25.54</time>
   <energy>
    <i name="e_fr_energy">   -191.69058735 </i>
    <i name="e_wo_entrp">   -191.52074789 </i>
    <i name="e_0_energy">   -191.60566762 </i>
   </energy>
  </scstep>
  <scstep>
   <time name="dav">   18.80   18.85</time>
   <time name="total">   18.84   18.89</time>
   <energy>
    <i name="alphaZ">     90.12621749 </i>
    <i name="ewald">  44634.88707771 </i>
    <i name="hartreedc"> -50645.11705529 </i>
    <i name="XCdc">   -233.39397975 </i>
    <i name="pawpsdc">   4086.30153155 </i>
    <i name="pawaedc">  -3502.23977322 </i>
    <i name="eentropy">     -0.16959370 </i>
    <i name="bandstr">  -1383.52754170 </i>
    <i name="atom">   6761.44252427 </i>
    <i name="e_fr_energy">   -191.69059264 </i>
    <i name="e_wo_entrp">   -191.52099894 </i>
    <i name="e_0_energy">   -191.60579579 </i>
   </energy>
  </scstep>
  <structure>
   <crystal>
    <varray name="basis" >
     <v>       8.29209137       4.77069080       0.00000000 </v>
     <v>      -8.29532220       4.77629403       0.00000000 </v>
     <v>       0.00000000       0.00000000      30.00000000 </v>
    </varray>
    <i name="volume">   2375.39651495 </i>
    <varray name="rec_basis" >
     <v>       0.06032206       0.10476553       0.00000000 </v>
     <v>      -0.06025130       0.10472472       0.00000000 </v>
     <v>       0.00000000       0.00000000       0.03333333 </v>
    </varray>
   </crystal>
   <varray name="positions" >
    <v>       1.00630053       0.32690855      -0.00041593 </v>
    <v>       0.66238331       0.33962325       0.00048143 </v>
    <v>       0.32401274       0.00676870       0.00029406 </v>
    <v>       0.66566864       0.67301124      -0.00011447 </v>
    <v>       0.33325225       0.33868712      -0.00001392 </v>
    <v>      -0.00421324      -0.00665133      -0.00011153 </v>
    <v>      -0.01026994       0.67669539       0.00015178 </v>
    <v>       0.34792054       0.65911302      -0.00005679 </v>
    <v>       0.67208214      -0.01302226      -0.00026189 </v>
    <v>       0.10808415       0.22442216       0.94818257 </v>
    <v>       0.22483697       0.10899178       0.05164173 </v>
    <v>       0.10910319       0.55246333       0.95150938 </v>
    <v>       0.21647512       0.44201588       0.05258821 </v>
    <v>       0.11678129       0.89184632       0.94732255 </v>
    <v>       0.22496241       0.78120145       0.04878562 </v>
    <v>       0.44700377       0.21969493       0.94957281 </v>
    <v>       0.55394629       0.11233265       0.04780084 </v>
    <v>       0.44556923       0.55497078       0.94544145 </v>
    <v>       0.55837437       0.44165076       0.05180462 </v>
    <v>       0.44200257       0.89088221       0.95049696 </v>
    <v>       0.55556310       0.77756300       0.05488436 </v>
    <v>       0.77948519       0.22556136       0.95191186 </v>
    <v>       0.89123268       0.11629758       0.05194128 </v>
    <v>       0.77470771       0.55028937       0.94803545 </v>
    <v>       0.88687852       0.44039512       0.04846262 </v>
    <v>       0.77831831       0.88878194       0.94523749 </v>
    <v>       0.88775261       0.77772016       0.05442738 </v>
   </varray>
  </structure>
  <varray name="forces" >
   <v>       0.47026480      -0.06916869      -0.00546766 </v>
   <v>      -0.39227242       0.06875650       0.06372244 </v>
   <v>      -0.60275132      -0.03046944      -0.00594586 </v>
   <v>      -0.04344020       0.05492763      -0.03144847 </v>
   <v>      -0.06295947       0.12420395      -0.03061256 </v>
   <v>       0.01448425      -0.16779517       0.02812936 </v>
   <v>      -0.58922495      -0.02499869      -0.00921962 </v>
   <v>       0.55879840       0.08198841       0.03225561 </v>
   <v>       0.48177240      -0.06933216       0.02100927 </v>
   <v>       0.11097722      -0.02251114      -0.08347338 </v>
   <v>      -0.15888450       0.00708957       0.09514529 </v>
   <v>      -0.08283486       0.12430942       0.37986441 </v>
   <v>       0.04958453       0.03335097       0.15041351 </v>
   <v>      -0.08290925      -0.00675082      -0.19815508 </v>
   <v>       0.09936067      -0.06043994      -0.36308694 </v>
   <v>      -0.05395428      -0.00330242      -0.09173598 </v>
   <v>       0.09886082      -0.03972634      -0.27625768 </v>
   <v>       0.14254597       0.02744033      -0.21376057 </v>
   <v>      -0.09941177       0.01429645       0.08149984 </v>
   <v>       0.07342561      -0.03253897       0.24688108 </v>
   <v>       0.08239906       0.01270532       0.25794041 </v>
   <v>       0.08497992      -0.08253133       0.21200810 </v>
   <v>       0.05571117      -0.02587652       0.12859559 </v>
   <v>      -0.07773504       0.00250090      -0.17032427 </v>
   <v>      -0.04004472       0.09485170      -0.20480668 </v>
   <v>       0.09837078       0.02398603      -0.23390244 </v>
   <v>      -0.13511283      -0.03496553       0.22073229 </v>
  </varray>
  <varray name="stress" >
   <v>       0.07859866       0.00680624      -0.31531740 </v>
   <v>       0.00680607      -0.14236934      -0.03159970 </v>
   <v>      -0.31531730      -0.03159980      -0.82566236 </v>
  </varray>
  <energy>
   <i name="e_fr_energy">   -191.69059264 </i>
   <i name="e_wo_entrp">   -191.60579579 </i>
   <i name="e_0_energy">     -0.16959370 </i>
  </energy>
  <time name="totalsc">  302.91  303.70</time>
 </calculation>
 <calculation>
  <scstep>
   <time name="dav">   23.07   23.12</time>
   <time name="total">   23.58   23.64</time>
   <energy>
    <i name="alphaZ">     90.12672469 </i>
    <i name="ewald">  44630.67126069 </i>
    <i name="hartreedc"> -50640.88702456 </i>
    <i name="XCdc">   -233.42176201 </i>
    <i name="pawpsdc">   4086.27063319 </i>
    <i name="pawaedc">  -3502.20865191 </i>
    <i name="eentropy">     -0.16294664 </i>
    <i name="bandstr">  -1383.64871932 </i>
    <i name="atom">   6761.44252427 </i>
    <i name="e_fr_energy">   -191.81796158 </i>
    <i name="e_wo_entrp">   -191.65501495 </i>
    <i name="e_0_energy">   -191.73648826 </i>
   </energy>
  </scstep>
  <scstep>
   <time name="dav">   32.48   32.56</time>
   <time name="total">   32.99   33.07</time>
   <energy>
    <i name="e_fr_energy">   -191.86189121 </i>
    <i name="e_wo_entrp">   -191.68662231 </i>
    <i name="e_0_energy">   -191.77425676 </i>
   </energy>
  </scstep>
  <scstep>
   <time name="dav">   32.61   32.69</time>
   <time name="total">   33.12   33.20</time>
   <energy>
    <i name="e_fr_energy">   -191.83914710 </i>
    <i name="e_wo_entrp">   -191.67781065 </i>
    <i name="e_0_energy">   -191.75847888 </i>
   </energy>
  </scstep>
  <scstep>
   <time name="dav">   30.99   31.06</time>
   <time name="total">   31.50   31.58</time>
   <energy>
    <i name="e_fr_energy">   -191.83544237 </i>
    <i name="e_wo_entrp">   -191.67072251 </i>
    <i name="e_0_energy">   -191.75308244 </i>
   </energy>
  </scstep>
  <scstep>
   <time name="dav">   30.76   30.84</time>
   <time name="total">   31.27   31.36</time>
   <energy>
    <i name="e_fr_energy">   -191.83454390 </i>
    <i name="e_wo_entrp">   -191.67015887 </i>
    <i name="e_0_energy">   -191.75235139 </i>
   </energy>
  </scstep>
  <scstep>
   <time name="dav">   30.90   30.98</time>
   <time name="total">   31.41   31.49</time>
   <energy>
    <i name="e_fr_energy">   -191.83378406 </i>
    <i name="e_wo_entrp">   -191.66912140 </i>
    <i name="e_0_energy">   -191.75145273 </i>
   </energy>
  </scstep>
  <scstep>
   <time name="dav">   27.83   27.90</time>
   <time name="total">   28.34   28.42</time>
   <energy>
    <i name="e_fr_energy">   -191.83292208 </i>
    <i name="e_wo_entrp">   -191.66839773 </i>
    <i name="e_0_energy">   -191.75065990 </i>
   </energy>
  </scstep>
  <scstep>
   <time name="dav">   24.15   24.20</time>
   <time name="total">   24.18   24.25</time>
   <energy>
    <i name="alphaZ">     90.12672469 </i>
    <i name="ewald">  44630.67126069 </i>
    <i name="hartreedc"> -50641.38577680 </i>
    <i name="XCdc">   -233.40010545 </i>
[...]
      <set comment="kpoint 31">
       <r>  -17.5498    1.0000 </r>
       <r>  -17.2325    1.0000 </r>
       <r>  -16.9551    1.0000 </r>
       <r>  -16.6992    1.0000 </r>
       <r>  -16.5150    1.0000 </r>
       <r>  -16.4542    1.0000 </r>
       <r>  -16.3598    1.0000 </r>
       <r>  -16.1650    1.0000 </r>
       <r>  -16.1236    1.0000 </r>
       <r>  -16.0299    1.0000 </r>
       <r>  -15.9330    1.0000 </r>
       <r>  -15.8722    1.0000 </r>
       <r>  -15.7409    1.0000 </r>
       <r>  -15.6600    1.0000 </r>
       <r>  -15.5815    1.0000 </r>
       <r>  -15.4609    1.0000 </r>
       <r>  -15.3779    1.0000 </r>
       <r>  -15.2840    1.0000 </r>
       <r>   -9.7427    1.0000 </r>
       <r>   -9.4736    1.0000 </r>
       <r>   -9.3635    1.0000 </r>
       <r>   -8.9667    1.0000 </r>
       <r>   -8.8958    1.0000 </r>
       <r>   -8.7552    1.0000 </r>
       <r>   -8.5808    1.0000 </r>
       <r>   -8.4984    1.0000 </r>
       <r>   -8.4310    1.0000 </r>
       <r>   -8.3278    1.0000 </r>
       <r>   -8.2809    1.0000 </r>
       <r>   -8.1978    1.0000 </r>
       <r>   -8.1403    1.0000 </r>
       <r>   -8.0605    1.0000 </r>
       <r>   -7.9643    1.0000 </r>
       <r>   -7.9091    1.0000 </r>
       <r>   -7.8104    1.0000 </r>
       <r>   -7.7248    1.0000 </r>
       <r>   -7.6292    1.0000 </r>
       <r>   -7.4852    1.0000 </r>
       <r>   -7.3464    1.0000 </r>
       <r>   -7.2359    1.0000 </r>
       <r>   -7.1606    1.0000 </r>
       <r>   -7.0545    1.0000 </r>
       <r>   -7.0396    1.0000 </r>
       <r>   -6.9383    1.0000 </r>
       <r>   -6.8576    1.0000 </r>
       <r>   -6.7718    1.0000 </r>
       <r>   -6.6448    1.0000 </r>
       <r>   -6.5927    1.0000 </r>
       <r>   -6.5426    1.0000 </r>
       <r>   -6.4354    1.0000 </r>
       <r>   -6.3776    1.0000 </r>
       <r>   -6.3448    1.0000 </r>
       <r>   -6.2801    1.0000 </r>
       <r>   -6.2037    1.0000 </r>
       <r>   -6.1172    1.0000 </r>
       <r>   -6.0366    1.0000 </r>
       <r>   -5.9781    1.0000 </r>
       <r>   -5.9541    1.0000 </r>
       <r>   -5.8364    1.0000 </r>
       <r>   -5.6905    1.0000 </r>
       <r>   -5.6377    1.0000 </r>
       <r>   -5.5737    1.0000 </r>
       <r>   -5.5247    1.0000 </r>
       <r>   -5.3826    1.0000 </r>
       <r>   -5.2767    1.0000 </r>
       <r>   -5.2159    1.0000 </r>
       <r>   -4.9599    1.0000 </r>
       <r>   -4.8969    1.0000 </r>
       <r>   -4.8328    1.0000 </r>
       <r>   -4.7069    1.0000 </r>
       <r>   -4.5185    1.0000 </r>
       <r>   -4.4490    1.0000 </r>
       <r>   -4.3621    1.0000 </r>
       <r>   -4.2671    1.0000 </r>
       <r>   -4.1875    1.0000 </r>
       <r>   -3.9843    1.0000 </r>
       <r>   -3.9321    1.0000 </r>
       <r>   -3.7110    0.9997 </r>
       <r>   -3.5775    0.9942 </r>
       <r>   -3.1488    0.3063 </r>
       <r>   -2.9574    0.0314 </r>
       <r>   -2.8754    0.0074 </r>
       <r>   -2.6977    0.0001 </r>
       <r>   -2.5786    0.0000 </r>
       <r>   -2.4882    0.0000 </r>
       <r>   -2.3832    0.0000 </r>
       <r>   -2.1737    0.0000 </r>
       <r>   -2.1229    0.0000 </r>
       <r>   -2.0674    0.0000 </r>
       <r>   -1.9429    0.0000 </r>
       <r>   -1.6714    0.0000 </r>
       <r>   -1.4630    0.0000 </r>
       <r>   -1.4007    0.0000 </r>
       <r>   -1.3074    0.0000 </r>
       <r>   -1.2604    0.0000 </r>
       <r>   -1.1986    0.0000 </r>
       <r>   -1.0831    0.0000 </r>
       <r>   -0.9817    0.0000 </r>
       <r>   -0.9439    0.0000 </r>
       <r>   -0.8737    0.0000 </r>
       <r>   -0.8461    0.0000 </r>
       <r>   -0.7756    0.0000 </r>
       <r>   -0.6747    0.0000 </r>
       <r>   -0.5446    0.0000 </r>
       <r>   -0.4473    0.0000 </r>
       <r>   -0.3358    0.0000 </r>
       <r>   -0.2535    0.0000 </r>
       <r>   -0.1094    0.0000 </r>
       <r>   -0.0320    0.0000 </r>
       <r>    0.1005    0.0000 </r>
       <r>    0.3942    0.0000 </r>
       <r>    0.5935    0.0000 </r>
       <r>    0.7254    0.0000 </r>
       <r>    0.9574    0.0000 </r>
       <r>    1.1858    0.0000 </r>
       <r>    1.2873    0.0000 </r>
       <r>    1.5878    0.0000 </r>
       <r>    2.1430    0.0000 </r>
       <r>    2.3077    0.0000 </r>
       <r>    2.4065    0.0000 </r>
      </set>
      <set comment="kpoint 32">
       <r>  -17.5555    1.0000 </r>
       <r>  -17.1465    1.0000 </r>
       <r>  -17.0900    1.0000 </r>
       <r>  -16.7062    1.0000 </r>
       <r>  -16.4485    1.0000 </r>
       <r>  -16.3920    1.0000 </r>
       <r>  -16.2950    1.0000 </r>
       <r>  -16.2507    1.0000 </r>
       <r>  -16.1382    1.0000 </r>
       <r>  -16.0186    1.0000 </r>
       <r>  -15.9586    1.0000 </r>
       <r>  -15.8820    1.0000 </r>
       <r>  -15.7573    1.0000 </r>
       <r>  -15.6581    1.0000 </r>
       <r>  -15.6054    1.0000 </r>
       <r>  -15.4903    1.0000 </r>
       <r>  -15.3586    1.0000 </r>
       <r>  -15.2431    1.0000 </r>
       <r>   -9.6782    1.0000 </r>
       <r>   -9.6249    1.0000 </r>
       <r>   -9.4026    1.0000 </r>
       <r>   -8.9745    1.0000 </r>
       <r>   -8.7984    1.0000 </r>
       <r>   -8.5553    1.0000 </r>
       <r>   -8.5010    1.0000 </r>
       <r>   -8.4589    1.0000 </r>
       <r>   -8.4313    1.0000 </r>
       <r>   -8.3519    1.0000 </r>
       <r>   -8.2976    1.0000 </r>
       <r>   -8.2537    1.0000 </r>
       <r>   -8.2099    1.0000 </r>
       <r>   -8.1369    1.0000 </r>
       <r>   -8.0265    1.0000 </r>
       <r>   -7.9287    1.0000 </r>
       <r>   -7.8247    1.0000 </r>
       <r>   -7.7110    1.0000 </r>
       <r>   -7.5852    1.0000 </r>
       <r>   -7.4999    1.0000 </r>
       <r>   -7.3182    1.0000 </r>
       <r>   -7.2472    1.0000 </r>
       <r>   -7.1355    1.0000 </r>
       <r>   -7.0872    1.0000 </r>
       <r>   -7.0202    1.0000 </r>
       <r>   -6.9409    1.0000 </r>
       <r>   -6.8832    1.0000 </r>
       <r>   -6.7979    1.0000 </r>
       <r>   -6.6687    1.0000 </r>
       <r>   -6.5652    1.0000 </r>
       <r>   -6.4782    1.0000 </r>
       <r>   -6.4380    1.0000 </r>
       <r>   -6.3938    1.0000 </r>
       <r>   -6.3310    1.0000 </r>
       <r>   -6.2910    1.0000 </r>
       <r>   -6.2083    1.0000 </r>
       <r>   -6.1402    1.0000 </r>
       <r>   -6.0466    1.0000 </r>
       <r>   -5.9843    1.0000 </r>
       <r>   -5.8669    1.0000 </r>
       <r>   -5.8103    1.0000 </r>
       <r>   -5.7082    1.0000 </r>
       <r>   -5.6312    1.0000 </r>
       <r>   -5.5851    1.0000 </r>
       <r>   -5.4529    1.0000 </r>
       <r>   -5.4297    1.0000 </r>
       <r>   -5.3679    1.0000 </r>
       <r>   -5.2006    1.0000 </r>
       <r>   -5.1542    1.0000 </r>
       <r>   -4.8527    1.0000 </r>
       <r>   -4.7604    1.0000 </r>
       <r>   -4.6961    1.0000 </r>
       <r>   -4.4993    1.0000 </r>
       <r>   -4.4457    1.0000 </r>
       <r>   -4.3628    1.0000 </r>
       <r>   -4.2675    1.0000 </r>
       <r>   -4.1948    1.0000 </r>
       <r>   -4.0397    1.0000 </r>
       <r>   -4.0028    1.0000 </r>
       <r>   -3.6578    0.9990 </r>
       <r>   -3.5298    0.9856 </r>
       <r>   -3.1647    0.3467 </r>
       <r>   -2.9092    0.0139 </r>
       <r>   -2.8091    0.0018 </r>
       <r>   -2.7358    0.0003 </r>
       <r>   -2.5350    0.0000 </r>
       <r>   -2.4887    0.0000 </r>
       <r>   -2.3757    0.0000 </r>
       <r>   -2.1331    0.0000 </r>
       <r>   -2.0653    0.0000 </r>
       <r>   -2.0088    0.0000 </r>
       <r>   -1.9820    0.0000 </r>
       <r>   -1.6818    0.0000 </r>
       <r>   -1.5248    0.0000 </r>
       <r>   -1.4363    0.0000 </r>
       <r>   -1.3595    0.0000 </r>
       <r>   -1.2623    0.0000 </r>
       <r>   -1.2295    0.0000 </r>
       <r>   -1.0723    0.0000 </r>
       <r>   -1.0189    0.0000 </r>
       <r>   -0.9570    0.0000 </r>
       <r>   -0.8586    0.0000 </r>
       <r>   -0.8305    0.0000 </r>
       <r>   -0.7281    0.0000 </r>
       <r>   -0.6904    0.0000 </r>
       <r>   -0.6003    0.0000 </r>
       <r>   -0.4449    0.0000 </r>
       <r>   -0.2924    0.0000 </r>
       <r>   -0.1764    0.0000 </r>
       <r>   -0.0669    0.0000 </r>
       <r>    0.0025    0.0000 </r>
       <r>    0.1280    0.0000 </r>
       <r>    0.4105    0.0000 </r>
       <r>    0.6093    0.0000 </r>
       <r>    0.7691    0.0000 </r>
       <r>    0.9066    0.0000 </r>
       <r>    1.1276    0.0000 </r>
       <r>    1.2432    0.0000 </r>
       <r>    1.4378    0.0000 </r>
       <r>    2.1061    0.0000 </r>
       <r>    2.2802    0.0000 </r>
       <r>    2.5797    0.0000 </r>
      </set>
      <set comment="kpoint 33">
       <r>  -17.5330    1.0000 </r>
       <r>  -17.2889    1.0000 </r>
       <r>  -16.9143    1.0000 </r>
       <r>  -16.7110    1.0000 </r>
       <r>  -16.4875    1.0000 </r>
       <r>  -16.4283    1.0000 </r>
       <r>  -16.3465    1.0000 </r>
       <r>  -16.2275    1.0000 </r>
       <r>  -16.0880    1.0000 </r>
       <r>  -15.9900    1.0000 </r>
       <r>  -15.9512    1.0000 </r>
       <r>  -15.8715    1.0000 </r>
       <r>  -15.7665    1.0000 </r>
       <r>  -15.6631    1.0000 </r>
       <r>  -15.6321    1.0000 </r>
       <r>  -15.5384    1.0000 </r>
       <r>  -15.3189    1.0000 </r>
       <r>  -15.2390    1.0000 </r>
       <r>   -9.7940    1.0000 </r>
       <r>   -9.5074    1.0000 </r>
       <r>   -9.2939    1.0000 </r>
       <r>   -8.9830    1.0000 </r>
       <r>   -8.9518    1.0000 </r>
       <r>   -8.6629    1.0000 </r>
       <r>   -8.5300    1.0000 </r>
       <r>   -8.4586    1.0000 </r>
       <r>   -8.3829    1.0000 </r>
       <r>   -8.3190    1.0000 </r>
       <r>   -8.2858    1.0000 </r>
       <r>   -8.2550    1.0000 </r>
       <r>   -8.1625    1.0000 </r>
       <r>   -8.0982    1.0000 </r>
       <r>   -8.0425    1.0000 </r>
       <r>   -7.8833    1.0000 </r>
       <r>   -7.7940    1.0000 </r>
       <r>   -7.6773    1.0000 </r>
       <r>   -7.6224    1.0000 </r>
       <r>   -7.4320    1.0000 </r>
       <r>   -7.3062    1.0000 </r>
       <r>   -7.2486    1.0000 </r>
       <r>   -7.1539    1.0000 </r>
       <r>   -7.0958    1.0000 </r>
       <r>   -7.0491    1.0000 </r>
       <r>   -6.9114    1.0000 </r>
       <r>   -6.8236    1.0000 </r>
       <r>   -6.7786    1.0000 </r>
       <r>   -6.6444    1.0000 </r>
       <r>   -6.6049    1.0000 </r>
       <r>   -6.5175    1.0000 </r>
       <r>   -6.4683    1.0000 </r>
       <r>   -6.4436    1.0000 </r>
       <r>   -6.3661    1.0000 </r>
       <r>   -6.2699    1.0000 </r>
       <r>   -6.1926    1.0000 </r>
       <r>   -6.1221    1.0000 </r>
       <r>   -6.0888    1.0000 </r>
       <r>   -6.0112    1.0000 </r>
       <r>   -5.9071    1.0000 </r>
       <r>   -5.8538    1.0000 </r>
       <r>   -5.7283    1.0000 </r>
       <r>   -5.6913    1.0000 </r>
       <r>   -5.5869    1.0000 </r>
       <r>   -5.4954    1.0000 </r>
       <r>   -5.4127    1.0000 </r>
       <r>   -5.2960    1.0000 </r>
       <r>   -5.1980    1.0000 </r>
       <r>   -5.1043    1.0000 </r>
       <r>   -4.8299    1.0000 </r>
       <r>   -4.7946    1.0000 </r>
       <r>   -4.5974    1.0000 </r>
       <r>   -4.5881    1.0000 </r>
       <r>   -4.4349    1.0000 </r>
       <r>   -4.3372    1.0000 </r>
       <r>   -4.2325    1.0000 </r>
       <r>   -4.1438    1.0000 </r>
       <r>   -4.1094    1.0000 </r>
       <r>   -4.0299    1.0000 </r>
       <r>   -3.6852    0.9995 </r>
       <r>   -3.5355    0.9870 </r>
       <r>   -3.1087    0.2146 </r>
       <r>   -2.9612    0.0334 </r>
       <r>   -2.7827    0.0010 </r>
       <r>   -2.6884    0.0001 </r>
       <r>   -2.5401    0.0000 </r>
       <r>   -2.4589    0.0000 </r>
       <r>   -2.3677    0.0000 </r>
       <r>   -2.0820    0.0000 </r>
       <r>   -2.0249    0.0000 </r>
       <r>   -1.9979    0.0000 </r>
       <r>   -1.8857    0.0000 </r>
       <r>   -1.6910    0.0000 </r>
       <r>   -1.5800    0.0000 </r>
       <r>   -1.5096    0.0000 </r>
       <r>   -1.4077    0.0000 </r>
       <r>   -1.3017    0.0000 </r>
       <r>   -1.2191    0.0000 </r>
       <r>   -1.0728    0.0000 </r>
       <r>   -1.0520    0.0000 </r>
       <r>   -0.9674    0.0000 </r>
       <r>   -0.8923    0.0000 </r>
       <r>   -0.8414    0.0000 </r>
       <r>   -0.6983    0.0000 </r>
       <r>   -0.6523    0.0000 </r>
       <r>   -0.6196    0.0000 </r>
       <r>   -0.4299    0.0000 </r>
       <r>   -0.2813    0.0000 </r>
       <r>   -0.1533    0.0000 </r>
       <r>   -0.0215    0.0000 </r>
       <r>    0.0263    0.0000 </r>
       <r>    0.1198    0.0000 </r>
       <r>    0.4216    0.0000 </r>
       <r>    0.7137    0.0000 </r>
       <r>    0.8136    0.0000 </r>
       <r>    0.8825    0.0000 </r>
       <r>    1.0801    0.0000 </r>
       <r>    1.2325    0.0000 </r>
       <r>    1.2925    0.0000 </r>
       <r>    2.1299    0.0000 </r>
       <r>    2.3170    0.0000 </r>
       <r>    2.3859    0.0000 </r>
      </set>
      <set comment="kpoint 34">
       <r>  -17.5055    1.0000 </r>
       <r>  -17.3589    1.0000 </r>
       <r>  -16.7595    1.0000 </r>
       <r>  -16.6790    1.0000 </r>
       <r>  -16.6728    1.0000 </r>
       <r>  -16.4365    1.0000 </r>
       <r>  -16.3312    1.0000 </r>
       <r>  -16.2412    1.0000 </r>
       <r>  -16.0439    1.0000 </r>
       <r>  -15.9957    1.0000 </r>
       <r>  -15.9370    1.0000 </r>
       <r>  -15.8466    1.0000 </r>
       <r>  -15.7232    1.0000 </r>
       <r>  -15.7085    1.0000 </r>
       <r>  -15.6552    1.0000 </r>
       <r>  -15.5572    1.0000 </r>
       <r>  -15.2895    1.0000 </r>
       <r>  -15.2548    1.0000 </r>
       <r>   -9.8368    1.0000 </r>
       <r>   -9.4163    1.0000 </r>
       <r>   -9.1694    1.0000 </r>
       <r>   -9.1061    1.0000 </r>
       <r>   -8.9551    1.0000 </r>
       <r>   -8.8275    1.0000 </r>
       <r>   -8.5374    1.0000 </r>
       <r>   -8.4616    1.0000 </r>
       <r>   -8.4194    1.0000 </r>
       <r>   -8.3041    1.0000 </r>
       <r>   -8.2773    1.0000 </r>
       <r>   -8.1961    1.0000 </r>
       <r>   -8.1477    1.0000 </r>
       <r>   -8.1069    1.0000 </r>
       <r>   -7.9667    1.0000 </r>
       <r>   -7.8815    1.0000 </r>
       <r>   -7.7769    1.0000 </r>
       <r>   -7.7357    1.0000 </r>
       <r>   -7.5221    1.0000 </r>
       <r>   -7.3548    1.0000 </r>
       <r>   -7.3117    1.0000 </r>
       <r>   -7.2372    1.0000 </r>
       <r>   -7.1271    1.0000 </r>
       <r>   -7.0829    1.0000 </r>
       <r>   -7.0533    1.0000 </r>
       <r>   -7.0437    1.0000 </r>
       <r>   -6.8177    1.0000 </r>
       <r>   -6.7470    1.0000 </r>
       <r>   -6.6170    1.0000 </r>
       <r>   -6.5829    1.0000 </r>
       <r>   -6.5616    1.0000 </r>
       <r>   -6.5327    1.0000 </r>
       <r>   -6.4516    1.0000 </r>
       <r>   -6.3418    1.0000 </r>
       <r>   -6.2595    1.0000 </r>
       <r>   -6.2227    1.0000 </r>
       <r>   -6.1675    1.0000 </r>
       <r>   -6.0735    1.0000 </r>
       <r>   -6.0439    1.0000 </r>
       <r>   -5.8799    1.0000 </r>
       <r>   -5.8413    1.0000 </r>
       <r>   -5.7982    1.0000 </r>
       <r>   -5.7059    1.0000 </r>
       <r>   -5.6108    1.0000 </r>
       <r>   -5.5335    1.0000 </r>
       <r>   -5.4028    1.0000 </r>
       <r>   -5.2768    1.0000 </r>
       <r>   -5.1957    1.0000 </r>
       <r>   -4.9554    1.0000 </r>
       <r>   -4.8682    1.0000 </r>
       <r>   -4.7933    1.0000 </r>
       <r>   -4.6580    1.0000 </r>
       <r>   -4.5176    1.0000 </r>
       <r>   -4.4472    1.0000 </r>
       <r>   -4.3572    1.0000 </r>
       <r>   -4.2303    1.0000 </r>
       <r>   -4.1578    1.0000 </r>
       <r>   -4.0479    1.0000 </r>
       <r>   -4.0248    1.0000 </r>
       <r>   -3.7260    0.9998 </r>
       <r>   -3.5504    0.9902 </r>
       <r>   -3.0942    0.1859 </r>
       <r>   -2.9890    0.0508 </r>
       <r>   -2.7696    0.0007 </r>
       <r>   -2.6607    0.0000 </r>
       <r>   -2.5476    0.0000 </r>
       <r>   -2.4498    0.0000 </r>
       <r>   -2.3619    0.0000 </r>
       <r>   -2.0525    0.0000 </r>
       <r>   -2.0206    0.0000 </r>
       <r>   -1.9763    0.0000 </r>
       <r>   -1.8224    0.0000 </r>
       <r>   -1.7020    0.0000 </r>
       <r>   -1.6237    0.0000 </r>
       <r>   -1.5128    0.0000 </r>
       <r>   -1.4379    0.0000 </r>
       <r>   -1.3321    0.0000 </r>
       <r>   -1.2125    0.0000 </r>
       <r>   -1.0692    0.0000 </r>
       <r>   -1.0605    0.0000 </r>
       <r>   -0.9742    0.0000 </r>
       <r>   -0.9093    0.0000 </r>
       <r>   -0.8569    0.0000 </r>
       <r>   -0.6862    0.0000 </r>
       <r>   -0.6481    0.0000 </r>
       <r>   -0.6247    0.0000 </r>
       <r>   -0.4050    0.0000 </r>
       <r>   -0.2797    0.0000 </r>
       <r>   -0.1649    0.0000 </r>
       <r>    0.0135    0.0000 </r>
       <r>    0.0291    0.0000 </r>
       <r>    0.0972    0.0000 </r>
       <r>    0.4334    0.0000 </r>
       <r>    0.7597    0.0000 </r>
       <r>    0.8286    0.0000 </r>
       <r>    0.9112    0.0000 </r>
       <r>    1.0619    0.0000 </r>
       <r>    1.1963    0.0000 </r>
       <r>    1.2653    0.0000 </r>
       <r>    2.1904    0.0000 </r>
       <r>    2.2570    0.0000 </r>
       <r>    2.4094    0.0000 </r>
      </set>
     </set>
    </set>
   </array>
  </eigenvalues>
  <separator name="orbital magnetization" >
   <v name="MAGDIPOLOUT">      0.00000000      0.00000000      0.00000000</v>
  </separator>
 </calculation>
 <structure name="finalpos" >
  <crystal>
   <varray name="basis" >
    <v>       8.33569798       4.79308565       0.00000000 </v>
    <v>      -8.34093222       4.80223176       0.00000000 </v>
    <v>       0.00000000       0.00000000      30.00000000 </v>
   </varray>
   <i name="volume">   2400.26268224 </i>
   <varray name="rec_basis" >
    <v>       0.06002133       0.10425024       0.00000000 </v>
    <v>      -0.05990701       0.10418482       0.00000000 </v>
    <v>       0.00000000       0.00000000       0.03333333 </v>
   </varray>
  </crystal>
  <varray name="positions" >
   <v>       1.01987093       0.31439454       0.00280178 </v>
   <v>       0.65071639       0.34977547      -0.00164160 </v>
   <v>       0.31405285       0.02070374      -0.00272585 </v>
   <v>       0.66589407       0.67100993      -0.00025746 </v>
   <v>       0.35039349       0.35423117      -0.00011643 </v>
   <v>      -0.02005140      -0.02039468      -0.00007589 </v>
   <v>      -0.02081823       0.68160584      -0.00144829 </v>
   <v>       0.35543058       0.65217508       0.00181577 </v>
   <v>       0.68130442      -0.02037366       0.00155031 </v>
   <v>       0.11270637       0.22022602       0.94968129 </v>
   <v>       0.22008476       0.11357071       0.04999861 </v>
   <v>       0.10929654       0.55135504       0.95727434 </v>
   <v>       0.22354641       0.44269034       0.05561957 </v>
   <v>       0.11022762       0.89147226       0.94478182 </v>
   <v>       0.22505917       0.78275041       0.04297187 </v>
   <v>       0.44681320       0.22531360       0.94621079 </v>
   <v>       0.55221075       0.11123922       0.04229681 </v>
   <v>       0.44865563       0.55700220       0.94366060 </v>
   <v>       0.55949589       0.44451462       0.05383704 </v>
   <v>       0.44215265       0.89075886       0.95512996 </v>
   <v>       0.55712851       0.77636869       0.05737299 </v>
   <v>       0.78149919       0.22476496       0.95776792 </v>
   <v>       0.89127632       0.11065813       0.05516842 </v>
   <v>       0.77341461       0.55117389       0.94506579 </v>
   <v>       0.88748571       0.44045603       0.04369464 </v>
   <v>       0.77675433       0.88484138       0.94344533 </v>
   <v>       0.88361369       0.77593071       0.05611977 </v>
  </varray>
 </structure>
</modeling>
