unknown system                          
           1
     8.859803    5.103054    0.000000
    -8.859671    5.102828    0.000000
     0.000000    0.000000   30.000000
   V    Mo   W    S 
   3   3   3  18
Direct configuration=     1
   1.00000000  0.33333334  0.00000000
   0.66666669  0.33333334  0.00000000
   0.33333334  0.00000000  0.00000000
   0.66666669  0.66666669  0.00000000
   0.33333334  0.33333334  0.00000000
   0.00000000  0.00000000  0.00000000
   0.00000000  0.66666669  0.00000000
   0.33333334  0.66666669  0.00000000
   0.66666669  0.00000000  0.00000000
   0.11068511  0.22244981  0.95539999
   0.22244981  0.11068511  0.04460000
   0.11068511  0.55578315  0.95539999
   0.22244981  0.44401845  0.04460000
   0.11068511  0.88911647  0.95539999
   0.22244981  0.77735180  0.04460000
   0.44401845  0.22244981  0.95539999
   0.55578315  0.11068511  0.04460000
   0.44401845  0.55578315  0.95539999
   0.55578315  0.44401845  0.04460000
   0.44401845  0.88911647  0.95539999
   0.55578315  0.77735180  0.04460000
   0.77735180  0.22244981  0.95539999
   0.88911647  0.11068511  0.04460000
   0.77735180  0.55578315  0.95539999
   0.88911647  0.44401845  0.04460000
   0.77735180  0.88911647  0.95539999
   0.88911647  0.77735180  0.04460000
unknown system                          
           1
     8.670806    4.997024    0.000000
    -8.670618    4.996700    0.000000
     0.000000    0.000000   30.000000
   V    Mo   W    S 
   3   3   3  18
Direct configuration=     2
   1.00080077  0.33213251  0.00013324
   0.66557134  0.33421284  0.00001362
   0.33245419  0.00151815 -0.00014263
   0.66656444  0.66664240  0.00003097
   0.33340684  0.33314041 -0.00003079
   0.00008256  0.00002454 -0.00018618
  -0.00181021  0.66768849  0.00005489
   0.33484497  0.66511849  0.00019309
   0.66817419 -0.00074032 -0.00000023
   0.10860360  0.22443016  0.95201543
   0.22455163  0.10869774  0.04798915
   0.10923595  0.55177735  0.95200089
   0.21796183  0.44314955  0.04812378
   0.11514718  0.89015440  0.95185666
   0.22390867  0.78131529  0.04800461
   0.44645172  0.21982286  0.95300988
   0.55368068  0.11273805  0.04690368
   0.44402348  0.55592026  0.95071977
   0.55788203  0.44200294  0.04798809
   0.44226434  0.89092121  0.95201103
   0.55490513  0.77801950  0.04932102
   0.77917692  0.22559778  0.95315396
   0.89006043  0.11521322  0.04809491
   0.77644092  0.55146482  0.95191017
   0.88737242  0.44085317  0.04686265
   0.77730108  0.88925511  0.95071690
   0.88915735  0.77714354  0.04925135
unknown system                          
           1
     8.487600    4.897643    0.000000
    -8.488160    4.898616    0.000000
     0.000000    0.000000   30.000000
   V    Mo   W    S 
   3   3   3  18
Direct configuration=     3
   1.00111188  0.33181679  0.00009378
   0.66529176  0.33451121  0.00006219
   0.33207228  0.00191560 -0.00011276
   0.66650017  0.66695582  0.00003844
   0.33340756  0.33340123 -0.00002884
  -0.00012481 -0.00029169 -0.00020898
  -0.00236478  0.66821811  0.00010510
   0.33559083  0.66466626  0.00015407
   0.66852511 -0.00140983 -0.00005882
   0.10854044  0.22448645  0.95197150
   0.22461132  0.10865322  0.04801536
   0.10928126  0.55193970  0.95216949
   0.21795374  0.44328362  0.04818219
   0.11514180  0.89001475  0.95179918
   0.22385811  0.78115223  0.04785627
   0.44648795  0.21979407  0.95299978
   0.55380077  0.11264320  0.04675057
   0.44389701  0.55606155  0.95064375
   0.55793470  0.44191621  0.04802907
   0.44236219  0.89082576  0.95213409
   0.55481434  0.77809318  0.04940975
   0.77910854  0.22540910  0.95328754
   0.88992622  0.11522524  0.04812975
   0.77659429  0.55147352  0.95187757
   0.88742711  0.44104380  0.04674956
   0.77717308  0.88939586  0.95062342
   0.88929158  0.77701949  0.04932686
unknown system                          
           1
     8.287042    4.773979    0.000000
    -8.288459    4.776436    0.000000
     0.000000    0.000000   30.000000
   V    Mo   W    S 
   3   3   3  18
Direct configuration=     4
   1.00254769  0.33071017 -0.00009280
   0.66442449  0.33581283  0.00023478
   0.33020517  0.00302445  0.00005881
   0.66616177  0.66867309  0.00004975
   0.33329520  0.33488934  0.00000470
  -0.00125085 -0.00201315 -0.00020645
  -0.00425571  0.67052562  0.00023555
   0.33884381  0.66311587 -0.00004334
   0.66948055 -0.00473353 -0.00023108
   0.10803260  0.22503777  0.95039287
   0.22514894  0.10821360  0.04949946
   0.10873790  0.55130164  0.95142331
   0.21682524  0.44253002  0.04991737
   0.11624794  0.89066671  0.95006915
   0.22443673  0.78188381  0.04868371
   0.44699119  0.21939869  0.95162714
   0.55358027  0.11295359  0.04746056
   0.44392687  0.55603403  0.94871078
   0.55842802  0.44126593  0.04959265
   0.44197935  0.89117790  0.95116643
   0.55494722  0.77806499  0.05145197
   0.77954758  0.22623913  0.95247934
   0.89062592  0.11630914  0.04973345
   0.77592804  0.55039733  0.95027697
   0.88690328  0.44021208  0.04764035
   0.77719042  0.88941948  0.94860750
   0.88928481  0.77710393  0.05125694
unknown system                          
           1
     8.292091    4.770691    0.000000
    -8.295322    4.776294    0.000000
     0.000000    0.000000   30.000000
   V    Mo   W    S 
   3   3   3  18
Direct configuration=     5
   1.00529744  0.32836944 -0.00041674
   0.66303773  0.33836560  0.00043729
   0.32593879  0.00531050  0.00035913
   0.66551072  0.67247913  0.00000287
   0.33296781  0.33796773  0.00006975
  -0.00357564 -0.00573528 -0.00009574
  -0.00846805  0.67521033  0.00023691
   0.34596327  0.66006198 -0.00021540
   0.67126904 -0.01128085 -0.00030848
   0.10782721  0.22502991  0.94828897
   0.22533583  0.10835109  0.05146305
   0.10847060  0.55129250  0.95096274
   0.21602986  0.44177157  0.05234812
   0.11712153  0.89164577  0.94760306
   0.22502687  0.78211632  0.04931502
   0.44730023  0.21942837  0.94966845
   0.55369805  0.11292539  0.04814617
   0.44475065  0.55537990  0.94587719
   0.55864980  0.44109300  0.05168014
   0.44180940  0.89135380  0.95016977
   0.55536784  0.77776739  0.05440979
   0.77978169  0.22648196  0.95165244
   0.89133273  0.11684849  0.05178049
   0.77493895  0.54974757  0.94821646
   0.88646385  0.43968941  0.04869358
   0.77783656  0.88897838  0.94563764
   0.88853169  0.77756507  0.05401723
unknown system                          
           1
     8.294783    4.769368    0.000000
    -8.297797    4.774591    0.000000
     0.000000    0.000000   30.000000
   V    Mo   W    S 
   3   3   3  18
Direct configuration=     6
   1.00630053  0.32690855 -0.00041593
   0.66238331  0.33962325  0.00048143
   0.32401274  0.00676870  0.00029406
   0.66566864  0.67301124 -0.00011447
   0.33325225  0.33868712 -0.00001392
  -0.00421324 -0.00665133 -0.00011153
  -0.01026994  0.67669539  0.00015178
   0.34792054  0.65911302 -0.00005679
   0.67208214 -0.01302226 -0.00026189
   0.10808415  0.22442216  0.94818257
   0.22483697  0.10899178  0.05164173
   0.10910319  0.55246333  0.95150938
   0.21647512  0.44201588  0.05258821
   0.11678129  0.89184632  0.94732255
   0.22496241  0.78120145  0.04878562
   0.44700377  0.21969493  0.94957281
   0.55394629  0.11233265  0.04780084
   0.44556923  0.55497078  0.94544145
   0.55837437  0.44165076  0.05180462
   0.44200257  0.89088221  0.95049696
   0.55556310  0.77756300  0.05488436
   0.77948519  0.22556136  0.95191186
   0.89123268  0.11629758  0.05194128
   0.77470771  0.55028937  0.94803545
   0.88687852  0.44039512  0.04846262
   0.77831831  0.88878194  0.94523749
   0.88775261  0.77772016  0.05442738
unknown system                          
           1
     8.306204    4.767813    0.000000
    -8.309821    4.774075    0.000000
     0.000000    0.000000   30.000000
   V    Mo   W    S 
   3   3   3  18
Direct configuration=     7
   1.00740069  0.32503721 -0.00042351
   0.66151938  0.34124144  0.00059313
   0.32194681  0.00850966  0.00028214
   0.66583881  0.67342797 -0.00016896
   0.33374399  0.33955712 -0.00006801
  -0.00508409 -0.00760304 -0.00006198
  -0.01226403  0.67840678  0.00013617
   0.35011462  0.65780186  0.00000028
   0.67322755 -0.01490016 -0.00022434
   0.10831537  0.22394414  0.94805099
   0.22436752  0.10953644  0.05179428
   0.10952859  0.55341588  0.95218578
   0.21682446  0.44204719  0.05283540
   0.11647186  0.89206541  0.94699092
   0.22493988  0.78054895  0.04813782
   0.44681158  0.21984805  0.94942518
   0.55404036  0.11179714  0.04730575
   0.44616828  0.55467422  0.94508626
   0.55813453  0.44204723  0.05193260
   0.44205744  0.89046626  0.95094221
   0.55589468  0.77737308  0.05531692
   0.77929741  0.22483112  0.95229436
   0.89126198  0.11597338  0.05215290
   0.77448170  0.55055445  0.94774977
   0.88728029  0.44105357  0.04809122
   0.77876028  0.88860465  0.94484693
   0.88713451  0.77795447  0.05479571
unknown system                          
           1
     8.319528    4.760332    0.000000
    -8.325043    4.769882    0.000000
     0.000000    0.000000   30.000000
   V    Mo   W    S 
   3   3   3  18
Direct configuration=     8
   1.00858013  0.32278121 -0.00039045
   0.66034924  0.34330402  0.00063683
   0.31973255  0.01046172  0.00018786
   0.66617720  0.67361733 -0.00026744
   0.33462064  0.34048903 -0.00015134
  -0.00623254 -0.00865575 -0.00004913
  -0.01421166  0.68020854 -0.00000721
   0.35211317  0.65643484  0.00018066
   0.67468147 -0.01677014 -0.00012715
   0.10865779  0.22342455  0.94788509
   0.22378315  0.11018666  0.05199187
   0.10987163  0.55432832  0.95299978
   0.21721984  0.44204388  0.05310030
   0.11609900  0.89231770  0.94666203
   0.22496249  0.77997025  0.04735980
   0.44670404  0.21999996  0.94925270
   0.55407944  0.11125159  0.04667401
   0.44688352  0.55426444  0.94466358
   0.55783295  0.44242132  0.05215636
   0.44207280  0.89008508  0.95149919
   0.55623979  0.77715864  0.05575453
   0.77911203  0.22411966  0.95280075
   0.89127627  0.11571462  0.05244677
   0.77426659  0.55067459  0.94743426
   0.88768338  0.44174681  0.04761957
   0.77926487  0.88830128  0.94442111
   0.88639469  0.77833430  0.05526554
unknown system                          
           1
     8.334196    4.766885    0.000000
    -8.341441    4.779454    0.000000
     0.000000    0.000000   30.000000
   V    Mo   W    S 
   3   3   3  18
Direct configuration=     9
   1.01145766  0.31745401 -0.00013788
   0.65728119  0.34786548  0.00060420
   0.31512296  0.01458701 -0.00015440
   0.66703967  0.67377199 -0.00040821
   0.33719668  0.34316257 -0.00032987
  -0.00967993 -0.01127725  0.00006732
  -0.01760513  0.68414573 -0.00031123
   0.35553566  0.65311741  0.00060534
   0.67856238 -0.02007015  0.00021500
   0.10965387  0.22231808  0.94757850
   0.22228142  0.11171378  0.05228341
   0.11020098  0.55585621  0.95503730
   0.21804314  0.44166271  0.05359648
   0.11512251  0.89302969  0.94595653
   0.22507748  0.77911782  0.04544143
   0.44648999  0.22034396  0.94880402
   0.55400006  0.10997633  0.04501086
   0.44825007  0.55343395  0.94394607
   0.55700560  0.44331393  0.05275335
   0.44207863  0.88944429  0.95300147
   0.55716560  0.77661539  0.05654763
   0.77888679  0.22275093  0.95418725
   0.89140823  0.11531909  0.05312074
   0.77383843  0.55074712  0.94665870
   0.88861663  0.44324137  0.04628988
   0.78027548  0.88733680  0.94357362
   0.88490843  0.77923618  0.05606236
unknown system                          
           1
     8.329090    4.769468    0.000000
    -8.337398    4.783911    0.000000
     0.000000    0.000000   30.000000
   V    Mo   W    S 
   3   3   3  18
Direct configuration=    10
   1.01261770  0.31604097  0.00008323
   0.65598320  0.34917003  0.00042116
   0.31414234  0.01572759 -0.00039444
   0.66731749  0.67351770 -0.00045554
   0.33878819  0.34457932 -0.00038618
  -0.01128691 -0.01239360  0.00004577
  -0.01824098  0.68489384 -0.00053915
   0.35597613  0.65222742  0.00082654
   0.67977206 -0.02068566  0.00041569
   0.11009346  0.22180992  0.94748957
   0.22160658  0.11231456  0.05233358
   0.11006002  0.55598470  0.95572459
   0.21824485  0.44134512  0.05382827
   0.11462251  0.89334288  0.94570652
   0.22522103  0.77909839  0.04481655
   0.44653425  0.22062302  0.94857704
   0.55398185  0.10964195  0.04436623
   0.44869052  0.55321690  0.94372428
   0.55669483  0.44365295  0.05304509
   0.44209735  0.88941655  0.95357935
   0.55744085  0.77641768  0.05677146
   0.77886037  0.22257737  0.95475511
   0.89151726  0.11517779  0.05347358
   0.77374127  0.55065635  0.94640689
   0.88879558  0.44348046  0.04574310
   0.78054348  0.88684318  0.94331708
   0.88439915  0.77953708  0.05632455
unknown system                          
           1
     8.334782    4.774970    0.000000
    -8.343241    4.789684    0.000000
     0.000000    0.000000   30.000000
   V    Mo   W    S 
   3   3   3  18
Direct configuration=    11
   1.01352408  0.31561055  0.00032081
   0.65497527  0.34952420  0.00017943
   0.31403901  0.01627319 -0.00056857
   0.66737919  0.67315683 -0.00043128
   0.34045766  0.34599840 -0.00037796
  -0.01264599 -0.01340218  0.00003078
  -0.01831074  0.68494714 -0.00065378
   0.35576642  0.65182999  0.00097093
   0.68039984 -0.02062858  0.00057630
   0.11044626  0.22147164  0.94758949
   0.22117276  0.11260433  0.05213498
   0.10981536  0.55561901  0.95610271
   0.21842429  0.44108152  0.05396761
   0.11415311  0.89351356  0.94560157
   0.22531771  0.77940186  0.04446729
   0.44662027  0.22097163  0.94838754
   0.55395908  0.10962035  0.04390730
   0.44880304  0.55333138  0.94372244
   0.55654703  0.44388190  0.05320893
   0.44215632  0.88953124  0.95399411
   0.55750889  0.77627780  0.05677969
   0.77892557  0.22274834  0.95522020
   0.89158597  0.11496492  0.05369895
   0.77376984  0.55056363  0.94628295
   0.88870334  0.44333740  0.04530685
   0.78043293  0.88642883  0.94330029
   0.88428796  0.77955558  0.05628034
unknown system                          
           1
     8.336410    4.782501    0.000000
    -8.344859    4.797220    0.000000
     0.000000    0.000000   30.000000
   V    Mo   W    S 
   3   3   3  18
Direct configuration=    12
   1.01429152  0.31538871  0.00051303
   0.65422927  0.34961200 -0.00003284
   0.31405112  0.01668743 -0.00071722
   0.66725985  0.67275728 -0.00041168
   0.34184693  0.34721691 -0.00035589
  -0.01368698 -0.01417591  0.00000461
  -0.01844194  0.68485423 -0.00075867
   0.35558394  0.65156662  0.00107252
   0.68082755 -0.02051397  0.00069329
   0.11070750  0.22128527  0.94774637
   0.22092588  0.11275847  0.05192659
   0.10965410  0.55518487  0.95627289
   0.21860113  0.44096270  0.05411518
   0.11383326  0.89354297  0.94552815
   0.22537036  0.77971145  0.04431270
   0.44667017  0.22125713  0.94818469
   0.55392042  0.10974301  0.04365605
   0.44884628  0.55358858  0.94370629
   0.55658004  0.44403809  0.05334703
   0.44215377  0.88964406  0.95421928
   0.55746240  0.77620598  0.05680913
   0.77903106  0.22300170  0.95553608
   0.89163140  0.11476820  0.05386871
   0.77385253  0.55052389  0.94616601
   0.88856862  0.44306171  0.04504017
   0.78017882  0.88611812  0.94329580
   0.88426546  0.77942496  0.05626166
unknown system                          
           1
     8.339933    4.787445    0.000000
    -8.347096    4.799930    0.000000
     0.000000    0.000000   30.000000
   V    Mo   W    S 
   3   3   3  18
Direct configuration=    13
   1.01678893  0.31452072  0.00113444
   0.65180931  0.35004657 -0.00065498
   0.31383595  0.01824476 -0.00120374
   0.66682868  0.67158518 -0.00034143
   0.34643624  0.35123655 -0.00028156
  -0.01713240 -0.01691005 -0.00006018
  -0.01909736  0.68464521 -0.00105222
   0.35526919  0.65072911  0.00140173
   0.68216201 -0.02043944  0.00104195
   0.11162854  0.22069384  0.94829733
   0.22017341  0.11328734  0.05122187
   0.10929417  0.55396867  0.95688055
   0.21939071  0.44075165  0.05456679
   0.11277245  0.89355041  0.94532126
   0.22541190  0.78057042  0.04371621
   0.44672603  0.22222902  0.94755919
   0.55378987  0.11011891  0.04282754
   0.44902107  0.55446687  0.94363658
   0.55679703  0.44450179  0.05372600
   0.44219586  0.88987555  0.95498675
   0.55731567  0.77599948  0.05689888
   0.77937857  0.22365284  0.95659311
   0.89172505  0.11397569  0.05436096
   0.77409217  0.55051065  0.94579667
   0.88817537  0.44232631  0.04414952
   0.77929370  0.88515820  0.94328889
   0.88413234  0.77891820  0.05618779
unknown system                          
           1
     8.339467    4.791017    0.000000
    -8.345610    4.801735    0.000000
     0.000000    0.000000   30.000000
   V    Mo   W    S 
   3   3   3  18
Direct configuration=    14
   1.01739041  0.31450868  0.00136760
   0.65136620  0.35000908 -0.00082769
   0.31384376  0.01874193 -0.00139964
   0.66659984  0.67126535 -0.00032429
   0.34758832  0.35202481 -0.00025276
  -0.01781793 -0.01763980 -0.00007780
  -0.01936447  0.68414199 -0.00111362
   0.35525011  0.65093614  0.00147633
   0.68202157 -0.02047556  0.00112638
   0.11207860  0.22053123  0.94854319
   0.22006975  0.11350014  0.05095289
   0.10930171  0.55354158  0.95695916
   0.21997033  0.44091902  0.05477943
   0.11244931  0.89340119  0.94524281
   0.22531912  0.78087933  0.04357945
   0.44662841  0.22268610  0.94730437
   0.55367206  0.11039281  0.04268581
   0.44912201  0.55502329  0.94355293
   0.55723077  0.44464172  0.05385134
   0.44218234  0.88993289  0.95511682
   0.55722256  0.77601594  0.05699055
   0.77957344  0.22389010  0.95688068
   0.89171661  0.11347744  0.05452216
   0.77409058  0.55058280  0.94563549
   0.88797374  0.44198888  0.04395640
   0.77873025  0.88483761  0.94325353
   0.88400505  0.77845979  0.05621838
unknown system                          
           1
     8.341067    4.792584    0.000000
    -8.346813    4.802613    0.000000
     0.000000    0.000000   30.000000
   V    Mo   W    S 
   3   3   3  18
Direct configuration=    15
   1.01856179  0.31427073  0.00177464
   0.65051500  0.35007179 -0.00114704
   0.31388074  0.01955340 -0.00176206
   0.66628583  0.67082834 -0.00029597
   0.34952312  0.35366614 -0.00020448
  -0.01929828 -0.01896572 -0.00011029
  -0.01989193  0.68354002 -0.00124901
   0.35523797  0.65091119  0.00162396
   0.68220738 -0.02050958  0.00129463
   0.11266488  0.22030008  0.94896870
   0.21980688  0.11383196  0.05054163
   0.10926797  0.55280656  0.95715930
   0.22085550  0.44115649  0.05503089
   0.11183106  0.89308602  0.94514045
   0.22519953  0.78140346  0.04331615
   0.44658110  0.22342891  0.94692152
   0.55344567  0.11076155  0.04240527
   0.44917690  0.55579845  0.94353281
   0.55782286  0.44483498  0.05400237
   0.44216018  0.89008748  0.95535656
   0.55709562  0.77601500  0.05707800
   0.77993714  0.22425296  0.95738317
   0.89167881  0.11272267  0.05472700
   0.77412435  0.55070566  0.94542670
   0.88772578  0.44145350  0.04361307
   0.77796175  0.88442411  0.94328757
   0.88385682  0.77777830  0.05618436
unknown system                          
           1
     8.339262    4.792280    0.000000
    -8.344840    4.802019    0.000000
     0.000000    0.000000   30.000000
   V    Mo   W    S 
   3   3   3  18
Direct configuration=    16
   1.01865202  0.31433533  0.00187926
   0.65066867  0.35001738 -0.00118149
   0.31396162  0.01966705 -0.00185793
   0.66626434  0.67091624 -0.00028291
   0.34934645  0.35350265 -0.00018705
  -0.01924608 -0.01898768 -0.00010003
  -0.02000223  0.68321415 -0.00126173
   0.35525748  0.65115097  0.00163410
   0.68197575 -0.02049317  0.00131203
   0.11273937  0.22030602  0.94906329
   0.21984828  0.11385836  0.05047963
   0.10931055  0.55263277  0.95714026
   0.22118865  0.44134836  0.05508642
   0.11166998  0.89285219  0.94510599
   0.22514185  0.78152571  0.04329917
   0.44658758  0.22366251  0.94683720
   0.55330821  0.11086538  0.04243811
   0.44915661  0.55600390  0.94353893
   0.55811720  0.44481845  0.05397871
   0.44214212  0.89015184  0.95529946
   0.55708454  0.77606284  0.05712036
   0.78011280  0.22430035  0.95740947
   0.89163914  0.11247777  0.05475624
   0.77404054  0.55077345  0.94537738
   0.88770040  0.44130549  0.04364039
   0.77775226  0.88444670  0.94329562
   0.88379635  0.77749942  0.05617901
unknown system                          
           1
     8.339666    4.792822    0.000000
    -8.345296    4.802651    0.000000
     0.000000    0.000000   30.000000
   V    Mo   W    S 
   3   3   3  18
Direct configuration=    17
   1.01876588  0.31438562  0.00197464
   0.65071312  0.34995603 -0.00122475
   0.31398229  0.01977240 -0.00194971
   0.66622851  0.67099726 -0.00028000
   0.34941823  0.35359089 -0.00018145
  -0.01934704 -0.01918048 -0.00010390
  -0.02007657  0.68305972 -0.00128126
   0.35531299  0.65127050  0.00164698
   0.68186088 -0.02052155  0.00133259
   0.11278800  0.22028326  0.94913002
   0.21986363  0.11385414  0.05042446
   0.10933996  0.55251375  0.95714522
   0.22144767  0.44150042  0.05512705
   0.11152934  0.89269484  0.94509433
   0.22510076  0.78163105  0.04326877
   0.44657145  0.22381408  0.94678298
   0.55319318  0.11090541  0.04243932
   0.44910873  0.55612261  0.94357055
   0.55825928  0.44480388  0.05396054
   0.44214074  0.89020322  0.95528071
   0.55707732  0.77608924  0.05713461
   0.78024258  0.22431026  0.95744250
   0.89158318  0.11227333  0.05478137
   0.77400589  0.55085173  0.94535195
   0.88769397  0.44122694  0.04364840
   0.77762834  0.88447808  0.94332413
   0.88378213  0.77732784  0.05615985
unknown system                          
           1
     8.338083    4.792321    0.000000
    -8.343709    4.802145    0.000000
     0.000000    0.000000   30.000000
   V    Mo   W    S 
   3   3   3  18
Direct configuration=    18
   1.01893881  0.31438872  0.00208638
   0.65072511  0.34991504 -0.00127955
   0.31400659  0.01993631 -0.00205420
   0.66618822  0.67101143 -0.00027490
   0.34951732  0.35363199 -0.00016855
  -0.01939799 -0.01930185 -0.00009939
  -0.02017099  0.68282180 -0.00130761
   0.35529830  0.65141532  0.00167267
   0.68175457 -0.02048942  0.00136612
   0.11278167  0.22028102  0.94921963
   0.21989319  0.11381265  0.05035657
   0.10934848  0.55232979  0.95715191
   0.22172577  0.44167397  0.05518924
   0.11137762  0.89251244  0.94505523
   0.22508846  0.78179313  0.04323318
   0.44660164  0.22401953  0.94671245
   0.55303850  0.11097293  0.04243332
   0.44906832  0.55627381  0.94358213
   0.55846938  0.44475669  0.05392969
   0.44212138  0.89029175  0.95524786
   0.55707637  0.77613173  0.05717308
   0.78042951  0.22437878  0.95748617
   0.89153616  0.11205094  0.05482225
   0.77391169  0.55089796  0.94531656
   0.88766504  0.44107890  0.04365780
   0.77747845  0.88452314  0.94333525
   0.88374289  0.77710593  0.05615660
unknown system                          
           1
     8.337230    4.792382    0.000000
    -8.342805    4.802118    0.000000
     0.000000    0.000000   30.000000
   V    Mo   W    S 
   3   3   3  18
Direct configuration=    19
   1.01912736  0.31439485  0.00221404
   0.65074950  0.34985818 -0.00134077
   0.31404410  0.02005347 -0.00217746
   0.66611348  0.67104620 -0.00027244
   0.34963698  0.35379692 -0.00015913
  -0.01956102 -0.01951375 -0.00009746
  -0.02028124  0.68261150 -0.00132671
   0.35532836  0.65153506  0.00168992
   0.68166627 -0.02047150  0.00139034
   0.11278616  0.22027294  0.94930408
   0.21990838  0.11379384  0.05030214
   0.10935288  0.55214925  0.95716957
   0.22203951  0.44185280  0.05525492
   0.11117752  0.89230657  0.94501388
   0.22506400  0.78194771  0.04318996
   0.44662493  0.22424391  0.94662544
   0.55288337  0.11100607  0.04242299
   0.44898978  0.55640516  0.94361355
   0.55865053  0.44472245  0.05390659
   0.44213115  0.89036589  0.95522842
   0.55707664  0.77617214  0.05720160
   0.78063566  0.22442315  0.95753493
   0.89148921  0.11181275  0.05486949
   0.77383940  0.55097874  0.94527553
   0.88766180  0.44097040  0.04366354
   0.77734595  0.88459020  0.94336734
   0.88373380  0.77688954  0.05613560
unknown system                          
           1
     8.334584    4.792865    0.000000
    -8.339796    4.801972    0.000000
     0.000000    0.000000   30.000000
   V    Mo   W    S 
   3   3   3  18
Direct configuration=    20
   1.01930134  0.31443026  0.00236405
   0.65072868  0.34986105 -0.00141687
   0.31405833  0.02024173 -0.00230477
   0.66606171  0.67100266 -0.00026285
   0.34990278  0.35389911 -0.00014097
  -0.01966298 -0.01975101 -0.00008653
  -0.02042697  0.68231509 -0.00136475
   0.35534167  0.65174136  0.00173342
   0.68152991 -0.02045711  0.00144156
   0.11277704  0.22023940  0.94938957
   0.21995307  0.11373211  0.05021761
   0.10934420  0.55195453  0.95718845
   0.22243250  0.44208329  0.05535697
   0.11092911  0.89208490  0.94495227
   0.22506496  0.78214528  0.04313613
   0.44668508  0.22453998  0.94652273
   0.55271554  0.11107605  0.04239391
   0.44891928  0.55655998  0.94361047
   0.55886547  0.44465584  0.05387726
   0.44213194  0.89046484  0.95519632
   0.55708304  0.77623200  0.05724549
   0.78084600  0.22451183  0.95758979
   0.89142052  0.11149820  0.05495084
   0.77371963  0.55101989  0.94522735
   0.88760898  0.44082840  0.04367386
   0.77719150  0.88465384  0.94337267
   0.88369212  0.77665099  0.05613590
unknown system                          
           1
     8.335698    4.793086    0.000000
    -8.340932    4.802232    0.000000
     0.000000    0.000000   30.000000
   V    Mo   W    S 
   3   3   3  18
Direct configuration=    21
   1.01984892  0.31442418  0.00278714
   0.65071412  0.34977441 -0.00164311
   0.31405924  0.02070806 -0.00271304
   0.66590397  0.67101364 -0.00026324
   0.35042891  0.35422403 -0.00012424
  -0.02004485 -0.02042352 -0.00008312
  -0.02081273  0.68161096 -0.00144628
   0.35544117  0.65219213  0.00180906
   0.68127899 -0.02039527  0.00154211
   0.11272426  0.22021327  0.94967480
   0.22008184  0.11357518  0.04999966
   0.10930688  0.55136960  0.95726408
   0.22354772  0.44270221  0.05562689
   0.11023843  0.89147611  0.94478688
   0.22505576  0.78274083  0.04297784
   0.44681584  0.22532079  0.94621987
   0.55221372  0.11124514  0.04230597
   0.44865964  0.55700325  0.94366196
   0.55949486  0.44451415  0.05383946
   0.44214664  0.89075569  0.95512652
   0.55712166  0.77637008  0.05737866
   0.78147858  0.22475448  0.95776136
   0.89126214  0.11064725  0.05517187
   0.77340246  0.55116358  0.94507029
   0.88748093  0.44045492  0.04369920
   0.77675140  0.88484400  0.94344694
   0.88361395  0.77593529  0.05612240
unknown system                          
           1
     8.335698    4.793086    0.000000
    -8.340932    4.802232    0.000000
     0.000000    0.000000   30.000000
   V    Mo   W    S 
   3   3   3  18
Direct configuration=    22
   1.01987093  0.31439454  0.00280178
   0.65071639  0.34977547 -0.00164160
   0.31405285  0.02070374 -0.00272585
   0.66589407  0.67100993 -0.00025746
   0.35039349  0.35423117 -0.00011643
  -0.02005140 -0.02039468 -0.00007589
  -0.02081823  0.68160584 -0.00144829
   0.35543058  0.65217508  0.00181577
   0.68130442 -0.02037366  0.00155031
   0.11270637  0.22022602  0.94968129
   0.22008476  0.11357071  0.04999861
   0.10929654  0.55135504  0.95727434
   0.22354641  0.44269034  0.05561957
   0.11022762  0.89147226  0.94478182
   0.22505917  0.78275041  0.04297187
   0.44681320  0.22531360  0.94621079
   0.55221075  0.11123922  0.04229681
   0.44865563  0.55700220  0.94366060
   0.55949589  0.44451462  0.05383704
   0.44215265  0.89075886  0.95512996
   0.55712851  0.77636869  0.05737299
   0.78149919  0.22476496  0.95776792
   0.89127632  0.11065813  0.05516842
   0.77341461  0.55117389  0.94506579
   0.88748571  0.44045603  0.04369464
   0.77675433  0.88484138  0.94344533
   0.88361369  0.77593071  0.05611977
