   27   27  100    1
  0.9710400E+02  0.1002848E-08  0.1002848E-08  0.3000000E-08  0.5000000E-15
  1.000000000000000E-004
  CAR 
 unknown system                          
    159     34    120
 
  0.0000000E+00  0.0000000E+00  0.0000000E+00  0.1562500E-01
    1      -17.828164   1.000000
    2      -16.632017   1.000000
    3      -16.610491   1.000000
    4      -16.549522   1.000000
    5      -16.467035   1.000000
    6      -16.417491   1.000000
    7      -16.395169   1.000000
    8      -16.349652   1.000000
    9      -16.063198   1.000000
   10      -16.058828   1.000000
   11      -16.037103   1.000000
   12      -15.992384   1.000000
   13      -15.969288   1.000000
   14      -15.888863   1.000000
   15      -15.548757   1.000000
   16      -15.461779   1.000000
   17      -15.425115   1.000000
   18      -15.381679   1.000000
   19       -9.374247   1.000000
   20       -8.914582   1.000000
   21       -8.827208   1.000000
   22       -8.801957   1.000000
   23       -8.759399   1.000000
   24       -8.647845   1.000000
   25       -8.512725   1.000000
   26       -8.503346   1.000000
   27       -8.477955   1.000000
   28       -8.414264   1.000000
   29       -8.399857   1.000000
   30       -8.267227   1.000000
   31       -8.255277   1.000000
   32       -8.211671   1.000000
   33       -8.190516   1.000000
   34       -8.070475   1.000000
   35       -7.849496   1.000000
   36       -7.798374   1.000000
   37       -7.775432   1.000000
   38       -7.604586   1.000000
   39       -7.513990   1.000000
   40       -7.444911   1.000000
   41       -7.306015   1.000000
   42       -7.272465   1.000000
   43       -7.142357   1.000000
   44       -6.841823   1.000000
   45       -6.745675   1.000000
   46       -6.732215   1.000000
   47       -6.708548   1.000000
   48       -6.629941   1.000000
   49       -6.591374   1.000000
   50       -6.562537   1.000000
   51       -6.518392   1.000000
   52       -6.423997   1.000000
   53       -6.313468   1.000000
   54       -6.272655   1.000000
   55       -6.174696   1.000000
   56       -6.141984   1.000000
   57       -6.079857   1.000000
   58       -5.836030   1.000000
   59       -5.693770   1.000000
   60       -5.635636   1.000000
   61       -5.621923   1.000000
   62       -5.339780   1.000000
   63       -5.290215   1.000000
   64       -5.080570   1.000000
   65       -4.897383   1.000000
   66       -4.816682   1.000000
   67       -4.789344   1.000000
   68       -4.736983   1.000000
   69       -4.657890   1.000000
   70       -4.630705   1.000000
   71       -4.570319   1.000000
   72       -4.499482   1.000000
   73       -4.474658   1.000000
   74       -4.320313   1.000000
   75       -4.166076   1.000000
   76       -4.097959   1.000000
   77       -3.534574   0.999816
   78       -3.508428   0.999634
   79       -3.464832   0.998926
   80       -3.042127   0.531835
   81       -3.007405   0.434219
   82       -2.702724   0.010169
   83       -2.615575   0.001661
   84       -2.527177   0.000184
   85       -2.413873   0.000006
   86       -2.405106   0.000005
   87       -2.387167   0.000003
   88       -2.120233   0.000000
   89       -2.024976   0.000000
   90       -1.940524   0.000000
   91       -1.854738   0.000000
   92       -1.757634   0.000000
   93       -1.592887   0.000000
   94       -1.524306   0.000000
   95       -1.500194   0.000000
   96       -1.470834   0.000000
   97       -1.329196   0.000000
   98       -0.985288   0.000000
   99       -0.752825   0.000000
  100       -0.458501   0.000000
  101       -0.415309   0.000000
  102       -0.364552   0.000000
  103       -0.211886   0.000000
  104       -0.047649   0.000000
  105       -0.043780   0.000000
  106        0.183229   0.000000
  107        0.228913   0.000000
  108        0.286608   0.000000
  109        0.308127   0.000000
  110        0.335075   0.000000
  111        0.416294   0.000000
  112        0.753782   0.000000
  113        0.812944   0.000000
  114        0.861841   0.000000
  115        0.887048   0.000000
  116        0.935696   0.000000
  117        0.979716   0.000000
  118        1.683785   0.000000
  119        1.836599   0.000000
  120        2.195979   0.000000
 
  0.1250000E+00  0.2775558E-16  0.0000000E+00  0.3125000E-01
    1      -17.802661   1.000000
    2      -16.737406   1.000000
    3      -16.623957   1.000000
    4      -16.595011   1.000000
    5      -16.510488   1.000000
    6      -16.374289   1.000000
    7      -16.354819   1.000000
    8      -16.292474   1.000000
    9      -16.129756   1.000000
   10      -16.072931   1.000000
   11      -16.013777   1.000000
   12      -15.945955   1.000000
   13      -15.929714   1.000000
   14      -15.814936   1.000000
   15      -15.569204   1.000000
   16      -15.480204   1.000000
   17      -15.433877   1.000000
   18      -15.380952   1.000000
   19       -9.364863   1.000000
   20       -9.123070   1.000000
   21       -8.950202   1.000000
   22       -8.852899   1.000000
   23       -8.760077   1.000000
   24       -8.729060   1.000000
   25       -8.556766   1.000000
   26       -8.521825   1.000000
   27       -8.473023   1.000000
   28       -8.395016   1.000000
   29       -8.368800   1.000000
   30       -8.249022   1.000000
   31       -8.195115   1.000000
   32       -8.140245   1.000000
   33       -8.028664   1.000000
   34       -7.906664   1.000000
   35       -7.797845   1.000000
   36       -7.750171   1.000000
   37       -7.665336   1.000000
   38       -7.600902   1.000000
   39       -7.536940   1.000000
   40       -7.445923   1.000000
   41       -7.279544   1.000000
   42       -7.242627   1.000000
   43       -7.155186   1.000000
   44       -6.910733   1.000000
   45       -6.815087   1.000000
   46       -6.801353   1.000000
   47       -6.720874   1.000000
   48       -6.636162   1.000000
   49       -6.623245   1.000000
   50       -6.563067   1.000000
   51       -6.419159   1.000000
   52       -6.375003   1.000000
   53       -6.341115   1.000000
   54       -6.284425   1.000000
   55       -6.194869   1.000000
   56       -6.171752   1.000000
   57       -6.071390   1.000000
   58       -5.780082   1.000000
   59       -5.728101   1.000000
   60       -5.616045   1.000000
   61       -5.507925   1.000000
   62       -5.318494   1.000000
   63       -5.251774   1.000000
   64       -5.093057   1.000000
   65       -5.033700   1.000000
   66       -4.990575   1.000000
   67       -4.959098   1.000000
   68       -4.905212   1.000000
   69       -4.689897   1.000000
   70       -4.661450   1.000000
   71       -4.613199   1.000000
   72       -4.356163   1.000000
   73       -4.261626   1.000000
   74       -4.220882   1.000000
   75       -4.037917   1.000000
   76       -3.904703   1.000000
   77       -3.739073   1.000000
   78       -3.630088   0.999989
   79       -3.510151   0.999650
   80       -2.951154   0.286584
   81       -2.882227   0.146680
   82       -2.730058   0.016719
   83       -2.658725   0.004254
   84       -2.571943   0.000588
   85       -2.430242   0.000011
   86       -2.388957   0.000003
   87       -2.365407   0.000001
   88       -2.178540   0.000000
   89       -2.119758   0.000000
   90       -1.934970   0.000000
   91       -1.836290   0.000000
   92       -1.734461   0.000000
   93       -1.599871   0.000000
   94       -1.486175   0.000000
   95       -1.458113   0.000000
   96       -1.381513   0.000000
   97       -1.287862   0.000000
   98       -0.968927   0.000000
   99       -0.740451   0.000000
  100       -0.538034   0.000000
  101       -0.453994   0.000000
  102       -0.424180   0.000000
  103       -0.254143   0.000000
  104       -0.123998   0.000000
  105       -0.080419   0.000000
  106       -0.010036   0.000000
  107        0.128891   0.000000
  108        0.162310   0.000000
  109        0.288415   0.000000
  110        0.357513   0.000000
  111        0.550629   0.000000
  112        0.677745   0.000000
  113        0.810773   0.000000
  114        0.895079   0.000000
  115        0.961347   0.000000
  116        1.013441   0.000000
  117        1.147679   0.000000
  118        1.726835   0.000000
  119        1.875475   0.000000
  120        2.231429   0.000000
 
  0.2500000E+00  0.5551115E-16  0.0000000E+00  0.3125000E-01
    1      -17.727966   1.000000
    2      -16.953697   1.000000
    3      -16.688053   1.000000
    4      -16.600931   1.000000
    5      -16.545936   1.000000
    6      -16.347738   1.000000
    7      -16.296373   1.000000
    8      -16.244119   1.000000
    9      -16.151696   1.000000
   10      -16.089733   1.000000
   11      -15.995924   1.000000
   12      -15.882011   1.000000
   13      -15.842555   1.000000
   14      -15.677642   1.000000
   15      -15.618016   1.000000
   16      -15.519814   1.000000
   17      -15.456310   1.000000
   18      -15.389325   1.000000
   19       -9.510319   1.000000
   20       -9.253071   1.000000
   21       -9.114508   1.000000
   22       -8.993106   1.000000
   23       -8.889896   1.000000
   24       -8.796216   1.000000
   25       -8.528511   1.000000
   26       -8.485606   1.000000
   27       -8.474612   1.000000
   28       -8.349939   1.000000
   29       -8.330575   1.000000
   30       -8.208746   1.000000
   31       -8.105628   1.000000
   32       -8.068124   1.000000
   33       -7.914187   1.000000
   34       -7.782170   1.000000
   35       -7.710048   1.000000
   36       -7.669393   1.000000
   37       -7.566555   1.000000
   38       -7.547004   1.000000
   39       -7.393483   1.000000
   40       -7.351772   1.000000
   41       -7.233814   1.000000
   42       -7.189977   1.000000
   43       -7.033369   1.000000
   44       -6.971876   1.000000
   45       -6.959202   1.000000
   46       -6.809509   1.000000
   47       -6.745922   1.000000
   48       -6.702211   1.000000
   49       -6.653860   1.000000
   50       -6.572221   1.000000
   51       -6.509721   1.000000
   52       -6.313527   1.000000
   53       -6.287078   1.000000
   54       -6.236781   1.000000
   55       -6.154794   1.000000
   56       -6.113358   1.000000
   57       -6.035235   1.000000
   58       -5.798075   1.000000
   59       -5.659267   1.000000
   60       -5.604492   1.000000
   61       -5.538142   1.000000
   62       -5.470648   1.000000
   63       -5.391649   1.000000
   64       -5.302145   1.000000
   65       -5.199256   1.000000
   66       -5.154846   1.000000
   67       -5.038017   1.000000
   68       -4.846858   1.000000
   69       -4.682343   1.000000
   70       -4.649440   1.000000
   71       -4.632877   1.000000
   72       -4.261719   1.000000
   73       -4.139331   1.000000
   74       -4.070151   1.000000
   75       -3.945369   1.000000
   76       -3.899046   1.000000
   77       -3.811359   1.000000
   78       -3.621004   0.999985
   79       -3.491119   0.999433
   80       -2.927615   0.232744
   81       -2.814111   0.062708
   82       -2.750176   0.023599
   83       -2.654902   0.003928
   84       -2.615909   0.001673
   85       -2.469036   0.000036
   86       -2.388679   0.000003
   87       -2.351015   0.000001
   88       -2.260898   0.000000
   89       -2.209358   0.000000
   90       -1.960759   0.000000
   91       -1.831577   0.000000
   92       -1.678090   0.000000
   93       -1.611414   0.000000
   94       -1.454181   0.000000
   95       -1.355412   0.000000
   96       -1.259597   0.000000
   97       -1.137062   0.000000
   98       -0.928326   0.000000
   99       -0.730833   0.000000
  100       -0.668544   0.000000
  101       -0.560451   0.000000
  102       -0.547136   0.000000
  103       -0.377486   0.000000
  104       -0.315232   0.000000
  105       -0.259745   0.000000
  106       -0.167658   0.000000
  107       -0.084482   0.000000
  108        0.006932   0.000000
  109        0.260387   0.000000
  110        0.343312   0.000000
  111        0.533226   0.000000
  112        0.653966   0.000000
  113        0.859182   0.000000
  114        0.994997   0.000000
  115        1.078631   0.000000
  116        1.180173   0.000000
  117        1.411342   0.000000
  118        1.848141   0.000000
  119        1.988902   0.000000
  120        2.336704   0.000000
 
  0.3750000E+00  0.0000000E+00  0.0000000E+00  0.3125000E-01
    1      -17.612952   1.000000
    2      -17.171278   1.000000
    3      -16.734836   1.000000
    4      -16.625207   1.000000
    5      -16.519799   1.000000
    6      -16.394369   1.000000
    7      -16.266022   1.000000
    8      -16.209706   1.000000
    9      -16.151675   1.000000
   10      -16.057377   1.000000
   11      -15.949329   1.000000
   12      -15.829950   1.000000
   13      -15.770891   1.000000
   14      -15.683189   1.000000
   15      -15.621429   1.000000
   16      -15.501625   1.000000
   17      -15.483680   1.000000
   18      -15.408925   1.000000
   19       -9.734678   1.000000
   20       -9.284550   1.000000
   21       -9.165028   1.000000
   22       -9.098739   1.000000
   23       -8.958367   1.000000
   24       -8.837029   1.000000
   25       -8.531262   1.000000
   26       -8.449200   1.000000
   27       -8.411000   1.000000
   28       -8.336288   1.000000
   29       -8.307855   1.000000
   30       -8.212578   1.000000
   31       -8.049814   1.000000
   32       -8.003533   1.000000
   33       -7.888940   1.000000
   34       -7.823891   1.000000
   35       -7.686364   1.000000
   36       -7.645046   1.000000
   37       -7.563695   1.000000
   38       -7.440156   1.000000
   39       -7.366965   1.000000
   40       -7.253558   1.000000
   41       -7.152648   1.000000
   42       -7.067107   1.000000
   43       -7.024608   1.000000
   44       -6.974391   1.000000
   45       -6.812800   1.000000
   46       -6.775404   1.000000
   47       -6.740855   1.000000
   48       -6.688552   1.000000
   49       -6.613666   1.000000
   50       -6.597027   1.000000
   51       -6.325849   1.000000
   52       -6.306676   1.000000
   53       -6.225373   1.000000
   54       -6.177343   1.000000
   55       -6.094980   1.000000
   56       -5.982354   1.000000
   57       -5.952310   1.000000
   58       -5.919725   1.000000
   59       -5.885704   1.000000
   60       -5.744659   1.000000
   61       -5.717969   1.000000
   62       -5.683053   1.000000
   63       -5.588298   1.000000
   64       -5.549306   1.000000
   65       -5.195064   1.000000
   66       -5.038442   1.000000
   67       -4.918619   1.000000
   68       -4.839008   1.000000
   69       -4.732507   1.000000
   70       -4.630443   1.000000
   71       -4.601651   1.000000
   72       -4.586680   1.000000
   73       -4.167132   1.000000
   74       -4.038134   1.000000
   75       -3.907558   1.000000
   76       -3.723807   1.000000
   77       -3.658250   0.999995
   78       -3.462261   0.998858
   79       -3.396121   0.995103
   80       -3.001855   0.418832
   81       -2.929656   0.237178
   82       -2.749780   0.023443
   83       -2.668120   0.005163
   84       -2.620334   0.001850
   85       -2.432294   0.000012
   86       -2.395641   0.000004
   87       -2.342244   0.000001
   88       -2.302862   0.000000
   89       -2.226189   0.000000
   90       -1.972554   0.000000
   91       -1.813589   0.000000
   92       -1.667929   0.000000
   93       -1.614662   0.000000
   94       -1.434680   0.000000
   95       -1.317319   0.000000
   96       -1.148278   0.000000
   97       -1.006465   0.000000
   98       -0.890336   0.000000
   99       -0.781213   0.000000
  100       -0.731909   0.000000
  101       -0.652066   0.000000
  102       -0.605035   0.000000
  103       -0.529477   0.000000
  104       -0.461624   0.000000
  105       -0.441689   0.000000
  106       -0.320159   0.000000
  107       -0.276164   0.000000
  108       -0.058286   0.000000
  109        0.231730   0.000000
  110        0.310206   0.000000
  111        0.451286   0.000000
  112        0.675187   0.000000
  113        0.924052   0.000000
  114        1.066886   0.000000
  115        1.178391   0.000000
  116        1.324443   0.000000
  117        1.603476   0.000000
  118        2.032851   0.000000
  119        2.169176   0.000000
  120        2.507763   0.000000
 
  0.5000000E+00  0.1110223E-15  0.0000000E+00  0.1562500E-01
    1      -17.520901   1.000000
    2      -17.299563   1.000000
    3      -16.750998   1.000000
    4      -16.636795   1.000000
    5      -16.485930   1.000000
    6      -16.436127   1.000000
    7      -16.256976   1.000000
    8      -16.209006   1.000000
    9      -16.147572   1.000000
   10      -16.022411   1.000000
   11      -15.926033   1.000000
   12      -15.814422   1.000000
   13      -15.735466   1.000000
   14      -15.703817   1.000000
   15      -15.648727   1.000000
   16      -15.506171   1.000000
   17      -15.448068   1.000000
   18      -15.428215   1.000000
   19       -9.818461   1.000000
   20       -9.319488   1.000000
   21       -9.180542   1.000000
   22       -9.116991   1.000000
   23       -8.970153   1.000000
   24       -8.820015   1.000000
   25       -8.583860   1.000000
   26       -8.454210   1.000000
   27       -8.375946   1.000000
   28       -8.332092   1.000000
   29       -8.296768   1.000000
   30       -8.158522   1.000000
   31       -8.059134   1.000000
   32       -7.927732   1.000000
   33       -7.914782   1.000000
   34       -7.806530   1.000000
   35       -7.716984   1.000000
   36       -7.667806   1.000000
   37       -7.627548   1.000000
   38       -7.431277   1.000000
   39       -7.366418   1.000000
   40       -7.290501   1.000000
   41       -7.103331   1.000000
   42       -7.030267   1.000000
   43       -6.899491   1.000000
   44       -6.851883   1.000000
   45       -6.809307   1.000000
   46       -6.763415   1.000000
   47       -6.671970   1.000000
   48       -6.657881   1.000000
   49       -6.569002   1.000000
   50       -6.524807   1.000000
   51       -6.385062   1.000000
   52       -6.312750   1.000000
   53       -6.275152   1.000000
   54       -6.113572   1.000000
   55       -6.081970   1.000000
   56       -6.001122   1.000000
   57       -5.975603   1.000000
   58       -5.919863   1.000000
   59       -5.851148   1.000000
   60       -5.793157   1.000000
   61       -5.709601   1.000000
   62       -5.669004   1.000000
   63       -5.646517   1.000000
   64       -5.611214   1.000000
   65       -5.499911   1.000000
   66       -5.001182   1.000000
   67       -4.953305   1.000000
   68       -4.865589   1.000000
   69       -4.774436   1.000000
   70       -4.617493   1.000000
   71       -4.580989   1.000000
   72       -4.512411   1.000000
   73       -4.317592   1.000000
   74       -3.995315   1.000000
   75       -3.828389   1.000000
   76       -3.660121   0.999996
   77       -3.594984   0.999967
   78       -3.428000   0.997511
   79       -3.311873   0.976554
   80       -3.047136   0.545896
   81       -2.977615   0.353352
   82       -2.761088   0.028237
   83       -2.724236   0.015081
   84       -2.616773   0.001707
   85       -2.417771   0.000007
   86       -2.379727   0.000002
   87       -2.322107   0.000000
   88       -2.312438   0.000000
   89       -2.227753   0.000000
   90       -1.971176   0.000000
   91       -1.801484   0.000000
   92       -1.673459   0.000000
   93       -1.615596   0.000000
   94       -1.431368   0.000000
   95       -1.313793   0.000000
   96       -1.106802   0.000000
   97       -0.980229   0.000000
   98       -0.872574   0.000000
   99       -0.809981   0.000000
  100       -0.728407   0.000000
  101       -0.670592   0.000000
  102       -0.619364   0.000000
  103       -0.583318   0.000000
  104       -0.544789   0.000000
  105       -0.515119   0.000000
  106       -0.380669   0.000000
  107       -0.349809   0.000000
  108       -0.075467   0.000000
  109        0.219985   0.000000
  110        0.296809   0.000000
  111        0.422135   0.000000
  112        0.680591   0.000000
  113        0.949672   0.000000
  114        1.093955   0.000000
  115        1.216308   0.000000
  116        1.376732   0.000000
  117        1.669688   0.000000
  118        2.263928   0.000000
  119        2.276216   0.000000
  120        2.400329   0.000000
 
  0.0000000E+00  0.1250000E+00  0.0000000E+00  0.3125000E-01
    1      -17.802802   1.000000
    2      -16.742813   1.000000
    3      -16.627612   1.000000
    4      -16.580899   1.000000
    5      -16.522421   1.000000
    6      -16.373023   1.000000
    7      -16.336292   1.000000
    8      -16.290800   1.000000
    9      -16.134058   1.000000
   10      -16.085514   1.000000
   11      -16.026028   1.000000
   12      -15.934938   1.000000
   13      -15.914045   1.000000
   14      -15.828794   1.000000
   15      -15.569480   1.000000
   16      -15.477381   1.000000
   17      -15.435432   1.000000
   18      -15.380508   1.000000
   19       -9.368300   1.000000
   20       -9.115753   1.000000
   21       -8.979956   1.000000
   22       -8.850383   1.000000
   23       -8.771826   1.000000
   24       -8.661204   1.000000
   25       -8.561410   1.000000
   26       -8.540025   1.000000
   27       -8.460615   1.000000
   28       -8.396236   1.000000
   29       -8.358218   1.000000
   30       -8.242399   1.000000
   31       -8.195404   1.000000
   32       -8.150063   1.000000
   33       -8.048516   1.000000
   34       -7.896224   1.000000
   35       -7.823994   1.000000
   36       -7.740805   1.000000
   37       -7.683703   1.000000
   38       -7.587780   1.000000
   39       -7.521912   1.000000
   40       -7.474966   1.000000
   41       -7.292013   1.000000
   42       -7.225955   1.000000
   43       -7.144370   1.000000
   44       -6.890711   1.000000
   45       -6.849927   1.000000
   46       -6.804048   1.000000
   47       -6.745421   1.000000
   48       -6.655968   1.000000
   49       -6.566504   1.000000
   50       -6.472434   1.000000
   51       -6.435039   1.000000
   52       -6.397284   1.000000
   53       -6.354320   1.000000
   54       -6.307598   1.000000
   55       -6.208639   1.000000
   56       -6.141702   1.000000
   57       -6.104948   1.000000
   58       -5.804040   1.000000
   59       -5.695503   1.000000
   60       -5.628424   1.000000
   61       -5.500145   1.000000
   62       -5.327232   1.000000
   63       -5.238019   1.000000
   64       -5.121038   1.000000
   65       -5.044745   1.000000
   66       -5.012457   1.000000
   67       -4.931913   1.000000
   68       -4.900967   1.000000
   69       -4.677157   1.000000
   70       -4.650893   1.000000
   71       -4.589657   1.000000
   72       -4.344462   1.000000
   73       -4.313332   1.000000
   74       -4.175013   1.000000
   75       -4.029445   1.000000
   76       -3.949741   1.000000
   77       -3.703844   0.999999
   78       -3.647986   0.999994
   79       -3.521508   0.999739
   80       -2.944481   0.270738
   81       -2.892517   0.164032
   82       -2.727476   0.015975
   83       -2.659295   0.004305
   84       -2.536280   0.000235
   85       -2.421903   0.000008
   86       -2.412803   0.000006
   87       -2.387265   0.000003
   88       -2.148451   0.000000
   89       -2.117622   0.000000
   90       -2.027260   0.000000
   91       -1.784431   0.000000
   92       -1.685891   0.000000
   93       -1.571848   0.000000
   94       -1.493877   0.000000
   95       -1.444333   0.000000
   96       -1.413388   0.000000
   97       -1.318089   0.000000
   98       -0.964706   0.000000
   99       -0.741190   0.000000
  100       -0.539299   0.000000
  101       -0.487469   0.000000
  102       -0.408076   0.000000
  103       -0.262042   0.000000
  104       -0.118014   0.000000
  105       -0.070157   0.000000
  106        0.018446   0.000000
  107        0.103504   0.000000
  108        0.240933   0.000000
  109        0.275140   0.000000
  110        0.354288   0.000000
  111        0.445660   0.000000
  112        0.686415   0.000000
  113        0.875154   0.000000
  114        0.882908   0.000000
  115        0.967341   0.000000
  116        1.037974   0.000000
  117        1.100680   0.000000
  118        1.726172   0.000000
  119        1.876496   0.000000
  120        2.231208   0.000000
 
  0.1250000E+00  0.1250000E+00  0.0000000E+00  0.3125000E-01
    1      -17.753523   1.000000
    2      -16.836199   1.000000
    3      -16.793824   1.000000
    4      -16.580489   1.000000
    5      -16.440220   1.000000
    6      -16.383532   1.000000
    7      -16.317989   1.000000
    8      -16.247804   1.000000
    9      -16.151313   1.000000
   10      -16.107829   1.000000
   11      -15.996505   1.000000
   12      -15.941037   1.000000
   13      -15.802462   1.000000
   14      -15.738569   1.000000
   15      -15.603445   1.000000
   16      -15.508057   1.000000
   17      -15.456962   1.000000
   18      -15.378989   1.000000
   19       -9.400352   1.000000
   20       -9.309580   1.000000
   21       -9.115649   1.000000
   22       -8.989088   1.000000
   23       -8.778616   1.000000
   24       -8.718902   1.000000
   25       -8.539236   1.000000
   26       -8.507466   1.000000
   27       -8.417231   1.000000
   28       -8.387989   1.000000
   29       -8.324400   1.000000
   30       -8.222200   1.000000
   31       -8.143231   1.000000
   32       -8.132758   1.000000
   33       -7.967880   1.000000
   34       -7.869364   1.000000
   35       -7.759856   1.000000
   36       -7.647847   1.000000
   37       -7.568713   1.000000
   38       -7.479338   1.000000
   39       -7.400737   1.000000
   40       -7.335972   1.000000
   41       -7.291399   1.000000
   42       -7.206987   1.000000
   43       -7.163912   1.000000
   44       -6.976565   1.000000
   45       -6.888188   1.000000
   46       -6.847304   1.000000
   47       -6.740536   1.000000
   48       -6.723480   1.000000
   49       -6.630827   1.000000
   50       -6.513242   1.000000
   51       -6.447935   1.000000
   52       -6.372575   1.000000
   53       -6.301636   1.000000
   54       -6.240227   1.000000
   55       -6.189285   1.000000
   56       -6.126934   1.000000
   57       -6.082849   1.000000
   58       -5.802798   1.000000
   59       -5.700565   1.000000
   60       -5.570205   1.000000
   61       -5.431524   1.000000
   62       -5.393067   1.000000
   63       -5.329892   1.000000
   64       -5.298842   1.000000
   65       -5.182084   1.000000
   66       -5.047411   1.000000
   67       -5.001641   1.000000
   68       -4.950958   1.000000
   69       -4.823395   1.000000
   70       -4.730215   1.000000
   71       -4.397352   1.000000
   72       -4.284527   1.000000
   73       -4.150298   1.000000
   74       -4.048606   1.000000
   75       -3.955205   1.000000
   76       -3.923759   1.000000
   77       -3.847107   1.000000
   78       -3.707383   0.999999
   79       -3.488813   0.999399
   80       -2.912413   0.201202
   81       -2.818259   0.066406
   82       -2.723769   0.014956
   83       -2.671631   0.005544
   84       -2.579871   0.000714
   85       -2.466171   0.000033
   86       -2.405398   0.000005
   87       -2.365214   0.000001
   88       -2.250330   0.000000
   89       -2.144094   0.000000
   90       -2.049344   0.000000
   91       -1.798744   0.000000
   92       -1.644848   0.000000
   93       -1.554583   0.000000
   94       -1.449387   0.000000
   95       -1.365332   0.000000
   96       -1.316129   0.000000
   97       -1.261807   0.000000
   98       -0.933196   0.000000
   99       -0.731263   0.000000
  100       -0.630802   0.000000
  101       -0.571110   0.000000
  102       -0.492757   0.000000
  103       -0.375919   0.000000
  104       -0.249334   0.000000
  105       -0.185114   0.000000
  106       -0.110690   0.000000
  107       -0.009057   0.000000
  108        0.090383   0.000000
  109        0.212310   0.000000
  110        0.353488   0.000000
  111        0.485549   0.000000
  112        0.712361   0.000000
  113        0.826746   0.000000
  114        0.975055   0.000000
  115        1.112931   0.000000
  116        1.161441   0.000000
  117        1.242093   0.000000
  118        1.807748   0.000000
  119        1.952900   0.000000
  120        2.301398   0.000000
 
  0.2500000E+00  0.1250000E+00  0.0000000E+00  0.3125000E-01
    1      -17.658294   1.000000
    2      -17.043497   1.000000
    3      -16.883408   1.000000
    4      -16.548509   1.000000
    5      -16.443286   1.000000
    6      -16.359316   1.000000
    7      -16.307168   1.000000
    8      -16.203585   1.000000
    9      -16.162094   1.000000
   10      -16.097971   1.000000
   11      -15.968713   1.000000
   12      -15.905956   1.000000
   13      -15.736332   1.000000
   14      -15.666653   1.000000
   15      -15.610610   1.000000
   16      -15.536301   1.000000
   17      -15.490527   1.000000
   18      -15.381045   1.000000
   19       -9.612388   1.000000
   20       -9.421930   1.000000
   21       -9.215554   1.000000
   22       -9.068668   1.000000
   23       -8.811536   1.000000
   24       -8.707974   1.000000
   25       -8.508369   1.000000
   26       -8.440511   1.000000
   27       -8.410512   1.000000
   28       -8.348283   1.000000
   29       -8.290469   1.000000
   30       -8.227910   1.000000
   31       -8.110960   1.000000
   32       -8.069300   1.000000
   33       -7.970717   1.000000
   34       -7.903585   1.000000
   35       -7.837941   1.000000
   36       -7.519500   1.000000
   37       -7.451161   1.000000
   38       -7.393731   1.000000
   39       -7.345511   1.000000
   40       -7.247781   1.000000
   41       -7.201421   1.000000
   42       -7.163170   1.000000
   43       -7.021301   1.000000
   44       -6.989354   1.000000
   45       -6.905509   1.000000
   46       -6.794796   1.000000
   47       -6.713862   1.000000