       N       E                     dE             d eps       ncg     rms          rms(c)
DAV:   1     0.112419143214E+04    0.11242E+04   -0.35870E+04  8160   0.577E+02
DAV:   2    -0.492908846655E+01   -0.11291E+04   -0.10902E+04 11200   0.173E+02
DAV:   3    -0.200092709804E+03   -0.19516E+03   -0.18752E+03 10960   0.817E+01
DAV:   4    -0.209027390790E+03   -0.89347E+01   -0.86696E+01 12320   0.256E+01
DAV:   5    -0.209300057122E+03   -0.27267E+00   -0.27185E+00 11400   0.334E+00    0.275E+01
DAV:   6    -0.237720868966E+03   -0.28421E+02   -0.10739E+02 12400   0.599E+01    0.595E+01
DAV:   7    -0.196623277315E+03    0.41098E+02   -0.17716E+02 13560   0.152E+02    0.201E+01
DAV:   8    -0.189635809722E+03    0.69875E+01   -0.17638E+01 11880   0.128E+01    0.128E+01
DAV:   9    -0.188216868214E+03    0.14189E+01   -0.31232E+00 13000   0.616E+00    0.940E+00
DAV:  10    -0.186951972313E+03    0.12649E+01   -0.17583E+00 13280   0.796E+00    0.215E+00
DAV:  11    -0.187042126733E+03   -0.90154E-01   -0.58350E-01 13560   0.293E+00    0.365E+00
DAV:  12    -0.186984364281E+03    0.57762E-01   -0.65889E-01 12680   0.432E+00    0.346E+00
DAV:  13    -0.186877494470E+03    0.10687E+00   -0.26122E-01 13200   0.299E+00    0.178E+00
DAV:  14    -0.186843523282E+03    0.33971E-01   -0.96522E-02 13000   0.153E+00    0.597E-01
DAV:  15    -0.186839411657E+03    0.41116E-02   -0.14816E-02 12320   0.496E-01    0.526E-01
DAV:  16    -0.186839325175E+03    0.86482E-04   -0.11062E-02 13360   0.553E-01    0.553E-01
DAV:  17    -0.186836242112E+03    0.30831E-02   -0.74384E-03 12600   0.435E-01    0.183E-01
DAV:  18    -0.186835971026E+03    0.27109E-03   -0.14085E-03 12120   0.155E-01    0.936E-02
DAV:  19    -0.186836005119E+03   -0.34093E-04   -0.58093E-04  9560   0.687E-02
   1 F= -.18683601E+03 E0= -.18666415E+03  d E =-.186836E+03
       N       E                     dE             d eps       ncg     rms          rms(c)
DAV:   1    -0.187493265609E+03   -0.65729E+00   -0.27431E+02  8160   0.351E+01    0.469E+00
DAV:   2    -0.189517481608E+03   -0.20242E+01   -0.20347E+01 11960   0.155E+01    0.103E+01
DAV:   3    -0.189330946823E+03    0.18653E+00   -0.55941E+00 12240   0.131E+01    0.616E+00
DAV:   4    -0.188767529916E+03    0.56342E+00   -0.57002E-01 11320   0.457E+00    0.247E+00
DAV:   5    -0.188849754424E+03   -0.82225E-01   -0.47833E-01 12160   0.404E+00    0.489E+00
DAV:   6    -0.188721695385E+03    0.12806E+00   -0.63214E-01 12200   0.393E+00    0.222E+00
DAV:   7    -0.188690736283E+03    0.30959E-01   -0.22180E-01 11960   0.206E+00    0.202E+00
DAV:   8    -0.188674469998E+03    0.16266E-01   -0.12733E-01 11920   0.209E+00    0.181E+00
DAV:   9    -0.188648982328E+03    0.25488E-01   -0.55468E-02 12080   0.120E+00    0.630E-01
DAV:  10    -0.188645845407E+03    0.31369E-02   -0.67332E-03 10440   0.302E-01    0.283E-01
DAV:  11    -0.188645528246E+03    0.31716E-03   -0.31557E-03 13040   0.257E-01    0.143E-01
DAV:  12    -0.188645647442E+03   -0.11920E-03   -0.94945E-04 10760   0.998E-02    0.113E-01
DAV:  13    -0.188645699750E+03   -0.52308E-04   -0.28968E-04  6920   0.719E-02
   2 F= -.18864570E+03 E0= -.18850557E+03  d E =-.180969E+01
       N       E                     dE             d eps       ncg     rms          rms(c)
DAV:   1    -0.190599923012E+03   -0.19543E+01   -0.31839E+01  9200   0.144E+01    0.448E+00
DAV:   2    -0.190532540912E+03    0.67382E-01   -0.28066E+00 12160   0.944E+00    0.715E+00
DAV:   3    -0.190077181448E+03    0.45536E+00   -0.13204E+00 12280   0.864E+00    0.428E+00
DAV:   4    -0.189859573673E+03    0.21761E+00   -0.70675E-01 13120   0.438E+00    0.251E+00
DAV:   5    -0.189812684080E+03    0.46890E-01   -0.34964E-01 12320   0.284E+00    0.239E+00
DAV:   6    -0.189758007488E+03    0.54677E-01   -0.11533E-01 12280   0.221E+00    0.707E-01
DAV:   7    -0.189752508201E+03    0.54993E-02   -0.13002E-02 11840   0.528E-01    0.239E-01
DAV:   8    -0.189753200832E+03   -0.69263E-03   -0.43652E-03 11760   0.350E-01    0.371E-01
DAV:   9    -0.189752274450E+03    0.92638E-03   -0.25153E-03 10240   0.314E-01    0.149E-01
DAV:  10    -0.189752635687E+03   -0.36124E-03   -0.11062E-03 10360   0.137E-01    0.140E-01
DAV:  11    -0.189752342580E+03    0.29311E-03   -0.58400E-04 10440   0.871E-02    0.187E-02
DAV:  12    -0.189752402870E+03   -0.60290E-04   -0.73320E-05  6480   0.247E-02
   3 F= -.18975240E+03 E0= -.18963445E+03  d E =-.110670E+01
       N       E                     dE             d eps       ncg     rms          rms(c)
DAV:   1    -0.191339112891E+03   -0.15868E+01   -0.77299E+01  8160   0.200E+01    0.463E+00
DAV:   2    -0.191161252058E+03    0.17786E+00   -0.54041E+00 13000   0.776E+00    0.462E+00
DAV:   3    -0.191318468984E+03   -0.15722E+00   -0.14950E+00 12200   0.910E+00    0.714E+00
DAV:   4    -0.190946639267E+03    0.37183E+00   -0.17289E+00 12200   0.848E+00    0.382E+00
DAV:   5    -0.190927011828E+03    0.19627E-01   -0.75078E-01 11240   0.559E+00    0.354E+00
DAV:   6    -0.190755672083E+03    0.17134E+00   -0.21993E-01 11600   0.317E+00    0.762E-01
DAV:   7    -0.190753886847E+03    0.17852E-02   -0.44747E-02 12640   0.996E-01    0.761E-01
DAV:   8    -0.190752491885E+03    0.13950E-02   -0.22807E-02 11960   0.102E+00    0.677E-01
DAV:   9    -0.190747569328E+03    0.49226E-02   -0.66285E-03 11080   0.559E-01    0.157E-01
DAV:  10    -0.190747926700E+03   -0.35737E-03   -0.15483E-03 10640   0.134E-01    0.133E-01
DAV:  11    -0.190747720314E+03    0.20639E-03   -0.83848E-04 10720   0.112E-01    0.419E-02
DAV:  12    -0.190747743572E+03   -0.23258E-04   -0.13275E-04  6600   0.418E-02
   4 F= -.19074774E+03 E0= -.19064661E+03  d E =-.995341E+00
       N       E                     dE             d eps       ncg     rms          rms(c)
DAV:   1    -0.192124464151E+03   -0.13767E+01   -0.16213E+02  8160   0.284E+01    0.572E+00
DAV:   2    -0.191883744332E+03    0.24072E+00   -0.93933E+00 11520   0.858E+00    0.435E+00
DAV:   3    -0.192380169190E+03   -0.49642E+00   -0.27316E+00 11920   0.104E+01    0.107E+01
DAV:   4    -0.191654537486E+03    0.72563E+00   -0.32488E+00 11800   0.123E+01    0.375E+00
DAV:   5    -0.191597441307E+03    0.57096E-01   -0.71890E-01 11920   0.577E+00    0.394E+00
DAV:   6    -0.191424896060E+03    0.17255E+00   -0.38948E-01 12560   0.435E+00    0.158E+00
DAV:   7    -0.191414486687E+03    0.10409E-01   -0.94273E-02 12440   0.203E+00    0.140E+00
DAV:   8    -0.191400847313E+03    0.13639E-01   -0.56417E-02 11320   0.165E+00    0.663E-01
DAV:   9    -0.191395133471E+03    0.57138E-02   -0.69785E-03 11680   0.484E-01    0.239E-01
DAV:  10    -0.191395094683E+03    0.38788E-04   -0.27509E-03 12200   0.241E-01    0.827E-02
DAV:  11    -0.191395154780E+03   -0.60097E-04   -0.52938E-04 10800   0.913E-02
   5 F= -.19139515E+03 E0= -.19129726E+03  d E =-.647411E+00
       N       E                     dE             d eps       ncg     rms          rms(c)
DAV:   1    -0.191430037423E+03   -0.34943E-01   -0.28795E+00  8160   0.358E+00    0.495E-01
DAV:   2    -0.191469894633E+03   -0.39857E-01   -0.18934E-01 12760   0.235E+00    0.176E+00
DAV:   3    -0.191439574821E+03    0.30320E-01   -0.61077E-02 12360   0.177E+00    0.354E-01
DAV:   4    -0.191439898540E+03   -0.32372E-03   -0.75734E-03 11120   0.599E-01    0.420E-01
DAV:   5    -0.191438060309E+03    0.18382E-02   -0.39706E-03 10720   0.468E-01    0.179E-01
DAV:   6    -0.191437999221E+03    0.61087E-04   -0.16852E-03 11480   0.211E-01    0.162E-01
DAV:   7    -0.191438239199E+03   -0.23998E-03   -0.22280E-03 10200   0.303E-01    0.235E-01
DAV:   8    -0.191437689687E+03    0.54951E-03   -0.96949E-04  8680   0.202E-01    0.273E-02
DAV:   9    -0.191437708217E+03   -0.18530E-04   -0.73743E-05  5800   0.322E-02
   6 F= -.19143771E+03 E0= -.19133771E+03  d E =-.425534E-01
       N       E                     dE             d eps       ncg     rms          rms(c)
DAV:   1    -0.191485232699E+03   -0.47543E-01   -0.74338E+00  8160   0.575E+00    0.705E-01
DAV:   2    -0.191535872962E+03   -0.50640E-01   -0.26456E-01 13200   0.232E+00    0.208E+00
DAV:   3    -0.191496140550E+03    0.39732E-01   -0.11094E-01 12440   0.230E+00    0.653E-01
DAV:   4    -0.191493953114E+03    0.21874E-02   -0.16249E-02 10920   0.746E-01    0.503E-01
DAV:   5    -0.191491842912E+03    0.21102E-02   -0.89641E-03 11320   0.711E-01    0.351E-01
DAV:   6    -0.191490986153E+03    0.85676E-03   -0.51069E-03 11400   0.432E-01    0.244E-01
DAV:   7    -0.191491571865E+03   -0.58571E-03   -0.49617E-03 11360   0.451E-01    0.352E-01
DAV:   8    -0.191490342466E+03    0.12294E-02   -0.22018E-03  9560   0.308E-01    0.408E-02
DAV:   9    -0.191490358711E+03   -0.16245E-04   -0.10692E-04  5560   0.431E-02
   7 F= -.19149036E+03 E0= -.19138820E+03  d E =-.526505E-01
       N       E                     dE             d eps       ncg     rms          rms(c)
DAV:   1    -0.191500111017E+03   -0.97686E-02   -0.29407E-01  8160   0.121E+00    0.242E-01
DAV:   2    -0.191500493782E+03   -0.38276E-03   -0.15211E-02 11560   0.498E-01    0.375E-01
DAV:   3    -0.191499830650E+03    0.66313E-03   -0.67580E-03 11480   0.578E-01    0.299E-01
DAV:   4    -0.191499090342E+03    0.74031E-03   -0.29158E-03 11000   0.358E-01    0.190E-01
DAV:   5    -0.191498943552E+03    0.14679E-03   -0.16637E-03  9800   0.293E-01    0.166E-01
DAV:   6    -0.191498604165E+03    0.33939E-03   -0.76232E-04  9840   0.183E-01    0.407E-02
DAV:   7    -0.191498593534E+03    0.10631E-04   -0.10305E-04  5800   0.477E-02
   8 F= -.19149859E+03 E0= -.19139601E+03  d E =-.823482E-02
       N       E                     dE             d eps       ncg     rms          rms(c)
DAV:   1    -0.191535072454E+03   -0.36468E-01   -0.32102E+00  8160   0.378E+00    0.448E-01
DAV:   2    -0.191561670248E+03   -0.26598E-01   -0.11521E-01 13600   0.181E+00    0.156E+00
DAV:   3    -0.191538985369E+03    0.22685E-01   -0.50838E-02 12400   0.155E+00    0.325E-01
DAV:   4    -0.191539242975E+03   -0.25761E-03   -0.59809E-03 11520   0.497E-01    0.380E-01
DAV:   5    -0.191537930719E+03    0.13123E-02   -0.43726E-03 11160   0.462E-01    0.212E-01
DAV:   6    -0.191537940283E+03   -0.95634E-05   -0.24849E-03 10360   0.295E-01    0.224E-01
DAV:   7    -0.191537749946E+03    0.19034E-03   -0.20352E-03  9720   0.303E-01    0.153E-01
DAV:   8    -0.191537449180E+03    0.30077E-03   -0.49121E-04  8240   0.138E-01    0.201E-02
DAV:   9    -0.191537459207E+03   -0.10027E-04   -0.58962E-05  6880   0.284E-02
   9 F= -.19153746E+03 E0= -.19143414E+03  d E =-.388657E-01
       N       E                     dE             d eps       ncg     rms          rms(c)
DAV:   1    -0.191452656164E+03    0.84793E-01   -0.14131E+01  8160   0.794E+00    0.923E-01
DAV:   2    -0.191546997364E+03   -0.94341E-01   -0.46422E-01 13600   0.351E+00    0.271E+00
DAV:   3    -0.191469370514E+03    0.77627E-01   -0.15813E-01 12240   0.289E+00    0.746E-01
DAV:   4    -0.191470490783E+03   -0.11203E-02   -0.29063E-02 11320   0.117E+00    0.870E-01
DAV:   5    -0.191463566458E+03    0.69243E-02   -0.22156E-02 11960   0.105E+00    0.447E-01
DAV:   6    -0.191463358681E+03    0.20778E-03   -0.10624E-02 11480   0.626E-01    0.467E-01
DAV:   7    -0.191462357776E+03    0.10009E-02   -0.83337E-03 11360   0.606E-01    0.301E-01
DAV:   8    -0.191461204998E+03    0.11528E-02   -0.21030E-03 11720   0.267E-01    0.468E-02
DAV:   9    -0.191461208551E+03   -0.35521E-05   -0.22343E-04  8080   0.520E-02
  10 F= -.19146121E+03 E0= -.19135987E+03  d E =0.762507E-01
       N       E                     dE             d eps       ncg     rms          rms(c)
DAV:   1    -0.191423590364E+03    0.37615E-01   -0.70724E+00  8160   0.558E+00    0.585E-01
DAV:   2    -0.191454119934E+03   -0.30530E-01   -0.17938E-01 13440   0.184E+00    0.157E+00
DAV:   3    -0.191432742302E+03    0.21378E-01   -0.66357E-02 12160   0.179E+00    0.621E-01
DAV:   4    -0.191429366004E+03    0.33763E-02   -0.11316E-02 11280   0.588E-01    0.305E-01
DAV:   5    -0.191429234685E+03    0.13132E-03   -0.62720E-03 11960   0.475E-01    0.416E-01
DAV:   6    -0.191428076959E+03    0.11577E-02   -0.56263E-03 11040   0.477E-01    0.212E-01
DAV:   7    -0.191427868411E+03    0.20855E-03   -0.15247E-03 10120   0.210E-01    0.107E-01
DAV:   8    -0.191427729546E+03    0.13887E-03   -0.49370E-04 10200   0.156E-01    0.772E-02
DAV:   9    -0.191427664316E+03    0.65230E-04   -0.14166E-04  6920   0.918E-02
  11 F= -.19142766E+03 E0= -.19132753E+03  d E =0.335442E-01
       N       E                     dE             d eps       ncg     rms          rms(c)
DAV:   1    -0.191431687899E+03   -0.39584E-02   -0.11804E+00  8160   0.229E+00    0.254E-01
DAV:   2    -0.191434520851E+03   -0.28330E-02   -0.38187E-02 12200   0.565E-01    0.286E-01
DAV:   3    -0.191434705380E+03   -0.18453E-03   -0.90016E-03 11160   0.564E-01    0.410E-01
DAV:   4    -0.191433262756E+03    0.14426E-02   -0.38058E-03 10720   0.391E-01    0.158E-01
DAV:   5    -0.191433157233E+03    0.10552E-03   -0.11879E-03  9560   0.231E-01    0.148E-01
DAV:   6    -0.191433063045E+03    0.94188E-04   -0.89315E-04  9880   0.212E-01
  12 F= -.19143306E+03 E0= -.19133217E+03  d E =-.539873E-02
       N       E                     dE             d eps       ncg     rms          rms(c)
DAV:   1    -0.191448618823E+03   -0.15462E-01   -0.12148E+00  8160   0.236E+00    0.313E-01
DAV:   2    -0.191458004330E+03   -0.93855E-02   -0.50699E-02 13600   0.111E+00    0.915E-01
DAV:   3    -0.191450394663E+03    0.76097E-02   -0.20823E-02 11720   0.988E-01    0.298E-01
DAV:   4    -0.191450081838E+03    0.31283E-03   -0.39940E-03 11200   0.402E-01    0.272E-01
DAV:   5    -0.191449530801E+03    0.55104E-03   -0.25138E-03 10400   0.354E-01    0.180E-01
DAV:   6    -0.191449328421E+03    0.20238E-03   -0.13117E-03  9520   0.214E-01    0.143E-01
DAV:   7    -0.191449275043E+03    0.53378E-04   -0.96349E-04  8320   0.211E-01
  13 F= -.19144928E+03 E0= -.19134661E+03  d E =-.162120E-01
       N       E                     dE             d eps       ncg     rms          rms(c)
DAV:   1    -0.191460028611E+03   -0.10700E-01   -0.54976E-01  8160   0.158E+00    0.211E-01
DAV:   2    -0.191465595272E+03   -0.55667E-02   -0.25022E-02 13600   0.811E-01    0.706E-01
DAV:   3    -0.191460898635E+03    0.46966E-02   -0.11083E-02 11480   0.718E-01    0.182E-01
DAV:   4    -0.191460829681E+03    0.68954E-04   -0.15875E-03  9800   0.240E-01    0.169E-01
DAV:   5    -0.191460636357E+03    0.19332E-03   -0.10278E-03  9840   0.221E-01    0.119E-01
DAV:   6    -0.191460540858E+03    0.95499E-04   -0.53102E-04  7880   0.139E-01
  14 F= -.19146054E+03 E0= -.19135623E+03  d E =-.112658E-01
       N       E                     dE             d eps       ncg     rms          rms(c)
DAV:   1    -0.191449587829E+03    0.11049E-01   -0.59545E-01  8160   0.168E+00    0.282E-01
DAV:   2    -0.191460479365E+03   -0.10892E-01   -0.37694E-02 13320   0.115E+00    0.104E+00
DAV:   3    -0.191449727507E+03    0.10752E-01   -0.19952E-02 11240   0.101E+00    0.195E-01
DAV:   4    -0.191449381809E+03    0.34570E-03   -0.17637E-03 10680   0.222E-01    0.115E-01
DAV:   5    -0.191449338879E+03    0.42930E-04   -0.94413E-04 10840   0.210E-01
  15 F= -.19144934E+03 E0= -.19134699E+03  d E =0.112020E-01
       N       E                     dE             d eps       ncg     rms          rms(c)
DAV:   1    -0.191447790936E+03    0.15909E-02   -0.52243E-01  8160   0.158E+00    0.307E-01
DAV:   2    -0.191447482750E+03    0.30819E-03   -0.21680E-02 12160   0.583E-01    0.396E-01
DAV:   3    -0.191447572888E+03   -0.90138E-04   -0.97732E-03 10840   0.698E-01    0.454E-01
DAV:   4    -0.191445880357E+03    0.16925E-02   -0.61242E-03 11320   0.508E-01    0.247E-01
DAV:   5    -0.191445911560E+03   -0.31203E-04   -0.34701E-03 10000   0.403E-01    0.257E-01
DAV:   6    -0.191445172577E+03    0.73898E-03   -0.17188E-03  9600   0.259E-01    0.918E-02
DAV:   7    -0.191445170654E+03    0.19235E-05   -0.44164E-04  7680   0.136E-01
  16 F= -.19144517E+03 E0= -.19134372E+03  d E =0.416823E-02
       N       E                     dE             d eps       ncg     rms          rms(c)
DAV:   1    -0.191468730340E+03   -0.23558E-01   -0.20264E+00  8160   0.308E+00    0.481E-01
DAV:   2    -0.191485898079E+03   -0.17168E-01   -0.90985E-02 13600   0.155E+00    0.137E+00
DAV:   3    -0.191469196799E+03    0.16701E-01   -0.44479E-02 12320   0.147E+00    0.423E-01
DAV:   4    -0.191467275066E+03    0.19217E-02   -0.66772E-03 10880   0.448E-01    0.230E-01
DAV:   5    -0.191467208853E+03    0.66213E-04   -0.39460E-03 12600   0.424E-01    0.290E-01
DAV:   6    -0.191466311562E+03    0.89729E-03   -0.26426E-03 11480   0.362E-01    0.108E-01
DAV:   7    -0.191466218479E+03    0.93083E-04   -0.57943E-04  9240   0.128E-01
  17 F= -.19146622E+03 E0= -.19136183E+03  d E =-.210478E-01
       N       E                     dE             d eps       ncg     rms          rms(c)
DAV:   1    -0.191500016171E+03   -0.33705E-01   -0.40972E+00  8160   0.433E+00    0.592E-01
DAV:   2    -0.191538988922E+03   -0.38973E-01   -0.17556E-01 13600   0.216E+00    0.194E+00
DAV:   3    -0.191504508069E+03    0.34481E-01   -0.84045E-02 12280   0.197E+00    0.474E-01
DAV:   4    -0.191502537031E+03    0.19710E-02   -0.99796E-03 11000   0.491E-01    0.334E-01
DAV:   5    -0.191502995257E+03   -0.45823E-03   -0.89349E-03 12400   0.581E-01    0.484E-01
DAV:   6    -0.191500947127E+03    0.20481E-02   -0.59404E-03 11080   0.458E-01    0.139E-01
DAV:   7    -0.191501135428E+03   -0.18830E-03   -0.16381E-03 10240   0.247E-01    0.179E-01
DAV:   8    -0.191500746651E+03    0.38878E-03   -0.69204E-04  8760   0.195E-01    0.383E-02
DAV:   9    -0.191500732827E+03    0.13824E-04   -0.66692E-05  6520   0.435E-02
  18 F= -.19150073E+03 E0= -.19139339E+03  d E =-.345143E-01
       N       E                     dE             d eps       ncg     rms          rms(c)
DAV:   1    -0.191498701039E+03    0.20456E-02   -0.69729E-02  8160   0.559E-01    0.742E-02
DAV:   2    -0.191499424400E+03   -0.72336E-03   -0.33289E-03 13160   0.303E-01    0.258E-01
DAV:   3    -0.191498787516E+03    0.63688E-03   -0.15401E-03  9320   0.253E-01    0.724E-02
DAV:   4    -0.191498786634E+03    0.88214E-06   -0.24277E-04  5920   0.986E-02
  19 F= -.19149879E+03 E0= -.19139170E+03  d E =0.194619E-02
       N       E                     dE             d eps       ncg     rms          rms(c)
DAV:   1    -0.191524219119E+03   -0.25432E-01   -0.20442E+00  8160   0.303E+00    0.359E-01
DAV:   2    -0.191541772928E+03   -0.17554E-01   -0.75359E-02 13600   0.140E+00    0.123E+00
DAV:   3    -0.191526831849E+03    0.14941E-01   -0.31112E-02 12200   0.124E+00    0.267E-01
DAV:   4    -0.191526412821E+03    0.41903E-03   -0.30686E-03 11320   0.303E-01    0.195E-01
DAV:   5    -0.191526149346E+03    0.26347E-03   -0.18703E-03 11480   0.309E-01    0.173E-01
DAV:   6    -0.191525939148E+03    0.21020E-03   -0.10915E-03  9800   0.213E-01    0.104E-01
DAV:   7    -0.191526184285E+03   -0.24514E-03   -0.12236E-03  9320   0.212E-01    0.195E-01
DAV:   8    -0.191525814346E+03    0.36994E-03   -0.70353E-04  8240   0.162E-01    0.217E-02
DAV:   9    -0.191525828534E+03   -0.14188E-04   -0.38324E-05  5520   0.245E-02
  20 F= -.19152583E+03 E0= -.19141781E+03  d E =-.270419E-01
       N       E                     dE             d eps       ncg     rms          rms(c)
DAV:   1    -0.191501038288E+03    0.24776E-01   -0.15677E+00  8160   0.266E+00    0.339E-01
DAV:   2    -0.191513155054E+03   -0.12117E-01   -0.59326E-02 13600   0.124E+00    0.105E+00
DAV:   3    -0.191502685994E+03    0.10469E-01   -0.25108E-02 12000   0.109E+00    0.279E-01
DAV:   4    -0.191502282033E+03    0.40396E-03   -0.32911E-03 10720   0.342E-01    0.227E-01
DAV:   5    -0.191502019125E+03    0.26291E-03   -0.25343E-03 10960   0.348E-01    0.208E-01
DAV:   6    -0.191501755122E+03    0.26400E-03   -0.16683E-03  9560   0.244E-01    0.150E-01
DAV:   7    -0.191501722575E+03    0.32547E-04   -0.11502E-03  8960   0.216E-01    0.127E-01
DAV:   8    -0.191501548109E+03    0.17447E-03   -0.34708E-04  8280   0.116E-01    0.185E-02
DAV:   9    -0.191501552626E+03   -0.45166E-05   -0.38469E-05  6400   0.243E-02
  21 F= -.19150155E+03 E0= -.19139442E+03  d E =0.242759E-01
       N       E                     dE             d eps       ncg     rms          rms(c)
DAV:   1    -0.191361095307E+03    0.14045E+00   -0.60082E+01  8160   0.165E+01    0.194E+00
DAV:   2    -0.191855029156E+03   -0.49393E+00   -0.21836E+00 13600   0.706E+00    0.734E+00
DAV:   3    -0.191461630795E+03    0.39340E+00   -0.11126E+00 12160   0.702E+00    0.179E+00
DAV:   4    -0.191448334844E+03    0.13296E-01   -0.13904E-01 12080   0.240E+00    0.200E+00
DAV:   5    -0.191424842239E+03    0.23493E-01   -0.13650E-01 11920   0.239E+00    0.125E+00
DAV:   6    -0.191414137411E+03    0.10705E-01   -0.52219E-02 11640   0.140E+00    0.875E-01
DAV:   7    -0.191409213735E+03    0.49237E-02   -0.27576E-02 12560   0.119E+00    0.556E-01
DAV:   8    -0.191405537145E+03    0.36766E-02   -0.83000E-03 12440   0.537E-01    0.119E-01
DAV:   9    -0.191405376513E+03    0.16063E-03   -0.12129E-03 10800   0.130E-01    0.676E-02
DAV:  10    -0.191405310343E+03    0.66170E-04   -0.34062E-04 10680   0.670E-02
  22 F= -.19140531E+03 E0= -.19130602E+03  d E =0.962423E-01
       N       E                     dE             d eps       ncg     rms          rms(c)
DAV:   1    -0.191391337557E+03    0.14039E-01   -0.63482E+00  8160   0.531E+00    0.618E-01
DAV:   2    -0.191441483652E+03   -0.50146E-01   -0.21600E-01 13560   0.228E+00    0.222E+00
DAV:   3    -0.191399996464E+03    0.41487E-01   -0.10354E-01 12200   0.217E+00    0.550E-01
DAV:   4    -0.191397207046E+03    0.27894E-02   -0.10761E-02 11400   0.521E-01    0.325E-01
DAV:   5    -0.191397614276E+03   -0.40723E-03   -0.74431E-03 11720   0.557E-01    0.474E-01
DAV:   6    -0.191395640147E+03    0.19741E-02   -0.54223E-03 10640   0.466E-01    0.149E-01
DAV:   7    -0.191395815872E+03   -0.17573E-03   -0.13335E-03 10320   0.224E-01    0.164E-01
DAV:   8    -0.191395492765E+03    0.32311E-03   -0.56660E-04  9280   0.191E-01    0.469E-02
DAV:   9    -0.191395476477E+03    0.16287E-04   -0.84773E-05  6240   0.555E-02
  23 F= -.19139548E+03 E0= -.19129627E+03  d E =0.983387E-02
       N       E                     dE             d eps       ncg     rms          rms(c)
DAV:   1    -0.191400342889E+03   -0.48501E-02   -0.82976E-01  8160   0.194E+00    0.243E-01
DAV:   2    -0.191405151635E+03   -0.48087E-02   -0.30636E-02 13560   0.847E-01    0.625E-01
DAV:   3    -0.191401387172E+03    0.37645E-02   -0.10270E-02 11640   0.708E-01    0.221E-01
DAV:   4    -0.191401646215E+03   -0.25904E-03   -0.30539E-03 10080   0.360E-01    0.287E-01
DAV:   5    -0.191400860799E+03    0.78542E-03   -0.18963E-03  9720   0.306E-01    0.107E-01
DAV:   6    -0.191400814497E+03    0.46302E-04   -0.61026E-04  9520   0.139E-01
  24 F= -.19140081E+03 E0= -.19130078E+03  d E =-.533802E-02
       N       E                     dE             d eps       ncg     rms          rms(c)
DAV:   1    -0.191409128742E+03   -0.82679E-02   -0.94952E-01  8160   0.210E+00    0.333E-01
DAV:   2    -0.191423575749E+03   -0.14447E-01   -0.57318E-02 12600   0.135E+00    0.120E+00
DAV:   3    -0.191410189087E+03    0.13387E-01   -0.30221E-02 11600   0.115E+00    0.291E-01
DAV:   4    -0.191410626772E+03   -0.43769E-03   -0.49159E-03 11480   0.481E-01    0.348E-01
DAV:   5    -0.191409334477E+03    0.12923E-02   -0.26724E-03 10640   0.367E-01    0.123E-01
DAV:   6    -0.191409414058E+03   -0.79580E-04   -0.11824E-03 10320   0.207E-01    0.167E-01
DAV:   7    -0.191409253463E+03    0.16059E-03   -0.93305E-04  8880   0.216E-01    0.102E-01
DAV:   8    -0.191409127488E+03    0.12598E-03   -0.20582E-04  5920   0.944E-02    0.185E-02
DAV:   9    -0.191409129398E+03   -0.19104E-05   -0.50795E-05  6840   0.275E-02
  25 F= -.19140913E+03 E0= -.19130851E+03  d E =-.831490E-02
       N       E                     dE             d eps       ncg     rms          rms(c)
DAV:   1    -0.191415290099E+03   -0.61626E-02   -0.12561E+00  8160   0.238E+00    0.305E-01
DAV:   2    -0.191428238306E+03   -0.12948E-01   -0.53516E-02 13600   0.117E+00    0.108E+00
DAV:   3    -0.191417255033E+03    0.10983E-01   -0.24317E-02 11880   0.107E+00    0.274E-01
DAV:   4    -0.191416788587E+03    0.46645E-03   -0.30112E-03 11160   0.286E-01    0.204E-01
DAV:   5    -0.191416708568E+03    0.80019E-04   -0.20622E-03 10480   0.300E-01    0.211E-01
DAV:   6    -0.191416264513E+03    0.44405E-03   -0.98945E-04  8760   0.199E-01    0.586E-02
DAV:   7    -0.191416278830E+03   -0.14317E-04   -0.21604E-04  6840   0.607E-02
  26 F= -.19141628E+03 E0= -.19131574E+03  d E =-.714943E-02
       N       E                     dE             d eps       ncg     rms          rms(c)
DAV:   1    -0.191416650991E+03   -0.38648E-03   -0.49674E-01  8160   0.147E+00    0.151E-01
DAV:   2    -0.191418825921E+03   -0.21749E-02   -0.12384E-02 13600   0.497E-01    0.423E-01
DAV:   3    -0.191417239941E+03    0.15860E-02   -0.45300E-03 11400   0.467E-01    0.159E-01
DAV:   4    -0.191417044821E+03    0.19512E-03   -0.72262E-04  9520   0.151E-01    0.831E-02
DAV:   5    -0.191417059050E+03   -0.14230E-04   -0.42690E-04  9080   0.138E-01
  27 F= -.19141706E+03 E0= -.19131635E+03  d E =-.780220E-03
       N       E                     dE             d eps       ncg     rms          rms(c)
DAV:   1    -0.191421885789E+03   -0.48410E-02   -0.11160E+00  8160   0.225E+00    0.289E-01
DAV:   2    -0.191434720043E+03   -0.12834E-01   -0.51013E-02 13600   0.113E+00    0.110E+00
DAV:   3    -0.191423657273E+03    0.11063E-01   -0.25228E-02 11280   0.105E+00    0.256E-01
DAV:   4    -0.191423266134E+03    0.39114E-03   -0.29081E-03 11120   0.286E-01    0.207E-01
DAV:   5    -0.191423071902E+03    0.19423E-03   -0.17486E-03 10040   0.283E-01    0.174E-01
DAV:   6    -0.191422745036E+03    0.32687E-03   -0.67029E-04  8280   0.163E-01    0.483E-02
DAV:   7    -0.191422757382E+03   -0.12346E-04   -0.19323E-04  6600   0.567E-02
  28 F= -.19142276E+03 E0= -.19132231E+03  d E =-.569833E-02
       N       E                     dE             d eps       ncg     rms          rms(c)
DAV:   1    -0.191427575162E+03   -0.48301E-02   -0.43958E-01  8160   0.139E+00    0.137E-01
DAV:   2    -0.191428488739E+03   -0.91358E-03   -0.98144E-03 13480   0.358E-01    0.208E-01
DAV:   3    -0.191428154118E+03    0.33462E-03   -0.19736E-03 11200   0.314E-01    0.151E-01
DAV:   4    -0.191428012116E+03    0.14200E-03   -0.77632E-04  8800   0.191E-01    0.111E-01
DAV:   5    -0.191427958647E+03    0.53469E-04   -0.48628E-04  8160   0.156E-01
  29 F= -.19142796E+03 E0= -.19132751E+03  d E =-.520127E-02
       N       E                     dE             d eps       ncg     rms          rms(c)
DAV:   1    -0.191421307266E+03    0.67049E-02   -0.21420E+00  8160   0.307E+00    0.358E-01
DAV:   2    -0.191433544554E+03   -0.12237E-01   -0.62984E-02 12600   0.128E+00    0.998E-01
DAV:   3    -0.191423136211E+03    0.10408E-01   -0.22144E-02 12200   0.108E+00    0.320E-01
DAV:   4    -0.191422864255E+03    0.27196E-03   -0.48119E-03 10920   0.446E-01    0.296E-01
DAV:   5    -0.191422294540E+03    0.56972E-03   -0.28773E-03 10120   0.401E-01    0.210E-01
DAV:   6    -0.191421790891E+03    0.50365E-03   -0.13348E-03 10520   0.236E-01    0.919E-02
DAV:   7    -0.191422093924E+03   -0.30303E-03   -0.11268E-03  9240   0.217E-01    0.201E-01
DAV:   8    -0.191421708869E+03    0.38505E-03   -0.67989E-04  8200   0.168E-01    0.235E-02
DAV:   9    -0.191421725886E+03   -0.17017E-04   -0.35898E-05  5520   0.250E-02
  30 F= -.19142173E+03 E0= -.19132106E+03  d E =0.623276E-02
       N       E                     dE             d eps       ncg     rms          rms(c)
DAV:   1    -0.191420655706E+03    0.10532E-02   -0.37005E-01  8160   0.126E+00    0.128E-01
DAV:   2    -0.191422132750E+03   -0.14770E-02   -0.82474E-03 12560   0.402E-01    0.342E-01
DAV:   3    -0.191421018235E+03    0.11145E-02   -0.28646E-03 11280   0.378E-01    0.127E-01
DAV:   4    -0.191420948870E+03    0.69366E-04   -0.53889E-04  8280   0.142E-01
  31 F= -.19142095E+03 E0= -.19131969E+03  d E =0.777016E-03
       N       E                     dE             d eps       ncg     rms          rms(c)
DAV:   1    -0.191422589772E+03   -0.15715E-02   -0.13771E-01  8160   0.783E-01    0.137E-01
DAV:   2    -0.191424386330E+03   -0.17966E-02   -0.69514E-03 13200   0.455E-01    0.428E-01
DAV:   3    -0.191422629509E+03    0.17568E-02   -0.44732E-03 10080   0.442E-01    0.150E-01
DAV:   4    -0.191422546582E+03    0.82927E-04   -0.92541E-04  8560   0.195E-01
  32 F= -.19142255E+03 E0= -.19132124E+03  d E =-.159771E-02
       N       E                     dE             d eps       ncg     rms          rms(c)
DAV:   1    -0.191429827930E+03   -0.71984E-02   -0.97799E-01  8160   0.213E+00    0.284E-01
DAV:   2    -0.191435264972E+03   -0.54370E-02   -0.34618E-02 13600   0.789E-01    0.689E-01
DAV:   3    -0.191431491057E+03    0.37739E-02   -0.16225E-02 11680   0.844E-01    0.390E-01
DAV:   4    -0.191430124187E+03    0.13669E-02   -0.37819E-03 10320   0.348E-01    0.162E-01
DAV:   5    -0.191430382928E+03   -0.25874E-03   -0.21298E-03 10160   0.303E-01    0.260E-01
DAV:   6    -0.191429753070E+03    0.62986E-03   -0.15491E-03  9520   0.258E-01    0.769E-02
DAV:   7    -0.191429823224E+03   -0.70154E-04   -0.38354E-04  8200   0.134E-01
  33 F= -.19142982E+03 E0= -.19132720E+03  d E =-.727664E-02
       N       E                     dE             d eps       ncg     rms          rms(c)
DAV:   1    -0.191430192566E+03   -0.43950E-03   -0.19578E-01  8160   0.918E-01    0.969E-02
DAV:   2    -0.191430987314E+03   -0.79475E-03   -0.43171E-03 12240   0.300E-01    0.248E-01
DAV:   3    -0.191430333804E+03    0.65351E-03   -0.16006E-03 10000   0.280E-01    0.938E-02
DAV:   4    -0.191430359607E+03   -0.25803E-04   -0.51072E-04  8120   0.138E-01
  34 F= -.19143036E+03 E0= -.19132837E+03  d E =-.536383E-03
       N       E                     dE             d eps       ncg     rms          rms(c)
DAV:   1    -0.191430352195E+03   -0.18390E-04   -0.14695E-01  8160   0.801E-01    0.110E-01
DAV:   2    -0.191430715080E+03   -0.36289E-03   -0.34498E-03 12560   0.239E-01    0.167E-01
DAV:   3    -0.191430458711E+03    0.25637E-03   -0.14019E-03 10080   0.260E-01    0.144E-01
DAV:   4    -0.191430325097E+03    0.13361E-03   -0.67268E-04  8240   0.168E-01    0.900E-02
DAV:   5    -0.191430337146E+03   -0.12048E-04   -0.39917E-04  7760   0.132E-01
  35 F= -.19143034E+03 E0= -.19132912E+03  d E =0.224615E-04
       N       E                     dE             d eps       ncg     rms          rms(c)
DAV:   1    -0.191436653641E+03   -0.63285E-02   -0.65186E-01  8160   0.172E+00    0.194E-01
DAV:   2    -0.191439867350E+03   -0.32137E-02   -0.21289E-02 13600   0.598E-01    0.477E-01
DAV:   3    -0.191437919423E+03    0.19479E-02   -0.69524E-03 11720   0.575E-01    0.239E-01
DAV:   4    -0.191437467848E+03    0.45157E-03   -0.15440E-03  9640   0.232E-01    0.123E-01
DAV:   5    -0.191437468756E+03   -0.90829E-06   -0.84615E-04  9320   0.195E-01
  36 F= -.19143747E+03 E0= -.19133580E+03  d E =-.713161E-02
       N       E                     dE             d eps       ncg     rms          rms(c)
DAV:   1    -0.191436701765E+03    0.76608E-03   -0.42287E-03 10120   0.199E-01    0.673E-02
DAV:   2    -0.191438017058E+03   -0.13153E-02   -0.27888E-03 10240   0.355E-01    0.374E-01
DAV:   3    -0.191436655266E+03    0.13618E-02   -0.20875E-03 10000   0.309E-01    0.334E-02
DAV:   4    -0.191436686406E+03   -0.31140E-04   -0.51144E-05  5920   0.448E-02
  37 F= -.19143669E+03 E0= -.19133478E+03  d E =0.782350E-03
       N       E                     dE             d eps       ncg     rms          rms(c)
DAV:   1    -0.191430861022E+03    0.57942E-02   -0.11041E+00  8160   0.221E+00    0.262E-01
DAV:   2    -0.191438316194E+03   -0.74552E-02   -0.36490E-02 13600   0.892E-01    0.815E-01
DAV:   3    -0.191432261973E+03    0.60542E-02   -0.17333E-02 11360   0.857E-01    0.298E-01
DAV:   4    -0.191431407824E+03    0.85415E-03   -0.26151E-03 10160   0.263E-01    0.111E-01
DAV:   5    -0.191431313532E+03    0.94292E-04   -0.66481E-04 10640   0.149E-01
  38 F= -.19143131E+03 E0= -.19133007E+03  d E =0.537287E-02
       N       E                     dE             d eps       ncg     rms          rms(c)
DAV:   1    -0.191430104228E+03    0.13036E-02   -0.72783E-02  8160   0.598E-01    0.132E-01
DAV:   2    -0.191433670176E+03   -0.35659E-02   -0.79583E-03 12160   0.603E-01    0.607E-01
DAV:   3    -0.191430001488E+03    0.36687E-02   -0.56341E-03 10000   0.542E-01    0.746E-02
DAV:   4    -0.191430092844E+03   -0.91356E-04   -0.35765E-04  8600   0.133E-01
  39 F= -.19143009E+03 E0= -.19132957E+03  d E =0.122069E-02
       N       E                     dE             d eps       ncg     rms          rms(c)
DAV:   1    -0.191440179215E+03   -0.10178E-01   -0.14664E+00  8160   0.259E+00    0.298E-01
DAV:   2    -0.191450159578E+03   -0.99804E-02   -0.53622E-02 13600   0.103E+00    0.960E-01
DAV:   3    -0.191442717465E+03    0.74421E-02   -0.23586E-02 11400   0.960E-01    0.321E-01
DAV:   4    -0.191441786783E+03    0.93068E-03   -0.33117E-03 10680   0.295E-01    0.162E-01
DAV:   5    -0.191441788533E+03   -0.17500E-05   -0.15530E-03 10440   0.263E-01    0.209E-01
DAV:   6    -0.191441417840E+03    0.37069E-03   -0.11904E-03  9720   0.240E-01    0.924E-02
DAV:   7    -0.191441439985E+03   -0.22145E-04   -0.40657E-04  8480   0.123E-01
  40 F= -.19144144E+03 E0= -.19134034E+03  d E =-.113471E-01
       N       E                     dE             d eps       ncg     rms          rms(c)
DAV:   1    -0.191431953198E+03    0.94646E-02   -0.14490E+00  8160   0.256E+00    0.290E-01
DAV:   2    -0.191438940364E+03   -0.69872E-02   -0.46109E-02 13600   0.873E-01    0.731E-01
DAV:   3    -0.191434636272E+03    0.43041E-02   -0.18122E-02 11640   0.871E-01    0.395E-01
DAV:   4    -0.191433191565E+03    0.14447E-02   -0.38682E-03 10520   0.345E-01    0.133E-01
DAV:   5    -0.191433088089E+03    0.10348E-03   -0.10105E-03 10080   0.183E-01    0.154E-01
DAV:   6    -0.191433010847E+03    0.77243E-04   -0.10257E-03  9200   0.227E-01    0.125E-01
DAV:   7    -0.191432876114E+03    0.13473E-03   -0.32189E-04  7480   0.114E-01    0.302E-02
DAV:   8    -0.191432876872E+03   -0.75790E-06   -0.57042E-05  6760   0.501E-02
  41 F= -.19143288E+03 E0= -.19133218E+03  d E =0.856311E-02
       N       E                     dE             d eps       ncg     rms          rms(c)
DAV:   1    -0.191432640837E+03    0.23528E-03   -0.14544E-01  8160   0.798E-01    0.856E-02
DAV:   2    -0.191433142609E+03   -0.50177E-03   -0.35486E-03 12440   0.229E-01    0.187E-01
DAV:   3    -0.191432839237E+03    0.30337E-03   -0.12566E-03  9960   0.244E-01    0.110E-01
DAV:   4    -0.191432773972E+03    0.65265E-04   -0.36585E-04  7640   0.122E-01
  42 F= -.19143277E+03 E0= -.19133268E+03  d E =0.102900E-03
       N       E                     dE             d eps       ncg     rms          rms(c)
DAV:   1    -0.191441673984E+03   -0.88347E-02   -0.72167E-01  8160   0.183E+00    0.205E-01
DAV:   2    -0.191444122789E+03   -0.24488E-02   -0.22449E-02 13560   0.531E-01    0.393E-01
DAV:   3    -0.191443243256E+03    0.87953E-03   -0.69192E-03 11920   0.549E-01    0.306E-01
DAV:   4    -0.191442480068E+03    0.76319E-03   -0.22792E-03  9880   0.290E-01    0.131E-01
DAV:   5    -0.191442408939E+03    0.71129E-04   -0.86226E-04  9520   0.191E-01
  43 F= -.19144241E+03 E0= -.19134185E+03  d E =-.963497E-02
       N       E                     dE             d eps       ncg     rms          rms(c)
DAV:   1    -0.191430133306E+03    0.12347E-01   -0.18198E+00  8160   0.294E+00    0.406E-01
DAV:   2    -0.191440320909E+03   -0.10188E-01   -0.72780E-02 13360   0.118E+00    0.970E-01
DAV:   3    -0.191432225360E+03    0.80955E-02   -0.30515E-02 11760   0.114E+00    0.505E-01
DAV:   4    -0.191430323559E+03    0.19018E-02   -0.82651E-03 10920   0.534E-01    0.272E-01
DAV:   5    -0.191430001315E+03    0.32224E-03   -0.35530E-03 11200   0.423E-01    0.263E-01
DAV:   6    -0.191429173407E+03    0.82791E-03   -0.18727E-03 10960   0.314E-01    0.835E-02
DAV:   7    -0.191429228136E+03   -0.54729E-04   -0.62024E-04  9920   0.144E-01
  44 F= -.19142923E+03 E0= -.19132939E+03  d E =0.131808E-01
       N       E                     dE             d eps       ncg     rms          rms(c)
DAV:   1    -0.191456589284E+03   -0.27416E-01   -0.47612E+00  8160   0.473E+00    0.645E-01
DAV:   2    -0.191483781736E+03   -0.27192E-01   -0.18177E-01 13560   0.191E+00    0.168E+00
DAV:   3    -0.191462639816E+03    0.21142E-01   -0.85465E-02 11920   0.187E+00    0.754E-01
DAV:   4    -0.191459520290E+03    0.31195E-02   -0.21285E-02 11560   0.927E-01    0.595E-01
DAV:   5    -0.191456773415E+03    0.27469E-02   -0.11541E-02 10960   0.792E-01    0.392E-01
DAV:   6    -0.191455288292E+03    0.14851E-02   -0.58492E-03 11040   0.475E-01    0.255E-01
DAV:   7    -0.191455406881E+03   -0.11859E-03   -0.39445E-03 11400   0.437E-01    0.276E-01
DAV:   8    -0.191454614221E+03    0.79266E-03   -0.14647E-03  9520   0.264E-01    0.513E-02
DAV:   9    -0.191454575855E+03    0.38366E-04   -0.12797E-04  6040   0.513E-02
  45 F= -.19145458E+03 E0= -.19135435E+03  d E =-.253477E-01
       N       E                     dE             d eps       ncg     rms          rms(c)
DAV:   1    -0.191455047495E+03   -0.43327E-03   -0.26724E-01  8160   0.110E+00    0.146E-01
DAV:   2    -0.191455920175E+03   -0.87268E-03   -0.80024E-03 13440   0.355E-01    0.299E-01
DAV:   3    -0.191455352993E+03    0.56718E-03   -0.38037E-03 11240   0.399E-01    0.219E-01
DAV:   4    -0.191454944776E+03    0.40822E-03   -0.11699E-03  9520   0.199E-01    0.816E-02
DAV:   5    -0.191454936490E+03    0.82856E-05   -0.39825E-04  8160   0.137E-01
  46 F= -.19145494E+03 E0= -.19135497E+03  d E =-.360635E-03
       N       E                     dE             d eps       ncg     rms          rms(c)
DAV:   1    -0.191470848708E+03   -0.15904E-01   -0.12974E+00  8160   0.241E+00    0.251E-01
DAV:   2    -0.191474658903E+03   -0.38102E-02   -0.32543E-02 12760   0.617E-01    0.460E-01
DAV:   3    -0.191473098966E+03    0.15599E-02   -0.96087E-03 12080   0.656E-01    0.344E-01
DAV:   4    -0.191472395232E+03    0.70373E-03   -0.35013E-03 11120   0.371E-01    0.219E-01
DAV:   5    -0.191472060653E+03    0.33458E-03   -0.15580E-03  9560   0.285E-01    0.153E-01
DAV:   6    -0.191471862734E+03    0.19792E-03   -0.73105E-04  9640   0.183E-01    0.828E-02
DAV:   7    -0.191472009353E+03   -0.14662E-03   -0.60473E-04  8520   0.174E-01    0.144E-01
DAV:   8    -0.191471802671E+03    0.20668E-03   -0.38548E-04  7760   0.145E-01    0.264E-02
DAV:   9    -0.191471804567E+03   -0.18957E-05   -0.34944E-05  5760   0.280E-02
  47 F= -.19147180E+03 E0= -.19137267E+03  d E =-.168681E-01
       N       E                     dE             d eps       ncg     rms          rms(c)
DAV:   1    -0.191442442217E+03    0.29360E-01   -0.38017E+00  8160   0.412E+00    0.462E-01
DAV:   2    -0.191455840261E+03   -0.13398E-01   -0.10252E-01 13520   0.133E+00    0.925E-01
DAV:   3    -0.191447435039E+03    0.84052E-02   -0.28795E-02 12080   0.121E+00    0.525E-01
DAV:   4    -0.191446530459E+03    0.90458E-03   -0.11760E-02 11920   0.671E-01    0.453E-01
DAV:   5    -0.191445139295E+03    0.13912E-02   -0.63196E-03 11600   0.558E-01    0.293E-01
DAV:   6    -0.191444230129E+03    0.90917E-03   -0.24627E-03 11480   0.322E-01    0.128E-01
DAV:   7    -0.191444744166E+03   -0.51404E-03   -0.19439E-03 10680   0.301E-01    0.258E-01
DAV:   8    -0.191444089429E+03    0.65474E-03   -0.11586E-03  8840   0.242E-01    0.418E-02
DAV:   9    -0.191444083410E+03    0.60188E-05   -0.75525E-05  5560   0.419E-02
  48 F= -.19144408E+03 E0= -.19134424E+03  d E =0.277212E-01
       N       E                     dE             d eps       ncg     rms          rms(c)
DAV:   1    -0.191395737444E+03    0.48352E-01   -0.24106E+01  8160   0.104E+01    0.104E+00
DAV:   2    -0.191455198097E+03   -0.59461E-01   -0.57304E-01 12520   0.240E+00    0.164E+00
DAV:   3    -0.191438624148E+03    0.16574E-01   -0.14216E-01 12400   0.249E+00    0.157E+00
DAV:   4    -0.191423616451E+03    0.15008E-01   -0.69985E-02 12480   0.165E+00    0.870E-01
DAV:   5    -0.191419294786E+03    0.43217E-02   -0.28118E-02 11560   0.113E+00    0.715E-01
DAV:   6    -0.191414546745E+03    0.47480E-02   -0.15352E-02 12320   0.848E-01    0.365E-01
DAV:   7    -0.191417287812E+03   -0.27411E-02   -0.12134E-02 12000   0.729E-01    0.635E-01
DAV:   8    -0.191413419498E+03    0.38683E-02   -0.70888E-03 11200   0.600E-01    0.116E-01
DAV:   9    -0.191413225868E+03    0.19363E-03   -0.57293E-04 10040   0.107E-01    0.374E-02
DAV:  10    -0.191413218988E+03    0.68807E-05   -0.12280E-04  7720   0.370E-02
  49 F= -.19141322E+03 E0= -.19130994E+03  d E =0.308644E-01
       N       E                     dE             d eps       ncg     rms          rms(c)
DAV:   1    -0.191418239378E+03   -0.50135E-02   -0.10832E+00  8160   0.224E+00    0.301E-01
DAV:   2    -0.191425511998E+03   -0.72726E-02   -0.46075E-02 13520   0.962E-01    0.800E-01
DAV:   3    -0.191420127596E+03    0.53844E-02   -0.18773E-02 10720   0.875E-01    0.354E-01
DAV:   4    -0.191419637103E+03    0.49049E-03   -0.51682E-03 10920   0.442E-01    0.297E-01
DAV:   5    -0.191418924856E+03    0.71225E-03   -0.26146E-03 10400   0.364E-01    0.168E-01
DAV:   6    -0.191418570154E+03    0.35470E-03   -0.97973E-04 10360   0.187E-01    0.698E-02
DAV:   7    -0.191418736203E+03   -0.16605E-03   -0.65762E-04  9200   0.170E-01    0.151E-01
DAV:   8    -0.191418513041E+03    0.22316E-03   -0.43199E-04  8080   0.151E-01    0.350E-02
DAV:   9    -0.191418507828E+03    0.52135E-05   -0.42929E-05  5640   0.347E-02
  50 F= -.19141851E+03 E0= -.19131519E+03  d E =-.528884E-02
       N       E                     dE             d eps       ncg     rms          rms(c)
DAV:   1    -0.191422542521E+03   -0.40295E-02   -0.60804E-01  8160   0.167E+00    0.185E-01
DAV:   2    -0.191424744338E+03   -0.22018E-02   -0.18992E-02 13440   0.477E-01    0.376E-01
DAV:   3    -0.191423938975E+03    0.80536E-03   -0.62942E-03 10880   0.502E-01    0.287E-01
DAV:   4    -0.191423280629E+03    0.65835E-03   -0.18592E-03  9560   0.253E-01    0.111E-01
DAV:   5    -0.191423232874E+03    0.47755E-04   -0.61231E-04  8640   0.159E-01
  51 F= -.19142323E+03 E0= -.19132006E+03  d E =-.472505E-02
       N       E                     dE             d eps       ncg     rms          rms(c)
DAV:   1    -0.191424132227E+03   -0.85160E-03   -0.27487E-01  8160   0.110E+00    0.115E-01
DAV:   2    -0.191425682789E+03   -0.15506E-02   -0.64849E-03 12760   0.396E-01    0.369E-01
DAV:   3    -0.191424349422E+03    0.13334E-02   -0.29833E-03 10720   0.383E-01    0.111E-01
DAV:   4    -0.191424291803E+03    0.57619E-04   -0.42802E-04  8520   0.108E-01
  52 F= -.19142429E+03 E0= -.19132065E+03  d E =-.105893E-02
       N       E                     dE             d eps       ncg     rms          rms(c)
DAV:   1    -0.191423260150E+03    0.10893E-02   -0.55852E-02  8160   0.501E-01    0.977E-02
DAV:   2    -0.191426134574E+03   -0.28744E-02   -0.63871E-03 13040   0.517E-01    0.554E-01
DAV:   3    -0.191423189811E+03    0.29448E-02   -0.45064E-03 10200   0.452E-01    0.428E-02
DAV:   4    -0.191423256951E+03   -0.67140E-04   -0.11470E-04  6400   0.701E-02
  53 F= -.19142326E+03 E0= -.19132008E+03  d E =0.103485E-02
       N       E                     dE             d eps       ncg     rms          rms(c)
DAV:   1    -0.191426135141E+03   -0.29453E-02   -0.21432E-01  8160   0.993E-01    0.121E-01
DAV:   2    -0.191427188965E+03   -0.10538E-02   -0.77097E-03 13520   0.340E-01    0.284E-01
DAV:   3    -0.191426582160E+03    0.60680E-03   -0.27854E-03 10160   0.346E-01    0.168E-01
DAV:   4    -0.191426361511E+03    0.22065E-03   -0.70145E-04  8240   0.152E-01    0.731E-02
DAV:   5    -0.191426365814E+03   -0.43030E-05   -0.32194E-04  7200   0.116E-01
  54 F= -.19142637E+03 E0= -.19132327E+03  d E =-.310886E-02
       N       E                     dE             d eps       ncg     rms          rms(c)
DAV:   1    -0.191425432593E+03    0.92892E-03   -0.41253E-01  8160   0.135E+00    0.142E-01
DAV:   2    -0.191427060503E+03   -0.16279E-02   -0.10633E-02 12800   0.382E-01    0.346E-01
DAV:   3    -0.191426030678E+03    0.10298E-02   -0.43162E-03 11360   0.417E-01    0.202E-01
DAV:   4    -0.191425721198E+03    0.30948E-03   -0.11501E-03  9520   0.190E-01    0.860E-02
DAV:   5    -0.191425722037E+03   -0.83910E-06   -0.40895E-04  8360   0.131E-01
  55 F= -.19142572E+03 E0= -.19132186E+03  d E =0.643777E-03
       N       E                     dE             d eps       ncg     rms          rms(c)
DAV:   1    -0.191431290980E+03   -0.55698E-02   -0.39793E-01  8160   0.138E+00    0.193E-01
DAV:   2    -0.191434130693E+03   -0.28397E-02   -0.17996E-02 12720   0.583E-01    0.522E-01
DAV:   3    -0.191431988956E+03    0.21417E-02   -0.79463E-03 11000   0.566E-01    0.235E-01
DAV:   4    -0.191431610425E+03    0.37853E-03   -0.17130E-03  9680   0.242E-01    0.140E-01
DAV:   5    -0.191431544659E+03    0.65766E-04   -0.92398E-04  9960   0.214E-01
  56 F= -.19143154E+03 E0= -.19132699E+03  d E =-.582262E-02
       N       E                     dE             d eps       ncg     rms          rms(c)
DAV:   1    -0.191420503037E+03    0.11107E-01   -0.14487E+00  8160   0.260E+00    0.333E-01
DAV:   2    -0.191430271795E+03   -0.97688E-02   -0.56929E-02 13560   0.105E+00    0.955E-01
DAV:   3    -0.191422456113E+03    0.78157E-02   -0.25767E-02 11320   0.102E+00    0.373E-01
DAV:   4    -0.191421230587E+03    0.12255E-02   -0.44257E-03 10200   0.350E-01    0.163E-01
DAV:   5    -0.191421120961E+03    0.10963E-03   -0.17214E-03 10480   0.252E-01    0.203E-01
DAV:   6    -0.191420810466E+03    0.31050E-03   -0.12911E-03  9800   0.256E-01    0.119E-01
DAV:   7    -0.191420871430E+03   -0.60964E-04   -0.68529E-04  8200   0.176E-01
  57 F= -.19142087E+03 E0= -.19131730E+03  d E =0.106732E-01
       N       E                     dE             d eps       ncg     rms          rms(c)
DAV:   1    -0.191411697890E+03    0.91126E-02   -0.13518E+00  8160   0.251E+00    0.313E-01
DAV:   2    -0.191419254899E+03   -0.75570E-02   -0.50155E-02 13360   0.924E-01    0.797E-01
DAV:   3    -0.191414208567E+03    0.50463E-02   -0.20516E-02 11880   0.907E-01    0.395E-01
DAV:   4    -0.191412982999E+03    0.12256E-02   -0.44295E-03 10680   0.358E-01    0.167E-01
DAV:   5    -0.191412701127E+03    0.28187E-03   -0.12487E-03 10400   0.230E-01    0.148E-01
DAV:   6    -0.191412604725E+03    0.96402E-04   -0.96905E-04 11400   0.236E-01
  58 F= -.19141260E+03 E0= -.19131000E+03  d E =0.826671E-02
       N       E                     dE             d eps       ncg     rms          rms(c)
DAV:   1    -0.191415939738E+03   -0.32386E-02   -0.32143E-01  8160   0.121E+00    0.180E-01
DAV:   2    -0.191421592573E+03   -0.56528E-02   -0.18255E-02 13520   0.747E-01    0.751E-01
DAV:   3    -0.191416326589E+03    0.52660E-02   -0.10239E-02 10800   0.685E-01    0.150E-01
DAV:   4    -0.191416222017E+03    0.10457E-03   -0.99739E-04  9880   0.174E-01    0.127E-01
DAV:   5    -0.191416148209E+03    0.73808E-04   -0.61244E-04  8360   0.167E-01
  59 F= -.19141615E+03 E0= -.19131303E+03  d E =-.354348E-02
       N       E                     dE             d eps       ncg     rms          rms(c)
DAV:   1    -0.191416015596E+03    0.20642E-03   -0.16232E-03  9920   0.130E-01    0.552E-02
DAV:   2    -0.191416719207E+03   -0.70361E-03   -0.13474E-03 10800   0.273E-01    0.261E-01
DAV:   3    -0.191415987835E+03    0.73137E-03   -0.10518E-03  9040   0.234E-01    0.425E-02
DAV:   4    -0.191415997891E+03   -0.10056E-04   -0.51094E-05  5520   0.475E-02
  60 F= -.19141600E+03 E0= -.19131286E+03  d E =0.150318E-03
       N       E                     dE             d eps       ncg     rms          rms(c)
DAV:   1    -0.191414899008E+03    0.10888E-02   -0.11563E-01  8160   0.740E-01    0.138E-01
DAV:   2    -0.191418269435E+03   -0.33704E-02   -0.98571E-03 12560   0.594E-01    0.615E-01
DAV:   3    -0.191414803623E+03    0.34658E-02   -0.65633E-03 10760   0.531E-01    0.956E-02
DAV:   4    -0.191414769554E+03    0.34068E-04   -0.47298E-04  8720   0.114E-01
  61 F= -.19141477E+03 E0= -.19131167E+03  d E =0.122834E-02
       N       E                     dE             d eps       ncg     rms          rms(c)
DAV:   1    -0.191416441633E+03   -0.16380E-02   -0.46173E-01  8160   0.152E+00    0.277E-01
DAV:   2    -0.191421597065E+03   -0.51554E-02   -0.25261E-02 12720   0.814E-01    0.821E-01
DAV:   3    -0.191415908378E+03    0.56887E-02   -0.16510E-02 11560   0.829E-01    0.273E-01
DAV:   4    -0.191415293899E+03    0.61448E-03   -0.28620E-03 10480   0.267E-01    0.164E-01
DAV:   5    -0.191415731963E+03   -0.43806E-03   -0.27354E-03 10640   0.348E-01    0.312E-01
DAV:   6    -0.191414794502E+03    0.93746E-03   -0.17323E-03  9600   0.274E-01    0.539E-02
DAV:   7    -0.191414832838E+03   -0.38337E-04   -0.22755E-04  6880   0.933E-02
  62 F= -.19141483E+03 E0= -.19131064E+03  d E =-.632837E-04
       N       E                     dE             d eps       ncg     rms          rms(c)
DAV:   1    -0.191417443426E+03   -0.26489E-02   -0.20031E-01  8160   0.986E-01    0.173E-01
DAV:   2    -0.191421748308E+03   -0.43049E-02   -0.13549E-02 12680   0.694E-01    0.679E-01
DAV:   3    -0.191417256548E+03    0.44918E-02   -0.81268E-03 11320   0.616E-01    0.120E-01
DAV:   4    -0.191417241890E+03    0.14658E-04   -0.85426E-04  9840   0.153E-01
  63 F= -.19141724E+03 E0= -.19131314E+03  d E =-.240905E-02
       N       E                     dE             d eps       ncg     rms          rms(c)
DAV:   1    -0.191419149742E+03   -0.18932E-02   -0.14540E-01  8160   0.866E-01    0.200E-01
DAV:   2    -0.191424341710E+03   -0.51920E-02   -0.16130E-02 12280   0.721E-01    0.800E-01
DAV:   3    -0.191418835435E+03    0.55063E-02   -0.12820E-02 11080   0.711E-01    0.180E-01
DAV:   4    -0.191418540191E+03    0.29524E-03   -0.11478E-03  9600   0.154E-01    0.766E-02
DAV:   5    -0.191418676422E+03   -0.13623E-03   -0.72257E-04 10120   0.175E-01    0.164E-01
DAV:   6    -0.191418406812E+03    0.26961E-03   -0.52059E-04  8600   0.163E-01    0.381E-02
DAV:   7    -0.191418422460E+03   -0.15648E-04   -0.72239E-05  5840   0.492E-02
  64 F= -.19141842E+03 E0= -.19131467E+03  d E =-.118057E-02
       N       E                     dE             d eps       ncg     rms          rms(c)
DAV:   1    -0.191421321973E+03   -0.29152E-02   -0.26712E-01  8160   0.110E+00    0.147E-01
DAV:   2    -0.191423148935E+03   -0.18270E-02   -0.93737E-03 13560   0.481E-01    0.428E-01
DAV:   3    -0.191421471211E+03    0.16777E-02   -0.41567E-03 11640   0.449E-01    0.131E-01
DAV:   4    -0.191421337494E+03    0.13372E-03   -0.55012E-04  9640   0.124E-01    0.646E-02
DAV:   5    -0.191421307290E+03    0.30204E-04   -0.25461E-04  7800   0.973E-02
  65 F= -.19142131E+03 E0= -.19131687E+03  d E =-.288483E-02
       N       E                     dE             d eps       ncg     rms          rms(c)
DAV:   1    -0.191419881138E+03    0.14564E-02   -0.94079E-02  8160   0.671E-01    0.102E-01
DAV:   2    -0.191421527264E+03   -0.16461E-02   -0.49793E-03 13240   0.414E-01    0.410E-01
DAV:   3    -0.191419885004E+03    0.16423E-02   -0.30796E-03 10000   0.384E-01    0.869E-02
DAV:   4    -0.191419906632E+03   -0.21628E-04   -0.36803E-04  8280   0.116E-01
  66 F= -.19141991E+03 E0= -.19131628E+03  d E =0.140066E-02
       N       E                     dE             d eps       ncg     rms          rms(c)
DAV:   1    -0.191420491236E+03   -0.60623E-03   -0.29218E-01  8160   0.118E+00    0.208E-01
DAV:   2    -0.191422424354E+03   -0.19331E-02   -0.13121E-02 12600   0.585E-01    0.490E-01
DAV:   3    -0.191420266749E+03    0.21576E-02   -0.65934E-03 11560   0.571E-01    0.219E-01
DAV:   4    -0.191419955142E+03    0.31161E-03   -0.17722E-03  9680   0.268E-01    0.153E-01
DAV:   5    -0.191419911563E+03    0.43579E-04   -0.11744E-03  9880   0.254E-01    0.151E-01
DAV:   6    -0.191419610141E+03    0.30142E-03   -0.55624E-04  8240   0.163E-01    0.347E-02
DAV:   7    -0.191419631151E+03   -0.21010E-04   -0.12675E-04  6000   0.585E-02
  67 F= -.19141963E+03 E0= -.19131641E+03  d E =0.275481E-03
       N       E                     dE             d eps       ncg     rms          rms(c)
DAV:   1    -0.191424578046E+03   -0.49679E-02   -0.58450E-01  8160   0.163E+00    0.207E-01
DAV:   2    -0.191427135646E+03   -0.25576E-02   -0.16876E-02 13600   0.598E-01    0.515E-01
DAV:   3    -0.191424914979E+03    0.22207E-02   -0.71726E-03 11800   0.590E-01    0.217E-01
DAV:   4    -0.191424459158E+03    0.45582E-03   -0.13082E-03 10240   0.202E-01    0.879E-02
DAV:   5    -0.191424417863E+03    0.41295E-04   -0.66683E-04 10640   0.134E-01
  68 F= -.19142442E+03 E0= -.19131991E+03  d E =-.478671E-02
       N       E                     dE             d eps       ncg     rms          rms(c)
DAV:   1    -0.191426739939E+03   -0.22808E-02   -0.14175E-01  8160   0.851E-01    0.213E-01
DAV:   2    -0.191433299021E+03   -0.65591E-02   -0.20007E-02 11400   0.859E-01    0.901E-01
DAV:   3    -0.191426266505E+03    0.70325E-02   -0.14438E-02 10720   0.760E-01    0.174E-01
DAV:   4    -0.191426356599E+03   -0.90094E-04   -0.17287E-03 10160   0.281E-01    0.189E-01
DAV:   5    -0.191426023608E+03    0.33299E-03   -0.11007E-03  9760   0.238E-01    0.110E-01
DAV:   6    -0.191425989092E+03    0.34517E-04   -0.57558E-04  8760   0.154E-01
  69 F= -.19142599E+03 E0= -.19132122E+03  d E =-.157123E-02
       N       E                     dE             d eps       ncg     rms          rms(c)
DAV:   1    -0.191431587572E+03   -0.55640E-02   -0.43702E-01  8160   0.141E+00    0.150E-01
DAV:   2    -0.191432979597E+03   -0.13920E-02   -0.11630E-02 12800   0.404E-01    0.285E-01
DAV:   3    -0.191432379088E+03    0.60051E-03   -0.31325E-03 10920   0.393E-01    0.204E-01
DAV:   4    -0.191432082663E+03    0.29643E-03   -0.10531E-03  9520   0.210E-01    0.106E-01
DAV:   5    -0.191432070507E+03    0.12156E-04   -0.52342E-04  8680   0.166E-01
  70 F= -.19143207E+03 E0= -.19132730E+03  d E =-.608142E-02
       N       E                     dE             d eps       ncg     rms          rms(c)
DAV:   1    -0.191425186735E+03    0.68959E-02   -0.69952E-01  8160   0.176E+00    0.181E-01
DAV:   2    -0.191428905011E+03   -0.37183E-02   -0.17840E-02 13000   0.627E-01    0.579E-01
DAV:   3    -0.191425904204E+03    0.30008E-02   -0.74539E-03 11360   0.585E-01    0.179E-01
DAV:   4    -0.191425749615E+03    0.15459E-03   -0.11533E-03  9800   0.188E-01    0.125E-01
DAV:   5    -0.191425724007E+03    0.25608E-04   -0.75438E-04  8800   0.189E-01
  71 F= -.19142572E+03 E0= -.19132111E+03  d E =0.634650E-02
       N       E                     dE             d eps       ncg     rms          rms(c)
DAV:   1    -0.191426103227E+03   -0.35361E-03   -0.17960E-01  8160   0.919E-01    0.132E-01
DAV:   2    -0.191426514713E+03   -0.41149E-03   -0.59990E-03 13240   0.275E-01    0.219E-01
DAV:   3    -0.191426334805E+03    0.17991E-03   -0.23529E-03 10240   0.320E-01    0.193E-01
DAV:   4    -0.191426013323E+03    0.32148E-03   -0.85059E-04  8360   0.174E-01    0.754E-02
DAV:   5    -0.191426071003E+03   -0.57680E-04   -0.49194E-04  8320   0.143E-01
  72 F= -.19142607E+03 E0= -.19132184E+03  d E =-.346996E-03
       N       E                     dE             d eps       ncg     rms          rms(c)
DAV:   1    -0.191431154975E+03   -0.51417E-02   -0.55977E-01  8160   0.158E+00    0.173E-01
DAV:   2    -0.191432485912E+03   -0.13309E-02   -0.12087E-02 13360   0.460E-01    0.305E-01
DAV:   3    -0.191431532519E+03    0.95339E-03   -0.32825E-03 12240   0.418E-01    0.166E-01
DAV:   4    -0.191431403040E+03    0.12948E-03   -0.12230E-03  9920   0.222E-01    0.146E-01
DAV:   5    -0.191431406648E+03   -0.36081E-05   -0.10647E-03  9000   0.210E-01    0.162E-01
DAV:   6    -0.191431151314E+03    0.25533E-03   -0.59857E-04  8240   0.152E-01    0.381E-02
DAV:   7    -0.191431184130E+03   -0.32817E-04   -0.11513E-04  5760   0.660E-02
  73 F= -.19143118E+03 E0= -.19132637E+03  d E =-.511313E-02
       N       E                     dE             d eps       ncg     rms          rms(c)
DAV:   1    -0.191423329811E+03    0.78215E-02   -0.86364E-01  8160   0.197E+00    0.198E-01
DAV:   2    -0.191425473197E+03   -0.21434E-02   -0.19451E-02 13240   0.501E-01    0.376E-01
DAV:   3    -0.191424648769E+03    0.82443E-03   -0.64347E-03 11440   0.518E-01    0.290E-01
DAV:   4    -0.191424150192E+03    0.49858E-03   -0.23722E-03  9560   0.294E-01    0.170E-01
DAV:   5    -0.191423990144E+03    0.16005E-03   -0.10341E-03  9480   0.231E-01    0.132E-01
DAV:   6    -0.191423817145E+03    0.17300E-03   -0.51634E-04  8880   0.150E-01    0.586E-02
DAV:   7    -0.191423942247E+03   -0.12510E-03   -0.40186E-04  8280   0.142E-01    0.123E-01
DAV:   8    -0.191423779722E+03    0.16252E-03   -0.20266E-04  5880   0.109E-01    0.963E-03
DAV:   9    -0.191423792603E+03   -0.12881E-04   -0.24600E-05  5520   0.168E-02
  74 F= -.19142379E+03 E0= -.19131986E+03  d E =0.739153E-02
       N       E                     dE             d eps       ncg     rms          rms(c)
DAV:   1    -0.191424366816E+03   -0.58709E-03   -0.16452E-01  8160   0.870E-01    0.118E-01
DAV:   2    -0.191424663665E+03   -0.29685E-03   -0.49453E-03 12880   0.256E-01    0.187E-01
DAV:   3    -0.191424595479E+03    0.68186E-04   -0.19665E-03 10120   0.285E-01    0.193E-01
DAV:   4    -0.191424284902E+03    0.31058E-03   -0.86055E-04  8280   0.181E-01    0.730E-02
DAV:   5    -0.191424271765E+03    0.13137E-04   -0.29423E-04  6840   0.106E-01
  75 F= -.19142427E+03 E0= -.19132104E+03  d E =-.479161E-03
       N       E                     dE             d eps       ncg     rms          rms(c)
DAV:   1    -0.191428219905E+03   -0.39350E-02   -0.26687E-01  8160   0.112E+00    0.134E-01
DAV:   2    -0.191429611839E+03   -0.13919E-02   -0.94846E-03 13280   0.382E-01    0.320E-01
DAV:   3    -0.191428744194E+03    0.86765E-03   -0.30563E-03 10920   0.382E-01    0.162E-01
DAV:   4    -0.191428615283E+03    0.12891E-03   -0.77779E-04  8360   0.172E-01    0.114E-01
DAV:   5    -0.191428527447E+03    0.87836E-04   -0.43696E-04  8120   0.145E-01
  76 F= -.19142853E+03 E0= -.19132498E+03  d E =-.425568E-02
       N       E                     dE             d eps       ncg     rms          rms(c)
DAV:   1    -0.191425043816E+03    0.35715E-02   -0.18428E-01  8160   0.924E-01    0.124E-01
DAV:   2    -0.191427539762E+03   -0.24959E-02   -0.90967E-03 13600   0.485E-01    0.501E-01
DAV:   3    -0.191425202667E+03    0.23371E-02   -0.50400E-03 11040   0.458E-01    0.990E-02
DAV:   4    -0.191425168662E+03    0.34005E-04   -0.43214E-04  9080   0.978E-02
  77 F= -.19142517E+03 E0= -.19132199E+03  d E =0.335879E-02
       N       E                     dE             d eps       ncg     rms          rms(c)
DAV:   1    -0.191419143180E+03    0.60595E-02   -0.11606E+00  8160   0.230E+00    0.276E-01
DAV:   2    -0.191423520875E+03   -0.43777E-02   -0.32274E-02 13600   0.696E-01    0.609E-01
DAV:   3    -0.191420918080E+03    0.26028E-02   -0.14359E-02 11360   0.761E-01    0.405E-01
DAV:   4    -0.191419553727E+03    0.13644E-02   -0.38596E-03 10480   0.351E-01    0.136E-01
DAV:   5    -0.191419332425E+03    0.22130E-03   -0.89554E-04 10080   0.156E-01    0.119E-01
DAV:   6    -0.191419433620E+03   -0.10119E-03   -0.10042E-03 10080   0.225E-01    0.156E-01
DAV:   7    -0.191419217000E+03    0.21662E-03   -0.42211E-04  8040   0.142E-01    0.401E-02
DAV:   8    -0.191419212759E+03    0.42404E-05   -0.61211E-05  5600   0.559E-02
  78 F= -.19141921E+03 E0= -.19131671E+03  d E =0.595590E-02
       N       E                     dE             d eps       ncg     rms          rms(c)
DAV:   1    -0.191423430829E+03   -0.42138E-02   -0.47103E-01  8160   0.148E+00    0.181E-01
DAV:   2    -0.191425269988E+03   -0.18392E-02   -0.15700E-02 13320   0.503E-01    0.394E-01
DAV:   3    -0.191424261013E+03    0.10090E-02   -0.58039E-03 10440   0.483E-01    0.247E-01
DAV:   4    -0.191423809988E+03    0.45103E-03   -0.17204E-03  9520   0.253E-01    0.136E-01
DAV:   5    -0.191423744504E+03    0.65484E-04   -0.80667E-04  9520   0.208E-01
  79 F= -.19142374E+03 E0= -.19132046E+03  d E =-.453174E-02
       N       E                     dE             d eps       ncg     rms          rms(c)
DAV:   1    -0.191419165542E+03    0.46444E-02   -0.72831E-01  8160   0.182E+00    0.203E-01
DAV:   2    -0.191422823073E+03   -0.36575E-02   -0.22997E-02 13560   0.626E-01    0.529E-01
DAV:   3    -0.191420388081E+03    0.24350E-02   -0.85390E-03 11120   0.608E-01    0.247E-01
DAV:   4    -0.191420109055E+03    0.27903E-03   -0.22246E-03  9680   0.285E-01    0.181E-01
DAV:   5    -0.191419872120E+03    0.23694E-03   -0.10445E-03  9560   0.229E-01    0.115E-01
DAV:   6    -0.191419735727E+03    0.13639E-03   -0.41115E-04  8800   0.127E-01    0.649E-02
DAV:   7    -0.191419826723E+03   -0.90996E-04   -0.39992E-04  8360   0.145E-01
  80 F= -.19141983E+03 E0= -.19131748E+03  d E =0.391778E-02
       N       E                     dE             d eps       ncg     rms          rms(c)
DAV:   1    -0.191419811434E+03   -0.75707E-04   -0.17359E-01  8160   0.897E-01    0.125E-01
DAV:   2    -0.191419991212E+03   -0.17978E-03   -0.49311E-03 12680   0.247E-01    0.165E-01
DAV:   3    -0.191420095261E+03   -0.10405E-03   -0.20338E-03 10120   0.290E-01    0.222E-01
DAV:   4    -0.191419683497E+03    0.41176E-03   -0.11137E-03  8600   0.211E-01    0.812E-02
DAV:   5    -0.191419682320E+03    0.11772E-05   -0.34622E-04  7120   0.120E-01
  81 F= -.19141968E+03 E0= -.19131811E+03  d E =0.144403E-03
       N       E                     dE             d eps       ncg     rms          rms(c)
DAV:   1    -0.191422871511E+03   -0.31880E-02   -0.22656E-01  8160   0.103E+00    0.120E-01
DAV:   2    -0.191424210960E+03   -0.13394E-02   -0.81834E-03 13560   0.366E-01    0.336E-01
DAV:   3    -0.191423255532E+03    0.95543E-03   -0.31752E-03 10640   0.358E-01    0.135E-01
DAV:   4    -0.191423139429E+03    0.11610E-03   -0.56554E-04  8240   0.130E-01    0.705E-02
DAV:   5    -0.191423146820E+03   -0.73918E-05   -0.28064E-04  7920   0.118E-01
  82 F= -.19142315E+03 E0= -.19132166E+03  d E =-.346450E-02
       N       E                     dE             d eps       ncg     rms          rms(c)
DAV:   1    -0.191421496676E+03    0.16428E-02   -0.79645E-02  8160   0.617E-01    0.866E-02
DAV:   2    -0.191422220560E+03   -0.72388E-03   -0.36481E-03 12720   0.280E-01    0.263E-01
DAV:   3    -0.191421592143E+03    0.62842E-03   -0.17348E-03 10040   0.278E-01    0.958E-02
DAV:   4    -0.191421521460E+03    0.70683E-04   -0.25315E-04  6160   0.906E-02
  83 F= -.19142152E+03 E0= -.19132008E+03  d E =0.162536E-02
       N       E                     dE             d eps       ncg     rms          rms(c)
DAV:   1    -0.191426200280E+03   -0.46081E-02   -0.33602E-01  8160   0.126E+00    0.189E-01
DAV:   2    -0.191429656331E+03   -0.34561E-02   -0.16103E-02 13400   0.686E-01    0.572E-01
DAV:   3    -0.191426435491E+03    0.32208E-02   -0.68178E-03 11600   0.599E-01    0.163E-01
DAV:   4    -0.191426451668E+03   -0.16177E-04   -0.13523E-03  9960   0.246E-01    0.171E-01
DAV:   5    -0.191426179169E+03    0.27250E-03   -0.83478E-04  9440   0.216E-01    0.950E-02
DAV:   6    -0.191426074316E+03    0.10485E-03   -0.31172E-04  7480   0.106E-01    0.336E-02
DAV:   7    -0.191426054186E+03    0.20130E-04   -0.97520E-05  6600   0.400E-02
  84 F= -.19142605E+03 E0= -.19132464E+03  d E =-.453273E-02
       N       E                     dE             d eps       ncg     rms          rms(c)
DAV:   1    -0.191428046159E+03   -0.19718E-02   -0.58018E-02  8160   0.513E-01    0.602E-02
DAV:   2    -0.191428334519E+03   -0.28836E-03   -0.18824E-03 13600   0.166E-01    0.153E-01
DAV:   3    -0.191428136061E+03    0.19846E-03   -0.74749E-04  8520   0.177E-01    0.796E-02
DAV:   4    -0.191428099584E+03    0.36477E-04   -0.15772E-04  5520   0.744E-02
  85 F= -.19142810E+03 E0= -.19132694E+03  d E =-.204540E-02
       N       E                     dE             d eps       ncg     rms          rms(c)
DAV:   1    -0.191414613944E+03    0.13522E-01   -0.32982E+00  8160   0.384E+00    0.387E-01
DAV:   2    -0.191423877413E+03   -0.92635E-02   -0.77287E-02 13040   0.924E-01    0.712E-01
DAV:   3    -0.191419860373E+03    0.40170E-02   -0.22076E-02 12480   0.994E-01    0.554E-01
DAV:   4    -0.191417999074E+03    0.18613E-02   -0.87732E-03 11720   0.576E-01    0.323E-01
DAV:   5    -0.191417418212E+03    0.58086E-03   -0.38247E-03 11160   0.433E-01    0.263E-01
DAV:   6    -0.191416797604E+03    0.62061E-03   -0.20754E-03  9840   0.305E-01    0.140E-01
DAV:   7    -0.191417177288E+03   -0.37968E-03   -0.17317E-03 10440   0.282E-01    0.236E-01
DAV:   8    -0.191416626145E+03    0.55114E-03   -0.94066E-04  8360   0.220E-01    0.382E-02
DAV:   9    -0.191416621472E+03    0.46730E-05   -0.69447E-05  5640   0.381E-02
  86 F= -.19141662E+03 E0= -.19131388E+03  d E =0.114781E-01
       N       E                     dE             d eps       ncg     rms          rms(c)
DAV:   1    -0.191415327836E+03    0.12983E-02   -0.33396E-01  8160   0.121E+00    0.126E-01
DAV:   2    -0.191416334447E+03   -0.10066E-02   -0.81252E-03 13240   0.378E-01    0.244E-01
DAV:   3    -0.191415724870E+03    0.60958E-03   -0.19266E-03 11040   0.317E-01    0.118E-01
DAV:   4    -0.191415706591E+03    0.18280E-04   -0.69259E-04  8680   0.161E-01
  87 F= -.19141571E+03 E0= -.19131253E+03  d E =0.914882E-03
       N       E                     dE             d eps       ncg     rms          rms(c)
DAV:   1    -0.191418282561E+03   -0.25577E-02   -0.32956E-01  8160   0.124E+00    0.138E-01
DAV:   2    -0.191419134961E+03   -0.85240E-03   -0.97819E-03 12600   0.306E-01    0.199E-01
DAV:   3    -0.191419012864E+03    0.12210E-03   -0.25077E-03 11280   0.334E-01    0.210E-01
DAV:   4    -0.191418664187E+03    0.34868E-03   -0.97013E-04  9080   0.208E-01    0.100E-01
DAV:   5    -0.191418621856E+03    0.42331E-04   -0.45221E-04  8240   0.152E-01
  88 F= -.19141862E+03 E0= -.19131538E+03  d E =-.291527E-02
       N       E                     dE             d eps       ncg     rms          rms(c)
DAV:   1    -0.191418723022E+03   -0.58835E-04   -0.26278E-02  8160   0.349E-01    0.570E-02
DAV:   2    -0.191419179591E+03   -0.45657E-03   -0.13888E-03 11240   0.222E-01    0.213E-01
DAV:   3    -0.191418727606E+03    0.45199E-03   -0.87614E-04  8720   0.200E-01    0.571E-02
DAV:   4    -0.191418726450E+03    0.11559E-05   -0.11826E-04  5520   0.747E-02
  89 F= -.19141873E+03 E0= -.19131553E+03  d E =-.104594E-03
       N       E                     dE             d eps       ncg     rms          rms(c)
DAV:   1    -0.191419361358E+03   -0.63375E-03   -0.40546E-02  8160   0.429E-01    0.612E-02
DAV:   2    -0.191419649853E+03   -0.28850E-03   -0.12899E-03 12480   0.172E-01    0.165E-01
DAV:   3    -0.191419377855E+03    0.27200E-03   -0.72290E-04  8520   0.181E-01    0.715E-02
DAV:   4    -0.191419366012E+03    0.11844E-04   -0.16929E-04  5520   0.807E-02
  90 F= -.19141937E+03 E0= -.19131569E+03  d E =-.639562E-03
       N       E                     dE             d eps       ncg     rms          rms(c)
DAV:   1    -0.191420251814E+03   -0.87396E-03   -0.35181E-01  8160   0.124E+00    0.126E-01
DAV:   2    -0.191421851948E+03   -0.16001E-02   -0.84143E-03 13240   0.410E-01    0.350E-01
DAV:   3    -0.191420616917E+03    0.12350E-02   -0.29701E-03 10840   0.384E-01    0.125E-01
DAV:   4    -0.191420668155E+03   -0.51238E-04   -0.76829E-04  8240   0.178E-01
  91 F= -.19142067E+03 E0= -.19131790E+03  d E =-.130214E-02
       N       E                     dE             d eps       ncg     rms          rms(c)
DAV:   1    -0.191422778308E+03   -0.21614E-02   -0.15152E-01  8160   0.854E-01    0.112E-01
DAV:   2    -0.191423609288E+03   -0.83098E-03   -0.54412E-03 13520   0.289E-01    0.256E-01
DAV:   3    -0.191423068721E+03    0.54057E-03   -0.24929E-03 10320   0.324E-01    0.163E-01
DAV:   4    -0.191422892758E+03    0.17596E-03   -0.73096E-04  8200   0.160E-01    0.835E-02
DAV:   5    -0.191422879729E+03    0.13029E-04   -0.31269E-04  8000   0.129E-01
  92 F= -.19142288E+03 E0= -.19131997E+03  d E =-.221157E-02
       N       E                     dE             d eps       ncg     rms          rms(c)
DAV:   1    -0.191422420484E+03    0.47227E-03   -0.11627E-01  8160   0.712E-01    0.824E-02
DAV:   2    -0.191422802750E+03   -0.38227E-03   -0.27249E-03 12960   0.243E-01    0.198E-01
DAV:   3    -0.191422470937E+03    0.33181E-03   -0.10477E-03  9200   0.224E-01    0.891E-02
DAV:   4    -0.191422435009E+03    0.35928E-04   -0.27589E-04  6920   0.103E-01
  93 F= -.19142244E+03 E0= -.19131974E+03  d E =0.444720E-03
       N       E                     dE             d eps       ncg     rms          rms(c)
DAV:   1    -0.191422442808E+03    0.28130E-04   -0.77916E-02  8160   0.588E-01    0.102E-01
DAV:   2    -0.191424361508E+03   -0.19187E-02   -0.47958E-03 12680   0.430E-01    0.446E-01
DAV:   3    -0.191422415589E+03    0.19459E-02   -0.34908E-03  9960   0.401E-01    0.845E-02
DAV:   4    -0.191422440635E+03   -0.25046E-04   -0.32795E-04  8320   0.115E-01
  94 F= -.19142244E+03 E0= -.19132030E+03  d E =-.562586E-05
       N       E                     dE             d eps       ncg     rms          rms(c)
DAV:   1    -0.191425498133E+03   -0.30825E-02   -0.21380E-01  8160   0.100E+00    0.115E-01
DAV:   2    -0.191426191017E+03   -0.69288E-03   -0.68307E-03 13240   0.280E-01    0.212E-01
DAV:   3    -0.191426001832E+03    0.18919E-03   -0.22530E-03 10040   0.298E-01    0.184E-01
DAV:   4    -0.191425718655E+03    0.28318E-03   -0.78779E-04  8200   0.167E-01    0.650E-02
DAV:   5    -0.191425665128E+03    0.53527E-04   -0.14538E-04  5840   0.643E-02
  95 F= -.19142567E+03 E0= -.19132315E+03  d E =-.322449E-02
       N       E                     dE             d eps       ncg     rms          rms(c)
DAV:   1    -0.191422606938E+03    0.31117E-02   -0.26127E-01  8160   0.111E+00    0.152E-01
DAV:   2    -0.191424961963E+03   -0.23550E-02   -0.11262E-02 13120   0.519E-01    0.479E-01
DAV:   3    -0.191422830111E+03    0.21319E-02   -0.53588E-03 11480   0.492E-01    0.140E-01
DAV:   4    -0.191422745946E+03    0.84165E-04   -0.82907E-04  9640   0.163E-01
  96 F= -.19142275E+03 E0= -.19132057E+03  d E =0.291918E-02
       N       E                     dE             d eps       ncg     rms          rms(c)
DAV:   1    -0.191420200240E+03    0.26299E-02   -0.40480E-01  8160   0.138E+00    0.212E-01
DAV:   2    -0.191424302275E+03   -0.41020E-02   -0.17829E-02 13600   0.648E-01    0.645E-01
DAV:   3    -0.191420564659E+03    0.37376E-02   -0.10487E-02 11280   0.678E-01    0.236E-01
DAV:   4    -0.191420203338E+03    0.36132E-03   -0.17945E-03  9720   0.229E-01    0.139E-01
DAV:   5    -0.191420185632E+03    0.17707E-04   -0.97375E-04  9840   0.229E-01
  97 F= -.19142019E+03 E0= -.19131818E+03  d E =0.256031E-02
       N       E                     dE             d eps       ncg     rms          rms(c)
DAV:   1    -0.191424089846E+03   -0.38865E-02   -0.53087E-01  8160   0.157E+00    0.190E-01
DAV:   2    -0.191427815847E+03   -0.37260E-02   -0.20851E-02 13400   0.612E-01    0.563E-01
DAV:   3    -0.191425005410E+03    0.28104E-02   -0.84265E-03 11480   0.594E-01    0.203E-01
DAV:   4    -0.191424725295E+03    0.28012E-03   -0.14904E-03  9720   0.206E-01    0.123E-01
DAV:   5    -0.191424745404E+03   -0.20110E-04   -0.85552E-04  9320   0.199E-01
  98 F= -.19142475E+03 E0= -.19132300E+03  d E =-.455977E-02
       N       E                     dE             d eps       ncg     rms          rms(c)
DAV:   1    -0.191421997336E+03    0.27280E-02   -0.24071E-01  8160   0.106E+00    0.168E-01
DAV:   2    -0.191427800241E+03   -0.58029E-02   -0.16644E-02 13560   0.743E-01    0.771E-01
DAV:   3    -0.191422066180E+03    0.57341E-02   -0.95205E-03 10520   0.663E-01    0.979E-02
DAV:   4    -0.191422073083E+03   -0.69033E-05   -0.59573E-04  9600   0.107E-01
  99 F= -.19142207E+03 E0= -.19131965E+03  d E =0.267232E-02
       N       E                     dE             d eps       ncg     rms          rms(c)
DAV:   1    -0.191418005204E+03    0.40610E-02   -0.80911E-01  8160   0.192E+00    0.259E-01
DAV:   2    -0.191425568302E+03   -0.75631E-02   -0.31688E-02 13600   0.901E-01    0.873E-01
DAV:   3    -0.191418579114E+03    0.69892E-02   -0.16726E-02 11440   0.846E-01    0.240E-01
DAV:   4    -0.191418199172E+03    0.37994E-03   -0.23691E-03 10200   0.252E-01    0.146E-01
DAV:   5    -0.191418141643E+03    0.57530E-04   -0.11699E-03 11080   0.237E-01    0.165E-01
DAV:   6    -0.191417889126E+03    0.25252E-03   -0.80285E-04  9360   0.203E-01    0.840E-02
DAV:   7    -0.191417933041E+03   -0.43915E-04   -0.42309E-04  8040   0.141E-01
 100 F= -.19141793E+03 E0= -.19131510E+03  d E =0.414004E-02
