<?xml version="1.0" encoding="ISO-8859-1"?>
<modeling>
 <generator>
  <i name="program" type="string">vasp </i>
  <i name="version" type="string">5.4.1  </i>
  <i name="subversion" type="string">05Feb16 (build Jul 05 2020 17:13:04) complex                          parallel </i>
  <i name="platform" type="string">IFC91_ompi </i>
  <i name="date" type="string">2024 04 27 </i>
  <i name="time" type="string">08:24:09 </i>
 </generator>
 <incar>
  <i type="int" name="ISTART">     0</i>
  <i type="string" name="PREC">normal</i>
  <i type="string" name="ALGO"> Normal</i>
  <i type="int" name="ISPIN">     1</i>
  <i type="int" name="ICHARG">     2</i>
  <i type="int" name="IBRION">     1</i>
  <i type="int" name="NSW">   100</i>
  <i type="int" name="ISIF">     3</i>
  <i type="int" name="ISYM">     0</i>
  <i name="SYMPREC">      0.00000001</i>
  <i name="POTIM">      0.50000000</i>
  <i type="logical" name="LREAL"> F  </i>
  <i type="logical" name="LPLANE"> F  </i>
  <i type="int" name="ISMEAR">     0</i>
  <i type="logical" name="LWAVE"> F  </i>
  <i type="logical" name="LCHARG"> F  </i>
  <v type="int" name="KPOINT_BSE">    -1     0     0     0</v>
 </incar>
 <kpoints>
  <generation param="Gamma">
   <v type="int" name="divisions">       8        8        1 </v>
   <v name="usershift">      0.00000000       0.00000000       0.00000000 </v>
   <v name="genvec1">      0.12500000       0.00000000       0.00000000 </v>
   <v name="genvec2">     -0.00000000       0.12500000       0.00000000 </v>
   <v name="genvec3">      0.00000000       0.00000000       1.00000000 </v>
   <v name="shift">      0.00000000       0.00000000       0.00000000 </v>
  </generation>
  <varray name="kpointlist" >
   <v>       0.00000000       0.00000000       0.00000000 </v>
   <v>       0.12500000       0.00000000       0.00000000 </v>
   <v>       0.25000000       0.00000000       0.00000000 </v>
   <v>       0.37500000       0.00000000       0.00000000 </v>
   <v>       0.50000000       0.00000000       0.00000000 </v>
   <v>       0.00000000       0.12500000       0.00000000 </v>
   <v>       0.12500000       0.12500000       0.00000000 </v>
   <v>       0.25000000       0.12500000       0.00000000 </v>
   <v>       0.37500000       0.12500000       0.00000000 </v>
   <v>       0.50000000       0.12500000       0.00000000 </v>
   <v>      -0.37500000       0.12500000       0.00000000 </v>
   <v>      -0.25000000       0.12500000       0.00000000 </v>
   <v>      -0.12500000       0.12500000       0.00000000 </v>
   <v>       0.00000000       0.25000000       0.00000000 </v>
   <v>       0.12500000       0.25000000       0.00000000 </v>
   <v>       0.25000000       0.25000000       0.00000000 </v>
   <v>       0.37500000       0.25000000       0.00000000 </v>
   <v>       0.50000000       0.25000000       0.00000000 </v>
   <v>      -0.37500000       0.25000000       0.00000000 </v>
   <v>      -0.25000000       0.25000000       0.00000000 </v>
   <v>      -0.12500000       0.25000000       0.00000000 </v>
   <v>      -0.00000000       0.37500000       0.00000000 </v>
   <v>       0.12500000       0.37500000       0.00000000 </v>
   <v>       0.25000000       0.37500000       0.00000000 </v>
   <v>       0.37500000       0.37500000       0.00000000 </v>
   <v>       0.50000000       0.37500000       0.00000000 </v>
   <v>      -0.37500000       0.37500000       0.00000000 </v>
   <v>      -0.25000000       0.37500000       0.00000000 </v>
   <v>      -0.12500000       0.37500000       0.00000000 </v>
   <v>       0.00000000       0.50000000       0.00000000 </v>
   <v>       0.12500000       0.50000000       0.00000000 </v>
   <v>       0.25000000       0.50000000       0.00000000 </v>
   <v>       0.37500000       0.50000000       0.00000000 </v>
   <v>       0.50000000       0.50000000       0.00000000 </v>
  </varray>
  <varray name="weights" >
   <v>       0.01562500 </v>
   <v>       0.03125000 </v>
   <v>       0.03125000 </v>
   <v>       0.03125000 </v>
   <v>       0.01562500 </v>
   <v>       0.03125000 </v>
   <v>       0.03125000 </v>
   <v>       0.03125000 </v>
   <v>       0.03125000 </v>
   <v>       0.03125000 </v>
   <v>       0.03125000 </v>
   <v>       0.03125000 </v>
   <v>       0.03125000 </v>
   <v>       0.03125000 </v>
   <v>       0.03125000 </v>
   <v>       0.03125000 </v>
   <v>       0.03125000 </v>
   <v>       0.03125000 </v>
   <v>       0.03125000 </v>
   <v>       0.03125000 </v>
   <v>       0.03125000 </v>
   <v>       0.03125000 </v>
   <v>       0.03125000 </v>
   <v>       0.03125000 </v>
   <v>       0.03125000 </v>
   <v>       0.03125000 </v>
   <v>       0.03125000 </v>
   <v>       0.03125000 </v>
   <v>       0.03125000 </v>
   <v>       0.01562500 </v>
   <v>       0.03125000 </v>
   <v>       0.03125000 </v>
   <v>       0.03125000 </v>
   <v>       0.01562500 </v>
  </varray>
 </kpoints>
 <parameters>
  <separator name="general" >
   <i type="string" name="SYSTEM">unknown system</i>
   <i type="logical" name="LCOMPAT"> F  </i>
  </separator>
  <separator name="electronic" >
   <i type="string" name="PREC">normal</i>
   <i name="ENMAX">    280.00000000</i>
   <i name="ENAUG">    373.43800000</i>
   <i name="EDIFF">      0.00010000</i>
   <i type="int" name="IALGO">    38</i>
   <i type="int" name="IWAVPR">    11</i>
   <i type="int" name="NBANDS">   120</i>
   <i name="NELECT">    159.00000000</i>
   <i type="int" name="TURBO">     0</i>
   <i type="int" name="IRESTART">     0</i>
   <i type="int" name="NREBOOT">     0</i>
   <i type="int" name="NMIN">     0</i>
   <i name="EREF">      0.00000000</i>
   <separator name="electronic smearing" >
    <i type="int" name="ISMEAR">     0</i>
    <i name="SIGMA">      0.20000000</i>
    <i name="KSPACING">      0.50000000</i>
    <i type="logical" name="KGAMMA"> T  </i>
   </separator>
   <separator name="electronic projectors" >
    <i type="logical" name="LREAL"> F  </i>
    <v name="ROPT">      0.00000000      0.00000000      0.00000000      0.00000000</v>
    <i type="int" name="LMAXPAW">  -100</i>
    <i type="int" name="LMAXMIX">     2</i>
    <i type="logical" name="NLSPLINE"> F  </i>
   </separator>
   <separator name="electronic startup" >
    <i type="int" name="ISTART">     0</i>
    <i type="int" name="ICHARG">     2</i>
    <i type="int" name="INIWAV">     1</i>
   </separator>
   <separator name="electronic spin" >
    <i type="int" name="ISPIN">     1</i>
    <i type="logical" name="LNONCOLLINEAR"> F  </i>
    <v name="MAGMOM">      1.00000000      1.00000000      1.00000000      1.00000000      1.00000000      1.00000000      1.00000000      1.00000000      1.00000000      1.00000000      1.00000000      1.00000000      1.00000000      1.00000000      1.00000000      1.00000000      1.00000000      1.00000000      1.00000000      1.00000000
      1.00000000      1.00000000      1.00000000      1.00000000      1.00000000      1.00000000      1.00000000</v>
    <i name="NUPDOWN">     -1.00000000</i>
    <i type="logical" name="LSORBIT"> F  </i>
    <v name="SAXIS">      0.00000000      0.00000000      1.00000000</v>
    <i type="logical" name="LSPIRAL"> F  </i>
    <v name="QSPIRAL">      0.00000000      0.00000000      0.00000000</v>
    <i type="logical" name="LZEROZ"> F  </i>
   </separator>
   <separator name="electronic exchange-correlation" >
    <i type="logical" name="LASPH"> F  </i>
    <i type="logical" name="LMETAGGA"> F  </i>
   </separator>
   <separator name="electronic convergence" >
    <i type="int" name="NELM">    60</i>
    <i type="int" name="NELMDL">    -5</i>
    <i type="int" name="NELMIN">     2</i>
    <i name="ENINI">    280.00000000</i>
    <separator name="electronic convergence detail" >
     <i type="logical" name="LDIAG"> T  </i>
     <i type="logical" name="LSUBROT"> F  </i>
     <i name="WEIMIN">      0.00100000</i>
     <i name="EBREAK">      0.00000021</i>
     <i name="DEPER">      0.30000000</i>
     <i type="int" name="NRMM">     4</i>
     <i name="TIME">      0.40000000</i>
    </separator>
   </separator>
   <separator name="electronic mixer" >
    <i name="AMIX">      0.40000000</i>
    <i name="BMIX">      1.00000000</i>
    <i name="AMIN">      0.10000000</i>
    <i name="AMIX_MAG">      1.60000000</i>
    <i name="BMIX_MAG">      1.00000000</i>
    <separator name="electronic mixer details" >
     <i type="int" name="IMIX">     4</i>
     <i type="logical" name="MIXFIRST"> F  </i>
     <i type="int" name="MAXMIX">   -45</i>
     <i name="WC">    100.00000000</i>
     <i type="int" name="INIMIX">     1</i>
     <i type="int" name="MIXPRE">     1</i>
     <i type="int" name="MREMOVE">     5</i>
    </separator>
   </separator>
   <separator name="electronic dipolcorrection" >
    <i type="logical" name="LDIPOL"> F  </i>
    <i type="logical" name="LMONO"> F  </i>
    <i type="int" name="IDIPOL">     0</i>
    <i name="EPSILON">      1.00000000</i>
    <v name="DIPOL">   -100.00000000   -100.00000000   -100.00000000</v>
    <i name="EFIELD">      0.00000000</i>
   </separator>
  </separator>
  <separator name="grids" >
   <i type="int" name="NGX">    42</i>
   <i type="int" name="NGY">    42</i>
   <i type="int" name="NGZ">   126</i>
   <i type="int" name="NGXF">    84</i>
   <i type="int" name="NGYF">    84</i>
   <i type="int" name="NGZF">   252</i>
   <i type="logical" name="ADDGRID"> F  </i>
  </separator>
  <separator name="ionic" >
   <i type="int" name="NSW">   100</i>
   <i type="int" name="IBRION">     1</i>
   <i type="int" name="ISIF">     3</i>
   <i name="PSTRESS">      0.00000000</i>
   <i name="EDIFFG">      0.00100000</i>
   <i type="int" name="NFREE">     0</i>
   <i name="POTIM">      0.50000000</i>
   <i name="SMASS">     -3.00000000</i>
   <i name="SCALEE">      1.00000000</i>
  </separator>
  <separator name="ionic md" >
   <i name="TEBEG">      0.00010000</i>
   <i name="TEEND">      0.00010000</i>
   <i type="int" name="NBLOCK">     1</i>
   <i type="int" name="KBLOCK">   100</i>
   <i type="int" name="NPACO">   256</i>
   <i name="APACO">     16.00000000</i>
  </separator>
  <separator name="symmetry" >
   <i type="int" name="ISYM">     0</i>
   <i name="SYMPREC">      0.00000001</i>
  </separator>
  <separator name="dos" >
   <i type="logical" name="LORBIT"> F  </i>
   <v name="RWIGS">     -1.00000000     -1.00000000     -1.00000000     -1.00000000</v>
   <i type="int" name="NEDOS">   301</i>
   <i name="EMIN">     10.00000000</i>
   <i name="EMAX">    -10.00000000</i>
   <i name="EFERMI">      0.00000000</i>
  </separator>
  <separator name="writing" >
   <i type="int" name="NWRITE">     2</i>
   <i type="logical" name="LWAVE"> F  </i>
   <i type="logical" name="LCHARG"> F  </i>
   <i type="logical" name="LPARD"> F  </i>
   <i type="logical" name="LVTOT"> F  </i>
   <i type="logical" name="LVHAR"> F  </i>
   <i type="logical" name="LELF"> F  </i>
   <i type="logical" name="LOPTICS"> F  </i>
   <v name="STM">      0.00000000      0.00000000      0.00000000      0.00000000      0.00000000      0.00000000      0.00000000</v>
  </separator>
  <separator name="performance" >
   <i type="int" name="NPAR">    40</i>
   <i type="int" name="NSIM">     4</i>
   <i type="int" name="NBLK">    -1</i>
   <i type="logical" name="LPLANE"> F  </i>
   <i type="logical" name="LSCALAPACK"> T  </i>
   <i type="logical" name="LSCAAWARE"> F  </i>
   <i type="logical" name="LSCALU"> F  </i>
   <i type="logical" name="LASYNC"> F  </i>
   <i type="logical" name="LORBITALREAL"> F  </i>
  </separator>
  <separator name="miscellaneous" >
   <i type="int" name="IDIOT">     3</i>
   <i type="logical" name="LMUSIC"> F  </i>
   <v name="POMASS">     50.94100000     95.94000000    183.85000000     32.06600000</v>
   <v name="DARWINR">      0.00000000      0.00000000      0.00000000      0.00000000</v>
   <v name="DARWINV">      1.00000000      1.00000000      1.00000000      1.00000000</v>
   <i type="logical" name="LCORR"> T  </i>
  </separator>
  <i type="logical" name="GGA_COMPAT"> T  </i>
  <i type="logical" name="LBERRY"> F  </i>
  <i type="int" name="ICORELEVEL">     0</i>
  <i type="logical" name="LDAU"> F  </i>
  <i type="int" name="I_CONSTRAINED_M">     0</i>
  <separator name="electronic exchange-correlation" >
   <i type="string" name="GGA">--</i>
   <i type="int" name="VOSKOWN">     0</i>
   <i type="logical" name="LHFCALC"> F  </i>
   <i type="string" name="PRECFOCK"></i>
   <i type="logical" name="LSYMGRAD"> F  </i>
   <i type="logical" name="LHFONE"> F  </i>
   <i type="logical" name="LRHFCALC"> F  </i>
   <i type="logical" name="LTHOMAS"> F  </i>
   <i type="logical" name="LMODELHF"> F  </i>
   <i name="ENCUT4O">     -1.00000000</i>
   <i type="int" name="EXXOEP">     0</i>
   <i type="int" name="FOURORBIT">     0</i>
   <i name="AEXX">      0.00000000</i>
   <i name="HFALPHA">      0.00000000</i>
   <i name="MCALPHA">      0.00000000</i>
   <i name="ALDAX">      1.00000000</i>
   <i name="AGGAX">      1.00000000</i>
   <i name="ALDAC">      1.00000000</i>
   <i name="AGGAC">      1.00000000</i>
   <i type="int" name="NKREDX">     1</i>
   <i type="int" name="NKREDY">     1</i>
   <i type="int" name="NKREDZ">     1</i>
   <i type="logical" name="SHIFTRED"> F  </i>
   <i type="logical" name="ODDONLY"> F  </i>
   <i type="logical" name="EVENONLY"> F  </i>
   <i type="int" name="LMAXFOCK">     0</i>
   <i type="int" name="NMAXFOCKAE">     0</i>
   <i type="logical" name="LFOCKAEDFT"> F  </i>
   <i name="HFSCREEN">      0.00000000</i>
   <i name="HFSCREENC">      0.00000000</i>
   <i type="int" name="NBANDSGWLOW">     0</i>
  </separator>
  <separator name="vdW DFT" >
   <i type="logical" name="LUSE_VDW"> F  </i>
   <i name="Zab_VDW">     -0.84910000</i>
   <i name="PARAM1">      0.12340000</i>
   <i name="PARAM2">      1.00000000</i>
   <i name="PARAM3">      0.00000000</i>
  </separator>
  <separator name="model GW" >
   <i type="int" name="MODEL_GW">     0</i>
   <i name="MODEL_EPS0">     58.26239943</i>
   <i name="MODEL_ALPHA">      1.00000000</i>
  </separator>
  <separator name="linear response parameters" >
   <i type="logical" name="LEPSILON"> F  </i>
   <i type="logical" name="LRPA"> F  </i>
   <i type="logical" name="LNABLA"> F  </i>
   <i type="logical" name="LVEL"> F  </i>
   <i type="int" name="KINTER">     0</i>
   <i name="CSHIFT">      0.10000000</i>
   <i name="OMEGAMAX">     -1.00000000</i>
   <i name="DEG_THRESHOLD">      0.00200000</i>
  </separator>
  <separator name="orbital magnetization" >
   <i type="logical" name="NUCIND"> F  </i>
   <v name="MAGPOS">      0.00000000      0.00000000      0.00000000</v>
   <i type="logical" name="LNICSALL"> T  </i>
   <i type="logical" name="ORBITALMAG"> F  </i>
   <i type="logical" name="LMAGBLOCH"> F  </i>
   <i type="logical" name="LCHIMAG"> F  </i>
   <i type="logical" name="LGAUGE"> T  </i>
   <i type="int" name="MAGATOM">     0</i>
   <v name="MAGDIPOL">      0.00000000      0.00000000      0.00000000</v>
   <v name="AVECCONST">      0.00000000      0.00000000      0.00000000</v>
  </separator>
  <separator name="response functions" >
   <i type="logical" name="LADDER"> F  </i>
   <i type="logical" name="LFXC"> F  </i>
   <i type="logical" name="LHARTREE"> T  </i>
   <i type="int" name="IBSE">     0</i>
   <v type="int" name="KPOINT">    -1     0     0     0</v>
   <i type="logical" name="LTCTE"> F  </i>
   <i type="logical" name="LTETE"> F  </i>
   <i type="logical" name="LTRIPLET"> F  </i>
   <i type="logical" name="LFXCEPS"> F  </i>
   <i type="logical" name="LFXHEG"> F  </i>
   <i type="int" name="NATURALO">     0</i>
   <i type="logical" name="L2ORDER"> F  </i>
   <i type="logical" name="LUSEW"> F  </i>
   <i name="ENCUTGW">     -2.00000000</i>
   <i name="ENCUTGWSOFT">     -2.00000000</i>
   <i name="ENCUTLF">     -1.00000000</i>
   <i type="int" name="LMAXMP2">    -1</i>
   <i name="SCISSOR">      0.00000000</i>
   <i type="int" name="NOMEGA">     0</i>
   <i type="int" name="NOMEGAR">     0</i>
   <i type="int" name="NBANDSGW">    -1</i>
   <i type="int" name="NBANDSO">    -1</i>
   <i type="int" name="NBANDSV">    -1</i>
   <i type="int" name="NELM">     1</i>
   <i type="int" name="NELMHF">     1</i>
   <i type="int" name="DIM">     3</i>
   <i type="int" name="ANTIRES">     0</i>
   <i name="OMEGAMAX">    -30.00000000</i>
   <i name="OMEGAMIN">    -30.00000000</i>
   <i name="OMEGATL">   -200.00000000</i>
   <i type="int" name="OMEGAGRID">     0</i>
   <i name="CSHIFT">     -0.10000000</i>
   <i type="logical" name="SELFENERGY"> F  </i>
   <i type="logical" name="LSPECTRAL"> F  </i>
   <i type="logical" name="LSPECTRALGW"> F  </i>
   <i type="logical" name="LSINGLES"> F  </i>
   <i type="logical" name="LFERMIGW"> F  </i>
   <i type="logical" name="ODDONLYGW"> F  </i>
   <i type="logical" name="EVENONLYGW"> F  </i>
   <i type="int" name="NKREDLFX">     1</i>
   <i type="int" name="NKREDLFY">     1</i>
   <i type="int" name="NKREDLFZ">     1</i>
   <i type="int" name="MAXMEM">  1800</i>
   <i type="int" name="TELESCOPE">     0</i>
   <i type="int" name="TAUPAR">     1</i>
   <i type="int" name="OMEGAPAR">    -1</i>
   <i name="LAMBDA">      1.00000000</i>
  </separator>
  <separator name="External order field" >
   <i name="OFIELD_KAPPA">      0.00000000</i>
   <v name="OFIELD_K">      0.00000000      0.00000000      0.00000000</v>
   <i name="OFIELD_Q6_NEAR">      0.00000000</i>
   <i name="OFIELD_Q6_FAR">      0.00000000</i>
   <i name="OFIELD_A">      0.00000000</i>
  </separator>
 </parameters>
 <atominfo>
  <atoms>      27 </atoms>
  <types>       4 </types>
  <array name="atoms" >
   <dimension dim="1">ion</dimension>
   <field type="string">element</field>
   <field type="int">atomtype</field>
   <set>
    <rc><c>V </c><c>   1</c></rc>
    <rc><c>V </c><c>   1</c></rc>
    <rc><c>V </c><c>   1</c></rc>
    <rc><c>Mo</c><c>   2</c></rc>
    <rc><c>Mo</c><c>   2</c></rc>
    <rc><c>Mo</c><c>   2</c></rc>
    <rc><c>W </c><c>   3</c></rc>
    <rc><c>W </c><c>   3</c></rc>
    <rc><c>W </c><c>   3</c></rc>
    <rc><c>S </c><c>   4</c></rc>
    <rc><c>S </c><c>   4</c></rc>
    <rc><c>S </c><c>   4</c></rc>
    <rc><c>S </c><c>   4</c></rc>
    <rc><c>S </c><c>   4</c></rc>
    <rc><c>S </c><c>   4</c></rc>
    <rc><c>S </c><c>   4</c></rc>
    <rc><c>S </c><c>   4</c></rc>
    <rc><c>S </c><c>   4</c></rc>
    <rc><c>S </c><c>   4</c></rc>
    <rc><c>S </c><c>   4</c></rc>
    <rc><c>S </c><c>   4</c></rc>
    <rc><c>S </c><c>   4</c></rc>
    <rc><c>S </c><c>   4</c></rc>
    <rc><c>S </c><c>   4</c></rc>
    <rc><c>S </c><c>   4</c></rc>
    <rc><c>S </c><c>   4</c></rc>
    <rc><c>S </c><c>   4</c></rc>
   </set>
  </array>
  <array name="atomtypes" >
   <dimension dim="1">type</dimension>
   <field type="int">atomspertype</field>
   <field type="string">element</field>
   <field>mass</field>
   <field>valence</field>
   <field type="string">pseudopotential</field>
   <set>
    <rc><c>   3</c><c>V </c><c>     50.94100000</c><c>      5.00000000</c><c> PAW_PBE V 08Apr2002                    </c></rc>
    <rc><c>   3</c><c>Mo</c><c>     95.94000000</c><c>      6.00000000</c><c> PAW_PBE Mo 08Apr2002                   </c></rc>
    <rc><c>   3</c><c>W </c><c>    183.85000000</c><c>      6.00000000</c><c> PAW_PBE W 08Apr2002                    </c></rc>
    <rc><c>  18</c><c>S </c><c>     32.06600000</c><c>      6.00000000</c><c>  PAW_PBE S 17Jan2003                   </c></rc>
   </set>
  </array>
 </atominfo>
 <structure name="initialpos" >
  <crystal>
   <varray name="basis" >
    <v>       8.66999996       5.03999989       0.00000000 </v>
    <v>      -8.66999982       5.04000013       0.00000000 </v>
    <v>       0.00000000       0.00000000      30.00000000 </v>
   </varray>
   <i name="volume">   2621.80797419 </i>
   <varray name="rec_basis" >
    <v>       0.05767013       0.09920635       0.00000000 </v>
    <v>      -0.05767013       0.09920635       0.00000000 </v>
    <v>       0.00000000       0.00000000       0.03333333 </v>
   </varray>
  </crystal>
  <varray name="positions" >
   <v>       0.66666669       0.33333334       0.00000000 </v>
   <v>       0.33333334       0.00000000       0.00000000 </v>
   <v>       0.66666669       0.00000000       0.00000000 </v>
   <v>       1.00000000       0.33333334       0.00000000 </v>
   <v>       0.66666669       0.66666669       0.00000000 </v>
   <v>       0.33333334       0.33333334       0.00000000 </v>
   <v>       0.00000000       0.00000000       0.00000000 </v>
   <v>       0.00000000       0.66666669       0.00000000 </v>
   <v>       0.33333334       0.66666669       0.00000000 </v>
   <v>       0.11068511       0.22244981       0.95539999 </v>
   <v>       0.22244981       0.11068511       0.04460000 </v>
   <v>       0.11068511       0.55578315       0.95539999 </v>
   <v>       0.22244981       0.44401845       0.04460000 </v>
   <v>       0.11068511       0.88911647       0.95539999 </v>
   <v>       0.22244981       0.77735180       0.04460000 </v>
   <v>       0.44401845       0.22244981       0.95539999 </v>
   <v>       0.55578315       0.11068511       0.04460000 </v>
   <v>       0.44401845       0.55578315       0.95539999 </v>
   <v>       0.55578315       0.44401845       0.04460000 </v>
   <v>       0.44401845       0.88911647       0.95539999 </v>
   <v>       0.55578315       0.77735180       0.04460000 </v>
   <v>       0.77735180       0.22244981       0.95539999 </v>
   <v>       0.88911647       0.11068511       0.04460000 </v>
   <v>       0.77735180       0.55578315       0.95539999 </v>
   <v>       0.88911647       0.44401845       0.04460000 </v>
   <v>       0.77735180       0.88911647       0.95539999 </v>
   <v>       0.88911647       0.77735180       0.04460000 </v>
  </varray>
 </structure>
 <calculation>
  <scstep>
   <time name="dav">   23.07   23.13</time>
   <time name="total">   23.12   23.18</time>
   <energy>
    <i name="alphaZ">     81.65567618 </i>
    <i name="ewald">  41891.17178071 </i>
    <i name="hartreedc"> -47723.81646449 </i>
    <i name="XCdc">   -242.92502624 </i>
    <i name="pawpsdc">   3467.42045192 </i>
    <i name="pawaedc">  -2871.19716117 </i>
    <i name="eentropy">     -0.53485668 </i>
    <i name="bandstr">   -239.02549235 </i>
    <i name="atom">   6761.44252427 </i>
    <i name="e_fr_energy">   1124.19143214 </i>
    <i name="e_wo_entrp">   1124.72628883 </i>
    <i name="e_0_energy">   1124.45886048 </i>
   </energy>
  </scstep>
  <scstep>
   <time name="dav">   29.89   29.96</time>
   <time name="total">   29.89   29.97</time>
   <energy>
    <i name="e_fr_energy">     -4.92908847 </i>
    <i name="e_wo_entrp">     -4.73544984 </i>
    <i name="e_0_energy">     -4.83226915 </i>
   </energy>
  </scstep>
  <scstep>
   <time name="dav">   29.33   29.40</time>
   <time name="total">   29.33   29.40</time>
   <energy>
    <i name="e_fr_energy">   -200.09270980 </i>
    <i name="e_wo_entrp">   -199.83163202 </i>
    <i name="e_0_energy">   -199.96217091 </i>
   </energy>
  </scstep>
  <scstep>
   <time name="dav">   32.30   32.38</time>
   <time name="total">   32.30   32.39</time>
   <energy>
    <i name="e_fr_energy">   -209.02739079 </i>
    <i name="e_wo_entrp">   -208.73527234 </i>
    <i name="e_0_energy">   -208.88133157 </i>
   </energy>
  </scstep>
  <scstep>
   <time name="dav">   30.22   30.29</time>
   <time name="total">   30.69   30.77</time>
   <energy>
    <i name="e_fr_energy">   -209.30005712 </i>
    <i name="e_wo_entrp">   -209.01048485 </i>
    <i name="e_0_energy">   -209.15527099 </i>
   </energy>
  </scstep>
  <scstep>
   <time name="dav">   32.28   32.36</time>
   <time name="total">   32.78   32.87</time>
   <energy>
    <i name="e_fr_energy">   -237.72086897 </i>
    <i name="e_wo_entrp">   -237.46002169 </i>
    <i name="e_0_energy">   -237.59044533 </i>
   </energy>
  </scstep>
  <scstep>
   <time name="dav">   34.96   35.04</time>
   <time name="total">   35.46   35.56</time>
   <energy>
    <i name="e_fr_energy">   -196.62327732 </i>
    <i name="e_wo_entrp">   -196.29779775 </i>
    <i name="e_0_energy">   -196.46053753 </i>
   </energy>
  </scstep>
  <scstep>
   <time name="dav">   31.29   31.36</time>
   <time name="total">   31.81   31.89</time>
   <energy>
    <i name="e_fr_energy">   -189.63580972 </i>
    <i name="e_wo_entrp">   -189.32911175 </i>
    <i name="e_0_energy">   -189.48246074 </i>
   </energy>
  </scstep>
  <scstep>
   <time name="dav">   33.71   33.79</time>
   <time name="total">   34.23   34.32</time>
   <energy>
    <i name="e_fr_energy">   -188.21686821 </i>
    <i name="e_wo_entrp">   -187.88725982 </i>
    <i name="e_0_energy">   -188.05206402 </i>
   </energy>
  </scstep>
  <scstep>
   <time name="dav">   34.35   34.43</time>
   <time name="total">   34.88   34.97</time>
   <energy>
    <i name="e_fr_energy">   -186.95197231 </i>
    <i name="e_wo_entrp">   -186.59919508 </i>
    <i name="e_0_energy">   -186.77558370 </i>
   </energy>
  </scstep>
  <scstep>
   <time name="dav">   34.94   35.03</time>
   <time name="total">   35.49   35.58</time>
   <energy>
    <i name="e_fr_energy">   -187.04212673 </i>
    <i name="e_wo_entrp">   -186.70226239 </i>
    <i name="e_0_energy">   -186.87219456 </i>
   </energy>
  </scstep>
  <scstep>
   <time name="dav">   33.02   33.10</time>
   <time name="total">   33.56   33.65</time>
   <energy>
    <i name="e_fr_energy">   -186.98436428 </i>
    <i name="e_wo_entrp">   -186.64608568 </i>
    <i name="e_0_energy">   -186.81522498 </i>
   </energy>
  </scstep>
  <scstep>
   <time name="dav">   34.12   34.20</time>
   <time name="total">   34.66   34.75</time>
   <energy>
    <i name="e_fr_energy">   -186.87749447 </i>
    <i name="e_wo_entrp">   -186.54147631 </i>
    <i name="e_0_energy">   -186.70948539 </i>
   </energy>
  </scstep>
  <scstep>
   <time name="dav">   33.74   33.82</time>
   <time name="total">   34.27   34.36</time>
   <energy>
    <i name="e_fr_energy">   -186.84352328 </i>
    <i name="e_wo_entrp">   -186.49834139 </i>
    <i name="e_0_energy">   -186.67093233 </i>
   </energy>
  </scstep>
  <scstep>
   <time name="dav">   32.21   32.29</time>
   <time name="total">   32.75   32.84</time>
   <energy>
    <i name="e_fr_energy">   -186.83941166 </i>
    <i name="e_wo_entrp">   -186.49431002 </i>
    <i name="e_0_energy">   -186.66686084 </i>
   </energy>
  </scstep>
  <scstep>
   <time name="dav">   34.53   34.61</time>
   <time name="total">   35.07   35.16</time>
   <energy>
    <i name="e_fr_energy">   -186.83932517 </i>
    <i name="e_wo_entrp">   -186.49483281 </i>
    <i name="e_0_energy">   -186.66707899 </i>
   </energy>
  </scstep>
  <scstep>
   <time name="dav">   32.74   32.82</time>
   <time name="total">   33.27   33.36</time>
   <energy>
    <i name="e_fr_energy">   -186.83624211 </i>
    <i name="e_wo_entrp">   -186.49308477 </i>
    <i name="e_0_energy">   -186.66466344 </i>
   </energy>
  </scstep>
  <scstep>
   <time name="dav">   31.75   31.82</time>
   <time name="total">   32.28   32.37</time>
   <energy>
    <i name="e_fr_energy">   -186.83597103 </i>
    <i name="e_wo_entrp">   -186.49229445 </i>
    <i name="e_0_energy">   -186.66413274 </i>
   </energy>
  </scstep>
  <scstep>
   <time name="dav">   26.28   26.35</time>
   <time name="total">   26.32   26.39</time>
   <energy>
    <i name="alphaZ">     81.65567618 </i>
    <i name="ewald">  41891.17178071 </i>
    <i name="hartreedc"> -47818.67441111 </i>
    <i name="XCdc">   -231.69424557 </i>
    <i name="pawpsdc">   4194.27039009 </i>
    <i name="pawaedc">  -3612.28908145 </i>
    <i name="eentropy">     -0.34370213 </i>
    <i name="bandstr">  -1452.37493610 </i>
    <i name="atom">   6761.44252427 </i>
    <i name="e_fr_energy">   -186.83600512 </i>
    <i name="e_wo_entrp">   -186.49230299 </i>
    <i name="e_0_energy">   -186.66415405 </i>
   </energy>
  </scstep>
  <structure>
   <crystal>
    <varray name="basis" >
     <v>       8.66999996       5.03999989       0.00000000 </v>
     <v>      -8.66999982       5.04000013       0.00000000 </v>
     <v>       0.00000000       0.00000000      30.00000000 </v>
    </varray>
    <i name="volume">   2621.80797419 </i>
    <varray name="rec_basis" >
     <v>       0.05767013       0.09920635       0.00000000 </v>
     <v>      -0.05767013       0.09920635       0.00000000 </v>
     <v>       0.00000000       0.00000000       0.03333333 </v>
    </varray>
   </crystal>
   <varray name="positions" >
    <v>       0.66666669       0.33333334       0.00000000 </v>
    <v>       0.33333334       0.00000000       0.00000000 </v>
    <v>       0.66666669       0.00000000       0.00000000 </v>
    <v>       1.00000000       0.33333334       0.00000000 </v>
    <v>       0.66666669       0.66666669       0.00000000 </v>
    <v>       0.33333334       0.33333334       0.00000000 </v>
    <v>       0.00000000       0.00000000       0.00000000 </v>
    <v>       0.00000000       0.66666669       0.00000000 </v>
    <v>       0.33333334       0.66666669       0.00000000 </v>
    <v>       0.11068511       0.22244981       0.95539999 </v>
    <v>       0.22244981       0.11068511       0.04460000 </v>
    <v>       0.11068511       0.55578315       0.95539999 </v>
    <v>       0.22244981       0.44401845       0.04460000 </v>
    <v>       0.11068511       0.88911647       0.95539999 </v>
    <v>       0.22244981       0.77735180       0.04460000 </v>
    <v>       0.44401845       0.22244981       0.95539999 </v>
    <v>       0.55578315       0.11068511       0.04460000 </v>
    <v>       0.44401845       0.55578315       0.95539999 </v>
    <v>       0.55578315       0.44401845       0.04460000 </v>
    <v>       0.44401845       0.88911647       0.95539999 </v>
    <v>       0.55578315       0.77735180       0.04460000 </v>
    <v>       0.77735180       0.22244981       0.95539999 </v>
    <v>       0.88911647       0.11068511       0.04460000 </v>
    <v>       0.77735180       0.55578315       0.95539999 </v>
    <v>       0.88911647       0.44401845       0.04460000 </v>
    <v>       0.77735180       0.88911647       0.95539999 </v>
    <v>       0.88911647       0.77735180       0.04460000 </v>
   </varray>
  </structure>
  <varray name="forces" >
   <v>      -0.12326130      -0.02578546      -0.00812316 </v>
   <v>      -0.13468967       0.25684455       0.01253682 </v>
   <v>       0.03261043       0.12773104      -0.00692579 </v>
   <v>       0.21649804       0.10935157       0.03742787 </v>
   <v>       0.01018877      -0.30215052      -0.06091251 </v>
   <v>      -0.20391612       0.14856417       0.09234184 </v>
   <v>      -0.30205545       0.16095679      -0.10519588 </v>
   <v>       0.00926571      -0.36507672      -0.09602203 </v>
   <v>       0.53042671      -0.20148405       0.10411098 </v>
   <v>       0.23467424      -0.17362526      -2.87306716 </v>
   <v>       0.65710195      -0.12144530       2.09790091 </v>
   <v>       0.01099227       0.14515468      -2.87972218 </v>
   <v>      -0.20833604       0.16376302       2.96692511 </v>
   <v>       0.45125450       0.54884503      -2.17085668 </v>
   <v>      -0.45166539       0.57357869       2.12700286 </v>
   <v>       0.90945738       0.00447595      -1.44237212 </v>
   <v>      -0.06860590      -0.00362806       0.77634068 </v>
   <v>      -0.02662334       0.03293844      -2.92886399 </v>
   <v>       0.74405196      -0.01946941       2.10833046 </v>
   <v>      -0.24974729       0.53728164      -1.38183574 </v>
   <v>      -0.63958520       0.53640905       2.13970375 </v>
   <v>      -0.32276878      -0.67429619      -1.38696107 </v>
   <v>      -0.38342486      -0.68891729       2.17857012 </v>
   <v>       0.60982606      -0.52476528      -2.18463429 </v>
   <v>      -0.60216687      -0.54608762       2.15747927 </v>
   <v>      -0.63812335       0.15993484      -2.11554759 </v>
   <v>      -0.06137848       0.14090171       2.84236952 </v>
  </varray>
  <varray name="stress" >
   <v>       7.53626491      -0.04555786      -1.62540466 </v>
   <v>      -0.04555790       4.43575216      -0.01711889 </v>
   <v>      -1.62540462      -0.01711890      31.13839010 </v>
  </varray>
  <energy>
   <i name="e_fr_energy">   -186.83600512 </i>
   <i name="e_wo_entrp">   -186.66415405 </i>
   <i name="e_0_energy">     -0.34370213 </i>
  </energy>
  <time name="totalsc">  656.66  658.39</time>
 </calculation>
 <calculation>
  <scstep>
   <time name="dav">   23.07   23.12</time>
   <time name="total">   23.62   23.67</time>
   <energy>
    <i name="alphaZ">     78.87224612 </i>
    <i name="ewald">  39352.74524085 </i>
    <i name="hartreedc"> -45300.33934859 </i>
    <i name="XCdc">   -239.17357487 </i>
    <i name="pawpsdc">   4193.05120550 </i>
    <i name="pawaedc">  -3611.05123320 </i>
    <i name="eentropy">     -0.28128422 </i>
    <i name="bandstr">  -1422.75904146 </i>
    <i name="atom">   6761.44252427 </i>
    <i name="e_fr_energy">   -187.49326561 </i>
    <i name="e_wo_entrp">   -187.21198138 </i>
    <i name="e_0_energy">   -187.35262350 </i>
   </energy>
  </scstep>
  <scstep>
   <time name="dav">   31.51   31.58</time>
   <time name="total">   32.04   32.13</time>
   <energy>
    <i name="e_fr_energy">   -189.51748161 </i>
    <i name="e_wo_entrp">   -189.18164454 </i>
    <i name="e_0_energy">   -189.34956307 </i>
   </energy>
  </scstep>
  <scstep>
   <time name="dav">   31.88   31.96</time>
   <time name="total">   32.44   32.52</time>
   <energy>
    <i name="e_fr_energy">   -189.33094682 </i>
    <i name="e_wo_entrp">   -189.06978989 </i>
    <i name="e_0_energy">   -189.20036836 </i>
   </energy>
  </scstep>
  <scstep>
   <time name="dav">   29.95   30.02</time>
   <time name="total">   30.49   30.58</time>
   <energy>
    <i name="e_fr_energy">   -188.76752992 </i>
    <i name="e_wo_entrp">   -188.48491821 </i>
    <i name="e_0_energy">   -188.62622406 </i>
   </energy>
  </scstep>
  <scstep>
   <time name="dav">   31.76   31.84</time>
   <time name="total">   32.31   32.39</time>
   <energy>
    <i name="e_fr_energy">   -188.84975442 </i>
    <i name="e_wo_entrp">   -188.56190505 </i>
    <i name="e_0_energy">   -188.70582974 </i>
   </energy>
  </scstep>
  <scstep>
   <time name="dav">   31.87   31.94</time>
   <time name="total">   32.41   32.50</time>
   <energy>
    <i name="e_fr_energy">   -188.72169539 </i>
    <i name="e_wo_entrp">   -188.43802230 </i>
    <i name="e_0_energy">   -188.57985884 </i>
   </energy>
  </scstep>
  <scstep>
   <time name="dav">   31.30   31.38</time>
   <time name="total">   31.85   31.94</time>
   <energy>
    <i name="e_fr_energy">   -188.69073628 </i>
    <i name="e_wo_entrp">   -188.40747925 </i>
    <i name="e_0_energy">   -188.54910777 </i>
   </energy>
  </scstep>
  <scstep>
   <time name="dav">   31.28   31.36</time>
   <time name="total">   31.83   31.91</time>
   <energy>
    <i name="e_fr_energy">   -188.67447000 </i>
    <i name="e_wo_entrp">   -188.39003386 </i>
    <i name="e_0_energy">   -188.53225193 </i>
   </energy>
  </scstep>
  <scstep>
   <time name="dav">   31.59   31.67</time>
   <time name="total">   32.14   32.23</time>
   <energy>
    <i name="e_fr_energy">   -188.64898233 </i>
    <i name="e_wo_entrp">   -188.36712544 </i>
    <i name="e_0_energy">   -188.50805388 </i>
   </energy>
  </scstep>
  <scstep>
   <time name="dav">   28.08   28.14</time>
   <time name="total">   28.62   28.70</time>
   <energy>
    <i name="e_fr_energy">   -188.64584541 </i>
    <i name="e_wo_entrp">   -188.36464437 </i>
    <i name="e_0_energy">   -188.50524489 </i>
   </energy>
  </scstep>
  <scstep>
   <time name="dav">   33.72   33.81</time>
   <time name="total">   34.27   34.36</time>
   <energy>
    <i name="e_fr_energy">   -188.64552825 </i>
    <i name="e_wo_entrp">   -188.36563854 </i>
    <i name="e_0_energy">   -188.50558339 </i>
   </energy>
  </scstep>
  <scstep>
   <time name="dav">   28.84   28.91</time>
   <time name="total">   29.39   29.47</time>
   <energy>
    <i name="e_fr_energy">   -188.64564744 </i>
    <i name="e_wo_entrp">   -188.36563769 </i>
    <i name="e_0_energy">   -188.50564257 </i>
   </energy>
  </scstep>
  <scstep>
   <time name="dav">   20.63   20.68</time>
   <time name="total">   20.67   20.73</time>
   <energy>
    <i name="alphaZ">     78.87224612 </i>
    <i name="ewald">  39352.74524085 </i>
    <i name="hartreedc"> -45317.72905330 </i>
    <i name="XCdc">   -238.02924127 </i>
    <i name="pawpsdc">   3949.56832180 </i>
    <i name="pawaedc">  -3364.05938682 </i>
    <i name="eentropy">     -0.28025137 </i>
    <i name="bandstr">  -1411.17610003 </i>
    <i name="atom">   6761.44252427 </i>
    <i name="e_fr_energy">   -188.64569975 </i>
    <i name="e_wo_entrp">   -188.36544838 </i>
    <i name="e_0_energy">   -188.50557406 </i>
   </energy>
  </scstep>
  <structure>
   <crystal>
    <varray name="basis" >
     <v>       8.86037242       5.10421155       0.00000000 </v>
     <v>      -8.86171498       5.10652157       0.00000000 </v>
     <v>       0.00000000       0.00000000      30.00000000 </v>
    </varray>
    <i name="volume">   2714.33252473 </i>
    <varray name="rec_basis" >
     <v>       0.05643953       0.09794358       0.00000000 </v>
     <v>      -0.05641400       0.09792874       0.00000000 </v>
     <v>       0.00000000       0.00000000       0.03333333 </v>
    </varray>
   </crystal>
   <varray name="positions" >
    <v>       0.66620035       0.33355287      -0.00001306 </v>
    <v>       0.33418787       0.00160398       0.00002016 </v>
    <v>       0.66736873       0.00052059      -0.00001114 </v>
    <v>       1.00112569       0.33325437       0.00006019 </v>
    <v>       0.66524895       0.66519225      -0.00009795 </v>
    <v>       0.33347704       0.33461170       0.00014849 </v>
    <v>      -0.00007003       0.00161070      -0.00016916 </v>
    <v>      -0.00172147       0.66489366      -0.00015441 </v>
    <v>       0.33384478       0.66422666       0.00016742 </v>
    <v>       0.11050704       0.22096594       0.95077984 </v>
    <v>       0.22369674       0.10827571       0.04797361 </v>
    <v>       0.11141040       0.55644728       0.95076914 </v>
    <v>       0.22265395       0.44538184       0.04937108 </v>
    <v>       0.11456733       0.89048776       0.95190906 </v>
    <v>       0.22393834       0.78135354       0.04802041 </v>
    <v>       0.44657013       0.21994098       0.95308053 </v>
    <v>       0.55557492       0.11085862       0.04584842 </v>
    <v>       0.44410203       0.55601487       0.95069012 </v>
    <v>       0.55776004       0.44185520       0.04799038 </v>
    <v>       0.44589503       0.89238272       0.95317788 </v>
    <v>       0.55657097       0.78169847       0.04804083 </v>
    <v>       0.77322664       0.22012064       0.95316963 </v>
    <v>       0.88475257       0.10845472       0.04810333 </v>
    <v>       0.77653692       0.55157500       0.95188690 </v>
    <v>       0.88482758       0.44308021       0.04806942 </v>
    <v>       0.77634188       0.89165727       0.95199800 </v>
    <v>       0.88962005       0.77819691       0.04917078 </v>
   </varray>
  </structure>
  <varray name="forces" >
   <v>      -0.13319924       0.07113558      -0.01562167 </v>
   <v>      -0.14165608       0.12999278      -0.01318287 </v>
   <v>       0.09672502       0.12635427      -0.09469673 </v>
   <v>       0.34607230       0.34237122      -0.05463420 </v>
   <v>       0.01647602      -0.27095357       0.06385975 </v>
   <v>      -0.52635657       0.16617357       0.04116935 </v>
   <v>      -0.23063201       0.13377288      -0.03182132 </v>
   <v>      -0.05460974      -0.28605729       0.06785616 </v>
   <v>       0.58380220      -0.39260902       0.04559540 </v>
   <v>       0.06345558      -0.10075805      -0.13417674 </v>
   <v>      -0.03474088      -0.09223218      -0.03242712 </v>
   <v>      -0.07292427       0.11691857       0.01833744 </v>
   <v>      -0.04481141       0.11361145       0.30739179 </v>
   <v>      -0.06809567      -0.07196359       0.13673000 </v>
   <v>       0.06945068      -0.07252676      -0.26453062 </v>
   <v>       0.04059310       0.01313576       0.10549398 </v>
   <v>      -0.01875174       0.01319508      -0.14040142 </v>
   <v>      -0.13045749       0.00395394      -0.21147135 </v>
   <v>       0.06564022      -0.01271127       0.08052906 </v>
   <v>       0.06501652      -0.06441072       0.25400850 </v>
   <v>      -0.08323616      -0.05933359      -0.03889806 </v>
   <v>      -0.00799007      -0.05059853       0.16128625 </v>
   <v>       0.09752237      -0.04322023       0.03431997 </v>
   <v>       0.08154200       0.03262229      -0.09409950 </v>
   <v>      -0.07039580       0.04116471      -0.04236651 </v>
   <v>       0.01880759       0.10452473       0.00842162 </v>
   <v>       0.07275353       0.10844799      -0.15667117 </v>
  </varray>
  <varray name="stress" >
   <v>     -20.05562125       0.00024848       0.05883925 </v>
   <v>       0.00024823     -19.57987514       0.01415228 </v>
   <v>       0.05883936       0.01415233      -1.72260929 </v>
  </varray>
  <energy>
   <i name="e_fr_energy">   -188.64569975 </i>
   <i name="e_wo_entrp">   -188.50557406 </i>
   <i name="e_0_energy">     -0.28025137 </i>
  </energy>
  <time name="totalsc">  436.44  437.59</time>
 </calculation>
 <calculation>
  <scstep>
   <time name="dav">   25.35   25.41</time>
   <time name="total">   25.88   25.94</time>
   <energy>
    <i name="alphaZ">     82.32792771 </i>
    <i name="ewald">  41294.83377751 </i>
    <i name="hartreedc"> -47290.89219259 </i>
    <i name="XCdc">   -233.86090548 </i>
    <i name="pawpsdc">   3948.77275307 </i>
    <i name="pawaedc">  -3363.25623155 </i>
    <i name="eentropy">     -0.23460211 </i>
    <i name="bandstr">  -1389.73297383 </i>
    <i name="atom">   6761.44252427 </i>
    <i name="e_fr_energy">   -190.59992301 </i>
    <i name="e_wo_entrp">   -190.36532090 </i>
    <i name="e_0_energy">   -190.48262196 </i>
   </energy>
  </scstep>
  <scstep>
   <time name="dav">   31.83   31.91</time>
   <time name="total">   32.36   32.44</time>
   <energy>
    <i name="e_fr_energy">   -190.53254091 </i>
    <i name="e_wo_entrp">   -190.30915581 </i>
    <i name="e_0_energy">   -190.42084836 </i>
   </energy>
  </scstep>
  <scstep>
   <time name="dav">   32.05   32.13</time>
   <time name="total">   32.57   32.66</time>
   <energy>
    <i name="e_fr_energy">   -190.07718145 </i>
    <i name="e_wo_entrp">   -189.82563624 </i>
    <i name="e_0_energy">   -189.95140884 </i>
   </energy>
  </scstep>
  <scstep>
   <time name="dav">   33.92   34.00</time>
   <time name="total">   34.46   34.55</time>
   <energy>
    <i name="e_fr_energy">   -189.85957367 </i>
    <i name="e_wo_entrp">   -189.63248884 </i>
    <i name="e_0_energy">   -189.74603125 </i>
   </energy>
  </scstep>
  <scstep>
   <time name="dav">   32.15   32.22</time>
   <time name="total">   32.68   32.77</time>
   <energy>
    <i name="e_fr_energy">   -189.81268408 </i>
    <i name="e_wo_entrp">   -189.57081004 </i>
    <i name="e_0_energy">   -189.69174706 </i>
   </energy>
  </scstep>
  <scstep>
   <time name="dav">   31.98   32.06</time>
   <time name="total">   32.51   32.60</time>
   <energy>
    <i name="e_fr_energy">   -189.75800749 </i>
    <i name="e_wo_entrp">   -189.52393774 </i>
    <i name="e_0_energy">   -189.64097262 </i>
   </energy>
  </scstep>
  <scstep>
   <time name="dav">   31.13   31.21</time>
   <time name="total">   31.66   31.75</time>
   <energy>
    <i name="e_fr_energy">   -189.75250820 </i>
    <i name="e_wo_entrp">   -189.51637626 </i>
    <i name="e_0_energy">   -189.63444223 </i>
   </energy>
  </scstep>
  <scstep>
   <time name="dav">   30.92   31.00</time>
   <time name="total">   31.46   31.54</time>
   <energy>
    <i name="e_fr_energy">   -189.75320083 </i>
    <i name="e_wo_entrp">   -189.51789812 </i>
    <i name="e_0_energy">   -189.63554948 </i>
   </energy>
  </scstep>
  <scstep>
   <time name="dav">   27.62   27.69</time>
   <time name="total">   28.15   28.23</time>
   <energy>
    <i name="e_fr_energy">   -189.75227445 </i>
    <i name="e_wo_entrp">   -189.51638319 </i>
    <i name="e_0_energy">   -189.63432882 </i>
   </energy>
  </scstep>
  <scstep>
   <time name="dav">   27.83   27.90</time>
   <time name="total">   28.36   28.44</time>
   <energy>
    <i name="e_fr_energy">   -189.75263569 </i>
    <i name="e_wo_entrp">   -189.51702042 </i>
    <i name="e_0_energy">   -189.63482805 </i>
   </energy>
  </scstep>
  <scstep>
   <time name="dav">   28.14   28.21</time>
   <time name="total">   28.67   28.75</time>
   <energy>
    <i name="e_fr_energy">   -189.75234258 </i>
    <i name="e_wo_entrp">   -189.51640997 </i>
    <i name="e_0_energy">   -189.63437627 </i>
   </energy>
  </scstep>
  <scstep>
   <time name="dav">   19.68   19.72</time>
   <time name="total">   19.71   19.77</time>
   <energy>
    <i name="alphaZ">     82.32792771 </i>
    <i name="ewald">  41294.83377751 </i>
    <i name="hartreedc"> -47266.05214801 </i>
    <i name="XCdc">   -235.25677297 </i>
    <i name="pawpsdc">   4038.75880761 </i>
    <i name="pawaedc">  -3454.45793282 </i>
    <i name="eentropy">     -0.23591503 </i>
    <i name="bandstr">  -1411.11267113 </i>
    <i name="atom">   6761.44252427 </i>
    <i name="e_fr_energy">   -189.75240287 </i>
    <i name="e_wo_entrp">   -189.51648784 </i>
    <i name="e_0_energy">   -189.63444535 </i>
   </energy>
  </scstep>
  <structure>
   <crystal>
    <varray name="basis" >
     <v>       8.67016943       4.99724171       0.00000000 </v>
     <v>      -8.67148046       4.99949860       0.00000000 </v>
     <v>       0.00000000       0.00000000      30.00000000 </v>
    </varray>
    <i name="volume">   2600.39951084 </i>
    <varray name="rec_basis" >
     <v>       0.05767766       0.10004017       0.00000000 </v>
     <v>      -0.05765162       0.10002505       0.00000000 </v>
     <v>       0.00000000       0.00000000       0.03333333 </v>
    </varray>
   </crystal>
   <varray name="positions" >
    <v>       0.66619096       0.33379988      -0.00002195 </v>
    <v>       0.33426867       0.00195746       0.00001266 </v>
    <v>       0.66767297       0.00063859      -0.00006498 </v>
    <v>       1.00203091       0.33349327       0.00002912 </v>
    <v>       0.66481211       0.66472376      -0.00006164 </v>
    <v>       0.33324791       0.33539583       0.00017190 </v>
    <v>      -0.00006857       0.00205612      -0.00018726 </v>
    <v>      -0.00225199       0.66446835      -0.00011583 </v>
    <v>       0.33375089       0.66300897       0.00019335 </v>
    <v>       0.11039979       0.22073656       0.95070355 </v>
    <v>       0.22350919       0.10815507       0.04795517 </v>
    <v>       0.11153553       0.55671277       0.95077957 </v>
    <v>       0.22280063       0.44561476       0.04954587 </v>
    <v>       0.11438154       0.89043308       0.95198681 </v>
    <v>       0.22388403       0.78116554       0.04786999 </v>
    <v>       0.44663116       0.21992385       0.95314051 </v>
    <v>       0.55557891       0.11089871       0.04576859 </v>
    <v>       0.44398303       0.55614702       0.95056987 </v>
    <v>       0.55780200       0.44177080       0.04803617 </v>
    <v>       0.44585001       0.89221255       0.95332231 </v>
    <v>       0.55639169       0.78167945       0.04801871 </v>
    <v>       0.77313440       0.22004380       0.95326134 </v>
    <v>       0.88477426       0.10828867       0.04812285 </v>
    <v>       0.77666993       0.55155103       0.95183340 </v>
    <v>       0.88482858       0.44321673       0.04804533 </v>
    <v>       0.77653463       0.89181378       0.95200279 </v>
    <v>       0.88987129       0.77830807       0.04908169 </v>
   </varray>
  </structure>
  <varray name="forces" >
   <v>      -0.15930252       0.13826754      -0.01899070 </v>
   <v>      -0.16448849       0.05842373      -0.02089736 </v>
   <v>       0.15530733       0.12101802      -0.09674246 </v>
   <v>       0.39659904       0.41694514      -0.05326479 </v>
   <v>       0.02608059      -0.25394539       0.06733796 </v>
   <v>      -0.63114250       0.15243803       0.01686786 </v>
   <v>      -0.19604610       0.11869090       0.00019558 </v>
   <v>      -0.08079880      -0.25775329       0.08855065 </v>
   <v>       0.59255098      -0.45891828       0.01432835 </v>
   <v>       0.03331013      -0.01371936      -0.70519577 </v>
   <v>       0.06807330      -0.01603755       0.46195104 </v>
   <v>      -0.03039516       0.06855889      -0.53947696 </v>
   <v>      -0.00140380       0.03509591       0.91794883 </v>
   <v>       0.00849283       0.05194276      -0.37154934 </v>
   <v>       0.00894849       0.05338052       0.21971386 </v>
   <v>       0.09432929       0.01719279      -0.33731269 </v>
   <v>      -0.01570818       0.01850703       0.28253212 </v>
   <v>      -0.04136131       0.00138042      -0.78800367 </v>
   <v>       0.14581387      -0.02623854       0.58102285 </v>
   <v>      -0.00124593       0.04445923      -0.18316095 </v>
   <v>      -0.08664254       0.07790305       0.46816285 </v>
   <v>      -0.04531043      -0.10136284      -0.27860064 </v>
   <v>      -0.03121614      -0.10089537       0.54438339 </v>
   <v>       0.07491537      -0.11615175      -0.62026506 </v>
   <v>      -0.05066366      -0.10745619       0.45816894 </v>
   <v>      -0.09136857       0.02392599      -0.49376853 </v>
   <v>       0.02267290       0.05434862       0.38606463 </v>
  </varray>
  <varray name="stress" >
   <v>     -10.23135735       0.00073139       0.05666408 </v>
   <v>       0.00073148      -9.83444678       0.01052215 </v>
   <v>       0.05666419       0.01052227       6.51108252 </v>
  </varray>
  <energy>
   <i name="e_fr_energy">   -189.75240287 </i>
   <i name="e_wo_entrp">   -189.63444535 </i>
   <i name="e_0_energy">     -0.23591503 </i>
  </energy>
  <time name="totalsc">  402.79  403.86</time>
 </calculation>
 <calculation>
  <scstep>
   <time name="dav">   23.10   23.16</time>
   <time name="total">   23.62   23.68</time>
   <energy>
    <i name="alphaZ">     85.81948296 </i>
    <i name="ewald">  42832.78569654 </i>
    <i name="hartreedc"> -48848.77338208 </i>
    <i name="XCdc">   -232.95934403 </i>
    <i name="pawpsdc">   4038.65462267 </i>
    <i name="pawaedc">  -3454.34856552 </i>
    <i name="eentropy">     -0.19698687 </i>
    <i name="bandstr">  -1373.76316083 </i>
    <i name="atom">   6761.44252427 </i>
    <i name="e_fr_energy">   -191.33911289 </i>
    <i name="e_wo_entrp">   -191.14212602 </i>
    <i name="e_0_energy">   -191.24061946 </i>
   </energy>
  </scstep>
  <scstep>
   <time name="dav">   33.63   33.71</time>
   <time name="total">   34.15   34.24</time>
   <energy>
    <i name="e_fr_energy">   -191.16125206 </i>
    <i name="e_wo_entrp">   -190.96653850 </i>
    <i name="e_0_energy">   -191.06389528 </i>
   </energy>
  </scstep>
  <scstep>
   <time name="dav">   31.88   31.95</time>
   <time name="total">   32.39   32.47</time>
   <energy>
    <i name="e_fr_energy">   -191.31846898 </i>
    <i name="e_wo_entrp">   -191.10056031 </i>
    <i name="e_0_energy">   -191.20951464 </i>
   </energy>
  </scstep>
  <scstep>
   <time name="dav">   31.84   31.92</time>
   <time name="total">   32.36   32.45</time>
   <energy>
    <i name="e_fr_energy">   -190.94663927 </i>
    <i name="e_wo_entrp">   -190.73623689 </i>
    <i name="e_0_energy">   -190.84143808 </i>
   </energy>
  </scstep>
  <scstep>
   <time name="dav">   29.79   29.86</time>
   <time name="total">   30.31   30.39</time>
   <energy>
    <i name="e_fr_energy">   -190.92701183 </i>
    <i name="e_wo_entrp">   -190.73900594 </i>
    <i name="e_0_energy">   -190.83300889 </i>
   </energy>
  </scstep>
  <scstep>
   <time name="dav">   30.55   30.62</time>
   <time name="total">   31.07   31.15</time>
   <energy>
    <i name="e_fr_energy">   -190.75567208 </i>
    <i name="e_wo_entrp">   -190.55388284 </i>
    <i name="e_0_energy">   -190.65477746 </i>
   </energy>
  </scstep>
  <scstep>
   <time name="dav">   32.87   32.94</time>
   <time name="total">   33.38   33.47</time>
   <energy>
    <i name="e_fr_energy">   -190.75388685 </i>
    <i name="e_wo_entrp">   -190.55160014 </i>
    <i name="e_0_energy">   -190.65274349 </i>
   </energy>
  </scstep>
  <scstep>
   <time name="dav">   31.33   31.41</time>
   <time name="total">   31.85   31.94</time>
   <energy>
    <i name="e_fr_energy">   -190.75249188 </i>
    <i name="e_wo_entrp">   -190.55016865 </i>
    <i name="e_0_energy">   -190.65133027 </i>
   </energy>
  </scstep>
  <scstep>
   <time name="dav">   29.45   29.52</time>
   <time name="total">   29.97   30.05</time>
   <energy>
    <i name="e_fr_energy">   -190.74756933 </i>
    <i name="e_wo_entrp">   -190.54554936 </i>
    <i name="e_0_energy">   -190.64655935 </i>
   </energy>
  </scstep>
  <scstep>
   <time name="dav">   28.46   28.53</time>
   <time name="total">   28.98   29.06</time>
   <energy>
    <i name="e_fr_energy">   -190.74792670 </i>
    <i name="e_wo_entrp">   -190.54588560 </i>
    <i name="e_0_energy">   -190.64690615 </i>
   </energy>
  </scstep>
  <scstep>
   <time name="dav">   28.73   28.80</time>
   <time name="total">   29.24   29.32</time>
   <energy>
    <i name="e_fr_energy">   -190.74772031 </i>
    <i name="e_wo_entrp">   -190.54557371 </i>
    <i name="e_0_energy">   -190.64664701 </i>
   </energy>
  </scstep>
  <scstep>
   <time name="dav">   19.92   19.96</time>
   <time name="total">   19.95   20.01</time>
   <energy>
    <i name="alphaZ">     85.81948296 </i>
    <i name="ewald">  42832.78569654 </i>
    <i name="hartreedc"> -48820.51346226 </i>
    <i name="XCdc">   -234.29471112 </i>
    <i name="pawpsdc">   4063.71600139 </i>
    <i name="pawaedc">  -3479.59616553 </i>
    <i name="eentropy">     -0.20226445 </i>
    <i name="bandstr">  -1399.90484537 </i>
    <i name="atom">   6761.44252427 </i>
    <i name="e_fr_energy">   -190.74774357 </i>
    <i name="e_wo_entrp">   -190.54547913 </i>
    <i name="e_0_energy">   -190.64661135 </i>
   </energy>
  </scstep>
  <structure>
   <crystal>
    <varray name="basis" >
     <v>       8.48636359       4.89780072       0.00000000 </v>
     <v>      -8.48761253       4.89995319       0.00000000 </v>
     <v>       0.00000000       0.00000000      30.00000000 </v>
    </varray>
    <i name="volume">   2494.60257230 </i>
    <varray name="rec_basis" >
     <v>       0.05892666       0.10207172       0.00000000 </v>
     <v>      -0.05890077       0.10205670       0.00000000 </v>
     <v>       0.00000000       0.00000000       0.03333333 </v>
    </varray>
   </crystal>
   <varray name="positions" >
    <v>       0.66661081       0.33544489      -0.00006409 </v>
    <v>       0.33383037       0.00277255      -0.00003710 </v>
    <v>       0.66906263       0.00073891      -0.00026694 </v>
    <v>       1.00633276       0.33478549      -0.00007996 </v>
    <v>       0.66337134       0.66306740       0.00008066 </v>
    <v>       0.33173905       0.33874528       0.00018631 </v>
    <v>      -0.00002123       0.00342070      -0.00015984 </v>
    <v>      -0.00412585       0.66325319       0.00008491 </v>
    <v>       0.33286466       0.65781789       0.00019662 </v>
    <v>       0.11060692       0.22078917       0.94876217 </v>
    <v>       0.22399046       0.10785087       0.04932844 </v>
    <v>       0.11179609       0.55707134       0.94919232 </v>
    <v>       0.22288276       0.44558302       0.05196094 </v>
    <v>       0.11515426       0.89092556       0.95078891 </v>
    <v>       0.22447650       0.78186613       0.04873335 </v>
    <v>       0.44716648       0.21962424       0.95206873 </v>
    <v>       0.55565562       0.11108017       0.04671023 </v>
    <v>       0.44396317       0.55617140       0.94845245 </v>
    <v>       0.55824540       0.44093189       0.04966104 </v>
    <v>       0.44629930       0.89286006       0.95257433 </v>
    <v>       0.55690213       0.78282536       0.04941554 </v>
    <v>       0.77215653       0.21949996       0.95231354 </v>
    <v>       0.88370247       0.10781028       0.04967996 </v>
    <v>       0.77583457       0.55019362       0.95010565 </v>
    <v>       0.88363208       0.44232998       0.04941596 </v>
    <v>       0.77599718       0.89225111       0.95055708 </v>
    <v>       0.89008799       0.77850402       0.05033871 </v>
   </varray>
  </structure>
  <varray name="forces" >
   <v>      -0.17701912       0.16285042      -0.02244334 </v>
   <v>      -0.17431442       0.03203001      -0.03207028 </v>
   <v>       0.15111204       0.10384204      -0.06546113 </v>
   <v>       0.45767685       0.46546555      -0.01352272 </v>
   <v>       0.06301632      -0.22146369       0.04503647 </v>
   <v>      -0.67600475       0.09933708      -0.02734645 </v>
   <v>      -0.15296914       0.12733697       0.03913396 </v>
   <v>      -0.14795287      -0.23616066       0.06955837 </v>
   <v>       0.56445307      -0.46344876      -0.01936742 </v>
   <v>       0.02931302       0.04818331      -0.51484337 </v>
   <v>      -0.04083051       0.05802927       0.29416092 </v>
   <v>       0.02016985       0.03325440      -0.33608367 </v>
   <v>       0.01894671      -0.01659451       0.79322957 </v>
   <v>      -0.00964844       0.00202235      -0.25726552 </v>
   <v>       0.07106440       0.00206511       0.08510366 </v>
   <v>      -0.05668970       0.03469464      -0.23506520 </v>
   <v>      -0.01077982       0.03217629       0.26091788 </v>
   <v>       0.03566930       0.00113514      -0.57892097 </v>
   <v>       0.02466692      -0.07057059       0.40456912 </v>
   <v>       0.06451211      -0.05238229      -0.08021700 </v>
   <v>      -0.03080761      -0.01230959       0.29412269 </v>
   <v>       0.02197556       0.05115335      -0.17930153 </v>
   <v>      -0.05448696       0.00966257       0.34879236 </v>
   <v>       0.01608459      -0.08546190      -0.44835414 </v>
   <v>       0.05029148      -0.08859337       0.27084115 </v>
   <v>      -0.00601593      -0.01573105      -0.33107405 </v>
   <v>      -0.05143295      -0.00052208       0.23587065 </v>
  </varray>
  <varray name="stress" >
   <v>      -5.69513260      -0.06536105      -0.13364985 </v>
   <v>      -0.06536086      -5.86953442      -0.10705311 </v>
   <v>      -0.13364978      -0.10705312       4.55007405 </v>
  </varray>
  <energy>
   <i name="e_fr_energy">   -190.74774357 </i>
   <i name="e_wo_entrp">   -190.64661135 </i>
   <i name="e_0_energy">     -0.20226445 </i>
  </energy>
  <time name="totalsc">  401.66  402.72</time>
 </calculation>
 <calculation>
  <scstep>
   <time name="dav">   23.15   23.20</time>
   <time name="total">   23.66   23.71</time>
   <energy>
    <i name="alphaZ">     90.17389983 </i>
    <i name="ewald">  44671.60362485 </i>
    <i name="hartreedc"> -50714.36666438 </i>
    <i name="XCdc">   -231.81526786 </i>
    <i name="pawpsdc">   4063.71385224 </i>
    <i name="pawaedc">  -3479.59012097 </i>
    <i name="eentropy">     -0.18598969 </i>
    <i name="bandstr">  -1353.10032243 </i>
    <i name="atom">   6761.44252427 </i>
    <i name="e_fr_energy">   -192.12446415 </i>
    <i name="e_wo_entrp">   -191.93847446 </i>
    <i name="e_0_energy">   -192.03146931 </i>
   </energy>
  </scstep>
  <scstep>
   <time name="dav">   30.32   30.39</time>
   <time name="total">   30.82   30.91</time>
   <energy>
    <i name="e_fr_energy">   -191.88374433 </i>
    <i name="e_wo_entrp">   -191.68440026 </i>
    <i name="e_0_energy">   -191.78407229 </i>
   </energy>
  </scstep>
  <scstep>
   <time name="dav">   31.27   31.35</time>
   <time name="total">   31.78   31.87</time>
   <energy>
    <i name="e_fr_energy">   -192.38016919 </i>
    <i name="e_wo_entrp">   -192.19551399 </i>
    <i name="e_0_energy">   -192.28784159 </i>
   </energy>
  </scstep>
  <scstep>
   <time name="dav">   30.95   31.02</time>
   <time name="total">   31.46   31.54</time>
   <energy>
    <i name="e_fr_energy">   -191.65453749 </i>
    <i name="e_wo_entrp">   -191.46046521 </i>
    <i name="e_0_energy">   -191.55750135 </i>
   </energy>
  </scstep>
  <scstep>
   <time name="dav">   31.28   31.36</time>
   <time name="total">   31.79   31.87</time>
   <energy>
    <i name="e_fr_energy">   -191.59744131 </i>
    <i name="e_wo_entrp">   -191.39872094 </i>
    <i name="e_0_energy">   -191.49808112 </i>
   </energy>
  </scstep>
  <scstep>
   <time name="dav">   32.60   32.68</time>
   <time name="total">   33.11   33.20</time>
   <energy>
    <i name="e_fr_energy">   -191.42489606 </i>
    <i name="e_wo_entrp">   -191.23469200 </i>
    <i name="e_0_energy">   -191.32979403 </i>
   </energy>
  </scstep>
  <scstep>
   <time name="dav">   32.37   32.45</time>
   <time name="total">   32.88   32.96</time>
   <energy>
    <i name="e_fr_energy">   -191.41448669 </i>
    <i name="e_wo_entrp">   -191.21129641 </i>
    <i name="e_0_energy">   -191.31289155 </i>
   </energy>
  </scstep>
  <scstep>
   <time name="dav">   29.79   29.86</time>
   <time name="total">   30.30   30.38</time>
   <energy>
    <i name="e_fr_energy">   -191.40084731 </i>
    <i name="e_wo_entrp">   -191.20736051 </i>
    <i name="e_0_energy">   -191.30410391 </i>
   </energy>
  </scstep>
  <scstep>
   <time name="dav">   30.60   30.67</time>
   <time name="total">   31.11   31.19</time>
   <energy>
    <i name="e_fr_energy">   -191.39513347 </i>
    <i name="e_wo_entrp">   -191.20016583 </i>
    <i name="e_0_energy">   -191.29764965 </i>
   </energy>
  </scstep>
  <scstep>
   <time name="dav">   31.67   31.75</time>
   <time name="total">   32.18   32.27</time>
   <energy>
    <i name="e_fr_energy">   -191.39509468 </i>
    <i name="e_wo_entrp">   -191.19939475 </i>
    <i name="e_0_energy">   -191.29724472 </i>
   </energy>
  </scstep>
  <scstep>
   <time name="dav">   28.74   28.81</time>
   <time name="total">   28.78   28.86</time>
   <energy>
    <i name="alphaZ">     90.17389983 </i>
    <i name="ewald">  44671.60362485 </i>
    <i name="hartreedc"> -50680.53137347 </i>
    <i name="XCdc">   -233.34075538 </i>
    <i name="pawpsdc">   4086.73716656 </i>
    <i name="pawaedc">  -3502.73698019 </i>
    <i name="eentropy">     -0.19579766 </i>
    <i name="bandstr">  -1384.54746359 </i>
    <i name="atom">   6761.44252427 </i>
    <i name="e_fr_energy">   -191.39515478 </i>
    <i name="e_wo_entrp">   -191.19935712 </i>
    <i name="e_0_energy">   -191.29725595 </i>
   </energy>
  </scstep>
  <structure>
   <crystal>
    <varray name="basis" >
     <v>       8.28077109       4.77264663       0.00000000 </v>
     <v>      -8.28577842       4.78130866       0.00000000 </v>
     <v>       0.00000000       0.00000000      30.00000000 </v>
    </varray>
    <i name="volume">   2374.14044800 </i>
    <varray name="rec_basis" >
     <v>       0.06041734       0.10470036       0.00000000 </v>
     <v>      -0.06030789       0.10463708       0.00000000 </v>
     <v>       0.00000000       0.00000000       0.03333333 </v>
    </varray>
   </crystal>
   <varray name="positions" >
    <v>       0.66747054       0.33883678      -0.00015430 </v>
    <v>       0.33281138       0.00425234      -0.00016551 </v>
    <v>       0.67149482       0.00085502      -0.00054426 </v>
    <v>       1.01534823       0.33733622      -0.00015297 </v>
    <v>       0.66109944       0.65995103       0.00027385 </v>
    <v>       0.32812700       0.34486358       0.00007801 </v>
    <v>       0.00041170       0.00596655       0.00000525 </v>
    <v>      -0.00796554       0.66144615       0.00038986 </v>
    <v>       0.33105521       0.64801624       0.00010771 </v>
    <v>       0.11149622       0.22135767       0.94607890 </v>
    <v>       0.22477159       0.10866585       0.05105342 </v>
    <v>       0.11228418       0.55723404       0.94722210 </v>
    <v>       0.22272876       0.44506112       0.05574907 </v>
    <v>       0.11568246       0.89130651       0.94922461 </v>
    <v>       0.22528110       0.78198764       0.04960416 </v>
    <v>       0.44740257       0.22019632       0.95066125 </v>
    <v>       0.55596370       0.11153871       0.04815873 </v>
    <v>       0.44429204       0.55585656       0.94550059 </v>
    <v>       0.55783972       0.43969257       0.05183323 </v>
    <v>       0.44641040       0.89240555       0.95178451 </v>
    <v>       0.55701188       0.78348306       0.05115579 </v>
    <v>       0.77241615       0.21969920       0.95113101 </v>
    <v>       0.88290840       0.10815344       0.05165066 </v>
    <v>       0.77448561       0.54853012       0.94773804 </v>
    <v>       0.88239685       0.44051621       0.05106481 </v>
    <v>       0.77534299       0.89219915       0.94868125 </v>
    <v>       0.88964708       0.77880682       0.05187016 </v>
   </varray>
  </structure>
  <varray name="forces" >
   <v>      -0.17059738       0.07130473       0.02953968 </v>
   <v>      -0.13983463       0.09808633      -0.00190004 </v>
   <v>       0.05369178       0.05852948      -0.01879369 </v>
   <v>       0.23306413       0.11882603       0.06889154 </v>
   <v>       0.14960326      -0.06678595      -0.01769815 </v>
   <v>      -0.10196421      -0.05649616      -0.01214948 </v>
   <v>      -0.05029393       0.12741026      -0.01618609 </v>
   <v>      -0.25271833      -0.15729346       0.01365982 </v>
   <v>       0.17865327      -0.11269348       0.02949697 </v>
   <v>       0.03620664       0.07878676      -0.17418515 </v>
   <v>      -0.15289806       0.11804501       0.01598787 </v>
   <v>       0.04346904       0.01363750      -0.00987486 </v>
   <v>       0.01328768      -0.02353878       0.36796910 </v>
   <v>      -0.05932018      -0.08400759      -0.00810223 </v>
   <v>       0.16375210      -0.08643407      -0.18259363 </v>
   <v>      -0.23568047       0.04350755      -0.01534857 </v>
   <v>      -0.00636305       0.03721367       0.01478754 </v>
   <v>       0.07542879       0.01705818      -0.23693161 </v>
   <v>      -0.11912593      -0.14009094       0.05707458 </v>
   <v>       0.14356800      -0.20887381       0.14053760 </v>
   <v>       0.02693786      -0.13383524      -0.00384477 </v>
   <v>       0.10552496       0.24970151       0.07340059 </v>
   <v>      -0.02650868       0.11552568       0.05572824 </v>
   <v>      -0.04036823      -0.01106238      -0.15510307 </v>
   <v>       0.14903320      -0.01570105      -0.05093574 </v>
   <v>       0.09573015      -0.01200352      -0.01121868 </v>
   <v>      -0.11227779      -0.03881624       0.04779222 </v>
  </varray>
  <varray name="stress" >
   <v>       0.34793834      -0.05110669      -0.24847035 </v>
   <v>      -0.05110677       0.01552025      -0.27993595 </v>
   <v>      -0.24847016      -0.27993603      -0.29702475 </v>
  </varray>
  <energy>
   <i name="e_fr_energy">   -191.39515478 </i>
   <i name="e_wo_entrp">   -191.29725595 </i>
   <i name="e_0_energy">     -0.19579766 </i>
  </energy>
  <time name="totalsc">  381.79  382.80</time>
 </calculation>
 <calculation>
  <scstep>
   <time name="dav">   22.95   23.00</time>
   <time name="total">   23.46   23.52</time>
   <energy>
    <i name="alphaZ">     90.04581484 </i>
    <i name="ewald">  44592.56260290 </i>
    <i name="hartreedc"> -50601.04014359 </i>
    <i name="XCdc">   -233.51496061 </i>
    <i name="pawpsdc">   4087.10707724 </i>
    <i name="pawaedc">  -3503.10408826 </i>
    <i name="eentropy">     -0.19884860 </i>
    <i name="bandstr">  -1384.73001561 </i>
    <i name="atom">   6761.44252427 </i>
    <i name="e_fr_energy">   -191.43003742 </i>
    <i name="e_wo_entrp">   -191.23118883 </i>
    <i name="e_0_energy">   -191.33061312 </i>
   </energy>
  </scstep>
  <scstep>
   <time name="dav">   32.99   33.07</time>
   <time name="total">   33.50   33.59</time>
   <energy>
    <i name="e_fr_energy">   -191.46989463 </i>
    <i name="e_wo_entrp">   -191.26199008 </i>
    <i name="e_0_energy">   -191.36594235 </i>
   </energy>
  </scstep>
  <scstep>
   <time name="dav">   32.03   32.10</time>
   <time name="total">   32.54   32.62</time>
   <energy>
    <i name="e_fr_energy">   -191.43957482 </i>
    <i name="e_wo_entrp">   -191.24075395 </i>
    <i name="e_0_energy">   -191.34016439 </i>
   </energy>
  </scstep>
  <scstep>
   <time name="dav">   29.37   29.44</time>
   <time name="total">   29.87   29.95</time>
   <energy>
    <i name="e_fr_energy">   -191.43989854 </i>
    <i name="e_wo_entrp">   -191.24001095 </i>
    <i name="e_0_energy">   -191.33995475 </i>
   </energy>
  </scstep>
  <scstep>
   <time name="dav">   28.52   28.59</time>
   <time name="total">   29.03   29.11</time>
   <energy>
    <i name="e_fr_energy">   -191.43806031 </i>
    <i name="e_wo_entrp">   -191.23761849 </i>
    <i name="e_0_energy">   -191.33783940 </i>
   </energy>
  </scstep>
  <scstep>
   <time name="dav">   30.19   30.27</time>
   <time name="total">   30.70   30.78</time>
   <energy>
    <i name="e_fr_energy">   -191.43799922 </i>
    <i name="e_wo_entrp">   -191.23762250 </i>
    <i name="e_0_energy">   -191.33781086 </i>
   </energy>
  </scstep>
  <scstep>
   <time name="dav">   27.40   27.46</time>
   <time name="total">   27.91   27.98</time>
   <energy>
    <i name="e_fr_energy">   -191.43823920 </i>
    <i name="e_wo_entrp">   -191.23906966 </i>
    <i name="e_0_energy">   -191.33865443 </i>
   </energy>
  </scstep>
  <scstep>
   <time name="dav">   24.23   24.29</time>
   <time name="total">   24.74   24.81</time>
   <energy>
    <i name="e_fr_energy">   -191.43768969 </i>
    <i name="e_wo_entrp">   -191.23771300 </i>
    <i name="e_0_energy">   -191.33770134 </i>
   </energy>
  </scstep>
  <scstep>
   <time name="dav">   18.10   18.14</time>
   <time name="total">   18.14   18.19</time>
   <energy>
    <i name="alphaZ">     90.04581484 </i>
    <i name="ewald">  44592.56260290 </i>
    <i name="hartreedc"> -50603.09198081 </i>
    <i name="XCdc">   -233.45589818 </i>
    <i name="pawpsdc">   4082.59379215 </i>
    <i name="pawaedc">  -3498.52714773 </i>
    <i name="eentropy">     -0.19999266 </i>
    <i name="bandstr">  -1382.80742299 </i>
    <i name="atom">   6761.44252427 </i>
    <i name="e_fr_energy">   -191.43770822 </i>
    <i name="e_wo_entrp">   -191.23771556 </i>
    <i name="e_0_energy">   -191.33771189 </i>
   </energy>
  </scstep>
  <structure>
   <crystal>
    <varray name="basis" >
     <v>       8.28955267       4.77298933       0.00000000 </v>
     <v>      -8.29576372       4.78373129       0.00000000 </v>
     <v>       0.00000000       0.00000000      30.00000000 </v>
    </varray>
    <i name="volume">   2377.51752625 </i>
    <varray name="rec_basis" >
     <v>       0.06036210       0.10467763       0.00000000 </v>
     <v>      -0.06022655       0.10459926       0.00000000 </v>
     <v>       0.00000000       0.00000000       0.03333333 </v>
    </varray>
   </crystal>
   <varray name="positions" >
    <v>       0.66732141       0.33960936      -0.00010661 </v>
    <v>       0.33291611       0.00510516      -0.00016629 </v>
    <v>       0.67189168       0.00098933      -0.00056873 </v>
    <v>       1.01643715       0.33721585      -0.00004388 </v>
    <v>       0.66123403       0.65925312       0.00024277 </v>
    <v>       0.32762298       0.34476927       0.00006085 </v>
    <v>       0.00088768       0.00669138      -0.00002294 </v>
    <v>      -0.00938894       0.66141935       0.00040571 </v>
    <v>       0.33104028       0.64712678       0.00015543 </v>
    <v>       0.11196921       0.22162994       0.94585952 </v>
    <v>       0.22490052       0.10966524       0.05104280 </v>
    <v>       0.11246661       0.55717645       0.94724732 </v>
    <v>       0.22265446       0.44491910       0.05625252 </v>
    <v>       0.11508670       0.89105241       0.94924467 </v>
    <v>       0.22530380       0.78109195       0.04929801 </v>
    <v>       0.44694224       0.22106906       0.95066654 </v>
    <v>       0.55612318       0.11173155       0.04815258 </v>
    <v>       0.44458304       0.55573324       0.94518788 </v>
    <v>       0.55681855       0.43936561       0.05187913 </v>
    <v>       0.44578666       0.89097570       0.95202287 </v>
    <v>       0.55642404       0.78273259       0.05111374 </v>
    <v>       0.77394192       0.22062528       0.95127112 </v>
    <v>       0.88341979       0.10879096       0.05169764 </v>
    <v>       0.77434470       0.54862401       0.94754253 </v>
    <v>       0.88276862       0.44005305       0.05095073 </v>
    <v>       0.77557109       0.89186944       0.94870192 </v>
    <v>       0.88914695       0.77892930       0.05191206 </v>
   </varray>
  </structure>
  <varray name="forces" >
   <v>      -0.18411823       0.05700847       0.02465381 </v>
   <v>      -0.13332844       0.13830828      -0.00239808 </v>
   <v>       0.03865133       0.06112625      -0.04221768 </v>
   <v>       0.28372099       0.12091846       0.01886722 </v>
   <v>       0.15510091      -0.08709690      -0.03026454 </v>
   <v>      -0.18375611      -0.02670829      -0.01136991 </v>
   <v>      -0.07350939       0.14430265      -0.03232590 </v>
   <v>      -0.28540597      -0.17664401       0.02156369 </v>
   <v>       0.29293153      -0.14527679       0.00165184 </v>
   <v>       0.02191983       0.03631245      -0.11842237 </v>
   <v>      -0.08341944       0.05623344       0.03342897 </v>
   <v>       0.01131048      -0.00320948       0.07216923 </v>
   <v>       0.03053777      -0.00091295       0.21668108 </v>
   <v>      -0.04251302      -0.05538426       0.01033789 </v>
   <v>       0.08260779      -0.07020623      -0.19126618 </v>
   <v>      -0.12869016       0.02758715      -0.02597820 </v>
   <v>      -0.00880291       0.02358253      -0.02106063 </v>
   <v>       0.04338043       0.00655807      -0.10613346 </v>
   <v>      -0.06010228      -0.08208600       0.05005262 </v>
   <v>       0.07909068      -0.12433059       0.14240914 </v>
   <v>       0.04388546      -0.06881803      -0.01377487 </v>
   <v>       0.06067131       0.15945958       0.10608543 </v>
   <v>       0.00085927       0.06130896       0.04816565 </v>
   <v>      -0.02360648      -0.02330154      -0.14098374 </v>
   <v>       0.08183658      -0.01251939      -0.06845295 </v>
   <v>       0.06523091      -0.00216058       0.02514147 </v>
   <v>      -0.08448284      -0.01405121       0.03344047 </v>
  </varray>
  <varray name="stress" >
   <v>      -0.24822005       0.03905067      -0.08746499 </v>
   <v>       0.03905062      -0.25335823      -0.13566521 </v>
   <v>      -0.08746503      -0.13566522      -1.09561148 </v>
  </varray>
  <energy>
   <i name="e_fr_energy">   -191.43770822 </i>
   <i name="e_wo_entrp">   -191.33771189 </i>
   <i name="e_0_energy">     -0.19999266 </i>
  </energy>
  <time name="totalsc">  294.31  295.09</time>
 </calculation>
 <calculation>
  <scstep>
   <time name="dav">   23.01   23.07</time>
   <time name="total">   23.52   23.58</time>
   <energy>
    <i name="alphaZ">     90.28636058 </i>
    <i name="ewald">  44694.41403279 </i>
    <i name="hartreedc"> -50707.79840020 </i>
    <i name="XCdc">   -233.32058586 </i>
    <i name="pawpsdc">   4082.41303628 </i>
    <i name="pawaedc">  -3498.34447217 </i>
    <i name="eentropy">     -0.20196015 </i>
    <i name="bandstr">  -1380.37576825 </i>
    <i name="atom">   6761.44252427 </i>
    <i name="e_fr_energy">   -191.48523270 </i>
    <i name="e_wo_entrp">   -191.28327255 </i>
    <i name="e_0_energy">   -191.38425263 </i>
   </energy>
  </scstep>
  <scstep>
   <time name="dav">   33.96   34.05</time>
   <time name="total">   34.47   34.56</time>
   <energy>
    <i name="e_fr_energy">   -191.53587296 </i>
    <i name="e_wo_entrp">   -191.32013828 </i>
    <i name="e_0_energy">   -191.42800562 </i>
   </energy>
  </scstep>
  <scstep>
   <time name="dav">   32.23   32.31</time>
   <time name="total">   32.74   32.83</time>
   <energy>
    <i name="e_fr_energy">   -191.49614055 </i>
    <i name="e_wo_entrp">   -191.29446764 </i>
    <i name="e_0_energy">   -191.39530409 </i>
   </energy>
  </scstep>
  <scstep>
   <time name="dav">   28.96   29.03</time>
   <time name="total">   29.46   29.54</time>
   <energy>
    <i name="e_fr_energy">   -191.49395311 </i>
    <i name="e_wo_entrp">   -191.29066893 </i>
    <i name="e_0_energy">   -191.39231102 </i>
   </energy>
  </scstep>
  <scstep>
   <time name="dav">   29.85   29.93</time>
   <time name="total">   30.36   30.44</time>
   <energy>
    <i name="e_fr_energy">   -191.49184291 </i>
    <i name="e_wo_entrp">   -191.28731806 </i>
    <i name="e_0_energy">   -191.38958049 </i>
   </energy>
  </scstep>
  <scstep>
   <time name="dav">   29.98   30.05</time>
   <time name="total">   30.49   30.57</time>
   <energy>
    <i name="e_fr_energy">   -191.49098615 </i>
    <i name="e_wo_entrp">   -191.28620014 </i>
    <i name="e_0_energy">   -191.38859315 </i>
   </energy>
  </scstep>
  <scstep>
   <time name="dav">   29.92   29.99</time>
   <time name="total">   30.43   30.51</time>
   <energy>
    <i name="e_fr_energy">   -191.49157187 </i>
    <i name="e_wo_entrp">   -191.28866498 </i>
    <i name="e_0_energy">   -191.39011842 </i>
   </energy>
  </scstep>
  <scstep>
   <time name="dav">   25.98   26.04</time>
   <time name="total">   26.49   26.56</time>
   <energy>
    <i name="e_fr_energy">   -191.49034247 </i>
    <i name="e_wo_entrp">   -191.28579765 </i>
    <i name="e_0_energy">   -191.38807006 </i>
   </energy>
  </scstep>
  <scstep>
   <time name="dav">   17.57   17.61</time>
   <time name="total">   17.61   17.66</time>
   <energy>
    <i name="alphaZ">     90.28636058 </i>
    <i name="ewald">  44694.41403279 </i>
    <i name="hartreedc"> -50706.50517403 </i>
    <i name="XCdc">   -233.37706582 </i>
    <i name="pawpsdc">   4084.92612722 </i>
    <i name="pawaedc">  -3500.89092425 </i>
    <i name="eentropy">     -0.20432449 </i>
    <i name="bandstr">  -1381.58191498 </i>
    <i name="atom">   6761.44252427 </i>
    <i name="e_fr_energy">   -191.49035871 </i>
    <i name="e_wo_entrp">   -191.28603422 </i>
    <i name="e_0_energy">   -191.38819646 </i>
   </energy>
  </scstep>
  <structure>
   <crystal>
    <varray name="basis" >
     <v>       8.27943178       4.76734142       0.00000000 </v>
     <v>      -8.28455306       4.77619101       0.00000000 </v>
     <v>       0.00000000       0.00000000      30.00000000 </v>
    </varray>
    <i name="volume">   2371.18321696 </i>
    <varray name="rec_basis" >
     <v>       0.06042795       0.10481543       0.00000000 </v>
     <v>      -0.06031598       0.10475064       0.00000000 </v>
     <v>       0.00000000       0.00000000       0.03333333 </v>
    </varray>
   </crystal>
   <varray name="positions" >
    <v>       0.66702568       0.34084449      -0.00005580 </v>
    <v>       0.33328186       0.00660822      -0.00017596 </v>
    <v>       0.67254975       0.00125283      -0.00066828 </v>
    <v>       1.01868610       0.33702621      -0.00000120 </v>
    <v>       0.66117523       0.65794982       0.00018533 </v>
    <v>       0.32659563       0.34550306       0.00003232 </v>
    <v>       0.00159562       0.00804104      -0.00008561 </v>
    <v>      -0.01183655       0.66127317       0.00046312 </v>
    <v>       0.33112516       0.64466974       0.00015826 </v>
    <v>       0.11235140       0.22182583       0.94548824 </v>
    <v>       0.22499827       0.11043005       0.05118722 </v>
    <v>       0.11251537       0.55711302       0.94731234 </v>
    <v>       0.22275123       0.44476664       0.05688473 </v>
    <v>       0.11456261       0.89085641       0.94919784 </v>
    <v>       0.22519377       0.78028929       0.04892665 </v>
[...]
      <set comment="kpoint 31">
       <r>  -17.5318    1.0000 </r>
       <r>  -17.2610    1.0000 </r>
       <r>  -16.8977    1.0000 </r>
       <r>  -16.5167    1.0000 </r>
       <r>  -16.4464    1.0000 </r>
       <r>  -16.4054    1.0000 </r>
       <r>  -16.2635    1.0000 </r>
       <r>  -16.2079    1.0000 </r>
       <r>  -16.1328    1.0000 </r>
       <r>  -16.0641    1.0000 </r>
       <r>  -15.9516    1.0000 </r>
       <r>  -15.8595    1.0000 </r>
       <r>  -15.7682    1.0000 </r>
       <r>  -15.6843    1.0000 </r>
       <r>  -15.6059    1.0000 </r>
       <r>  -15.5171    1.0000 </r>
       <r>  -15.4581    1.0000 </r>
       <r>  -15.4076    1.0000 </r>
       <r>   -9.7804    1.0000 </r>
       <r>   -9.4780    1.0000 </r>
       <r>   -9.2932    1.0000 </r>
       <r>   -8.9686    1.0000 </r>
       <r>   -8.7882    1.0000 </r>
       <r>   -8.7605    1.0000 </r>
       <r>   -8.5599    1.0000 </r>
       <r>   -8.4460    1.0000 </r>
       <r>   -8.3743    1.0000 </r>
       <r>   -8.3146    1.0000 </r>
       <r>   -8.2559    1.0000 </r>
       <r>   -8.1887    1.0000 </r>
       <r>   -8.0997    1.0000 </r>
       <r>   -8.0796    1.0000 </r>
       <r>   -7.9630    1.0000 </r>
       <r>   -7.9059    1.0000 </r>
       <r>   -7.7920    1.0000 </r>
       <r>   -7.5693    1.0000 </r>
       <r>   -7.5412    1.0000 </r>
       <r>   -7.4254    1.0000 </r>
       <r>   -7.3373    1.0000 </r>
       <r>   -7.2060    1.0000 </r>
       <r>   -7.1220    1.0000 </r>
       <r>   -7.0180    1.0000 </r>
       <r>   -6.9734    1.0000 </r>
       <r>   -6.8884    1.0000 </r>
       <r>   -6.8464    1.0000 </r>
       <r>   -6.7674    1.0000 </r>
       <r>   -6.7200    1.0000 </r>
       <r>   -6.6345    1.0000 </r>
       <r>   -6.5778    1.0000 </r>
       <r>   -6.4934    1.0000 </r>
       <r>   -6.4218    1.0000 </r>
       <r>   -6.3045    1.0000 </r>
       <r>   -6.2698    1.0000 </r>
       <r>   -6.1646    1.0000 </r>
       <r>   -6.0454    1.0000 </r>
       <r>   -6.0150    1.0000 </r>
       <r>   -5.9697    1.0000 </r>
       <r>   -5.9184    1.0000 </r>
       <r>   -5.8626    1.0000 </r>
       <r>   -5.8212    1.0000 </r>
       <r>   -5.7237    1.0000 </r>
       <r>   -5.6526    1.0000 </r>
       <r>   -5.5974    1.0000 </r>
       <r>   -5.5234    1.0000 </r>
       <r>   -5.2888    1.0000 </r>
       <r>   -5.1264    1.0000 </r>
       <r>   -5.0249    1.0000 </r>
       <r>   -4.9538    1.0000 </r>
       <r>   -4.8073    1.0000 </r>
       <r>   -4.6970    1.0000 </r>
       <r>   -4.5266    1.0000 </r>
       <r>   -4.3844    1.0000 </r>
       <r>   -4.2401    1.0000 </r>
       <r>   -4.0657    1.0000 </r>
       <r>   -3.8902    1.0000 </r>
       <r>   -3.6960    1.0000 </r>
       <r>   -3.5903    1.0000 </r>
       <r>   -3.4459    0.9983 </r>
       <r>   -3.2157    0.9044 </r>
       <r>   -3.0929    0.6696 </r>
       <r>   -2.8962    0.1705 </r>
       <r>   -2.7291    0.0164 </r>
       <r>   -2.6430    0.0030 </r>
       <r>   -2.5789    0.0007 </r>
       <r>   -2.4756    0.0000 </r>
       <r>   -2.4505    0.0000 </r>
       <r>   -2.3979    0.0000 </r>
       <r>   -2.3075    0.0000 </r>
       <r>   -2.2105    0.0000 </r>
       <r>   -2.0806    0.0000 </r>
       <r>   -1.7987    0.0000 </r>
       <r>   -1.6025    0.0000 </r>
       <r>   -1.5184    0.0000 </r>
       <r>   -1.3812    0.0000 </r>
       <r>   -1.2692    0.0000 </r>
       <r>   -1.1663    0.0000 </r>
       <r>   -1.0403    0.0000 </r>
       <r>   -0.8507    0.0000 </r>
       <r>   -0.8217    0.0000 </r>
       <r>   -0.7994    0.0000 </r>
       <r>   -0.6985    0.0000 </r>
       <r>   -0.6671    0.0000 </r>
       <r>   -0.6231    0.0000 </r>
       <r>   -0.4921    0.0000 </r>
       <r>   -0.4654    0.0000 </r>
       <r>   -0.3085    0.0000 </r>
       <r>   -0.1437    0.0000 </r>
       <r>   -0.0495    0.0000 </r>
       <r>    0.0832    0.0000 </r>
       <r>    0.1801    0.0000 </r>
       <r>    0.4901    0.0000 </r>
       <r>    0.6488    0.0000 </r>
       <r>    0.8555    0.0000 </r>
       <r>    1.1079    0.0000 </r>
       <r>    1.2573    0.0000 </r>
       <r>    1.3801    0.0000 </r>
       <r>    1.6120    0.0000 </r>
       <r>    2.1673    0.0000 </r>
       <r>    2.3027    0.0000 </r>
       <r>    2.4278    0.0000 </r>
      </set>
      <set comment="kpoint 32">
       <r>  -17.5351    1.0000 </r>
       <r>  -17.2052    1.0000 </r>
       <r>  -17.0088    1.0000 </r>
       <r>  -16.5100    1.0000 </r>
       <r>  -16.4031    1.0000 </r>
       <r>  -16.3378    1.0000 </r>
       <r>  -16.2380    1.0000 </r>
       <r>  -16.1929    1.0000 </r>
       <r>  -16.1681    1.0000 </r>
       <r>  -16.0657    1.0000 </r>
       <r>  -15.9923    1.0000 </r>
       <r>  -15.9212    1.0000 </r>
       <r>  -15.7721    1.0000 </r>
       <r>  -15.6744    1.0000 </r>
       <r>  -15.5795    1.0000 </r>
       <r>  -15.5324    1.0000 </r>
       <r>  -15.4577    1.0000 </r>
       <r>  -15.3839    1.0000 </r>
       <r>   -9.7262    1.0000 </r>
       <r>   -9.5667    1.0000 </r>
       <r>   -9.3898    1.0000 </r>
       <r>   -8.9411    1.0000 </r>
       <r>   -8.6868    1.0000 </r>
       <r>   -8.6013    1.0000 </r>
       <r>   -8.5414    1.0000 </r>
       <r>   -8.3879    1.0000 </r>
       <r>   -8.3584    1.0000 </r>
       <r>   -8.2934    1.0000 </r>
       <r>   -8.2731    1.0000 </r>
       <r>   -8.2166    1.0000 </r>
       <r>   -8.1866    1.0000 </r>
       <r>   -8.1316    1.0000 </r>
       <r>   -8.1047    1.0000 </r>
       <r>   -7.9757    1.0000 </r>
       <r>   -7.7914    1.0000 </r>
       <r>   -7.5520    1.0000 </r>
       <r>   -7.4502    1.0000 </r>
       <r>   -7.4004    1.0000 </r>
       <r>   -7.2891    1.0000 </r>
       <r>   -7.2243    1.0000 </r>
       <r>   -7.1621    1.0000 </r>
       <r>   -7.0360    1.0000 </r>
       <r>   -6.9996    1.0000 </r>
       <r>   -6.9031    1.0000 </r>
       <r>   -6.8340    1.0000 </r>
       <r>   -6.8206    1.0000 </r>
       <r>   -6.7206    1.0000 </r>
       <r>   -6.6113    1.0000 </r>
       <r>   -6.5230    1.0000 </r>
       <r>   -6.4642    1.0000 </r>
       <r>   -6.4129    1.0000 </r>
       <r>   -6.3767    1.0000 </r>
       <r>   -6.3104    1.0000 </r>
       <r>   -6.2545    1.0000 </r>
       <r>   -6.0630    1.0000 </r>
       <r>   -6.0021    1.0000 </r>
       <r>   -5.9643    1.0000 </r>
       <r>   -5.8868    1.0000 </r>
       <r>   -5.8479    1.0000 </r>
       <r>   -5.6980    1.0000 </r>
       <r>   -5.6717    1.0000 </r>
       <r>   -5.5191    1.0000 </r>
       <r>   -5.4300    1.0000 </r>
       <r>   -5.4068    1.0000 </r>
       <r>   -5.3414    1.0000 </r>
       <r>   -5.2528    1.0000 </r>
       <r>   -5.2230    1.0000 </r>
       <r>   -4.9822    1.0000 </r>
       <r>   -4.9492    1.0000 </r>
       <r>   -4.6763    1.0000 </r>
       <r>   -4.5477    1.0000 </r>
       <r>   -4.4102    1.0000 </r>
       <r>   -4.1237    1.0000 </r>
       <r>   -4.0786    1.0000 </r>
       <r>   -3.9187    1.0000 </r>
       <r>   -3.6608    1.0000 </r>
       <r>   -3.5883    1.0000 </r>
       <r>   -3.4602    0.9988 </r>
       <r>   -3.2067    0.8931 </r>
       <r>   -3.0341    0.5093 </r>
       <r>   -2.8019    0.0527 </r>
       <r>   -2.7390    0.0195 </r>
       <r>   -2.6913    0.0082 </r>
       <r>   -2.5889    0.0009 </r>
       <r>   -2.5054    0.0001 </r>
       <r>   -2.4621    0.0000 </r>
       <r>   -2.4106    0.0000 </r>
       <r>   -2.3535    0.0000 </r>
       <r>   -2.1815    0.0000 </r>
       <r>   -2.1429    0.0000 </r>
       <r>   -1.8179    0.0000 </r>
       <r>   -1.5841    0.0000 </r>
       <r>   -1.5076    0.0000 </r>
       <r>   -1.3842    0.0000 </r>
       <r>   -1.3177    0.0000 </r>
       <r>   -1.0987    0.0000 </r>
       <r>   -1.0169    0.0000 </r>
       <r>   -0.8715    0.0000 </r>
       <r>   -0.8459    0.0000 </r>
       <r>   -0.7910    0.0000 </r>
       <r>   -0.6911    0.0000 </r>
       <r>   -0.6806    0.0000 </r>
       <r>   -0.6095    0.0000 </r>
       <r>   -0.4121    0.0000 </r>
       <r>   -0.3932    0.0000 </r>
       <r>   -0.2426    0.0000 </r>
       <r>   -0.1994    0.0000 </r>
       <r>   -0.1173    0.0000 </r>
       <r>    0.0918    0.0000 </r>
       <r>    0.2231    0.0000 </r>
       <r>    0.4048    0.0000 </r>
       <r>    0.6806    0.0000 </r>
       <r>    0.7719    0.0000 </r>
       <r>    1.0679    0.0000 </r>
       <r>    1.2209    0.0000 </r>
       <r>    1.4465    0.0000 </r>
       <r>    1.6220    0.0000 </r>
       <r>    2.1371    0.0000 </r>
       <r>    2.2723    0.0000 </r>
       <r>    2.6112    0.0000 </r>
      </set>
      <set comment="kpoint 33">
       <r>  -17.5023    1.0000 </r>
       <r>  -17.3087    1.0000 </r>
       <r>  -16.8833    1.0000 </r>
       <r>  -16.5129    1.0000 </r>
       <r>  -16.4464    1.0000 </r>
       <r>  -16.4002    1.0000 </r>
       <r>  -16.2653    1.0000 </r>
       <r>  -16.1956    1.0000 </r>
       <r>  -16.1455    1.0000 </r>
       <r>  -16.0603    1.0000 </r>
       <r>  -15.9787    1.0000 </r>
       <r>  -15.8446    1.0000 </r>
       <r>  -15.7794    1.0000 </r>
       <r>  -15.6679    1.0000 </r>
       <r>  -15.5860    1.0000 </r>
       <r>  -15.5478    1.0000 </r>
       <r>  -15.4469    1.0000 </r>
       <r>  -15.4058    1.0000 </r>
       <r>   -9.7976    1.0000 </r>
       <r>   -9.4272    1.0000 </r>
       <r>   -9.3553    1.0000 </r>
       <r>   -8.9150    1.0000 </r>
       <r>   -8.8221    1.0000 </r>
       <r>   -8.7082    1.0000 </r>
       <r>   -8.6331    1.0000 </r>
       <r>   -8.4382    1.0000 </r>
       <r>   -8.3587    1.0000 </r>
       <r>   -8.3243    1.0000 </r>
       <r>   -8.2640    1.0000 </r>
       <r>   -8.2038    1.0000 </r>
       <r>   -8.1099    1.0000 </r>
       <r>   -8.0438    1.0000 </r>
       <r>   -7.9663    1.0000 </r>
       <r>   -7.9039    1.0000 </r>
       <r>   -7.7657    1.0000 </r>
       <r>   -7.5999    1.0000 </r>
       <r>   -7.5187    1.0000 </r>
       <r>   -7.4521    1.0000 </r>
       <r>   -7.3342    1.0000 </r>
       <r>   -7.1970    1.0000 </r>
       <r>   -7.1161    1.0000 </r>
       <r>   -7.0304    1.0000 </r>
       <r>   -6.9724    1.0000 </r>
       <r>   -6.8824    1.0000 </r>
       <r>   -6.8209    1.0000 </r>
       <r>   -6.7988    1.0000 </r>
       <r>   -6.7014    1.0000 </r>
       <r>   -6.6422    1.0000 </r>
       <r>   -6.5823    1.0000 </r>
       <r>   -6.5117    1.0000 </r>
       <r>   -6.4113    1.0000 </r>
       <r>   -6.2985    1.0000 </r>
       <r>   -6.2727    1.0000 </r>
       <r>   -6.1654    1.0000 </r>
       <r>   -6.0370    1.0000 </r>
       <r>   -6.0148    1.0000 </r>
       <r>   -5.9536    1.0000 </r>
       <r>   -5.9021    1.0000 </r>
       <r>   -5.8796    1.0000 </r>
       <r>   -5.8082    1.0000 </r>
       <r>   -5.7070    1.0000 </r>
       <r>   -5.6534    1.0000 </r>
       <r>   -5.5957    1.0000 </r>
       <r>   -5.5283    1.0000 </r>
       <r>   -5.3003    1.0000 </r>
       <r>   -5.1265    1.0000 </r>
       <r>   -5.0244    1.0000 </r>
       <r>   -4.9396    1.0000 </r>
       <r>   -4.8359    1.0000 </r>
       <r>   -4.7106    1.0000 </r>
       <r>   -4.5346    1.0000 </r>
       <r>   -4.3815    1.0000 </r>
       <r>   -4.2945    1.0000 </r>
       <r>   -4.0564    1.0000 </r>
       <r>   -3.7935    1.0000 </r>
       <r>   -3.7238    1.0000 </r>
       <r>   -3.5706    0.9999 </r>
       <r>   -3.4263    0.9974 </r>
       <r>   -3.2295    0.9200 </r>
       <r>   -3.0590    0.5789 </r>
       <r>   -2.9209    0.2185 </r>
       <r>   -2.7590    0.0273 </r>
       <r>   -2.6405    0.0029 </r>
       <r>   -2.5921    0.0010 </r>
       <r>   -2.4794    0.0000 </r>
       <r>   -2.4378    0.0000 </r>
       <r>   -2.3963    0.0000 </r>
       <r>   -2.3445    0.0000 </r>
       <r>   -2.2160    0.0000 </r>
       <r>   -2.0964    0.0000 </r>
       <r>   -1.8161    0.0000 </r>
       <r>   -1.6288    0.0000 </r>
       <r>   -1.5430    0.0000 </r>
       <r>   -1.3956    0.0000 </r>
       <r>   -1.3229    0.0000 </r>
       <r>   -1.0617    0.0000 </r>
       <r>   -0.9424    0.0000 </r>
       <r>   -0.8931    0.0000 </r>
       <r>   -0.7951    0.0000 </r>
       <r>   -0.7840    0.0000 </r>
       <r>   -0.6851    0.0000 </r>
       <r>   -0.6677    0.0000 </r>
       <r>   -0.6028    0.0000 </r>
       <r>   -0.4848    0.0000 </r>
       <r>   -0.4545    0.0000 </r>
       <r>   -0.3379    0.0000 </r>
       <r>   -0.1618    0.0000 </r>
       <r>   -0.0889    0.0000 </r>
       <r>    0.1258    0.0000 </r>
       <r>    0.2273    0.0000 </r>
       <r>    0.4456    0.0000 </r>
       <r>    0.6925    0.0000 </r>
       <r>    0.7461    0.0000 </r>
       <r>    1.0291    0.0000 </r>
       <r>    1.1904    0.0000 </r>
       <r>    1.5387    0.0000 </r>
       <r>    1.6490    0.0000 </r>
       <r>    2.1720    0.0000 </r>
       <r>    2.3056    0.0000 </r>
       <r>    2.4374    0.0000 </r>
      </set>
      <set comment="kpoint 34">
       <r>  -17.4436    1.0000 </r>
       <r>  -17.4049    1.0000 </r>
       <r>  -16.7216    1.0000 </r>
       <r>  -16.6292    1.0000 </r>
       <r>  -16.4673    1.0000 </r>
       <r>  -16.4482    1.0000 </r>
       <r>  -16.2114    1.0000 </r>
       <r>  -16.2025    1.0000 </r>
       <r>  -16.1918    1.0000 </r>
       <r>  -16.0474    1.0000 </r>
       <r>  -15.9619    1.0000 </r>
       <r>  -15.8009    1.0000 </r>
       <r>  -15.7374    1.0000 </r>
       <r>  -15.6695    1.0000 </r>
       <r>  -15.6269    1.0000 </r>
       <r>  -15.5393    1.0000 </r>
       <r>  -15.4458    1.0000 </r>
       <r>  -15.4281    1.0000 </r>
       <r>   -9.8348    1.0000 </r>
       <r>   -9.3028    1.0000 </r>
       <r>   -9.2755    1.0000 </r>
       <r>   -8.9846    1.0000 </r>
       <r>   -8.9350    1.0000 </r>
       <r>   -8.7653    1.0000 </r>
       <r>   -8.7132    1.0000 </r>
       <r>   -8.4289    1.0000 </r>
       <r>   -8.3870    1.0000 </r>
       <r>   -8.3234    1.0000 </r>
       <r>   -8.2773    1.0000 </r>
       <r>   -8.1812    1.0000 </r>
       <r>   -8.0977    1.0000 </r>
       <r>   -7.9554    1.0000 </r>
       <r>   -7.9008    1.0000 </r>
       <r>   -7.8207    1.0000 </r>
       <r>   -7.6919    1.0000 </r>
       <r>   -7.6524    1.0000 </r>
       <r>   -7.5276    1.0000 </r>
       <r>   -7.4748    1.0000 </r>
       <r>   -7.3742    1.0000 </r>
       <r>   -7.2891    1.0000 </r>
       <r>   -7.1486    1.0000 </r>
       <r>   -7.0352    1.0000 </r>
       <r>   -6.8939    1.0000 </r>
       <r>   -6.8688    1.0000 </r>
       <r>   -6.8221    1.0000 </r>
       <r>   -6.7061    1.0000 </r>
       <r>   -6.6620    1.0000 </r>
       <r>   -6.6417    1.0000 </r>
       <r>   -6.5692    1.0000 </r>
       <r>   -6.5342    1.0000 </r>
       <r>   -6.3958    1.0000 </r>
       <r>   -6.3309    1.0000 </r>
       <r>   -6.2742    1.0000 </r>
       <r>   -6.1271    1.0000 </r>
       <r>   -6.0889    1.0000 </r>
       <r>   -6.0313    1.0000 </r>
       <r>   -5.9564    1.0000 </r>
       <r>   -5.9504    1.0000 </r>
       <r>   -5.8655    1.0000 </r>
       <r>   -5.7987    1.0000 </r>
       <r>   -5.7498    1.0000 </r>
       <r>   -5.6991    1.0000 </r>
       <r>   -5.6433    1.0000 </r>
       <r>   -5.6114    1.0000 </r>
       <r>   -5.4005    1.0000 </r>
       <r>   -5.0116    1.0000 </r>
       <r>   -4.9711    1.0000 </r>
       <r>   -4.8638    1.0000 </r>
       <r>   -4.7038    1.0000 </r>
       <r>   -4.6037    1.0000 </r>
       <r>   -4.5896    1.0000 </r>
       <r>   -4.4992    1.0000 </r>
       <r>   -4.3124    1.0000 </r>
       <r>   -4.0499    1.0000 </r>
       <r>   -3.7679    1.0000 </r>
       <r>   -3.7389    1.0000 </r>
       <r>   -3.5917    1.0000 </r>
       <r>   -3.3465    0.9872 </r>
       <r>   -3.2483    0.9379 </r>
       <r>   -3.1558    0.8116 </r>
       <r>   -2.9541    0.2936 </r>
       <r>   -2.7726    0.0339 </r>
       <r>   -2.6540    0.0039 </r>
       <r>   -2.5646    0.0005 </r>
       <r>   -2.4813    0.0001 </r>
       <r>   -2.4215    0.0000 </r>
       <r>   -2.3650    0.0000 </r>
       <r>   -2.3148    0.0000 </r>
       <r>   -2.2314    0.0000 </r>
       <r>   -2.0627    0.0000 </r>
       <r>   -1.8032    0.0000 </r>
       <r>   -1.6917    0.0000 </r>
       <r>   -1.5526    0.0000 </r>
       <r>   -1.3972    0.0000 </r>
       <r>   -1.3151    0.0000 </r>
       <r>   -1.0580    0.0000 </r>
       <r>   -0.9036    0.0000 </r>
       <r>   -0.9011    0.0000 </r>
       <r>   -0.7843    0.0000 </r>
       <r>   -0.7182    0.0000 </r>
       <r>   -0.6506    0.0000 </r>
       <r>   -0.6335    0.0000 </r>
       <r>   -0.6111    0.0000 </r>
       <r>   -0.5940    0.0000 </r>
       <r>   -0.5596    0.0000 </r>
       <r>   -0.3736    0.0000 </r>
       <r>   -0.1759    0.0000 </r>
       <r>   -0.0279    0.0000 </r>
       <r>    0.1196    0.0000 </r>
       <r>    0.2523    0.0000 </r>
       <r>    0.4769    0.0000 </r>
       <r>    0.6694    0.0000 </r>
       <r>    0.7689    0.0000 </r>
       <r>    1.0212    0.0000 </r>
       <r>    1.1893    0.0000 </r>
       <r>    1.5650    0.0000 </r>
       <r>    1.6747    0.0000 </r>
       <r>    2.2668    0.0000 </r>
       <r>    2.2778    0.0000 </r>
       <r>    2.3830    0.0000 </r>
      </set>
     </set>
    </set>
   </array>
  </eigenvalues>
  <separator name="orbital magnetization" >
   <v name="MAGDIPOLOUT">      0.00000000      0.00000000      0.00000000</v>
  </separator>
 </calculation>
 <structure name="finalpos" >
  <crystal>
   <varray name="basis" >
    <v>       8.28084151       4.77375182       0.00000000 </v>
    <v>      -8.29613717       4.80027330       0.00000000 </v>
    <v>       0.00000000       0.00000000      30.00000000 </v>
   </varray>
   <i name="volume">   2380.62006868 </i>
   <varray name="rec_basis" >
    <v>       0.06049189       0.10454592       0.00000000 </v>
    <v>      -0.06015767       0.10435317       0.00000000 </v>
    <v>       0.00000000       0.00000000       0.03333333 </v>
   </varray>
  </crystal>
  <varray name="positions" >
   <v>       0.67145651       0.34252917      -0.00026178 </v>
   <v>       0.32585014      -0.00485410      -0.00057931 </v>
   <v>       0.67434811       0.00029178      -0.00040177 </v>
   <v>       1.02044892       0.34604845       0.00046657 </v>
   <v>       0.65778986       0.65993288      -0.00012008 </v>
   <v>       0.33078183       0.35399224       0.00031361 </v>
   <v>      -0.00386429      -0.00063397       0.00028710 </v>
   <v>      -0.00218565       0.66039270       0.00010565 </v>
   <v>       0.32554464       0.64332873       0.00003856 </v>
   <v>       0.11253173       0.22265309       0.94701913 </v>
   <v>       0.22567262       0.11160960       0.04965970 </v>
   <v>       0.11278888       0.55695874       0.94579791 </v>
   <v>       0.22323608       0.44618726       0.05783426 </v>
   <v>       0.11266566       0.88885298       0.94856222 </v>
   <v>       0.22517803       0.77947837       0.05021808 </v>
   <v>       0.44470546       0.22246755       0.95255725 </v>
   <v>       0.55559324       0.11094618       0.04709224 </v>
   <v>       0.44452684       0.55740738       0.94428135 </v>
   <v>       0.55620107       0.44004610       0.05192181 </v>
   <v>       0.44519074       0.88848975       0.95232517 </v>
   <v>       0.55455629       0.78151892       0.05076585 </v>
   <v>       0.77789426       0.22259690       0.95191927 </v>
   <v>       0.88477984       0.11015466       0.05129883 </v>
   <v>       0.77540686       0.54977145       0.94762486 </v>
   <v>       0.88395432       0.44083280       0.05174413 </v>
   <v>       0.77543942       0.89120473       0.94801359 </v>
   <v>       0.88772305       0.77601009       0.05151573 </v>
  </varray>
 </structure>
</modeling>
