unknown system                          
           1
     8.860372    5.104212    0.000000
    -8.861715    5.106522    0.000000
     0.000000    0.000000   30.000000
   V    Mo   W    S 
   3   3   3  18
Direct configuration=     1
   0.66666669  0.33333334  0.00000000
   0.33333334  0.00000000  0.00000000
   0.66666669  0.00000000  0.00000000
   1.00000000  0.33333334  0.00000000
   0.66666669  0.66666669  0.00000000
   0.33333334  0.33333334  0.00000000
   0.00000000  0.00000000  0.00000000
   0.00000000  0.66666669  0.00000000
   0.33333334  0.66666669  0.00000000
   0.11068511  0.22244981  0.95539999
   0.22244981  0.11068511  0.04460000
   0.11068511  0.55578315  0.95539999
   0.22244981  0.44401845  0.04460000
   0.11068511  0.88911647  0.95539999
   0.22244981  0.77735180  0.04460000
   0.44401845  0.22244981  0.95539999
   0.55578315  0.11068511  0.04460000
   0.44401845  0.55578315  0.95539999
   0.55578315  0.44401845  0.04460000
   0.44401845  0.88911647  0.95539999
   0.55578315  0.77735180  0.04460000
   0.77735180  0.22244981  0.95539999
   0.88911647  0.11068511  0.04460000
   0.77735180  0.55578315  0.95539999
   0.88911647  0.44401845  0.04460000
   0.77735180  0.88911647  0.95539999
   0.88911647  0.77735180  0.04460000
unknown system                          
           1
     8.670169    4.997242    0.000000
    -8.671480    4.999499    0.000000
     0.000000    0.000000   30.000000
   V    Mo   W    S 
   3   3   3  18
Direct configuration=     2
   0.66620035  0.33355287 -0.00001306
   0.33418787  0.00160398  0.00002016
   0.66736873  0.00052059 -0.00001114
   1.00112569  0.33325437  0.00006019
   0.66524895  0.66519225 -0.00009795
   0.33347704  0.33461170  0.00014849
  -0.00007003  0.00161070 -0.00016916
  -0.00172147  0.66489366 -0.00015441
   0.33384478  0.66422666  0.00016742
   0.11050704  0.22096594  0.95077984
   0.22369674  0.10827571  0.04797361
   0.11141040  0.55644728  0.95076914
   0.22265395  0.44538184  0.04937108
   0.11456733  0.89048776  0.95190906
   0.22393834  0.78135354  0.04802041
   0.44657013  0.21994098  0.95308053
   0.55557492  0.11085862  0.04584842
   0.44410203  0.55601487  0.95069012
   0.55776004  0.44185520  0.04799038
   0.44589503  0.89238272  0.95317788
   0.55657097  0.78169847  0.04804083
   0.77322664  0.22012064  0.95316963
   0.88475257  0.10845472  0.04810333
   0.77653692  0.55157500  0.95188690
   0.88482758  0.44308021  0.04806942
   0.77634188  0.89165727  0.95199800
   0.88962005  0.77819691  0.04917078
unknown system                          
           1
     8.486364    4.897801    0.000000
    -8.487613    4.899953    0.000000
     0.000000    0.000000   30.000000
   V    Mo   W    S 
   3   3   3  18
Direct configuration=     3
   0.66619096  0.33379988 -0.00002195
   0.33426867  0.00195746  0.00001266
   0.66767297  0.00063859 -0.00006498
   1.00203091  0.33349327  0.00002912
   0.66481211  0.66472376 -0.00006164
   0.33324791  0.33539583  0.00017190
  -0.00006857  0.00205612 -0.00018726
  -0.00225199  0.66446835 -0.00011583
   0.33375089  0.66300897  0.00019335
   0.11039979  0.22073656  0.95070355
   0.22350919  0.10815507  0.04795517
   0.11153553  0.55671277  0.95077957
   0.22280063  0.44561476  0.04954587
   0.11438154  0.89043308  0.95198681
   0.22388403  0.78116554  0.04786999
   0.44663116  0.21992385  0.95314051
   0.55557891  0.11089871  0.04576859
   0.44398303  0.55614702  0.95056987
   0.55780200  0.44177080  0.04803617
   0.44585001  0.89221255  0.95332231
   0.55639169  0.78167945  0.04801871
   0.77313440  0.22004380  0.95326134
   0.88477426  0.10828867  0.04812285
   0.77666993  0.55155103  0.95183340
   0.88482858  0.44321673  0.04804533
   0.77653463  0.89181378  0.95200279
   0.88987129  0.77830807  0.04908169
unknown system                          
           1
     8.280771    4.772647    0.000000
    -8.285778    4.781309    0.000000
     0.000000    0.000000   30.000000
   V    Mo   W    S 
   3   3   3  18
Direct configuration=     4
   0.66661081  0.33544489 -0.00006409
   0.33383037  0.00277255 -0.00003710
   0.66906263  0.00073891 -0.00026694
   1.00633276  0.33478549 -0.00007996
   0.66337134  0.66306740  0.00008066
   0.33173905  0.33874528  0.00018631
  -0.00002123  0.00342070 -0.00015984
  -0.00412585  0.66325319  0.00008491
   0.33286466  0.65781789  0.00019662
   0.11060692  0.22078917  0.94876217
   0.22399046  0.10785087  0.04932844
   0.11179609  0.55707134  0.94919232
   0.22288276  0.44558302  0.05196094
   0.11515426  0.89092556  0.95078891
   0.22447650  0.78186613  0.04873335
   0.44716648  0.21962424  0.95206873
   0.55565562  0.11108017  0.04671023
   0.44396317  0.55617140  0.94845245
   0.55824540  0.44093189  0.04966104
   0.44629930  0.89286006  0.95257433
   0.55690213  0.78282536  0.04941554
   0.77215653  0.21949996  0.95231354
   0.88370247  0.10781028  0.04967996
   0.77583457  0.55019362  0.95010565
   0.88363208  0.44232998  0.04941596
   0.77599718  0.89225111  0.95055708
   0.89008799  0.77850402  0.05033871
unknown system                          
           1
     8.289553    4.772989    0.000000
    -8.295764    4.783731    0.000000
     0.000000    0.000000   30.000000
   V    Mo   W    S 
   3   3   3  18
Direct configuration=     5
   0.66747054  0.33883678 -0.00015430
   0.33281138  0.00425234 -0.00016551
   0.67149482  0.00085502 -0.00054426
   1.01534823  0.33733622 -0.00015297
   0.66109944  0.65995103  0.00027385
   0.32812700  0.34486358  0.00007801
   0.00041170  0.00596655  0.00000525
  -0.00796554  0.66144615  0.00038986
   0.33105521  0.64801624  0.00010771
   0.11149622  0.22135767  0.94607890
   0.22477159  0.10866585  0.05105342
   0.11228418  0.55723404  0.94722210
   0.22272876  0.44506112  0.05574907
   0.11568246  0.89130651  0.94922461
   0.22528110  0.78198764  0.04960416
   0.44740257  0.22019632  0.95066125
   0.55596370  0.11153871  0.04815873
   0.44429204  0.55585656  0.94550059
   0.55783972  0.43969257  0.05183323
   0.44641040  0.89240555  0.95178451
   0.55701188  0.78348306  0.05115579
   0.77241615  0.21969920  0.95113101
   0.88290840  0.10815344  0.05165066
   0.77448561  0.54853012  0.94773804
   0.88239685  0.44051621  0.05106481
   0.77534299  0.89219915  0.94868125
   0.88964708  0.77880682  0.05187016
unknown system                          
           1
     8.279432    4.767341    0.000000
    -8.284553    4.776191    0.000000
     0.000000    0.000000   30.000000
   V    Mo   W    S 
   3   3   3  18
Direct configuration=     6
   0.66732141  0.33960936 -0.00010661
   0.33291611  0.00510516 -0.00016629
   0.67189168  0.00098933 -0.00056873
   1.01643715  0.33721585 -0.00004388
   0.66123403  0.65925312  0.00024277
   0.32762298  0.34476927  0.00006085
   0.00088768  0.00669138 -0.00002294
  -0.00938894  0.66141935  0.00040571
   0.33104028  0.64712678  0.00015543
   0.11196921  0.22162994  0.94585952
   0.22490052  0.10966524  0.05104280
   0.11246661  0.55717645  0.94724732
   0.22265446  0.44491910  0.05625252
   0.11508670  0.89105241  0.94924467
   0.22530380  0.78109195  0.04929801
   0.44694224  0.22106906  0.95066654
   0.55612318  0.11173155  0.04815258
   0.44458304  0.55573324  0.94518788
   0.55681855  0.43936561  0.05187913
   0.44578666  0.89097570  0.95202287
   0.55642404  0.78273259  0.05111374
   0.77394192  0.22062528  0.95127112
   0.88341979  0.10879096  0.05169764
   0.77434470  0.54862401  0.94754253
   0.88276862  0.44005305  0.05095073
   0.77557109  0.89186944  0.94870192
   0.88914695  0.77892930  0.05191206
unknown system                          
           1
     8.288795    4.771527    0.000000
    -8.294099    4.780692    0.000000
     0.000000    0.000000   30.000000
   V    Mo   W    S 
   3   3   3  18
Direct configuration=     7
   0.66702568  0.34084449 -0.00005580
   0.33328186  0.00660822 -0.00017596
   0.67254975  0.00125283 -0.00066828
   1.01868610  0.33702621 -0.00000120
   0.66117523  0.65794982  0.00018533
   0.32659563  0.34550306  0.00003232
   0.00159562  0.00804104 -0.00008561
  -0.01183655  0.66127317  0.00046312
   0.33112516  0.64466974  0.00015826
   0.11235140  0.22182583  0.94548824
   0.22499827  0.11043005  0.05118722
   0.11251537  0.55711302  0.94731234
   0.22275123  0.44476664  0.05688473
   0.11456261  0.89085641  0.94919784
   0.22519377  0.78028929  0.04892665
   0.44662406  0.22179895  0.95055071
   0.55626440  0.11194619  0.04817064
   0.44481994  0.55559252  0.94482648
   0.55598775  0.43898679  0.05207778
   0.44524679  0.88978152  0.95229308
   0.55612035  0.78211223  0.05115917
   0.77529888  0.22149332  0.95144587
   0.88381226  0.10923429  0.05188568
   0.77403661  0.54849409  0.94713845
   0.88296028  0.43956181  0.05087499
   0.77578227  0.89159119  0.94867421
   0.88868973  0.77917175  0.05205365
unknown system                          
           1
     8.293880    4.772480    0.000000
    -8.299113    4.781518    0.000000
     0.000000    0.000000   30.000000
   V    Mo   W    S 
   3   3   3  18
Direct configuration=     8
   0.66687399  0.34093609 -0.00004604
   0.33352235  0.00698202 -0.00017085
   0.67257060  0.00133552 -0.00068379
   1.01854000  0.33668107  0.00002108
   0.66130552  0.65780030  0.00019091
   0.32663674  0.34522914  0.00003205
   0.00174836  0.00821920 -0.00009469
  -0.01229528  0.66137656  0.00047598
   0.33138899  0.64482066  0.00018786
   0.11237949  0.22179652  0.94550847
   0.22494854  0.11041453  0.05116022
   0.11248302  0.55711549  0.94743354
   0.22277009  0.44475505  0.05682531
   0.11452459  0.89082894  0.94925211
   0.22509426  0.78019614  0.04879442
   0.44662339  0.22181117  0.95056310
   0.55626073  0.11196446  0.04811058
   0.44486239  0.55555574  0.94486252
   0.55592926  0.43897191  0.05203987
   0.44518766  0.88970621  0.95237806
   0.55612566  0.78203588  0.05109631
   0.77539256  0.22157762  0.95153335
   0.88385324  0.10922605  0.05184584
   0.77401877  0.54847754  0.94713834
   0.88299076  0.43957508  0.05078074
   0.77583941  0.89158240  0.94874617
   0.88863937  0.77924315  0.05201846
unknown system                          
           1
     8.280503    4.768941    0.000000
    -8.286535    4.779374    0.000000
     0.000000    0.000000   30.000000
   V    Mo   W    S 
   3   3   3  18
Direct configuration=     9
   0.66646924  0.34168328 -0.00001188
   0.33417518  0.00841362 -0.00016642
   0.67291106  0.00163117 -0.00076771
   1.01943524  0.33592647  0.00006023
   0.66144455  0.65685742  0.00017146
   0.32617098  0.34518651  0.00001267
   0.00237051  0.00918406 -0.00014836
  -0.01432841  0.66152014  0.00051763
   0.33196780  0.64383740  0.00022811
   0.11259635  0.22182622  0.94533521
   0.22490625  0.11064797  0.05122407
   0.11244698  0.55710411  0.94767457
   0.22284497  0.44464028  0.05704455
   0.11429657  0.89073024  0.94930040
   0.22486871  0.77973340  0.04840981
   0.44653906  0.22208489  0.95048193
   0.55632349  0.11210791  0.04805146
   0.44501837  0.55541534  0.94472898
   0.55553014  0.43876338  0.05211754
   0.44488508  0.88915447  0.95261639
   0.55606996  0.78170682  0.05105510
   0.77601848  0.22204579  0.95173091
   0.88403025  0.10934719  0.05190618
   0.77380529  0.54832938  0.94691343
   0.88305672  0.43936601  0.05061107
   0.77600430  0.89146534  0.94883191
   0.88835732  0.77950566  0.05207066
unknown system                          
           1
     8.277488    4.769108    0.000000
    -8.284005    4.780388    0.000000
     0.000000    0.000000   30.000000
   V    Mo   W    S 
   3   3   3  18
Direct configuration=    10
   0.66739683  0.34025000 -0.00007935
   0.33246922  0.00512069 -0.00019254
   0.67226120  0.00092769 -0.00057926
   1.01810247  0.33805703 -0.00003023
   0.66120764  0.65884021  0.00019518
   0.32700541  0.34564277  0.00005489
   0.00100161  0.00713745 -0.00002065
  -0.01006353  0.66095936  0.00044515
   0.33040444  0.64540313  0.00010553
   0.11216670  0.22183841  0.94568108
   0.22505977  0.11042429  0.05106412
   0.11256649  0.55710672  0.94705301
   0.22270449  0.44489475  0.05673404
   0.11462322  0.89090443  0.94918402
   0.22542618  0.78059756  0.04925783
   0.44660136  0.22175158  0.95072480
   0.55621327  0.11180464  0.04814380
   0.44472145  0.55574413  0.94496062
   0.55619327  0.43913933  0.05194430
   0.44542468  0.89000999  0.95215589
   0.55602734  0.78223501  0.05112697
   0.77505779  0.22123777  0.95135962
   0.88375067  0.10926317  0.05178155
   0.77429641  0.54867553  0.94737168
   0.88293691  0.43965670  0.05100808
   0.77570774  0.89167271  0.94861108
   0.88895143  0.77891938  0.05193870
unknown system                          
           1
     8.271892    4.766799    0.000000
    -8.278396    4.778058    0.000000
     0.000000    0.000000   30.000000
   V    Mo   W    S 
   3   3   3  18
Direct configuration=    11
   0.66808863  0.33959267 -0.00012412
   0.33090763  0.00266238 -0.00023295
   0.67203359  0.00031671 -0.00046325
   1.01794604  0.34022354 -0.00003696
   0.66102701  0.66010792  0.00020154
   0.32739306  0.34639254  0.00008031
   0.00002298  0.00593172  0.00007930
  -0.00707248  0.66013234  0.00042315
   0.32873088  0.64571648  0.00005575
   0.11197433  0.22195169  0.94585180
   0.22523925  0.11061663  0.05092582
   0.11267595  0.55712757  0.94647353
   0.22266733  0.44515626  0.05676024
   0.11454425  0.89083637  0.94910550
   0.22580073  0.78091185  0.04978692
   0.44642113  0.22183392  0.95098679
   0.55610363  0.11158320  0.04814014
   0.44467509  0.55599825  0.94497940
   0.55636664  0.43933460  0.05183402
   0.44557266  0.89007778  0.95195747
   0.55576008  0.78229527  0.05112779
   0.77499641  0.22100893  0.95121341
   0.88377805  0.10951168  0.05170012
   0.77468799  0.54892796  0.94761338
   0.88295728  0.43970717  0.05131414
   0.77560865  0.89174826  0.94841792
   0.88930765  0.77851077  0.05182876
unknown system                          
           1
     8.278292    4.769651    0.000000
    -8.284779    4.780879    0.000000
     0.000000    0.000000   30.000000
   V    Mo   W    S 
   3   3   3  18
Direct configuration=    12
   0.66818676  0.33992955 -0.00014337
   0.33047161  0.00248305 -0.00027989
   0.67242683  0.00015090 -0.00050059
   1.01868837  0.34110206  0.00000370
   0.66063657  0.65996658  0.00017331
   0.32727423  0.34697333  0.00007251
  -0.00009460  0.00631835  0.00010125
  -0.00652804  0.65935614  0.00040982
   0.32789448  0.64483802  0.00002054
   0.11203107  0.22212193  0.94587389
   0.22523710  0.11087277  0.05084787
   0.11269287  0.55710882  0.94632381
   0.22272595  0.44523004  0.05698286
   0.11410784  0.89051019  0.94916247
   0.22574552  0.78059298  0.04975167
   0.44616269  0.22208616  0.95114306
   0.55601906  0.11150780  0.04801780
   0.44475298  0.55612160  0.94492306
   0.55615667  0.43935308  0.05180065
   0.44534640  0.88958483  0.95212839
   0.55547921  0.78199913  0.05105015
   0.77559882  0.22133826  0.95137814
   0.88406171  0.10985720  0.05166289
   0.77487617  0.54901851  0.94763626
   0.88312813  0.43963946  0.05134872
   0.77576617  0.89171969  0.94840304
   0.88936987  0.77843400  0.05170787
unknown system                          
           1
     8.281020    4.770739    0.000000
    -8.287668    4.782246    0.000000
     0.000000    0.000000   30.000000
   V    Mo   W    S 
   3   3   3  18
Direct configuration=    13
   0.66787637  0.34052754 -0.00011829
   0.33081345  0.00351409 -0.00028669
   0.67279805  0.00027201 -0.00056095
   1.01920039  0.34065029  0.00006383
   0.66050182  0.65927394  0.00017046
   0.32709229  0.34691671  0.00008701
   0.00037830  0.00719617  0.00007769
  -0.00761520  0.65917895  0.00044111
   0.32819504  0.64422554  0.00006707
   0.11218280  0.22217907  0.94573368
   0.22518682  0.11097257  0.05091005
   0.11265408  0.55707647  0.94642146
   0.22280461  0.44515786  0.05714163
   0.11388671  0.89038612  0.94920237
   0.22560663  0.78030370  0.04950935
   0.44610186  0.22224247  0.95106128
   0.55602206  0.11157074  0.04796709
   0.44485707  0.55605813  0.94480387
   0.55593574  0.43925622  0.05187425
   0.44512999  0.88922854  0.95229777
   0.55542629  0.78178860  0.05102356
   0.77599282  0.22166843  0.95150855
   0.88416802  0.10995265  0.05173891
   0.77474692  0.54892173  0.94747721
   0.88314041  0.43948633  0.05127419
   0.77589498  0.89161766  0.94843466
   0.88923616  0.77859190  0.05167877
unknown system                          
           1
     8.274627    4.767279    0.000000
    -8.281371    4.778953    0.000000
     0.000000    0.000000   30.000000
   V    Mo   W    S 
   3   3   3  18
Direct configuration=    14
   0.66764915  0.34092780 -0.00010557
   0.33101611  0.00420743 -0.00030232
   0.67313092  0.00032189 -0.00060821
   1.01959036  0.34048677  0.00009232
   0.66033833  0.65880904  0.00015194
   0.32697463  0.34691864  0.00008773
   0.00068070  0.00795248  0.00005502
  -0.00827919  0.65881873  0.00045421
   0.32828901  0.64372451  0.00007418
   0.11228655  0.22225478  0.94566476
   0.22514151  0.11105649  0.05094921
   0.11264638  0.55703669  0.94648453
   0.22287993  0.44512081  0.05725272
   0.11368471  0.89028942  0.94925607
   0.22552239  0.78009893  0.04934494
   0.44606229  0.22237878  0.95101790
   0.55602754  0.11159795  0.04790529
   0.44489756  0.55601835  0.94474814
   0.55578954  0.43920481  0.05192363
   0.44500217  0.88896271  0.95244595
   0.55538191  0.78164612  0.05098747
   0.77626963  0.22187718  0.95163159
   0.88423041  0.11001868  0.05177896
   0.77468279  0.54886627  0.94739251
   0.88312783  0.43935488  0.05123104
   0.77600255  0.89156014  0.94846966
   0.88918875  0.77870418  0.05161625
unknown system                          
           1
     8.264715    4.761443    0.000000
    -8.270782    4.771943    0.000000
     0.000000    0.000000   30.000000
   V    Mo   W    S 
   3   3   3  18
Direct configuration=    15
   0.66800571  0.34056186 -0.00011695
   0.33086153  0.00341747 -0.00028533
   0.67295090  0.00022267 -0.00056732
   1.01933211  0.34061700  0.00004656
   0.66059204  0.65945364  0.00015998
   0.32700410  0.34708757  0.00006806
   0.00007472  0.00704917  0.00007177
  -0.00771236  0.65933767  0.00042575
   0.32820386  0.64409174  0.00004647
   0.11218517  0.22216932  0.94573086
   0.22516716  0.11102334  0.05092192
   0.11264743  0.55708752  0.94645869
   0.22281206  0.44516127  0.05718376
   0.11379460  0.89030148  0.94917891
   0.22552949  0.78017677  0.04950704
   0.44604680  0.22230063  0.95104660
   0.55607400  0.11154180  0.04797005
   0.44486089  0.55608101  0.94480317
   0.55587435  0.43925729  0.05189116
   0.44517850  0.88916086  0.95231428
   0.55541411  0.78179596  0.05101356
   0.77608132  0.22164800  0.95152888
   0.88414062  0.10993969  0.05172909
   0.77479227  0.54899002  0.94745626
   0.88322814  0.43954153  0.05126758
   0.77588309  0.89163385  0.94844000
   0.88919184  0.77856531  0.05170910
unknown system                          
           1
     8.277397    4.768274    0.000000
    -8.283829    4.779404    0.000000
     0.000000    0.000000   30.000000
   V    Mo   W    S 
   3   3   3  18
Direct configuration=    16
   0.66820154  0.34060672 -0.00010415
   0.33063999  0.00297963 -0.00026134
   0.67298483  0.00012728 -0.00051006
   1.01963723  0.34056448  0.00006759
   0.66104189  0.65982214  0.00018470
   0.32686187  0.34730721  0.00008990
  -0.00023180  0.00636947  0.00010072
  -0.00783089  0.66005192  0.00041757
   0.32815190  0.64391340  0.00007482
   0.11219152  0.22208693  0.94568501
   0.22514875  0.11106912  0.05086708
   0.11261439  0.55710544  0.94645666
   0.22277194  0.44516659  0.05724663
   0.11376984  0.89028181  0.94910111
   0.22546041  0.78008153  0.04954045
   0.44591057  0.22232274  0.95106375
   0.55609482  0.11148899  0.04800539
   0.44494371  0.55614541  0.94472322
   0.55577386  0.43927675  0.05188314
   0.44516905  0.88907379  0.95225579
   0.55536038  0.78178808  0.05106629
   0.77627987  0.22172320  0.95146735
   0.88414753  0.11000586  0.05179218
   0.77480093  0.54909682  0.94737982
   0.88341030  0.43966205  0.05126836
   0.77582263  0.89156543  0.94829722
   0.88908740  0.77853166  0.05184069
unknown system                          
           1
     8.288611    4.773790    0.000000
    -8.295198    4.785187    0.000000
     0.000000    0.000000   30.000000
   V    Mo   W    S 
   3   3   3  18
Direct configuration=    17
   0.66755478  0.34113965 -0.00009181
   0.33112249  0.00452974 -0.00029805
   0.67328708  0.00034825 -0.00061438
   1.01988017  0.34028527  0.00011251
   0.66040911  0.65863455  0.00015588
   0.32684406  0.34692993  0.00009823
   0.00081637  0.00818691  0.00005052
  -0.00878909  0.65891257  0.00046160
   0.32841036  0.64341570  0.00009407
   0.11234622  0.22225839  0.94561115
   0.22510238  0.11109306  0.05095471
   0.11263141  0.55702596  0.94654987
   0.22290432  0.44509337  0.05730585
   0.11359799  0.89025397  0.94926917
   0.22544607  0.77996877  0.04924559
   0.44601587  0.22243796  0.95098532
   0.55604247  0.11160579  0.04788967
   0.44494003  0.55599904  0.94469988
   0.55568244  0.43918117  0.05194769
   0.44493544  0.88882009  0.95250534
   0.55536551  0.78157747  0.05098412
   0.77644666  0.22199829  0.95167286
   0.88425271  0.11004803  0.05181873
   0.77463428  0.54886409  0.94731907
   0.88317505  0.43932877  0.05119319
   0.77603827  0.89150275  0.94845491
   0.88912201  0.77877492  0.05162420
unknown system                          
           1
     8.290015    4.774323    0.000000
    -8.296675    4.785846    0.000000
     0.000000    0.000000   30.000000
   V    Mo   W    S 
   3   3   3  18
Direct configuration=    18
   0.66661291  0.34191831 -0.00006694
   0.33180973  0.00674701 -0.00034013
   0.67379949  0.00060248 -0.00075515
   1.02040905  0.33960389  0.00017501
   0.65976100  0.65707356  0.00010872
   0.32665217  0.34639030  0.00009538
   0.00225806  0.01064971 -0.00002902
  -0.01053484  0.65776374  0.00052221
   0.32898119  0.64257466  0.00012438
   0.11261835  0.22248138  0.94544848
   0.22503165  0.11115424  0.05110724
   0.11263454  0.55693133  0.94673972
   0.22307930  0.44494914  0.05744937
   0.11335848  0.89022527  0.94946510
   0.22536388  0.77973908  0.04879500
   0.44608852  0.22260826  0.95081683
   0.55597984  0.11174068  0.04776612
   0.44497471  0.55577029  0.94462502
   0.55544435  0.43903314  0.05208688
   0.44459393  0.88841932  0.95285091
   0.55539385  0.78128540  0.05091114
   0.77679662  0.22242301  0.95193962
   0.88437423  0.11010067  0.05191176
   0.77436919  0.54858874  0.94714356
   0.88294168  0.43889153  0.05107696
   0.77633231  0.89137323  0.94863149
   0.88909028  0.77917611  0.05140027
unknown system                          
           1
     8.290698    4.773687    0.000000
    -8.297590    4.785611    0.000000
     0.000000    0.000000   30.000000
   V    Mo   W    S 
   3   3   3  18
Direct configuration=    19
   0.66672961  0.34192158 -0.00006616
   0.33183043  0.00659395 -0.00033000
   0.67382375  0.00057836 -0.00074113
   1.02035567  0.33951039  0.00016963
   0.65996013  0.65724436  0.00010803
   0.32665513  0.34642061  0.00008965
   0.00203189  0.01033743 -0.00002868
  -0.01064789  0.65799294  0.00051217
   0.32904161  0.64265784  0.00012368
   0.11260702  0.22244227  0.94543473
   0.22502209  0.11116146  0.05111088
   0.11262181  0.55694411  0.94674575
   0.22305892  0.44495153  0.05746666
   0.11337364  0.89023554  0.94941823
   0.22533689  0.77971325  0.04882783
   0.44608807  0.22261917  0.95081057
   0.55602040  0.11173946  0.04778694
   0.44499404  0.55578898  0.94460751
   0.55544436  0.43903225  0.05208779
   0.44463926  0.88843154  0.95281330
   0.55540355  0.78132375  0.05093776
   0.77679066  0.22239940  0.95191777
   0.88435066  0.11008757  0.05192631
   0.77436353  0.54860215  0.94712551
   0.88297016  0.43893173  0.05107827
   0.77630197  0.89138818  0.94859425
   0.88904710  0.77916463  0.05147264
unknown system                          
           1
     8.284928    4.771180    0.000000
    -8.291708    4.782913    0.000000
     0.000000    0.000000   30.000000
   V    Mo   W    S 
   3   3   3  18
Direct configuration=    20
   0.66618161  0.34248732 -0.00003741
   0.33241696  0.00811221 -0.00033252
   0.67420112  0.00071249 -0.00081452
   1.02069976  0.33887287  0.00021017
   0.65971861  0.65627367  0.00010470
   0.32647279  0.34604025  0.00010230
   0.00290157  0.01186625 -0.00007693
  -0.01219433  0.65740780  0.00055678
   0.32961077  0.64210159  0.00017358
   0.11277649  0.22255900  0.94532441
   0.22490257  0.11116768  0.05120566
   0.11261878  0.55691498  0.94694840
   0.22316936  0.44486353  0.05749386
   0.11321857  0.89023519  0.94954433
   0.22519609  0.77948426  0.04848678
   0.44616848  0.22272399  0.95066420
   0.55603389  0.11185117  0.04771563
   0.44501614  0.55562962  0.94456597
   0.55528767  0.43896330  0.05216588
   0.44445234  0.88817968  0.95302771
   0.55544553  0.78113320  0.05088612
   0.77697302  0.22264312  0.95209068
   0.88442579  0.11008094  0.05197683
   0.77417861  0.54843580  0.94699127
   0.88283997  0.43869560  0.05096732
   0.77651131  0.89131309  0.94871079
   0.88899099  0.77946588  0.05134790
unknown system                          
           1
     8.270577    4.767129    0.000000
    -8.277157    4.778525    0.000000
     0.000000    0.000000   30.000000
   V    Mo   W    S 
   3   3   3  18
Direct configuration=    21
   0.66663667  0.34202816 -0.00005222
   0.33180072  0.00672476 -0.00032834
   0.67389542  0.00060562 -0.00074320
   1.02056324  0.33952903  0.00019034
   0.65989827  0.65709529  0.00011707
   0.32660563  0.34649988  0.00011033
   0.00216184  0.01057509 -0.00002187
  -0.01077313  0.65790038  0.00053054
   0.32900197  0.64241583  0.00014174
   0.11262132  0.22245392  0.94545226
   0.22499187  0.11117617  0.05108584
   0.11262657  0.55691020  0.94678273
   0.22310718  0.44496327  0.05743170
   0.11330639  0.89021780  0.94945199
   0.22531297  0.77965583  0.04876434
   0.44606934  0.22265119  0.95081882
   0.55599822  0.11174600  0.04774728
   0.44497261  0.55577536  0.94462520
   0.55541988  0.43904788  0.05206760
   0.44458112  0.88833845  0.95286785
   0.55536563  0.78123816  0.05089141
   0.77688781  0.22247490  0.95196551
   0.88440161  0.11009797  0.05190244
   0.77437172  0.54860187  0.94713326
   0.88298398  0.43892787  0.05103226
   0.77635437  0.89137566  0.94862106
   0.88905121  0.77918793  0.05141396
unknown system                          
           1
     8.268997    4.768237    0.000000
    -8.276644    4.781488    0.000000
     0.000000    0.000000   30.000000
   V    Mo   W    S 
   3   3   3  18
Direct configuration=    22
   0.66941354  0.33928022 -0.00016221
   0.32783242 -0.00214782 -0.00032690
   0.67213455 -0.00001226 -0.00031230
   1.01972262  0.34344978  0.00004539
   0.66130748  0.66234525  0.00014104
   0.32756131  0.34945337  0.00010801
  -0.00271868  0.00220019  0.00028957
  -0.00203834  0.66132134  0.00033416
   0.32522656  0.64445730 -0.00010752
   0.11171804  0.22178871  0.94619801
   0.22560704  0.11132804  0.05038213
   0.11262201  0.55680454  0.94572461
   0.22273897  0.44553797  0.05725102
   0.11380372  0.89009502  0.94879362
   0.22605002  0.78068700  0.05053272
   0.44540333  0.22227827  0.95177825
   0.55581091  0.11109273  0.04794786
   0.44476273  0.55669299  0.94491597
   0.55617850  0.43952428  0.05153390
   0.44536579  0.88920931  0.95188529
   0.55489274  0.78192254  0.05096690
   0.77652360  0.22153112  0.95121288
   0.88420617  0.11023138  0.05152520
   0.77551633  0.54959557  0.94793763
   0.88388278  0.44026259  0.05146510
   0.77534450  0.89176961  0.94798778
   0.88934581  0.77751541  0.05195179
unknown system                          
           1
     8.272322    4.770523    0.000000
    -8.281613    4.786626    0.000000
     0.000000    0.000000   30.000000
   V    Mo   W    S 
   3   3   3  18
Direct configuration=    23
   0.67035916  0.33874788 -0.00027129
   0.32661507 -0.00493966 -0.00035225
   0.67237726  0.00007405 -0.00025829
   1.01961817  0.34464275  0.00003081
   0.66165759  0.66396465  0.00014043
   0.32815144  0.35088605  0.00008742
  -0.00486033 -0.00099322  0.00037778
   0.00047161  0.66237578  0.00025207
   0.32384916  0.64479787 -0.00009177
   0.11160803  0.22163798  0.94650131
   0.22564402  0.11131175  0.05005242
   0.11245463  0.55671091  0.94539250
   0.22270095  0.44584978  0.05733336
   0.11374092  0.88988204  0.94856381
   0.22621726  0.78075402  0.05099711
   0.44498056  0.22210800  0.95221084
   0.55562134  0.11080043  0.04788657
   0.44477854  0.55719719  0.94491655
   0.55638455  0.43978518  0.05137045
   0.44545196  0.88928413  0.95172805
   0.55452493  0.78202733  0.05089756
   0.77667145  0.22146130  0.95118232
   0.88432860  0.11034487  0.05137789
   0.77604734  0.54997130  0.94821406
   0.88427812  0.44074703  0.05153801
   0.77520610  0.89197629  0.94783966
   0.88933600  0.77680877  0.05208251
unknown system                          
           1
     8.278606    4.773540    0.000000
    -8.288823    4.791244    0.000000
     0.000000    0.000000   30.000000
   V    Mo   W    S 
   3   3   3  18
Direct configuration=    24
   0.67049624  0.33900718 -0.00029145
   0.32656241 -0.00525904 -0.00036017
   0.67320754  0.00037689 -0.00025946
   1.01989512  0.34506911  0.00008147
   0.66146749  0.66402249  0.00012812
   0.32880756  0.35190272  0.00012701
  -0.00570351 -0.00225736  0.00037616
   0.00050173  0.66244952  0.00019988
   0.32355229  0.64443124 -0.00009375
   0.11170651  0.22157751  0.94666408
   0.22541390  0.11121476  0.04985622
   0.11232809  0.55665512  0.94538858
   0.22268958  0.44588060  0.05742771
   0.11352566  0.88969661  0.94851922
   0.22610025  0.78053455  0.05099382
   0.44474155  0.22201644  0.95235341
   0.55555113  0.11072592  0.04774852
   0.44482237  0.55756767  0.94486360
   0.55640695  0.43995836  0.05135353
   0.44536069  0.88914865  0.95183408