   27   27  100    1
  0.9710400E+02  0.1002848E-08  0.1002848E-08  0.3000000E-08  0.5000000E-15
  1.000000000000000E-004
  CAR 
 unknown system                          
    159     34    120
 
  0.0000000E+00  0.0000000E+00  0.0000000E+00  0.1562500E-01
    1      -17.824888   1.000000
    2      -16.764190   1.000000
    3      -16.638278   1.000000
    4      -16.618877   1.000000
    5      -16.582496   1.000000
    6      -16.487671   1.000000
    7      -16.420251   1.000000
    8      -16.235801   1.000000
    9      -16.132489   1.000000
   10      -16.117612   1.000000
   11      -16.098398   1.000000
   12      -15.951021   1.000000
   13      -15.880706   1.000000
   14      -15.767030   1.000000
   15      -15.604893   1.000000
   16      -15.407584   1.000000
   17      -15.386102   1.000000
   18      -15.182084   1.000000
   19       -9.348509   1.000000
   20       -9.025961   1.000000
   21       -8.972035   1.000000
   22       -8.918468   1.000000
   23       -8.746345   1.000000
   24       -8.665810   1.000000
   25       -8.601203   1.000000
   26       -8.588666   1.000000
   27       -8.530873   1.000000
   28       -8.502049   1.000000
   29       -8.465542   1.000000
   30       -8.440346   1.000000
   31       -8.340310   1.000000
   32       -8.125050   1.000000
   33       -8.073491   1.000000
   34       -7.993246   1.000000
   35       -7.806221   1.000000
   36       -7.760140   1.000000
   37       -7.693045   1.000000
   38       -7.589332   1.000000
   39       -7.487582   1.000000
   40       -7.409915   1.000000
   41       -7.354611   1.000000
   42       -7.220603   1.000000
   43       -7.082833   1.000000
   44       -6.880293   1.000000
   45       -6.812611   1.000000
   46       -6.789161   1.000000
   47       -6.775529   1.000000
   48       -6.645721   1.000000
   49       -6.536980   1.000000
   50       -6.498310   1.000000
   51       -6.413430   1.000000
   52       -6.353447   1.000000
   53       -6.306654   1.000000
   54       -6.248806   1.000000
   55       -6.219003   1.000000
   56       -6.159041   1.000000
   57       -6.051073   1.000000
   58       -5.976732   1.000000
   59       -5.839041   1.000000
   60       -5.536949   1.000000
   61       -5.406023   1.000000
   62       -5.320436   1.000000
   63       -5.259892   1.000000
   64       -5.215224   1.000000
   65       -5.095889   1.000000
   66       -4.998711   1.000000
   67       -4.969023   1.000000
   68       -4.834762   1.000000
   69       -4.822647   1.000000
   70       -4.696163   1.000000
   71       -4.661881   1.000000
   72       -4.630399   1.000000
   73       -4.545107   1.000000
   74       -4.370550   1.000000
   75       -4.075939   1.000000
   76       -3.986459   0.999997
   77       -3.840898   0.999793
   78       -3.577035   0.952051
   79       -3.507352   0.879470
   80       -3.448929   0.776142
   81       -3.206663   0.170080
   82       -2.953736   0.003050
   83       -2.836366   0.000177
   84       -2.705925   0.000003
   85       -2.563009   0.000000
   86       -2.406972   0.000000
   87       -2.379175   0.000000
   88       -2.305529   0.000000
   89       -2.225879   0.000000
   90       -2.169891   0.000000
   91       -1.706936   0.000000
   92       -1.528251   0.000000
   93       -1.452352   0.000000
   94       -1.268556   0.000000
   95       -1.136885   0.000000
   96       -1.046144   0.000000
   97       -0.959797   0.000000
   98       -0.907243   0.000000
   99       -0.710982   0.000000
  100       -0.671333   0.000000
  101       -0.582721   0.000000
  102       -0.525926   0.000000
  103       -0.500875   0.000000
  104       -0.350760   0.000000
  105       -0.231537   0.000000
  106       -0.171092   0.000000
  107       -0.108442   0.000000
  108       -0.029656   0.000000
  109        0.031455   0.000000
  110        0.214689   0.000000
  111        0.339808   0.000000
  112        0.644378   0.000000
  113        0.773997   0.000000
  114        0.863482   0.000000
  115        0.911260   0.000000
  116        0.958205   0.000000
  117        1.268040   0.000000
  118        1.645648   0.000000
  119        1.834564   0.000000
  120        2.153846   0.000000
 
  0.1250000E+00  0.2775558E-16  0.0000000E+00  0.3125000E-01
    1      -17.800863   1.000000
    2      -16.793365   1.000000
    3      -16.758801   1.000000
    4      -16.616803   1.000000
    5      -16.557128   1.000000
    6      -16.501773   1.000000
    7      -16.376594   1.000000
    8      -16.254764   1.000000
    9      -16.136114   1.000000
   10      -16.080438   1.000000
   11      -16.032052   1.000000
   12      -15.942122   1.000000
   13      -15.866442   1.000000
   14      -15.759977   1.000000
   15      -15.614673   1.000000
   16      -15.415118   1.000000
   17      -15.397506   1.000000
   18      -15.185171   1.000000
   19       -9.340298   1.000000
   20       -9.151973   1.000000
   21       -9.066791   1.000000
   22       -9.014408   1.000000
   23       -8.787298   1.000000
   24       -8.714066   1.000000
   25       -8.643954   1.000000
   26       -8.558255   1.000000
   27       -8.536078   1.000000
   28       -8.502198   1.000000
   29       -8.401835   1.000000
   30       -8.284604   1.000000
   31       -8.242562   1.000000
   32       -8.072376   1.000000
   33       -8.023455   1.000000
   34       -7.913045   1.000000
   35       -7.782492   1.000000
   36       -7.750291   1.000000
   37       -7.621921   1.000000
   38       -7.599772   1.000000
   39       -7.513391   1.000000
   40       -7.448281   1.000000
   41       -7.332397   1.000000
   42       -7.175274   1.000000
   43       -7.135203   1.000000
   44       -6.957421   1.000000
   45       -6.857357   1.000000
   46       -6.780419   1.000000
   47       -6.721945   1.000000
   48       -6.660506   1.000000
   49       -6.518394   1.000000
   50       -6.460348   1.000000
   51       -6.426466   1.000000
   52       -6.397183   1.000000
   53       -6.298556   1.000000
   54       -6.253809   1.000000
   55       -6.244266   1.000000
   56       -6.124386   1.000000
   57       -6.042276   1.000000
   58       -5.957250   1.000000
   59       -5.797530   1.000000
   60       -5.514410   1.000000
   61       -5.435470   1.000000
   62       -5.421776   1.000000
   63       -5.322401   1.000000
   64       -5.234211   1.000000
   65       -5.088292   1.000000
   66       -5.038239   1.000000
   67       -4.954726   1.000000
   68       -4.908718   1.000000
   69       -4.807475   1.000000
   70       -4.730197   1.000000
   71       -4.646768   1.000000
   72       -4.591620   1.000000
   73       -4.472717   1.000000
   74       -4.280714   1.000000
   75       -4.068392   1.000000
   76       -3.941450   0.999989
   77       -3.877312   0.999924
   78       -3.691233   0.993293
   79       -3.582485   0.955773
   80       -3.445183   0.768142
   81       -3.113618   0.053505
   82       -2.933243   0.001943
   83       -2.808128   0.000081
   84       -2.686041   0.000002
   85       -2.558760   0.000000
   86       -2.409971   0.000000
   87       -2.355370   0.000000
   88       -2.293722   0.000000
   89       -2.222802   0.000000
   90       -2.143152   0.000000
   91       -1.706311   0.000000
   92       -1.535614   0.000000
   93       -1.448780   0.000000
   94       -1.273354   0.000000
   95       -1.125240   0.000000
   96       -1.039809   0.000000
   97       -0.989190   0.000000
   98       -0.905962   0.000000
   99       -0.783967   0.000000
  100       -0.729222   0.000000
  101       -0.638361   0.000000
  102       -0.570318   0.000000
  103       -0.531325   0.000000
  104       -0.404358   0.000000
  105       -0.309153   0.000000
  106       -0.190342   0.000000
  107       -0.127113   0.000000
  108       -0.024332   0.000000
  109        0.143726   0.000000
  110        0.174165   0.000000
  111        0.394806   0.000000
  112        0.550719   0.000000
  113        0.711990   0.000000
  114        0.901379   0.000000
  115        0.949362   0.000000
  116        1.006993   0.000000
  117        1.316264   0.000000
  118        1.688544   0.000000
  119        1.874779   0.000000
  120        2.188725   0.000000
 
  0.2500000E+00  0.5551115E-16  0.0000000E+00  0.3125000E-01
    1      -17.730820   1.000000
    2      -16.995200   1.000000
    3      -16.751339   1.000000
    4      -16.669746   1.000000
    5      -16.611231   1.000000
    6      -16.464237   1.000000
    7      -16.352762   1.000000
    8      -16.204947   1.000000
    9      -16.135967   1.000000
   10      -16.018155   1.000000
   11      -15.994940   1.000000
   12      -15.896215   1.000000
   13      -15.799675   1.000000
   14      -15.754912   1.000000
   15      -15.629615   1.000000
   16      -15.445983   1.000000
   17      -15.413842   1.000000
   18      -15.194124   1.000000
   19       -9.491845   1.000000
   20       -9.268698   1.000000
   21       -9.179571   1.000000
   22       -9.110757   1.000000
   23       -8.899569   1.000000
   24       -8.781226   1.000000
   25       -8.590098   1.000000
   26       -8.552085   1.000000
   27       -8.508271   1.000000
   28       -8.423688   1.000000
   29       -8.309637   1.000000
   30       -8.232484   1.000000
   31       -8.115802   1.000000
   32       -8.064823   1.000000
   33       -7.905495   1.000000
   34       -7.874691   1.000000
   35       -7.720577   1.000000
   36       -7.650642   1.000000
   37       -7.589467   1.000000
   38       -7.559221   1.000000
   39       -7.455607   1.000000
   40       -7.385806   1.000000
   41       -7.318023   1.000000
   42       -7.200438   1.000000
   43       -7.111354   1.000000
   44       -7.004354   1.000000
   45       -6.873052   1.000000
   46       -6.767991   1.000000
   47       -6.726955   1.000000
   48       -6.662922   1.000000
   49       -6.570505   1.000000
   50       -6.476178   1.000000
   51       -6.418123   1.000000
   52       -6.371795   1.000000
   53       -6.316505   1.000000
   54       -6.257853   1.000000
   55       -6.176763   1.000000
   56       -6.115160   1.000000
   57       -5.974458   1.000000
   58       -5.919246   1.000000
   59       -5.754867   1.000000
   60       -5.662433   1.000000
   61       -5.612507   1.000000
   62       -5.500658   1.000000
   63       -5.419535   1.000000
   64       -5.301664   1.000000
   65       -5.181806   1.000000
   66       -5.021462   1.000000
   67       -4.943576   1.000000
   68       -4.900075   1.000000
   69       -4.797397   1.000000
   70       -4.758104   1.000000
   71       -4.592091   1.000000
   72       -4.487008   1.000000
   73       -4.352462   1.000000
   74       -4.267398   1.000000
   75       -4.117282   1.000000
   76       -3.965813   0.999995
   77       -3.884491   0.999938
   78       -3.783509   0.999111
   79       -3.637617   0.981846
   80       -3.422653   0.716824
   81       -3.020237   0.011541
   82       -2.892831   0.000754
   83       -2.754115   0.000016
   84       -2.623649   0.000000
   85       -2.548692   0.000000
   86       -2.422400   0.000000
   87       -2.316533   0.000000
   88       -2.251255   0.000000
   89       -2.188922   0.000000
   90       -2.075554   0.000000
   91       -1.698044   0.000000
   92       -1.557915   0.000000
   93       -1.451295   0.000000
   94       -1.281926   0.000000
   95       -1.119538   0.000000
   96       -1.093953   0.000000
   97       -1.019114   0.000000
   98       -0.952395   0.000000
   99       -0.908902   0.000000
  100       -0.859091   0.000000
  101       -0.750651   0.000000
  102       -0.665401   0.000000
  103       -0.558709   0.000000
  104       -0.469455   0.000000
  105       -0.424501   0.000000
  106       -0.252293   0.000000
  107       -0.154805   0.000000
  108       -0.067008   0.000000
  109        0.095785   0.000000
  110        0.228728   0.000000
  111        0.406758   0.000000
  112        0.539786   0.000000
  113        0.609637   0.000000
  114        0.946115   0.000000
  115        1.003239   0.000000
  116        1.118685   0.000000
  117        1.426099   0.000000
  118        1.808823   0.000000
  119        1.989377   0.000000
  120        2.292216   0.000000
 
  0.3750000E+00  0.0000000E+00  0.0000000E+00  0.3125000E-01
    1      -17.624668   1.000000
    2      -17.194149   1.000000
    3      -16.740599   1.000000
    4      -16.709827   1.000000
    5      -16.655264   1.000000
    6      -16.454101   1.000000
    7      -16.345438   1.000000
    8      -16.169049   1.000000
    9      -16.088353   1.000000
   10      -16.001566   1.000000
   11      -15.940591   1.000000
   12      -15.872449   1.000000
   13      -15.783172   1.000000
   14      -15.722314   1.000000
   15      -15.630436   1.000000
   16      -15.469916   1.000000
   17      -15.429792   1.000000
   18      -15.205405   1.000000
   19       -9.698169   1.000000
   20       -9.344475   1.000000
   21       -9.224284   1.000000
   22       -9.105316   1.000000
   23       -8.987339   1.000000
   24       -8.818864   1.000000
   25       -8.558074   1.000000
   26       -8.508198   1.000000
   27       -8.433908   1.000000
   28       -8.338170   1.000000
   29       -8.289972   1.000000
   30       -8.225483   1.000000
   31       -8.143057   1.000000
   32       -8.046152   1.000000
   33       -7.935020   1.000000
   34       -7.828990   1.000000
   35       -7.776901   1.000000
   36       -7.657717   1.000000
   37       -7.579441   1.000000
   38       -7.458706   1.000000
   39       -7.358982   1.000000
   40       -7.278229   1.000000
   41       -7.203682   1.000000
   42       -7.141841   1.000000
   43       -7.050021   1.000000
   44       -6.959291   1.000000
   45       -6.840900   1.000000
   46       -6.819997   1.000000
   47       -6.719310   1.000000
   48       -6.669514   1.000000
   49       -6.550718   1.000000
   50       -6.471576   1.000000
   51       -6.411574   1.000000
   52       -6.381635   1.000000
   53       -6.321059   1.000000
   54       -6.209001   1.000000
   55       -6.116068   1.000000
   56       -6.057726   1.000000
   57       -5.967333   1.000000
   58       -5.913665   1.000000
   59       -5.868753   1.000000
   60       -5.804797   1.000000
   61       -5.760890   1.000000
   62       -5.583595   1.000000
   63       -5.533570   1.000000
   64       -5.342183   1.000000
   65       -5.196339   1.000000
   66       -5.016848   1.000000
   67       -4.933995   1.000000
   68       -4.877340   1.000000
   69       -4.799916   1.000000
   70       -4.748502   1.000000
   71       -4.610759   1.000000
   72       -4.531804   1.000000
   73       -4.404477   1.000000
   74       -4.188322   1.000000
   75       -4.081378   1.000000
   76       -4.026175   0.999999
   77       -3.889797   0.999947
   78       -3.720941   0.996348
   79       -3.594242   0.963011
   80       -3.444501   0.766668
   81       -2.969456   0.004255
   82       -2.856636   0.000303
   83       -2.713866   0.000005
   84       -2.564898   0.000000
   85       -2.536985   0.000000
   86       -2.420383   0.000000
   87       -2.284711   0.000000
   88       -2.200725   0.000000
   89       -2.140441   0.000000
   90       -1.988356   0.000000
   91       -1.670761   0.000000
   92       -1.592783   0.000000
   93       -1.480455   0.000000
   94       -1.325205   0.000000
   95       -1.204161   0.000000
   96       -1.119051   0.000000
   97       -1.097803   0.000000
   98       -1.037726   0.000000
   99       -0.958022   0.000000
  100       -0.928710   0.000000
  101       -0.833468   0.000000
  102       -0.714897   0.000000
  103       -0.591637   0.000000
  104       -0.532094   0.000000
  105       -0.455942   0.000000
  106       -0.337530   0.000000
  107       -0.194322   0.000000
  108       -0.136881   0.000000
  109       -0.020772   0.000000
  110        0.253501   0.000000
  111        0.376109   0.000000
  112        0.510451   0.000000
  113        0.657707   0.000000
  114        0.971624   0.000000
  115        1.068464   0.000000
  116        1.204308   0.000000
  117        1.526572   0.000000
  118        1.989501   0.000000
  119        2.165151   0.000000
  120        2.459174   0.000000
 
  0.5000000E+00  0.1110223E-15  0.0000000E+00  0.1562500E-01
    1      -17.544151   1.000000
    2      -17.307501   1.000000
    3      -16.734940   1.000000
    4      -16.723925   1.000000
    5      -16.672153   1.000000
    6      -16.454128   1.000000
    7      -16.341840   1.000000
    8      -16.170175   1.000000
    9      -16.040930   1.000000
   10      -15.992534   1.000000
   11      -15.941028   1.000000
   12      -15.850069   1.000000
   13      -15.774293   1.000000
   14      -15.737099   1.000000
   15      -15.622612   1.000000
   16      -15.469224   1.000000
   17      -15.438354   1.000000
   18      -15.210935   1.000000
   19       -9.773977   1.000000
   20       -9.382140   1.000000
   21       -9.246608   1.000000
   22       -9.082231   1.000000
   23       -9.006107   1.000000
   24       -8.830054   1.000000
   25       -8.547979   1.000000
   26       -8.501858   1.000000
   27       -8.407580   1.000000
   28       -8.336162   1.000000
   29       -8.252519   1.000000
   30       -8.176436   1.000000
   31       -8.151140   1.000000
   32       -8.037425   1.000000
   33       -7.970252   1.000000
   34       -7.908768   1.000000
   35       -7.783350   1.000000
   36       -7.716836   1.000000
   37       -7.549609   1.000000
   38       -7.402063   1.000000
   39       -7.328391   1.000000
   40       -7.253529   1.000000
   41       -7.114833   1.000000
   42       -7.063929   1.000000
   43       -7.007174   1.000000
   44       -6.950962   1.000000
   45       -6.863498   1.000000
   46       -6.759309   1.000000
   47       -6.713625   1.000000
   48       -6.657376   1.000000
   49       -6.564070   1.000000
   50       -6.499800   1.000000
   51       -6.414911   1.000000
   52       -6.366783   1.000000
   53       -6.286976   1.000000
   54       -6.256069   1.000000
   55       -6.121948   1.000000
   56       -6.083066   1.000000
   57       -5.975534   1.000000
   58       -5.920637   1.000000
   59       -5.866835   1.000000
   60       -5.820986   1.000000
   61       -5.779327   1.000000
   62       -5.603610   1.000000
   63       -5.484530   1.000000
   64       -5.359553   1.000000
   65       -5.308211   1.000000
   66       -5.120135   1.000000
   67       -4.921479   1.000000
   68       -4.893264   1.000000
   69       -4.805189   1.000000
   70       -4.750042   1.000000
   71       -4.616429   1.000000
   72       -4.515699   1.000000
   73       -4.381643   1.000000
   74       -4.199602   1.000000
   75       -4.071688   1.000000
   76       -4.032561   0.999999
   77       -3.844875   0.999814
   78       -3.704131   0.994823
   79       -3.559383   0.938251
   80       -3.470734   0.819487
   81       -2.953055   0.003006
   82       -2.840421   0.000197
   83       -2.698901   0.000003
   84       -2.564950   0.000000
   85       -2.520794   0.000000
   86       -2.400834   0.000000
   87       -2.272803   0.000000
   88       -2.179646   0.000000
   89       -2.117044   0.000000
   90       -1.944243   0.000000
   91       -1.657592   0.000000
   92       -1.599824   0.000000
   93       -1.517812   0.000000
   94       -1.360038   0.000000
   95       -1.213287   0.000000
   96       -1.185075   0.000000
   97       -1.131392   0.000000
   98       -1.050929   0.000000
   99       -0.976131   0.000000
  100       -0.950667   0.000000
  101       -0.853348   0.000000
  102       -0.729154   0.000000
  103       -0.603358   0.000000
  104       -0.554844   0.000000
  105       -0.465254   0.000000
  106       -0.367790   0.000000
  107       -0.218200   0.000000
  108       -0.158975   0.000000
  109       -0.082537   0.000000
  110        0.254062   0.000000
  111        0.370430   0.000000
  112        0.492382   0.000000
  113        0.690740   0.000000
  114        0.976791   0.000000
  115        1.096945   0.000000
  116        1.236973   0.000000
  117        1.565366   0.000000
  118        2.189051   0.000000
  119        2.257964   0.000000
  120        2.377815   0.000000
 
  0.0000000E+00  0.1250000E+00  0.0000000E+00  0.3125000E-01
    1      -17.800206   1.000000
    2      -16.786898   1.000000
    3      -16.750337   1.000000
    4      -16.660720   1.000000
    5      -16.558310   1.000000
    6      -16.436824   1.000000
    7      -16.386285   1.000000
    8      -16.292692   1.000000
    9      -16.155533   1.000000
   10      -16.092497   1.000000
   11      -16.001105   1.000000
   12      -15.934565   1.000000
   13      -15.862468   1.000000
   14      -15.754140   1.000000
   15      -15.611650   1.000000
   16      -15.417242   1.000000
   17      -15.397800   1.000000
   18      -15.189463   1.000000
   19       -9.342298   1.000000
   20       -9.163480   1.000000
   21       -9.078185   1.000000
   22       -9.025295   1.000000
   23       -8.750546   1.000000
   24       -8.714781   1.000000
   25       -8.635639   1.000000
   26       -8.577211   1.000000
   27       -8.531194   1.000000
   28       -8.468077   1.000000
   29       -8.387161   1.000000
   30       -8.338233   1.000000
   31       -8.289395   1.000000
   32       -8.027179   1.000000
   33       -7.965707   1.000000
   34       -7.911278   1.000000
   35       -7.808898   1.000000
   36       -7.786390   1.000000
   37       -7.704728   1.000000
   38       -7.521370   1.000000
   39       -7.495412   1.000000
   40       -7.392788   1.000000
   41       -7.316247   1.000000
   42       -7.269303   1.000000
   43       -7.090644   1.000000
   44       -6.947703   1.000000
   45       -6.880489   1.000000
   46       -6.792219   1.000000
   47       -6.749618   1.000000
   48       -6.667223   1.000000
   49       -6.551919   1.000000
   50       -6.491627   1.000000
   51       -6.402314   1.000000
   52       -6.362901   1.000000
   53       -6.305005   1.000000
   54       -6.250514   1.000000
   55       -6.180266   1.000000
   56       -6.129378   1.000000
   57       -6.045870   1.000000
   58       -5.937338   1.000000
   59       -5.786680   1.000000
   60       -5.533316   1.000000
   61       -5.433866   1.000000
   62       -5.377008   1.000000
   63       -5.307925   1.000000
   64       -5.221896   1.000000
   65       -5.192822   1.000000
   66       -5.016819   1.000000
   67       -4.998506   1.000000
   68       -4.902453   1.000000
   69       -4.836909   1.000000
   70       -4.677715   1.000000
   71       -4.609512   1.000000
   72       -4.558590   1.000000
   73       -4.507762   1.000000
   74       -4.331396   1.000000
   75       -4.045835   1.000000
   76       -3.913623   0.999974
   77       -3.882754   0.999935
   78       -3.735581   0.997333
   79       -3.604704   0.968609
   80       -3.341295   0.499261
   81       -3.161924   0.102006
   82       -2.969802   0.004286
   83       -2.804940   0.000074
   84       -2.697897   0.000003
   85       -2.569239   0.000000
   86       -2.416003   0.000000
   87       -2.343230   0.000000
   88       -2.282470   0.000000
   89       -2.223405   0.000000
   90       -2.127629   0.000000
   91       -1.718507   0.000000
   92       -1.530690   0.000000
   93       -1.454396   0.000000
   94       -1.256223   0.000000
   95       -1.131333   0.000000
   96       -1.051646   0.000000
   97       -0.988968   0.000000
   98       -0.904395   0.000000
   99       -0.740063   0.000000
  100       -0.709907   0.000000
  101       -0.629348   0.000000
  102       -0.574420   0.000000
  103       -0.506326   0.000000
  104       -0.421990   0.000000
  105       -0.378564   0.000000
  106       -0.262051   0.000000
  107       -0.159075   0.000000
  108        0.039448   0.000000
  109        0.171442   0.000000
  110        0.260341   0.000000
  111        0.344238   0.000000
  112        0.618518   0.000000
  113        0.721239   0.000000
  114        0.858508   0.000000
  115        0.935749   0.000000
  116        0.984761   0.000000
  117        1.317401   0.000000
  118        1.690386   0.000000
  119        1.872577   0.000000
  120        2.189121   0.000000
 
  0.1250000E+00  0.1250000E+00  0.0000000E+00  0.3125000E-01
    1      -17.752123   1.000000
    2      -16.924310   1.000000
    3      -16.761967   1.000000
    4      -16.730960   1.000000
    5      -16.519531   1.000000
    6      -16.443190   1.000000
    7      -16.360095   1.000000
    8      -16.269931   1.000000
    9      -16.162142   1.000000
   10      -16.037932   1.000000
   11      -15.985596   1.000000
   12      -15.905800   1.000000
   13      -15.807524   1.000000
   14      -15.734796   1.000000
   15      -15.625832   1.000000
   16      -15.439355   1.000000
   17      -15.411921   1.000000
   18      -15.196752   1.000000
   19       -9.414569   1.000000
   20       -9.292529   1.000000
   21       -9.204471   1.000000
   22       -9.089677   1.000000
   23       -8.811449   1.000000
   24       -8.736081   1.000000
   25       -8.626790   1.000000
   26       -8.536914   1.000000
   27       -8.480435   1.000000
   28       -8.424031   1.000000
   29       -8.372277   1.000000
   30       -8.288475   1.000000
   31       -8.160406   1.000000
   32       -8.041602   1.000000
   33       -7.951240   1.000000
   34       -7.868132   1.000000
   35       -7.721916   1.000000
   36       -7.700002   1.000000
   37       -7.627211   1.000000
   38       -7.526606   1.000000
   39       -7.471814   1.000000
   40       -7.351149   1.000000
   41       -7.327511   1.000000
   42       -7.192454   1.000000
   43       -7.125491   1.000000
   44       -7.048518   1.000000
   45       -6.856313   1.000000
   46       -6.815146   1.000000
   47       -6.764863   1.000000
   48       -6.656748   1.000000
   49       -6.549652   1.000000
   50       -6.493775   1.000000
   51       -6.416159   1.000000
   52       -6.363618   1.000000
   53       -6.317963   1.000000
   54       -6.227947   1.000000
   55       -6.160622   1.000000
   56       -6.123614   1.000000
   57       -5.984499   1.000000
   58       -5.906316   1.000000
   59       -5.733939   1.000000
   60       -5.621462   1.000000
   61       -5.531188   1.000000
   62       -5.458419   1.000000
   63       -5.380239   1.000000
   64       -5.282038   1.000000
   65       -5.227664   1.000000
   66       -5.111057   1.000000
   67       -4.942062   1.000000
   68       -4.898269   1.000000
   69       -4.799311   1.000000
   70       -4.712698   1.000000
   71       -4.613736   1.000000
   72       -4.487556   1.000000
   73       -4.368655   1.000000
   74       -4.270575   1.000000
   75       -4.115762   1.000000
   76       -4.019127   0.999999
   77       -3.824929   0.999685
   78       -3.803778   0.999459
   79       -3.625962   0.977840
   80       -3.326577   0.457820
   81       -3.101491   0.044798
   82       -2.955289   0.003154
   83       -2.773336   0.000029
   84       -2.650163   0.000001
   85       -2.567434   0.000000
   86       -2.449928   0.000000
   87       -2.306720   0.000000
   88       -2.230815   0.000000
   89       -2.195142   0.000000
   90       -2.090094   0.000000
   91       -1.719479   0.000000
   92       -1.545337   0.000000
   93       -1.461623   0.000000
   94       -1.254606   0.000000
   95       -1.121279   0.000000
   96       -1.075810   0.000000
   97       -1.024840   0.000000
   98       -0.907126   0.000000
   99       -0.845490   0.000000
  100       -0.791335   0.000000
  101       -0.716727   0.000000
  102       -0.651525   0.000000
  103       -0.525278   0.000000
  104       -0.485768   0.000000
  105       -0.434584   0.000000
  106       -0.290564   0.000000
  107       -0.211033   0.000000
  108        0.005279   0.000000
  109        0.178578   0.000000
  110        0.294168   0.000000
  111        0.372000   0.000000
  112        0.554152   0.000000
  113        0.649996   0.000000
  114        0.921838   0.000000
  115        0.981363   0.000000
  116        1.027558   0.000000
  117        1.411937   0.000000
  118        1.773397   0.000000
  119        1.948624   0.000000
  120        2.258557   0.000000
 
  0.2500000E+00  0.1250000E+00  0.0000000E+00  0.3125000E-01
    1      -17.661997   1.000000
    2      -17.102109   1.000000
    3      -16.847311   1.000000
    4      -16.733250   1.000000
    5      -16.499487   1.000000
    6      -16.453573   1.000000
    7      -16.334651   1.000000
    8      -16.222412   1.000000
    9      -16.128551   1.000000
   10      -16.020371   1.000000
   11      -15.938554   1.000000
   12      -15.902550   1.000000
   13      -15.772550   1.000000
   14      -15.696949   1.000000
   15      -15.625342   1.000000
   16      -15.477245   1.000000
   17      -15.419813   1.000000
   18      -15.206394   1.000000
   19       -9.606622   1.000000
   20       -9.436256   1.000000
   21       -9.247171   1.000000
   22       -9.119009   1.000000
   23       -8.822753   1.000000
   24       -8.777376   1.000000
   25       -8.545156   1.000000
   26       -8.492564   1.000000
   27       -8.451469   1.000000
   28       -8.376981   1.000000
   29       -8.307207   1.000000
   30       -8.243772   1.000000
   31       -8.139640   1.000000
   32       -8.073087   1.000000
   33       -7.990174   1.000000
   34       -7.883274   1.000000
   35       -7.756173   1.000000
   36       -7.694274   1.000000
   37       -7.537878   1.000000
   38       -7.430105   1.000000
   39       -7.366880   1.000000
   40       -7.283889   1.000000
   41       -7.222417   1.000000
   42       -7.167586   1.000000
   43       -7.120022   1.000000
   44       -6.998208   1.000000
   45       -6.832005   1.000000
   46       -6.796180   1.000000
   47       -6.727663   1.000000