       N       E                     dE             d eps       ncg     rms          rms(c)
DAV:   1     0.112406154489E+04    0.11241E+04   -0.35865E+04  8160   0.577E+02
DAV:   2    -0.398845312792E+01   -0.11280E+04   -0.10879E+04 11160   0.173E+02
DAV:   3    -0.199984717544E+03   -0.19600E+03   -0.18841E+03 11000   0.818E+01
DAV:   4    -0.208929916017E+03   -0.89452E+01   -0.86322E+01 12080   0.255E+01
DAV:   5    -0.209248933248E+03   -0.31902E+00   -0.31805E+00 11760   0.360E+00    0.274E+01
DAV:   6    -0.236667550916E+03   -0.27419E+02   -0.10817E+02 12880   0.604E+01    0.592E+01
DAV:   7    -0.196772989973E+03    0.39895E+02   -0.17616E+02 13000   0.152E+02    0.205E+01
DAV:   8    -0.190259395910E+03    0.65136E+01   -0.21729E+01 11720   0.135E+01    0.140E+01
DAV:   9    -0.188309929988E+03    0.19495E+01   -0.36073E+00 11960   0.637E+00    0.940E+00
DAV:  10    -0.187167126279E+03    0.11428E+01   -0.17987E+00 13360   0.745E+00    0.376E+00
DAV:  11    -0.187002565903E+03    0.16456E+00   -0.72606E-01 12680   0.271E+00    0.226E+00
DAV:  12    -0.187088941794E+03   -0.86376E-01   -0.53495E-01 13240   0.378E+00    0.449E+00
DAV:  13    -0.186939136521E+03    0.14981E+00   -0.49716E-01 13120   0.380E+00    0.199E+00
DAV:  14    -0.186906163415E+03    0.32973E-01   -0.10823E-01 13320   0.175E+00    0.120E+00
DAV:  15    -0.186898346724E+03    0.78167E-02   -0.55277E-02 12880   0.138E+00    0.985E-01
DAV:  16    -0.186890838379E+03    0.75083E-02   -0.19421E-02 12920   0.720E-01    0.478E-01
DAV:  17    -0.186888661439E+03    0.21769E-02   -0.67112E-03 13120   0.282E-01    0.228E-01
DAV:  18    -0.186887646796E+03    0.10146E-02   -0.36538E-03 12880   0.268E-01    0.200E-01
DAV:  19    -0.186887336883E+03    0.30991E-03   -0.10189E-03 11520   0.156E-01    0.477E-02
DAV:  20    -0.186888098618E+03   -0.76174E-03   -0.70651E-04  9080   0.593E-02    0.537E-02
DAV:  21    -0.186888664830E+03   -0.56621E-03   -0.23951E-04  8320   0.461E-02    0.290E-02
DAV:  22    -0.186889797298E+03   -0.11325E-02   -0.17558E-04  7560   0.407E-02    0.355E-02
DAV:  23    -0.186891048637E+03   -0.12513E-02   -0.14061E-04  7520   0.445E-02    0.145E-02
DAV:  24    -0.186891617027E+03   -0.56839E-03   -0.25868E-05  6800   0.144E-02    0.599E-03
DAV:  25    -0.186892005072E+03   -0.38805E-03   -0.16384E-05  5520   0.956E-03    0.445E-03
DAV:  26    -0.186892247407E+03   -0.24233E-03   -0.90374E-06  6800   0.723E-03    0.153E-03
DAV:  27    -0.186892346649E+03   -0.99242E-04   -0.34601E-06  7280   0.414E-03
   1 F= -.18689235E+03 E0= -.18672150E+03  d E =-.186892E+03
       N       E                     dE             d eps       ncg     rms          rms(c)
DAV:   1    -0.187532372561E+03   -0.64013E+00   -0.27202E+02  8160   0.350E+01    0.466E+00
DAV:   2    -0.189535539326E+03   -0.20032E+01   -0.20341E+01 12320   0.157E+01    0.961E+00
DAV:   3    -0.189353551551E+03    0.18199E+00   -0.41881E+00 12400   0.123E+01    0.641E+00
DAV:   4    -0.188788419576E+03    0.56513E+00   -0.58114E-01 12600   0.442E+00    0.173E+00
DAV:   5    -0.188859366125E+03   -0.70947E-01   -0.41069E-01 11400   0.297E+00    0.431E+00
DAV:   6    -0.188771648111E+03    0.87718E-01   -0.61176E-01 12840   0.411E+00    0.254E+00
DAV:   7    -0.188728432181E+03    0.43216E-01   -0.17438E-01 12360   0.194E+00    0.133E+00
DAV:   8    -0.188712064496E+03    0.16368E-01   -0.70401E-02 12960   0.135E+00    0.123E+00
DAV:   9    -0.188701626192E+03    0.10438E-01   -0.25743E-02 12000   0.892E-01    0.369E-01
DAV:  10    -0.188700549303E+03    0.10769E-02   -0.38836E-03 11600   0.240E-01    0.183E-01
DAV:  11    -0.188700111542E+03    0.43776E-03   -0.23467E-03 12200   0.157E-01    0.101E-01
DAV:  12    -0.188700211742E+03   -0.10020E-03   -0.90059E-04 11560   0.939E-02    0.823E-02
DAV:  13    -0.188700159509E+03    0.52233E-04   -0.22326E-04  7640   0.539E-02
   2 F= -.18870016E+03 E0= -.18856117E+03  d E =-.180781E+01
       N       E                     dE             d eps       ncg     rms          rms(c)
DAV:   1    -0.190622888496E+03   -0.19227E+01   -0.31338E+01  8960   0.142E+01    0.443E+00
DAV:   2    -0.190571854932E+03    0.51034E-01   -0.27611E+00 11280   0.946E+00    0.720E+00
DAV:   3    -0.190106598176E+03    0.46526E+00   -0.13336E+00 12360   0.859E+00    0.420E+00
DAV:   4    -0.189898581932E+03    0.20802E+00   -0.72327E-01 12800   0.424E+00    0.253E+00
DAV:   5    -0.189878537451E+03    0.20044E-01   -0.38542E-01 12280   0.315E+00    0.285E+00
DAV:   6    -0.189800476716E+03    0.78061E-01   -0.15198E-01 12560   0.250E+00    0.740E-01
DAV:   7    -0.189793605525E+03    0.68712E-02   -0.14730E-02 11600   0.542E-01    0.206E-01
DAV:   8    -0.189793723715E+03   -0.11819E-03   -0.31348E-03 11280   0.191E-01    0.181E-01
DAV:   9    -0.189793893773E+03   -0.17006E-03   -0.15002E-03 10560   0.237E-01    0.217E-01
DAV:  10    -0.189793999376E+03   -0.10560E-03   -0.14642E-03 10000   0.242E-01    0.176E-01
DAV:  11    -0.189793653907E+03    0.34547E-03   -0.58376E-04  8960   0.122E-01    0.187E-02
DAV:  12    -0.189793682101E+03   -0.28194E-04   -0.84247E-05  6960   0.310E-02
   3 F= -.18979368E+03 E0= -.18967531E+03  d E =-.109352E+01
       N       E                     dE             d eps       ncg     rms          rms(c)
DAV:   1    -0.191367115796E+03   -0.15735E+01   -0.77757E+01  8160   0.201E+01    0.459E+00
DAV:   2    -0.191204434341E+03    0.16268E+00   -0.53941E+00 13200   0.784E+00    0.473E+00
DAV:   3    -0.191309866069E+03   -0.10543E+00   -0.15980E+00 12200   0.910E+00    0.649E+00
DAV:   4    -0.190936800707E+03    0.37307E+00   -0.13489E+00 12480   0.747E+00    0.297E+00
DAV:   5    -0.190888885099E+03    0.47916E-01   -0.43720E-01 12520   0.392E+00    0.286E+00
DAV:   6    -0.190804901255E+03    0.83984E-01   -0.20928E-01 12240   0.317E+00    0.126E+00
DAV:   7    -0.190790132816E+03    0.14768E-01   -0.47408E-02 12720   0.114E+00    0.407E-01
DAV:   8    -0.190787559419E+03    0.25734E-02   -0.66074E-03 10160   0.350E-01    0.203E-01
DAV:   9    -0.190787905024E+03   -0.34560E-03   -0.22501E-03 11680   0.314E-01    0.261E-01
DAV:  10    -0.190787668075E+03    0.23695E-03   -0.17436E-03 11080   0.234E-01    0.919E-02
DAV:  11    -0.190787560948E+03    0.10713E-03   -0.45542E-04  9080   0.822E-02    0.447E-02
DAV:  12    -0.190787558490E+03    0.24573E-05   -0.99317E-05  7240   0.386E-02
   4 F= -.19078756E+03 E0= -.19068270E+03  d E =-.993876E+00
       N       E                     dE             d eps       ncg     rms          rms(c)
DAV:   1    -0.192100468944E+03   -0.13129E+01   -0.16168E+02  8160   0.283E+01    0.559E+00
DAV:   2    -0.191865403936E+03    0.23507E+00   -0.92726E+00 11480   0.809E+00    0.390E+00
DAV:   3    -0.192067757069E+03   -0.20235E+00   -0.20731E+00 11200   0.873E+00    0.808E+00
DAV:   4    -0.191748608849E+03    0.31915E+00   -0.28907E+00 11480   0.108E+01    0.446E+00
DAV:   5    -0.191572718949E+03    0.17589E+00   -0.74498E-01 12360   0.549E+00    0.321E+00
DAV:   6    -0.191447485120E+03    0.12523E+00   -0.27481E-01 12280   0.376E+00    0.127E+00
DAV:   7    -0.191433136441E+03    0.14349E-01   -0.62184E-02 12280   0.132E+00    0.512E-01
DAV:   8    -0.191428933509E+03    0.42029E-02   -0.10431E-02 10720   0.479E-01    0.233E-01
DAV:   9    -0.191430461643E+03   -0.15281E-02   -0.52086E-03 12680   0.493E-01    0.434E-01
DAV:  10    -0.191428868221E+03    0.15934E-02   -0.38395E-03 11200   0.389E-01    0.632E-02
DAV:  11    -0.191428937103E+03   -0.68882E-04   -0.36125E-04  9200   0.712E-02
   5 F= -.19142894E+03 E0= -.19132369E+03  d E =-.641379E+00
       N       E                     dE             d eps       ncg     rms          rms(c)
DAV:   1    -0.191478044571E+03   -0.49176E-01   -0.39914E+00  8160   0.423E+00    0.590E-01
DAV:   2    -0.191530867082E+03   -0.52823E-01   -0.24640E-01 13040   0.270E+00    0.200E+00
DAV:   3    -0.191488802395E+03    0.42065E-01   -0.87891E-02 12440   0.209E+00    0.371E-01
DAV:   4    -0.191490388240E+03   -0.15858E-02   -0.11939E-02 11400   0.686E-01    0.584E-01
DAV:   5    -0.191487015238E+03    0.33730E-02   -0.74260E-03 10200   0.568E-01    0.179E-01
DAV:   6    -0.191486984819E+03    0.30419E-04   -0.17756E-03 10440   0.174E-01    0.126E-01
DAV:   7    -0.191486677964E+03    0.30686E-03   -0.91434E-04 10160   0.123E-01    0.661E-02
DAV:   8    -0.191486686672E+03   -0.87077E-05   -0.27530E-04  7640   0.109E-01
   6 F= -.19148669E+03 E0= -.19137912E+03  d E =-.577496E-01
       N       E                     dE             d eps       ncg     rms          rms(c)
DAV:   1    -0.191540029650E+03   -0.53352E-01   -0.46923E+00  8160   0.458E+00    0.572E-01
DAV:   2    -0.191574577991E+03   -0.34548E-01   -0.17500E-01 13600   0.202E+00    0.159E+00
DAV:   3    -0.191546789128E+03    0.27789E-01   -0.67218E-02 12440   0.185E+00    0.426E-01
DAV:   4    -0.191546398716E+03    0.39041E-03   -0.85353E-03 11080   0.530E-01    0.433E-01
DAV:   5    -0.191545120845E+03    0.12779E-02   -0.68972E-03 10520   0.542E-01    0.289E-01
DAV:   6    -0.191544481163E+03    0.63968E-03   -0.25101E-03  9920   0.272E-01    0.116E-01
DAV:   7    -0.191544312780E+03    0.16838E-03   -0.77476E-04 10520   0.116E-01    0.630E-02
DAV:   8    -0.191544324181E+03   -0.11401E-04   -0.29490E-04  8200   0.113E-01
   7 F= -.19154432E+03 E0= -.19143492E+03  d E =-.576375E-01
       N       E                     dE             d eps       ncg     rms          rms(c)
DAV:   1    -0.191546795933E+03   -0.24832E-02   -0.22294E-02  8160   0.338E-01    0.641E-02
DAV:   2    -0.191546910114E+03   -0.11418E-03   -0.13764E-03 11280   0.142E-01    0.110E-01
DAV:   3    -0.191546820591E+03    0.89523E-04   -0.46328E-04  9040   0.154E-01
   8 F= -.19154682E+03 E0= -.19143745E+03  d E =-.249641E-02
       N       E                     dE             d eps       ncg     rms          rms(c)
DAV:   1    -0.191529849978E+03    0.17060E-01   -0.10689E+00  8160   0.225E+00    0.444E-01
DAV:   2    -0.191553485123E+03   -0.23635E-01   -0.87897E-02 12600   0.184E+00    0.151E+00
DAV:   3    -0.191529049756E+03    0.24435E-01   -0.40215E-02 12120   0.148E+00    0.295E-01
DAV:   4    -0.191530008308E+03   -0.95855E-03   -0.76060E-03 10000   0.593E-01    0.455E-01
DAV:   5    -0.191528053588E+03    0.19547E-02   -0.57734E-03 10240   0.506E-01    0.202E-01
DAV:   6    -0.191527905157E+03    0.14843E-03   -0.24075E-03 11000   0.286E-01    0.202E-01
DAV:   7    -0.191527612305E+03    0.29285E-03   -0.14906E-03 10200   0.242E-01    0.102E-01
DAV:   8    -0.191527507860E+03    0.10445E-03   -0.29517E-04  7400   0.957E-02    0.239E-02
DAV:   9    -0.191527506841E+03    0.10197E-05   -0.36550E-05  6800   0.252E-02
   9 F= -.19152751E+03 E0= -.19141865E+03  d E =0.193138E-01
       N       E                     dE             d eps       ncg     rms          rms(c)
DAV:   1    -0.191572214427E+03   -0.44707E-01   -0.32301E+00  8160   0.383E+00    0.516E-01
DAV:   2    -0.191605443199E+03   -0.33229E-01   -0.14841E-01 13600   0.215E+00    0.165E+00
DAV:   3    -0.191576803439E+03    0.28640E-01   -0.62448E-02 12200   0.176E+00    0.326E-01
DAV:   4    -0.191578263203E+03   -0.14598E-02   -0.92347E-03 11000   0.630E-01    0.536E-01
DAV:   5    -0.191575370212E+03    0.28930E-02   -0.56300E-03 10840   0.532E-01    0.148E-01
DAV:   6    -0.191575423941E+03   -0.53728E-04   -0.15300E-03 11200   0.185E-01    0.146E-01
DAV:   7    -0.191575549872E+03   -0.12593E-03   -0.18666E-03 10400   0.270E-01    0.217E-01
DAV:   8    -0.191575081489E+03    0.46838E-03   -0.88995E-04  8360   0.189E-01    0.267E-02
DAV:   9    -0.191575096703E+03   -0.15214E-04   -0.57683E-05  5680   0.299E-02
  10 F= -.19157510E+03 E0= -.19146536E+03  d E =-.475899E-01
       N       E                     dE             d eps       ncg     rms          rms(c)
DAV:   1    -0.191623189945E+03   -0.48108E-01   -0.29983E+00  8160   0.369E+00    0.511E-01
DAV:   2    -0.191651987039E+03   -0.28797E-01   -0.12771E-01 13600   0.202E+00    0.159E+00
DAV:   3    -0.191625862655E+03    0.26124E-01   -0.52695E-02 12160   0.169E+00    0.328E-01
DAV:   4    -0.191627439159E+03   -0.15765E-02   -0.98660E-03 11360   0.645E-01    0.557E-01
DAV:   5    -0.191624353870E+03    0.30853E-02   -0.70079E-03 10960   0.575E-01    0.175E-01
DAV:   6    -0.191624139613E+03    0.21426E-03   -0.18720E-03 10440   0.197E-01    0.104E-01
DAV:   7    -0.191624002731E+03    0.13688E-03   -0.69259E-04 10760   0.127E-01    0.876E-02
DAV:   8    -0.191623950953E+03    0.51777E-04   -0.32368E-04  7520   0.115E-01
  11 F= -.19162395E+03 E0= -.19151475E+03  d E =-.488543E-01
       N       E                     dE             d eps       ncg     rms          rms(c)
DAV:   1    -0.191652126911E+03   -0.28124E-01   -0.94053E-01  8160   0.206E+00    0.236E-01
DAV:   2    -0.191656523258E+03   -0.43963E-02   -0.28838E-02 13480   0.728E-01    0.544E-01
DAV:   3    -0.191653493292E+03    0.30300E-02   -0.90393E-03 12200   0.680E-01    0.216E-01
DAV:   4    -0.191653492592E+03    0.70005E-06   -0.22169E-03  9640   0.281E-01    0.229E-01
DAV:   5    -0.191653039580E+03    0.45301E-03   -0.14646E-03  9240   0.261E-01    0.106E-01
DAV:   6    -0.191652992544E+03    0.47036E-04   -0.42463E-04  8120   0.113E-01
  12 F= -.19165299E+03 E0= -.19154499E+03  d E =-.290416E-01
       N       E                     dE             d eps       ncg     rms          rms(c)
DAV:   1    -0.191644232321E+03    0.88073E-02   -0.13279E-01  8160   0.822E-01    0.208E-01
DAV:   2    -0.191651973968E+03   -0.77416E-02   -0.23367E-02 12240   0.100E+00    0.879E-01
DAV:   3    -0.191644021747E+03    0.79522E-02   -0.13712E-02 11280   0.818E-01    0.113E-01
DAV:   4    -0.191644166857E+03   -0.14511E-03   -0.96274E-04  9600   0.223E-01    0.151E-01
DAV:   5    -0.191643930162E+03    0.23670E-03   -0.62837E-04  8960   0.189E-01    0.745E-02
DAV:   6    -0.191643930883E+03   -0.72162E-06   -0.32783E-04  6800   0.110E-01
  13 F= -.19164393E+03 E0= -.19153566E+03  d E =0.906166E-02
       N       E                     dE             d eps       ncg     rms          rms(c)
DAV:   1    -0.191724998654E+03   -0.81068E-01   -0.73092E+00  8160   0.579E+00    0.721E-01
DAV:   2    -0.191773150995E+03   -0.48152E-01   -0.27107E-01 13600   0.261E+00    0.199E+00
DAV:   3    -0.191735923651E+03    0.37227E-01   -0.10119E-01 12200   0.222E+00    0.600E-01
DAV:   4    -0.191738422593E+03   -0.24989E-02   -0.25827E-02 11360   0.107E+00    0.843E-01
DAV:   5    -0.191731074262E+03    0.73483E-02   -0.14810E-02 12160   0.882E-01    0.251E-01
DAV:   6    -0.191731274302E+03   -0.20004E-03   -0.48979E-03 11520   0.392E-01    0.304E-01
DAV:   7    -0.191731102357E+03    0.17194E-03   -0.47687E-03 11400   0.488E-01    0.283E-01
DAV:   8    -0.191730188523E+03    0.91383E-03   -0.14814E-03  9640   0.253E-01    0.393E-02
DAV:   9    -0.191730189415E+03   -0.89168E-06   -0.12744E-04  6200   0.427E-02
  14 F= -.19173019E+03 E0= -.19162651E+03  d E =-.862585E-01
       N       E                     dE             d eps       ncg     rms          rms(c)
DAV:   1    -0.191792877462E+03   -0.62689E-01   -0.42774E+00  8160   0.441E+00    0.528E-01
DAV:   2    -0.191817930784E+03   -0.25053E-01   -0.14851E-01 13320   0.185E+00    0.143E+00
DAV:   3    -0.191799594589E+03    0.18336E-01   -0.52102E-02 11880   0.160E+00    0.491E-01
DAV:   4    -0.191800130269E+03   -0.53568E-03   -0.13438E-02 11400   0.787E-01    0.572E-01
DAV:   5    -0.191796689725E+03    0.34405E-02   -0.67673E-03 11800   0.633E-01    0.190E-01
DAV:   6    -0.191796379815E+03    0.30991E-03   -0.20964E-03 10960   0.211E-01    0.102E-01
DAV:   7    -0.191796251778E+03    0.12804E-03   -0.76934E-04 11280   0.125E-01    0.813E-02
DAV:   8    -0.191796201029E+03    0.50749E-04   -0.26278E-04  7680   0.117E-01
  15 F= -.19179620E+03 E0= -.19169688E+03  d E =-.660116E-01
       N       E                     dE             d eps       ncg     rms          rms(c)
DAV:   1    -0.191883001516E+03   -0.86750E-01   -0.99773E+00  8160   0.672E+00    0.735E-01
DAV:   2    -0.191926724429E+03   -0.43723E-01   -0.31914E-01 12240   0.233E+00    0.177E+00
DAV:   3    -0.191902719658E+03    0.24005E-01   -0.98786E-02 11920   0.216E+00    0.779E-01
DAV:   4    -0.191899887974E+03    0.28317E-02   -0.21256E-02 11680   0.100E+00    0.635E-01
DAV:   5    -0.191895559028E+03    0.43289E-02   -0.93374E-03 11920   0.805E-01    0.282E-01
DAV:   6    -0.191894986964E+03    0.57206E-03   -0.40332E-03 12280   0.341E-01    0.163E-01
DAV:   7    -0.191894830564E+03    0.15640E-03   -0.18433E-03 11800   0.248E-01    0.175E-01
DAV:   8    -0.191894538728E+03    0.29184E-03   -0.72719E-04  8960   0.211E-01    0.626E-02
DAV:   9    -0.191894497807E+03    0.40921E-04   -0.11916E-04  6200   0.692E-02
  16 F= -.19189450E+03 E0= -.19180174E+03  d E =-.982968E-01
       N       E                     dE             d eps       ncg     rms          rms(c)
DAV:   1    -0.191973768268E+03   -0.79230E-01   -0.10522E+01  8160   0.697E+00    0.823E-01
DAV:   2    -0.192029707572E+03   -0.55939E-01   -0.39830E-01 12160   0.274E+00    0.208E+00
DAV:   3    -0.191995749389E+03    0.33958E-01   -0.12335E-01 11960   0.244E+00    0.791E-01
DAV:   4    -0.191992765235E+03    0.29842E-02   -0.24304E-02 12240   0.112E+00    0.685E-01
DAV:   5    -0.191987711102E+03    0.50541E-02   -0.12014E-02 11680   0.942E-01    0.347E-01
DAV:   6    -0.191986605868E+03    0.11052E-02   -0.58396E-03 12120   0.419E-01    0.166E-01
DAV:   7    -0.191986165260E+03    0.44061E-03   -0.19337E-03 11840   0.203E-01    0.118E-01
DAV:   8    -0.191986068252E+03    0.97008E-04   -0.52309E-04 10040   0.177E-01
  17 F= -.19198607E+03 E0= -.19189736E+03  d E =-.915704E-01
       N       E                     dE             d eps       ncg     rms          rms(c)
DAV:   1    -0.192035023577E+03   -0.48858E-01   -0.64691E+00  8160   0.540E+00    0.592E-01
DAV:   2    -0.192060826382E+03   -0.25803E-01   -0.23670E-01 11400   0.179E+00    0.114E+00
DAV:   3    -0.192052845526E+03    0.79809E-02   -0.49704E-02 12400   0.166E+00    0.728E-01
DAV:   4    -0.192046927198E+03    0.59183E-02   -0.10081E-02 12120   0.680E-01    0.213E-01
DAV:   5    -0.192047610596E+03   -0.68340E-03   -0.45405E-03 12480   0.474E-01    0.359E-01
DAV:   6    -0.192046791904E+03    0.81869E-03   -0.40085E-03 12040   0.515E-01    0.205E-01
DAV:   7    -0.192046265581E+03    0.52632E-03   -0.10925E-03 10640   0.198E-01    0.494E-02
DAV:   8    -0.192046251157E+03    0.14424E-04   -0.15906E-04  7160   0.828E-02
  18 F= -.19204625E+03 E0= -.19196063E+03  d E =-.601829E-01
       N       E                     dE             d eps       ncg     rms          rms(c)
DAV:   1    -0.192058887760E+03   -0.12622E-01   -0.28341E-01  8160   0.124E+00    0.250E-01
DAV:   2    -0.192059530534E+03   -0.64277E-03   -0.17953E-02 10360   0.563E-01    0.378E-01
DAV:   3    -0.192058787032E+03    0.74350E-03   -0.58043E-03 11160   0.592E-01    0.281E-01
DAV:   4    -0.192058160520E+03    0.62651E-03   -0.27607E-03 10320   0.387E-01    0.211E-01
DAV:   5    -0.192057891555E+03    0.26896E-03   -0.16115E-03  9880   0.335E-01    0.156E-01
DAV:   6    -0.192057556846E+03    0.33471E-03   -0.63974E-04  9840   0.174E-01    0.272E-02
DAV:   7    -0.192057549153E+03    0.76933E-05   -0.89033E-05  6360   0.377E-02
  19 F= -.19205755E+03 E0= -.19197152E+03  d E =-.112980E-01
       N       E                     dE             d eps       ncg     rms          rms(c)
DAV:   1    -0.192083308975E+03   -0.25752E-01   -0.21312E+00  8160   0.310E+00    0.331E-01
DAV:   2    -0.192091728237E+03   -0.84193E-02   -0.78125E-02 11600   0.995E-01    0.627E-01
DAV:   3    -0.192089345508E+03    0.23827E-02   -0.15351E-02 12520   0.918E-01    0.402E-01
DAV:   4    -0.192087510505E+03    0.18350E-02   -0.30384E-03 11080   0.369E-01    0.104E-01
DAV:   5    -0.192087452168E+03    0.58336E-04   -0.96824E-04 10400   0.121E-01
  20 F= -.19208745E+03 E0= -.19200242E+03  d E =-.299030E-01
       N       E                     dE             d eps       ncg     rms          rms(c)
DAV:   1    -0.192104392432E+03   -0.16882E-01   -0.85216E-01  8160   0.200E+00    0.307E-01
DAV:   2    -0.192110928734E+03   -0.65363E-02   -0.44465E-02 12400   0.105E+00    0.716E-01
DAV:   3    -0.192105818674E+03    0.51101E-02   -0.11048E-02 12200   0.892E-01    0.248E-01
DAV:   4    -0.192105911685E+03   -0.93011E-04   -0.28910E-03 11320   0.429E-01    0.288E-01
DAV:   5    -0.192105050091E+03    0.86159E-03   -0.19192E-03 10480   0.378E-01    0.126E-01
DAV:   6    -0.192104996587E+03    0.53504E-04   -0.87060E-04  9880   0.183E-01
  21 F= -.19210500E+03 E0= -.19201979E+03  d E =-.175444E-01
       N       E                     dE             d eps       ncg     rms          rms(c)
DAV:   1    -0.192123868539E+03   -0.18818E-01   -0.19243E+00  8160   0.295E+00    0.318E-01
DAV:   2    -0.192130556752E+03   -0.66882E-02   -0.72023E-02 11960   0.905E-01    0.491E-01
DAV:   3    -0.192130077536E+03    0.47922E-03   -0.11932E-02 12160   0.842E-01    0.445E-01
DAV:   4    -0.192127850099E+03    0.22274E-02   -0.29976E-03 11000   0.409E-01    0.962E-02
DAV:   5    -0.192128021087E+03   -0.17099E-03   -0.99976E-04 10160   0.187E-01    0.140E-01
DAV:   6    -0.192127938623E+03    0.82464E-04   -0.88135E-04 11440   0.249E-01
  22 F= -.19212794E+03 E0= -.19204377E+03  d E =-.229420E-01
       N       E                     dE             d eps       ncg     rms          rms(c)
DAV:   1    -0.192143493734E+03   -0.15473E-01   -0.15118E+00  8160   0.265E+00    0.334E-01
DAV:   2    -0.192149674001E+03   -0.61803E-02   -0.69278E-02 13040   0.944E-01    0.525E-01
DAV:   3    -0.192148311256E+03    0.13627E-02   -0.11103E-02 11560   0.841E-01    0.395E-01
DAV:   4    -0.192146908951E+03    0.14023E-02   -0.39085E-03 11160   0.483E-01    0.231E-01
DAV:   5    -0.192146564104E+03    0.34485E-03   -0.18850E-03  9960   0.379E-01    0.173E-01
DAV:   6    -0.192146290372E+03    0.27373E-03   -0.10319E-03 10720   0.210E-01    0.682E-02
DAV:   7    -0.192146195486E+03    0.94885E-04   -0.27432E-04  7880   0.796E-02
  23 F= -.19214620E+03 E0= -.19206203E+03  d E =-.182569E-01
       N       E                     dE             d eps       ncg     rms          rms(c)
DAV:   1    -0.192155158562E+03   -0.88682E-02   -0.57477E-01  8160   0.162E+00    0.196E-01
DAV:   2    -0.192157377420E+03   -0.22189E-02   -0.23685E-02 11720   0.600E-01    0.301E-01
DAV:   3    -0.192156737675E+03    0.63974E-03   -0.34981E-03 12160   0.496E-01    0.201E-01
DAV:   4    -0.192156410903E+03    0.32677E-03   -0.12847E-03 10080   0.275E-01    0.143E-01
DAV:   5    -0.192156298389E+03    0.11251E-03   -0.68861E-04  9800   0.211E-01    0.102E-01
DAV:   6    -0.192156224860E+03    0.73528E-04   -0.29735E-04  8360   0.123E-01
  24 F= -.19215622E+03 E0= -.19207260E+03  d E =-.100294E-01
       N       E                     dE             d eps       ncg     rms          rms(c)
DAV:   1    -0.192162398304E+03   -0.60999E-02   -0.23227E-01  8160   0.105E+00    0.161E-01
DAV:   2    -0.192163936543E+03   -0.15382E-02   -0.11832E-02 11760   0.473E-01    0.340E-01
DAV:   3    -0.192162874595E+03    0.10619E-02   -0.28710E-03 12320   0.458E-01    0.156E-01
DAV:   4    -0.192162604037E+03    0.27056E-03   -0.50262E-04  8600   0.154E-01    0.681E-02
DAV:   5    -0.192162691960E+03   -0.87924E-04   -0.46752E-04  9520   0.168E-01
  25 F= -.19216269E+03 E0= -.19207929E+03  d E =-.646710E-02
       N       E                     dE             d eps       ncg     rms          rms(c)
DAV:   1    -0.192177572142E+03   -0.14968E-01   -0.85350E+00  8160   0.628E+00    0.735E-01
DAV:   2    -0.192206998847E+03   -0.29427E-01   -0.33091E-01 12280   0.187E+00    0.112E+00
DAV:   3    -0.192203565694E+03    0.34332E-02   -0.57868E-02 12120   0.188E+00    0.949E-01
DAV:   4    -0.192192488684E+03    0.11077E-01   -0.14220E-02 11960   0.895E-01    0.214E-01
DAV:   5    -0.192193509080E+03   -0.10204E-02   -0.65913E-03 11960   0.476E-01    0.366E-01
DAV:   6    -0.192192553897E+03    0.95518E-03   -0.49083E-03 12600   0.588E-01    0.248E-01
DAV:   7    -0.192191762741E+03    0.79116E-03   -0.14828E-03 10320   0.281E-01    0.769E-02
DAV:   8    -0.192191728417E+03    0.34324E-04   -0.25168E-04  8800   0.122E-01
  26 F= -.19219173E+03 E0= -.19210799E+03  d E =-.290365E-01
       N       E                     dE             d eps       ncg     rms          rms(c)
DAV:   1    -0.192187859712E+03    0.39030E-02   -0.64472E-01  8160   0.176E+00    0.281E-01
DAV:   2    -0.192193215739E+03   -0.53560E-02   -0.32496E-02 12560   0.963E-01    0.703E-01
DAV:   3    -0.192187970276E+03    0.52455E-02   -0.97198E-03 11720   0.806E-01    0.193E-01
DAV:   4    -0.192187794486E+03    0.17579E-03   -0.20751E-03 10960   0.331E-01    0.199E-01
DAV:   5    -0.192187496264E+03    0.29822E-03   -0.14252E-03 10280   0.332E-01    0.149E-01
DAV:   6    -0.192187302820E+03    0.19344E-03   -0.73938E-04 11160   0.197E-01    0.859E-02
DAV:   7    -0.192187268266E+03    0.34554E-04   -0.27145E-04  8280   0.146E-01
  27 F= -.19218727E+03 E0= -.19210384E+03  d E =0.446015E-02
       N       E                     dE             d eps       ncg     rms          rms(c)
DAV:   1    -0.192193290829E+03   -0.59880E-02   -0.58110E-01  8160   0.163E+00    0.189E-01
DAV:   2    -0.192194649173E+03   -0.13583E-02   -0.21816E-02 11320   0.395E-01    0.151E-01
DAV:   3    -0.192195303598E+03   -0.65443E-03   -0.25710E-03 12040   0.411E-01    0.304E-01
DAV:   4    -0.192194256153E+03    0.10474E-02   -0.13037E-03  9800   0.317E-01    0.643E-02
DAV:   5    -0.192194341500E+03   -0.85347E-04   -0.48525E-04  8440   0.132E-01
  28 F= -.19219434E+03 E0= -.19211114E+03  d E =-.707323E-02
       N       E                     dE             d eps       ncg     rms          rms(c)
DAV:   1    -0.192198997606E+03   -0.47415E-02   -0.47595E-01  8160   0.148E+00    0.187E-01
DAV:   2    -0.192201498698E+03   -0.25011E-02   -0.20193E-02 11880   0.579E-01    0.371E-01
DAV:   3    -0.192200214983E+03    0.12837E-02   -0.43826E-03 12240   0.528E-01    0.175E-01
DAV:   4    -0.192199934188E+03    0.28080E-03   -0.78900E-04  9200   0.198E-01    0.898E-02
DAV:   5    -0.192199943427E+03   -0.92388E-05   -0.42284E-04 10000   0.181E-01
  29 F= -.19219994E+03 E0= -.19211666E+03  d E =-.560193E-02
       N       E                     dE             d eps       ncg     rms          rms(c)
DAV:   1    -0.192202311348E+03   -0.23772E-02   -0.11440E-01  8160   0.734E-01    0.115E-01
DAV:   2    -0.192203453052E+03   -0.11417E-02   -0.61065E-03 12240   0.400E-01    0.293E-01
DAV:   3    -0.192202498298E+03    0.95475E-03   -0.20755E-03 11120   0.373E-01    0.929E-02
DAV:   4    -0.192202422412E+03    0.75887E-04   -0.27188E-04  7000   0.102E-01
  30 F= -.19220242E+03 E0= -.19211905E+03  d E =-.247899E-02
       N       E                     dE             d eps       ncg     rms          rms(c)
DAV:   1    -0.192205536703E+03   -0.30384E-02   -0.23493E-01  8160   0.104E+00    0.132E-01
DAV:   2    -0.192206222575E+03   -0.68587E-03   -0.85417E-03 11080   0.309E-01    0.175E-01
DAV:   3    -0.192206161593E+03    0.60982E-04   -0.14763E-03 11000   0.322E-01    0.168E-01
DAV:   4    -0.192205869235E+03    0.29236E-03   -0.45789E-04  8200   0.177E-01    0.615E-02
DAV:   5    -0.192205907836E+03   -0.38601E-04   -0.26440E-04  8400   0.136E-01
  31 F= -.19220591E+03 E0= -.19212246E+03  d E =-.348542E-02
       N       E                     dE             d eps       ncg     rms          rms(c)
DAV:   1    -0.192209074069E+03   -0.32048E-02   -0.37769E-01  8160   0.132E+00    0.170E-01
DAV:   2    -0.192210454066E+03   -0.13800E-02   -0.15450E-02 11240   0.426E-01    0.251E-01
DAV:   3    -0.192210145917E+03    0.30815E-03   -0.30709E-03 12280   0.438E-01    0.203E-01
DAV:   4    -0.192209677799E+03    0.46812E-03   -0.79543E-04  9040   0.209E-01    0.662E-02
DAV:   5    -0.192209760541E+03   -0.82742E-04   -0.37933E-04  9520   0.167E-01
  32 F= -.19220976E+03 E0= -.19212631E+03  d E =-.385270E-02
       N       E                     dE             d eps       ncg     rms          rms(c)
DAV:   1    -0.192212728367E+03   -0.30506E-02   -0.58499E-01  8160   0.163E+00    0.199E-01
DAV:   2    -0.192215234166E+03   -0.25058E-02   -0.24331E-02 11240   0.540E-01    0.325E-01
DAV:   3    -0.192214490143E+03    0.74402E-03   -0.42003E-03 12240   0.525E-01    0.223E-01
DAV:   4    -0.192214018304E+03    0.47184E-03   -0.98190E-04  9640   0.247E-01    0.105E-01
DAV:   5    -0.192213988819E+03    0.29485E-04   -0.44591E-04  9200   0.186E-01
  33 F= -.19221399E+03 E0= -.19213058E+03  d E =-.422828E-02
       N       E                     dE             d eps       ncg     rms          rms(c)
DAV:   1    -0.192216187114E+03   -0.21688E-02   -0.74837E-01  8160   0.185E+00    0.240E-01
DAV:   2    -0.192220569073E+03   -0.43820E-02   -0.33254E-02 12080   0.830E-01    0.500E-01
DAV:   3    -0.192217939806E+03    0.26293E-02   -0.69692E-03 12160   0.679E-01    0.190E-01
DAV:   4    -0.192217771076E+03    0.16873E-03   -0.12754E-03  9520   0.277E-01    0.162E-01
DAV:   5    -0.192217543580E+03    0.22750E-03   -0.73416E-04 10960   0.250E-01    0.930E-02
DAV:   6    -0.192217509273E+03    0.34307E-04   -0.33635E-04  8840   0.120E-01
  34 F= -.19221751E+03 E0= -.19213397E+03  d E =-.352045E-02
       N       E                     dE             d eps       ncg     rms          rms(c)
DAV:   1    -0.192218722925E+03   -0.11793E-02   -0.47053E-01  8160   0.146E+00    0.182E-01
DAV:   2    -0.192221266344E+03   -0.25434E-02   -0.21027E-02 10760   0.554E-01    0.363E-01
DAV:   3    -0.192220063972E+03    0.12024E-02   -0.42627E-03 12080   0.509E-01    0.179E-01
DAV:   4    -0.192219822687E+03    0.24129E-03   -0.77616E-04  9800   0.205E-01    0.103E-01
DAV:   5    -0.192219741625E+03    0.81062E-04   -0.34568E-04  8720   0.167E-01
  35 F= -.19221974E+03 E0= -.19213620E+03  d E =-.223235E-02
       N       E                     dE             d eps       ncg     rms          rms(c)
DAV:   1    -0.192219863716E+03   -0.41029E-04   -0.19006E-02  8200   0.304E-01    0.698E-02
DAV:   2    -0.192220490317E+03   -0.62660E-03   -0.19127E-03 12800   0.290E-01    0.231E-01
DAV:   3    -0.192219853986E+03    0.63633E-03   -0.10402E-03  9640   0.267E-01    0.533E-02
DAV:   4    -0.192219822137E+03    0.31848E-04   -0.97096E-05  5520   0.615E-02
  36 F= -.19221982E+03 E0= -.19213617E+03  d E =-.805124E-04
