<?xml version="1.0" encoding="ISO-8859-1"?>
<modeling>
 <generator>
  <i name="program" type="string">vasp </i>
  <i name="version" type="string">5.4.1  </i>
  <i name="subversion" type="string">05Feb16 (build Jul 05 2020 17:13:04) complex                          parallel </i>
  <i name="platform" type="string">IFC91_ompi </i>
  <i name="date" type="string">2024 04 22 </i>
  <i name="time" type="string">18:08:58 </i>
 </generator>
 <incar>
  <i type="int" name="ISTART">     0</i>
  <i type="string" name="PREC">normal</i>
  <i type="string" name="ALGO"> Normal</i>
  <i type="int" name="ISPIN">     1</i>
  <i type="int" name="ICHARG">     2</i>
  <i type="int" name="IBRION">     1</i>
  <i type="int" name="NSW">   100</i>
  <i type="int" name="ISIF">     3</i>
  <i type="int" name="ISYM">     0</i>
  <i name="SYMPREC">      0.00000001</i>
  <i name="POTIM">      0.50000000</i>
  <i type="logical" name="LREAL"> F  </i>
  <i type="logical" name="LPLANE"> F  </i>
  <i type="int" name="ISMEAR">     0</i>
  <i type="logical" name="LWAVE"> F  </i>
  <i type="logical" name="LCHARG"> F  </i>
  <v type="int" name="KPOINT_BSE">    -1     0     0     0</v>
 </incar>
 <kpoints>
  <generation param="Gamma">
   <v type="int" name="divisions">       8        8        1 </v>
   <v name="usershift">      0.00000000       0.00000000       0.00000000 </v>
   <v name="genvec1">      0.12500000       0.00000000       0.00000000 </v>
   <v name="genvec2">     -0.00000000       0.12500000       0.00000000 </v>
   <v name="genvec3">      0.00000000       0.00000000       1.00000000 </v>
   <v name="shift">      0.00000000       0.00000000       0.00000000 </v>
  </generation>
  <varray name="kpointlist" >
   <v>       0.00000000       0.00000000       0.00000000 </v>
   <v>       0.12500000       0.00000000       0.00000000 </v>
   <v>       0.25000000       0.00000000       0.00000000 </v>
   <v>       0.37500000       0.00000000       0.00000000 </v>
   <v>       0.50000000       0.00000000       0.00000000 </v>
   <v>       0.00000000       0.12500000       0.00000000 </v>
   <v>       0.12500000       0.12500000       0.00000000 </v>
   <v>       0.25000000       0.12500000       0.00000000 </v>
   <v>       0.37500000       0.12500000       0.00000000 </v>
   <v>       0.50000000       0.12500000       0.00000000 </v>
   <v>      -0.37500000       0.12500000       0.00000000 </v>
   <v>      -0.25000000       0.12500000       0.00000000 </v>
   <v>      -0.12500000       0.12500000       0.00000000 </v>
   <v>       0.00000000       0.25000000       0.00000000 </v>
   <v>       0.12500000       0.25000000       0.00000000 </v>
   <v>       0.25000000       0.25000000       0.00000000 </v>
   <v>       0.37500000       0.25000000       0.00000000 </v>
   <v>       0.50000000       0.25000000       0.00000000 </v>
   <v>      -0.37500000       0.25000000       0.00000000 </v>
   <v>      -0.25000000       0.25000000       0.00000000 </v>
   <v>      -0.12500000       0.25000000       0.00000000 </v>
   <v>      -0.00000000       0.37500000       0.00000000 </v>
   <v>       0.12500000       0.37500000       0.00000000 </v>
   <v>       0.25000000       0.37500000       0.00000000 </v>
   <v>       0.37500000       0.37500000       0.00000000 </v>
   <v>       0.50000000       0.37500000       0.00000000 </v>
   <v>      -0.37500000       0.37500000       0.00000000 </v>
   <v>      -0.25000000       0.37500000       0.00000000 </v>
   <v>      -0.12500000       0.37500000       0.00000000 </v>
   <v>       0.00000000       0.50000000       0.00000000 </v>
   <v>       0.12500000       0.50000000       0.00000000 </v>
   <v>       0.25000000       0.50000000       0.00000000 </v>
   <v>       0.37500000       0.50000000       0.00000000 </v>
   <v>       0.50000000       0.50000000       0.00000000 </v>
  </varray>
  <varray name="weights" >
   <v>       0.01562500 </v>
   <v>       0.03125000 </v>
   <v>       0.03125000 </v>
   <v>       0.03125000 </v>
   <v>       0.01562500 </v>
   <v>       0.03125000 </v>
   <v>       0.03125000 </v>
   <v>       0.03125000 </v>
   <v>       0.03125000 </v>
   <v>       0.03125000 </v>
   <v>       0.03125000 </v>
   <v>       0.03125000 </v>
   <v>       0.03125000 </v>
   <v>       0.03125000 </v>
   <v>       0.03125000 </v>
   <v>       0.03125000 </v>
   <v>       0.03125000 </v>
   <v>       0.03125000 </v>
   <v>       0.03125000 </v>
   <v>       0.03125000 </v>
   <v>       0.03125000 </v>
   <v>       0.03125000 </v>
   <v>       0.03125000 </v>
   <v>       0.03125000 </v>
   <v>       0.03125000 </v>
   <v>       0.03125000 </v>
   <v>       0.03125000 </v>
   <v>       0.03125000 </v>
   <v>       0.03125000 </v>
   <v>       0.01562500 </v>
   <v>       0.03125000 </v>
   <v>       0.03125000 </v>
   <v>       0.03125000 </v>
   <v>       0.01562500 </v>
  </varray>
 </kpoints>
 <parameters>
  <separator name="general" >
   <i type="string" name="SYSTEM">unknown system</i>
   <i type="logical" name="LCOMPAT"> F  </i>
  </separator>
  <separator name="electronic" >
   <i type="string" name="PREC">normal</i>
   <i name="ENMAX">    280.00000000</i>
   <i name="ENAUG">    373.43800000</i>
   <i name="EDIFF">      0.00010000</i>
   <i type="int" name="IALGO">    38</i>
   <i type="int" name="IWAVPR">    11</i>
   <i type="int" name="NBANDS">   120</i>
   <i name="NELECT">    159.00000000</i>
   <i type="int" name="TURBO">     0</i>
   <i type="int" name="IRESTART">     0</i>
   <i type="int" name="NREBOOT">     0</i>
   <i type="int" name="NMIN">     0</i>
   <i name="EREF">      0.00000000</i>
   <separator name="electronic smearing" >
    <i type="int" name="ISMEAR">     0</i>
    <i name="SIGMA">      0.20000000</i>
    <i name="KSPACING">      0.50000000</i>
    <i type="logical" name="KGAMMA"> T  </i>
   </separator>
   <separator name="electronic projectors" >
    <i type="logical" name="LREAL"> F  </i>
    <v name="ROPT">      0.00000000      0.00000000      0.00000000      0.00000000</v>
    <i type="int" name="LMAXPAW">  -100</i>
    <i type="int" name="LMAXMIX">     2</i>
    <i type="logical" name="NLSPLINE"> F  </i>
   </separator>
   <separator name="electronic startup" >
    <i type="int" name="ISTART">     0</i>
    <i type="int" name="ICHARG">     2</i>
    <i type="int" name="INIWAV">     1</i>
   </separator>
   <separator name="electronic spin" >
    <i type="int" name="ISPIN">     1</i>
    <i type="logical" name="LNONCOLLINEAR"> F  </i>
    <v name="MAGMOM">      1.00000000      1.00000000      1.00000000      1.00000000      1.00000000      1.00000000      1.00000000      1.00000000      1.00000000      1.00000000      1.00000000      1.00000000      1.00000000      1.00000000      1.00000000      1.00000000      1.00000000      1.00000000      1.00000000      1.00000000
      1.00000000      1.00000000      1.00000000      1.00000000      1.00000000      1.00000000      1.00000000</v>
    <i name="NUPDOWN">     -1.00000000</i>
    <i type="logical" name="LSORBIT"> F  </i>
    <v name="SAXIS">      0.00000000      0.00000000      1.00000000</v>
    <i type="logical" name="LSPIRAL"> F  </i>
    <v name="QSPIRAL">      0.00000000      0.00000000      0.00000000</v>
    <i type="logical" name="LZEROZ"> F  </i>
   </separator>
   <separator name="electronic exchange-correlation" >
    <i type="logical" name="LASPH"> F  </i>
    <i type="logical" name="LMETAGGA"> F  </i>
   </separator>
   <separator name="electronic convergence" >
    <i type="int" name="NELM">    60</i>
    <i type="int" name="NELMDL">    -5</i>
    <i type="int" name="NELMIN">     2</i>
    <i name="ENINI">    280.00000000</i>
    <separator name="electronic convergence detail" >
     <i type="logical" name="LDIAG"> T  </i>
     <i type="logical" name="LSUBROT"> F  </i>
     <i name="WEIMIN">      0.00100000</i>
     <i name="EBREAK">      0.00000021</i>
     <i name="DEPER">      0.30000000</i>
     <i type="int" name="NRMM">     4</i>
     <i name="TIME">      0.40000000</i>
    </separator>
   </separator>
   <separator name="electronic mixer" >
    <i name="AMIX">      0.40000000</i>
    <i name="BMIX">      1.00000000</i>
    <i name="AMIN">      0.10000000</i>
    <i name="AMIX_MAG">      1.60000000</i>
    <i name="BMIX_MAG">      1.00000000</i>
    <separator name="electronic mixer details" >
     <i type="int" name="IMIX">     4</i>
     <i type="logical" name="MIXFIRST"> F  </i>
     <i type="int" name="MAXMIX">   -45</i>
     <i name="WC">    100.00000000</i>
     <i type="int" name="INIMIX">     1</i>
     <i type="int" name="MIXPRE">     1</i>
     <i type="int" name="MREMOVE">     5</i>
    </separator>
   </separator>
   <separator name="electronic dipolcorrection" >
    <i type="logical" name="LDIPOL"> F  </i>
    <i type="logical" name="LMONO"> F  </i>
    <i type="int" name="IDIPOL">     0</i>
    <i name="EPSILON">      1.00000000</i>
    <v name="DIPOL">   -100.00000000   -100.00000000   -100.00000000</v>
    <i name="EFIELD">      0.00000000</i>
   </separator>
  </separator>
  <separator name="grids" >
   <i type="int" name="NGX">    42</i>
   <i type="int" name="NGY">    42</i>
   <i type="int" name="NGZ">   126</i>
   <i type="int" name="NGXF">    84</i>
   <i type="int" name="NGYF">    84</i>
   <i type="int" name="NGZF">   252</i>
   <i type="logical" name="ADDGRID"> F  </i>
  </separator>
  <separator name="ionic" >
   <i type="int" name="NSW">   100</i>
   <i type="int" name="IBRION">     1</i>
   <i type="int" name="ISIF">     3</i>
   <i name="PSTRESS">      0.00000000</i>
   <i name="EDIFFG">      0.00100000</i>
   <i type="int" name="NFREE">     0</i>
   <i name="POTIM">      0.50000000</i>
   <i name="SMASS">     -3.00000000</i>
   <i name="SCALEE">      1.00000000</i>
  </separator>
  <separator name="ionic md" >
   <i name="TEBEG">      0.00010000</i>
   <i name="TEEND">      0.00010000</i>
   <i type="int" name="NBLOCK">     1</i>
   <i type="int" name="KBLOCK">   100</i>
   <i type="int" name="NPACO">   256</i>
   <i name="APACO">     16.00000000</i>
  </separator>
  <separator name="symmetry" >
   <i type="int" name="ISYM">     0</i>
   <i name="SYMPREC">      0.00000001</i>
  </separator>
  <separator name="dos" >
   <i type="logical" name="LORBIT"> F  </i>
   <v name="RWIGS">     -1.00000000     -1.00000000     -1.00000000     -1.00000000</v>
   <i type="int" name="NEDOS">   301</i>
   <i name="EMIN">     10.00000000</i>
   <i name="EMAX">    -10.00000000</i>
   <i name="EFERMI">      0.00000000</i>
  </separator>
  <separator name="writing" >
   <i type="int" name="NWRITE">     2</i>
   <i type="logical" name="LWAVE"> F  </i>
   <i type="logical" name="LCHARG"> F  </i>
   <i type="logical" name="LPARD"> F  </i>
   <i type="logical" name="LVTOT"> F  </i>
   <i type="logical" name="LVHAR"> F  </i>
   <i type="logical" name="LELF"> F  </i>
   <i type="logical" name="LOPTICS"> F  </i>
   <v name="STM">      0.00000000      0.00000000      0.00000000      0.00000000      0.00000000      0.00000000      0.00000000</v>
  </separator>
  <separator name="performance" >
   <i type="int" name="NPAR">    40</i>
   <i type="int" name="NSIM">     4</i>
   <i type="int" name="NBLK">    -1</i>
   <i type="logical" name="LPLANE"> F  </i>
   <i type="logical" name="LSCALAPACK"> T  </i>
   <i type="logical" name="LSCAAWARE"> F  </i>
   <i type="logical" name="LSCALU"> F  </i>
   <i type="logical" name="LASYNC"> F  </i>
   <i type="logical" name="LORBITALREAL"> F  </i>
  </separator>
  <separator name="miscellaneous" >
   <i type="int" name="IDIOT">     3</i>
   <i type="logical" name="LMUSIC"> F  </i>
   <v name="POMASS">     50.94100000     95.94000000    183.85000000     32.06600000</v>
   <v name="DARWINR">      0.00000000      0.00000000      0.00000000      0.00000000</v>
   <v name="DARWINV">      1.00000000      1.00000000      1.00000000      1.00000000</v>
   <i type="logical" name="LCORR"> T  </i>
  </separator>
  <i type="logical" name="GGA_COMPAT"> T  </i>
  <i type="logical" name="LBERRY"> F  </i>
  <i type="int" name="ICORELEVEL">     0</i>
  <i type="logical" name="LDAU"> F  </i>
  <i type="int" name="I_CONSTRAINED_M">     0</i>
  <separator name="electronic exchange-correlation" >
   <i type="string" name="GGA">--</i>
   <i type="int" name="VOSKOWN">     0</i>
   <i type="logical" name="LHFCALC"> F  </i>
   <i type="string" name="PRECFOCK"></i>
   <i type="logical" name="LSYMGRAD"> F  </i>
   <i type="logical" name="LHFONE"> F  </i>
   <i type="logical" name="LRHFCALC"> F  </i>
   <i type="logical" name="LTHOMAS"> F  </i>
   <i type="logical" name="LMODELHF"> F  </i>
   <i name="ENCUT4O">     -1.00000000</i>
   <i type="int" name="EXXOEP">     0</i>
   <i type="int" name="FOURORBIT">     0</i>
   <i name="AEXX">      0.00000000</i>
   <i name="HFALPHA">      0.00000000</i>
   <i name="MCALPHA">      0.00000000</i>
   <i name="ALDAX">      1.00000000</i>
   <i name="AGGAX">      1.00000000</i>
   <i name="ALDAC">      1.00000000</i>
   <i name="AGGAC">      1.00000000</i>
   <i type="int" name="NKREDX">     1</i>
   <i type="int" name="NKREDY">     1</i>
   <i type="int" name="NKREDZ">     1</i>
   <i type="logical" name="SHIFTRED"> F  </i>
   <i type="logical" name="ODDONLY"> F  </i>
   <i type="logical" name="EVENONLY"> F  </i>
   <i type="int" name="LMAXFOCK">     0</i>
   <i type="int" name="NMAXFOCKAE">     0</i>
   <i type="logical" name="LFOCKAEDFT"> F  </i>
   <i name="HFSCREEN">      0.00000000</i>
   <i name="HFSCREENC">      0.00000000</i>
   <i type="int" name="NBANDSGWLOW">     0</i>
  </separator>
  <separator name="vdW DFT" >
   <i type="logical" name="LUSE_VDW"> F  </i>
   <i name="Zab_VDW">     -0.84910000</i>
   <i name="PARAM1">      0.12340000</i>
   <i name="PARAM2">      1.00000000</i>
   <i name="PARAM3">      0.00000000</i>
  </separator>
  <separator name="model GW" >
   <i type="int" name="MODEL_GW">     0</i>
   <i name="MODEL_EPS0">     58.26239943</i>
   <i name="MODEL_ALPHA">      1.00000000</i>
  </separator>
  <separator name="linear response parameters" >
   <i type="logical" name="LEPSILON"> F  </i>
   <i type="logical" name="LRPA"> F  </i>
   <i type="logical" name="LNABLA"> F  </i>
   <i type="logical" name="LVEL"> F  </i>
   <i type="int" name="KINTER">     0</i>
   <i name="CSHIFT">      0.10000000</i>
   <i name="OMEGAMAX">     -1.00000000</i>
   <i name="DEG_THRESHOLD">      0.00200000</i>
  </separator>
  <separator name="orbital magnetization" >
   <i type="logical" name="NUCIND"> F  </i>
   <v name="MAGPOS">      0.00000000      0.00000000      0.00000000</v>
   <i type="logical" name="LNICSALL"> T  </i>
   <i type="logical" name="ORBITALMAG"> F  </i>
   <i type="logical" name="LMAGBLOCH"> F  </i>
   <i type="logical" name="LCHIMAG"> F  </i>
   <i type="logical" name="LGAUGE"> T  </i>
   <i type="int" name="MAGATOM">     0</i>
   <v name="MAGDIPOL">      0.00000000      0.00000000      0.00000000</v>
   <v name="AVECCONST">      0.00000000      0.00000000      0.00000000</v>
  </separator>
  <separator name="response functions" >
   <i type="logical" name="LADDER"> F  </i>
   <i type="logical" name="LFXC"> F  </i>
   <i type="logical" name="LHARTREE"> T  </i>
   <i type="int" name="IBSE">     0</i>
   <v type="int" name="KPOINT">    -1     0     0     0</v>
   <i type="logical" name="LTCTE"> F  </i>
   <i type="logical" name="LTETE"> F  </i>
   <i type="logical" name="LTRIPLET"> F  </i>
   <i type="logical" name="LFXCEPS"> F  </i>
   <i type="logical" name="LFXHEG"> F  </i>
   <i type="int" name="NATURALO">     0</i>
   <i type="logical" name="L2ORDER"> F  </i>
   <i type="logical" name="LUSEW"> F  </i>
   <i name="ENCUTGW">     -2.00000000</i>
   <i name="ENCUTGWSOFT">     -2.00000000</i>
   <i name="ENCUTLF">     -1.00000000</i>
   <i type="int" name="LMAXMP2">    -1</i>
   <i name="SCISSOR">      0.00000000</i>
   <i type="int" name="NOMEGA">     0</i>
   <i type="int" name="NOMEGAR">     0</i>
   <i type="int" name="NBANDSGW">    -1</i>
   <i type="int" name="NBANDSO">    -1</i>
   <i type="int" name="NBANDSV">    -1</i>
   <i type="int" name="NELM">     1</i>
   <i type="int" name="NELMHF">     1</i>
   <i type="int" name="DIM">     3</i>
   <i type="int" name="ANTIRES">     0</i>
   <i name="OMEGAMAX">    -30.00000000</i>
   <i name="OMEGAMIN">    -30.00000000</i>
   <i name="OMEGATL">   -200.00000000</i>
   <i type="int" name="OMEGAGRID">     0</i>
   <i name="CSHIFT">     -0.10000000</i>
   <i type="logical" name="SELFENERGY"> F  </i>
   <i type="logical" name="LSPECTRAL"> F  </i>
   <i type="logical" name="LSPECTRALGW"> F  </i>
   <i type="logical" name="LSINGLES"> F  </i>
   <i type="logical" name="LFERMIGW"> F  </i>
   <i type="logical" name="ODDONLYGW"> F  </i>
   <i type="logical" name="EVENONLYGW"> F  </i>
   <i type="int" name="NKREDLFX">     1</i>
   <i type="int" name="NKREDLFY">     1</i>
   <i type="int" name="NKREDLFZ">     1</i>
   <i type="int" name="MAXMEM">  1800</i>
   <i type="int" name="TELESCOPE">     0</i>
   <i type="int" name="TAUPAR">     1</i>
   <i type="int" name="OMEGAPAR">    -1</i>
   <i name="LAMBDA">      1.00000000</i>
  </separator>
  <separator name="External order field" >
   <i name="OFIELD_KAPPA">      0.00000000</i>
   <v name="OFIELD_K">      0.00000000      0.00000000      0.00000000</v>
   <i name="OFIELD_Q6_NEAR">      0.00000000</i>
   <i name="OFIELD_Q6_FAR">      0.00000000</i>
   <i name="OFIELD_A">      0.00000000</i>
  </separator>
 </parameters>
 <atominfo>
  <atoms>      27 </atoms>
  <types>       4 </types>
  <array name="atoms" >
   <dimension dim="1">ion</dimension>
   <field type="string">element</field>
   <field type="int">atomtype</field>
   <set>
    <rc><c>V </c><c>   1</c></rc>
    <rc><c>V </c><c>   1</c></rc>
    <rc><c>V </c><c>   1</c></rc>
    <rc><c>Mo</c><c>   2</c></rc>
    <rc><c>Mo</c><c>   2</c></rc>
    <rc><c>Mo</c><c>   2</c></rc>
    <rc><c>W </c><c>   3</c></rc>
    <rc><c>W </c><c>   3</c></rc>
    <rc><c>W </c><c>   3</c></rc>
    <rc><c>S </c><c>   4</c></rc>
    <rc><c>S </c><c>   4</c></rc>
    <rc><c>S </c><c>   4</c></rc>
    <rc><c>S </c><c>   4</c></rc>
    <rc><c>S </c><c>   4</c></rc>
    <rc><c>S </c><c>   4</c></rc>
    <rc><c>S </c><c>   4</c></rc>
    <rc><c>S </c><c>   4</c></rc>
    <rc><c>S </c><c>   4</c></rc>
    <rc><c>S </c><c>   4</c></rc>
    <rc><c>S </c><c>   4</c></rc>
    <rc><c>S </c><c>   4</c></rc>
    <rc><c>S </c><c>   4</c></rc>
    <rc><c>S </c><c>   4</c></rc>
    <rc><c>S </c><c>   4</c></rc>
    <rc><c>S </c><c>   4</c></rc>
    <rc><c>S </c><c>   4</c></rc>
    <rc><c>S </c><c>   4</c></rc>
   </set>
  </array>
  <array name="atomtypes" >
   <dimension dim="1">type</dimension>
   <field type="int">atomspertype</field>
   <field type="string">element</field>
   <field>mass</field>
   <field>valence</field>
   <field type="string">pseudopotential</field>
   <set>
    <rc><c>   3</c><c>V </c><c>     50.94100000</c><c>      5.00000000</c><c> PAW_PBE V 08Apr2002                    </c></rc>
    <rc><c>   3</c><c>Mo</c><c>     95.94000000</c><c>      6.00000000</c><c> PAW_PBE Mo 08Apr2002                   </c></rc>
    <rc><c>   3</c><c>W </c><c>    183.85000000</c><c>      6.00000000</c><c> PAW_PBE W 08Apr2002                    </c></rc>
    <rc><c>  18</c><c>S </c><c>     32.06600000</c><c>      6.00000000</c><c>  PAW_PBE S 17Jan2003                   </c></rc>
   </set>
  </array>
 </atominfo>
 <structure name="initialpos" >
  <crystal>
   <varray name="basis" >
    <v>       8.66999996       5.03999989       0.00000000 </v>
    <v>      -8.66999982       5.04000013       0.00000000 </v>
    <v>       0.00000000       0.00000000      30.00000000 </v>
   </varray>
   <i name="volume">   2621.80797419 </i>
   <varray name="rec_basis" >
    <v>       0.05767013       0.09920635       0.00000000 </v>
    <v>      -0.05767013       0.09920635       0.00000000 </v>
    <v>       0.00000000       0.00000000       0.03333333 </v>
   </varray>
  </crystal>
  <varray name="positions" >
   <v>       0.66666669       0.66666669       0.00000000 </v>
   <v>       0.66666669       0.33333334       0.00000000 </v>
   <v>       0.33333334       0.00000000       0.00000000 </v>
   <v>       1.00000000       0.33333334       0.00000000 </v>
   <v>       0.33333334       0.66666669       0.00000000 </v>
   <v>       0.00000000       0.66666669       0.00000000 </v>
   <v>       0.00000000       0.00000000       0.00000000 </v>
   <v>       0.33333334       0.33333334       0.00000000 </v>
   <v>       0.66666669       0.00000000       0.00000000 </v>
   <v>       0.11068511       0.22244981       0.95539999 </v>
   <v>       0.22244981       0.11068511       0.04460000 </v>
   <v>       0.11068511       0.55578315       0.95539999 </v>
   <v>       0.22244981       0.44401845       0.04460000 </v>
   <v>       0.11068511       0.88911647       0.95539999 </v>
   <v>       0.22244981       0.77735180       0.04460000 </v>
   <v>       0.44401845       0.22244981       0.95539999 </v>
   <v>       0.55578315       0.11068511       0.04460000 </v>
   <v>       0.44401845       0.55578315       0.95539999 </v>
   <v>       0.55578315       0.44401845       0.04460000 </v>
   <v>       0.44401845       0.88911647       0.95539999 </v>
   <v>       0.55578315       0.77735180       0.04460000 </v>
   <v>       0.77735180       0.22244981       0.95539999 </v>
   <v>       0.88911647       0.11068511       0.04460000 </v>
   <v>       0.77735180       0.55578315       0.95539999 </v>
   <v>       0.88911647       0.44401845       0.04460000 </v>
   <v>       0.77735180       0.88911647       0.95539999 </v>
   <v>       0.88911647       0.77735180       0.04460000 </v>
  </varray>
 </structure>
 <calculation>
  <scstep>
   <time name="dav">   23.13   23.19</time>
   <time name="total">   23.18   23.24</time>
   <energy>
    <i name="alphaZ">     81.65567618 </i>
    <i name="ewald">  41890.23010356 </i>
    <i name="hartreedc"> -47722.85866334 </i>
    <i name="XCdc">   -242.92972254 </i>
    <i name="pawpsdc">   3467.42045192 </i>
    <i name="pawaedc">  -2871.19716117 </i>
    <i name="eentropy">     -0.55063923 </i>
    <i name="bandstr">   -239.15102477 </i>
    <i name="atom">   6761.44252427 </i>
    <i name="e_fr_energy">   1124.06154489 </i>
    <i name="e_wo_entrp">   1124.61218412 </i>
    <i name="e_0_energy">   1124.33686450 </i>
   </energy>
  </scstep>
  <scstep>
   <time name="dav">   29.67   29.74</time>
   <time name="total">   29.67   29.75</time>
   <energy>
    <i name="e_fr_energy">     -3.98845313 </i>
    <i name="e_wo_entrp">     -3.80675658 </i>
    <i name="e_0_energy">     -3.89760485 </i>
   </energy>
  </scstep>
  <scstep>
   <time name="dav">   29.36   29.44</time>
   <time name="total">   29.37   29.44</time>
   <energy>
    <i name="e_fr_energy">   -199.98471754 </i>
    <i name="e_wo_entrp">   -199.72259511 </i>
    <i name="e_0_energy">   -199.85365633 </i>
   </energy>
  </scstep>
  <scstep>
   <time name="dav">   31.64   31.72</time>
   <time name="total">   31.64   31.72</time>
   <energy>
    <i name="e_fr_energy">   -208.92991602 </i>
    <i name="e_wo_entrp">   -208.62131325 </i>
    <i name="e_0_energy">   -208.77561464 </i>
   </energy>
  </scstep>
  <scstep>
   <time name="dav">   30.92   31.00</time>
   <time name="total">   31.39   31.48</time>
   <energy>
    <i name="e_fr_energy">   -209.24893325 </i>
    <i name="e_wo_entrp">   -208.94364783 </i>
    <i name="e_0_energy">   -209.09629054 </i>
   </energy>
  </scstep>
  <scstep>
   <time name="dav">   33.30   33.38</time>
   <time name="total">   33.81   33.89</time>
   <energy>
    <i name="e_fr_energy">   -236.66755092 </i>
    <i name="e_wo_entrp">   -236.39286567 </i>
    <i name="e_0_energy">   -236.53020829 </i>
   </energy>
  </scstep>
  <scstep>
   <time name="dav">   33.59   33.67</time>
   <time name="total">   34.10   34.19</time>
   <energy>
    <i name="e_fr_energy">   -196.77298997 </i>
    <i name="e_wo_entrp">   -196.43151807 </i>
    <i name="e_0_energy">   -196.60225402 </i>
   </energy>
  </scstep>
  <scstep>
   <time name="dav">   30.77   30.84</time>
   <time name="total">   31.28   31.36</time>
   <energy>
    <i name="e_fr_energy">   -190.25939591 </i>
    <i name="e_wo_entrp">   -189.99208960 </i>
    <i name="e_0_energy">   -190.12574276 </i>
   </energy>
  </scstep>
  <scstep>
   <time name="dav">   31.35   31.43</time>
   <time name="total">   31.88   31.97</time>
   <energy>
    <i name="e_fr_energy">   -188.30992999 </i>
    <i name="e_wo_entrp">   -187.98077793 </i>
    <i name="e_0_energy">   -188.14535396 </i>
   </energy>
  </scstep>
  <scstep>
   <time name="dav">   34.38   34.46</time>
   <time name="total">   34.91   35.00</time>
   <energy>
    <i name="e_fr_energy">   -187.16712628 </i>
    <i name="e_wo_entrp">   -186.82506415 </i>
    <i name="e_0_energy">   -186.99609521 </i>
   </energy>
  </scstep>
  <scstep>
   <time name="dav">   32.93   33.01</time>
   <time name="total">   33.47   33.55</time>
   <energy>
    <i name="e_fr_energy">   -187.00256590 </i>
    <i name="e_wo_entrp">   -186.65370465 </i>
    <i name="e_0_energy">   -186.82813527 </i>
   </energy>
  </scstep>
  <scstep>
   <time name="dav">   34.10   34.18</time>
   <time name="total">   34.63   34.73</time>
   <energy>
    <i name="e_fr_energy">   -187.08894179 </i>
    <i name="e_wo_entrp">   -186.75569259 </i>
    <i name="e_0_energy">   -186.92231719 </i>
   </energy>
  </scstep>
  <scstep>
   <time name="dav">   33.88   33.96</time>
   <time name="total">   34.42   34.51</time>
   <energy>
    <i name="e_fr_energy">   -186.93913652 </i>
    <i name="e_wo_entrp">   -186.60333252 </i>
    <i name="e_0_energy">   -186.77123452 </i>
   </energy>
  </scstep>
  <scstep>
   <time name="dav">   34.32   34.40</time>
   <time name="total">   34.85   34.94</time>
   <energy>
    <i name="e_fr_energy">   -186.90616342 </i>
    <i name="e_wo_entrp">   -186.56557252 </i>
    <i name="e_0_energy">   -186.73586797 </i>
   </energy>
  </scstep>
  <scstep>
   <time name="dav">   33.36   33.44</time>
   <time name="total">   33.90   33.99</time>
   <energy>
    <i name="e_fr_energy">   -186.89834672 </i>
    <i name="e_wo_entrp">   -186.55531584 </i>
    <i name="e_0_energy">   -186.72683128 </i>
   </energy>
  </scstep>
  <scstep>
   <time name="dav">   33.39   33.47</time>
   <time name="total">   33.92   34.01</time>
   <energy>
    <i name="e_fr_energy">   -186.89083838 </i>
    <i name="e_wo_entrp">   -186.54732701 </i>
    <i name="e_0_energy">   -186.71908269 </i>
   </energy>
  </scstep>
  <scstep>
   <time name="dav">   33.84   33.92</time>
   <time name="total">   34.38   34.47</time>
   <energy>
    <i name="e_fr_energy">   -186.88866144 </i>
    <i name="e_wo_entrp">   -186.54622031 </i>
    <i name="e_0_energy">   -186.71744087 </i>
   </energy>
  </scstep>
  <scstep>
   <time name="dav">   33.30   33.38</time>
   <time name="total">   33.84   33.93</time>
   <energy>
    <i name="e_fr_energy">   -186.88764680 </i>
    <i name="e_wo_entrp">   -186.54626267 </i>
    <i name="e_0_energy">   -186.71695473 </i>
   </energy>
  </scstep>
  <scstep>
   <time name="dav">   30.35   30.42</time>
   <time name="total">   30.89   30.97</time>
   <energy>
    <i name="e_fr_energy">   -186.88733688 </i>
    <i name="e_wo_entrp">   -186.54535936 </i>
    <i name="e_0_energy">   -186.71634812 </i>
   </energy>
  </scstep>
  <scstep>
   <time name="dav">   24.95   25.01</time>
   <time name="total">   25.48   25.55</time>
   <energy>
    <i name="e_fr_energy">   -186.88809862 </i>
    <i name="e_wo_entrp">   -186.54645478 </i>
    <i name="e_0_energy">   -186.71727670 </i>
   </energy>
  </scstep>
  <scstep>
   <time name="dav">   23.44   23.50</time>
   <time name="total">   23.98   24.05</time>
   <energy>
    <i name="e_fr_energy">   -186.88866483 </i>
    <i name="e_wo_entrp">   -186.54695866 </i>
    <i name="e_0_energy">   -186.71781175 </i>
   </energy>
  </scstep>
  <scstep>
   <time name="dav">   21.78   21.83</time>
   <time name="total">   22.31   22.37</time>
   <energy>
    <i name="e_fr_energy">   -186.88979730 </i>
    <i name="e_wo_entrp">   -186.54804462 </i>
    <i name="e_0_energy">   -186.71892096 </i>
   </energy>
  </scstep>
  <scstep>
   <time name="dav">   21.70   21.75</time>
   <time name="total">   22.24   22.30</time>
   <energy>
    <i name="e_fr_energy">   -186.89104864 </i>
    <i name="e_wo_entrp">   -186.54941492 </i>
    <i name="e_0_energy">   -186.72023178 </i>
   </energy>
  </scstep>
  <scstep>
   <time name="dav">   20.24   20.29</time>
   <time name="total">   20.78   20.84</time>
   <energy>
    <i name="e_fr_energy">   -186.89161703 </i>
    <i name="e_wo_entrp">   -186.54994343 </i>
    <i name="e_0_energy">   -186.72078023 </i>
   </energy>
  </scstep>
  <scstep>
   <time name="dav">   17.48   17.52</time>
   <time name="total">   18.02   18.07</time>
   <energy>
    <i name="e_fr_energy">   -186.89200507 </i>
    <i name="e_wo_entrp">   -186.55029658 </i>
    <i name="e_0_energy">   -186.72115083 </i>
   </energy>
  </scstep>
  <scstep>
   <time name="dav">   20.25   20.30</time>
   <time name="total">   20.79   20.85</time>
   <energy>
    <i name="e_fr_energy">   -186.89224741 </i>
    <i name="e_wo_entrp">   -186.55055542 </i>
    <i name="e_0_energy">   -186.72140141 </i>
   </energy>
  </scstep>
  <scstep>
   <time name="dav">   21.33   21.39</time>
   <time name="total">   21.37   21.43</time>
   <energy>
    <i name="alphaZ">     81.65567618 </i>
    <i name="ewald">  41890.23010356 </i>
    <i name="hartreedc"> -47833.16453690 </i>
    <i name="XCdc">   -231.59853373 </i>
    <i name="pawpsdc">   4192.18468993 </i>
    <i name="pawaedc">  -3610.20930311 </i>
    <i name="eentropy">     -0.34169270 </i>
    <i name="bandstr">  -1437.09127415 </i>
    <i name="atom">   6761.44252427 </i>
    <i name="e_fr_energy">   -186.89234665 </i>
    <i name="e_wo_entrp">   -186.55065395 </i>
    <i name="e_0_energy">   -186.72150030 </i>
   </energy>
  </scstep>
  <structure>
   <crystal>
    <varray name="basis" >
     <v>       8.66999996       5.03999989       0.00000000 </v>
     <v>      -8.66999982       5.04000013       0.00000000 </v>
     <v>       0.00000000       0.00000000      30.00000000 </v>
    </varray>
    <i name="volume">   2621.80797419 </i>
    <varray name="rec_basis" >
     <v>       0.05767013       0.09920635       0.00000000 </v>
     <v>      -0.05767013       0.09920635       0.00000000 </v>
     <v>       0.00000000       0.00000000       0.03333333 </v>
    </varray>
   </crystal>
   <varray name="positions" >
    <v>       0.66666669       0.66666669       0.00000000 </v>
    <v>       0.66666669       0.33333334       0.00000000 </v>
    <v>       0.33333334       0.00000000       0.00000000 </v>
    <v>       1.00000000       0.33333334       0.00000000 </v>
    <v>       0.33333334       0.66666669       0.00000000 </v>
    <v>       0.00000000       0.66666669       0.00000000 </v>
    <v>       0.00000000       0.00000000       0.00000000 </v>
    <v>       0.33333334       0.33333334       0.00000000 </v>
    <v>       0.66666669       0.00000000       0.00000000 </v>
    <v>       0.11068511       0.22244981       0.95539999 </v>
    <v>       0.22244981       0.11068511       0.04460000 </v>
    <v>       0.11068511       0.55578315       0.95539999 </v>
    <v>       0.22244981       0.44401845       0.04460000 </v>
    <v>       0.11068511       0.88911647       0.95539999 </v>
    <v>       0.22244981       0.77735180       0.04460000 </v>
    <v>       0.44401845       0.22244981       0.95539999 </v>
    <v>       0.55578315       0.11068511       0.04460000 </v>
    <v>       0.44401845       0.55578315       0.95539999 </v>
    <v>       0.55578315       0.44401845       0.04460000 </v>
    <v>       0.44401845       0.88911647       0.95539999 </v>
    <v>       0.55578315       0.77735180       0.04460000 </v>
    <v>       0.77735180       0.22244981       0.95539999 </v>
    <v>       0.88911647       0.11068511       0.04460000 </v>
    <v>       0.77735180       0.55578315       0.95539999 </v>
    <v>       0.88911647       0.44401845       0.04460000 </v>
    <v>       0.77735180       0.88911647       0.95539999 </v>
    <v>       0.88911647       0.77735180       0.04460000 </v>
   </varray>
  </structure>
  <varray name="forces" >
   <v>       0.06919553      -0.02688822      -0.09371889 </v>
   <v>       0.14052414       0.32875870      -0.04207416 </v>
   <v>       0.20312229      -0.28124583       0.06784124 </v>
   <v>      -0.25976833       0.43324762       0.02784545 </v>
   <v>      -0.27401893      -0.44092860       0.14440814 </v>
   <v>       0.50719996      -0.04342082       0.00414301 </v>
   <v>       0.05566526      -0.01875606      -0.10016778 </v>
   <v>      -0.39527181       0.07724758      -0.06459723 </v>
   <v>      -0.10691120      -0.04340223       0.05590035 </v>
   <v>       0.27025786      -0.02576443      -2.90219604 </v>
   <v>       0.63659208       0.00518210       2.13557086 </v>
   <v>       0.11086790      -0.01592009      -2.94259204 </v>
   <v>       0.03544361       0.01041626       2.93873795 </v>
   <v>       0.34461048       0.69773172      -2.14025059 </v>
   <v>      -0.51636575       0.72156656       2.19348376 </v>
   <v>       0.73867474      -0.00665398      -1.40912977 </v>
   <v>      -0.73672456      -0.02165523       1.48691621 </v>
   <v>       0.64551031       0.56764232      -2.14944713 </v>
   <v>       0.24264456       0.52674744       1.41578416 </v>
   <v>      -0.65141800       0.15962905      -2.09131677 </v>
   <v>       0.64793914       0.14663661       2.06715604 </v>
   <v>      -0.64718958      -0.13808581      -2.10502509 </v>
   <v>      -0.07737842      -0.10676671       2.85799603 </v>
   <v>      -0.34205457      -0.67682860      -1.41887320 </v>
   <v>      -0.52316892      -0.69669461       2.17008739 </v>
   <v>       0.49316884      -0.58097316      -2.21740244 </v>
   <v>      -0.61114661      -0.55082159       2.11092055 </v>
  </varray>
  <varray name="stress" >
   <v>       7.34120931       0.09094672      -1.52157254 </v>
   <v>       0.09094688       4.43532303       0.04398579 </v>
   <v>      -1.52157253       0.04398554      30.27603945 </v>
  </varray>
  <energy>
   <i name="e_fr_energy">   -186.89234665 </i>
   <i name="e_wo_entrp">   -186.72150030 </i>
   <i name="e_0_energy">     -0.34169270 </i>
  </energy>
  <time name="totalsc">  834.84  837.07</time>
 </calculation>
 <calculation>
  <scstep>
   <time name="dav">   22.96   23.01</time>
   <time name="total">   23.51   23.56</time>
   <energy>
    <i name="alphaZ">     78.91638475 </i>
    <i name="ewald">  39378.04693055 </i>
    <i name="hartreedc"> -45335.61488529 </i>
    <i name="XCdc">   -239.05552886 </i>
    <i name="pawpsdc">   4192.16332807 </i>
    <i name="pawaedc">  -3610.18822296 </i>
    <i name="eentropy">     -0.28015099 </i>
    <i name="bandstr">  -1412.96275209 </i>
    <i name="atom">   6761.44252427 </i>
    <i name="e_fr_energy">   -187.53237256 </i>
    <i name="e_wo_entrp">   -187.25222157 </i>
    <i name="e_0_energy">   -187.39229707 </i>
   </energy>
  </scstep>
  <scstep>
   <time name="dav">   32.18   32.26</time>
   <time name="total">   32.72   32.80</time>
   <energy>
    <i name="e_fr_energy">   -189.53553933 </i>
    <i name="e_wo_entrp">   -189.20334072 </i>
    <i name="e_0_energy">   -189.36944002 </i>
   </energy>
  </scstep>
  <scstep>
   <time name="dav">   32.14   32.21</time>
   <time name="total">   32.69   32.78</time>
   <energy>
    <i name="e_fr_energy">   -189.35355155 </i>
    <i name="e_wo_entrp">   -189.08240249 </i>
    <i name="e_0_energy">   -189.21797702 </i>
   </energy>
  </scstep>
  <scstep>
   <time name="dav">   32.66   32.74</time>
   <time name="total">   33.21   33.29</time>
   <energy>
    <i name="e_fr_energy">   -188.78841958 </i>
    <i name="e_wo_entrp">   -188.50796845 </i>
    <i name="e_0_energy">   -188.64819401 </i>
   </energy>
  </scstep>
  <scstep>
   <time name="dav">   30.00   30.07</time>
   <time name="total">   30.55   30.63</time>
   <energy>
    <i name="e_fr_energy">   -188.85936612 </i>
    <i name="e_wo_entrp">   -188.57390679 </i>
    <i name="e_0_energy">   -188.71663646 </i>
   </energy>
  </scstep>
  <scstep>
   <time name="dav">   33.22   33.30</time>
   <time name="total">   33.77   33.86</time>
   <energy>
    <i name="e_fr_energy">   -188.77164811 </i>
    <i name="e_wo_entrp">   -188.49218772 </i>
    <i name="e_0_energy">   -188.63191791 </i>
   </energy>
  </scstep>
  <scstep>
   <time name="dav">   32.09   32.16</time>
   <time name="total">   32.63   32.72</time>
   <energy>
    <i name="e_fr_energy">   -188.72843218 </i>
    <i name="e_wo_entrp">   -188.44809052 </i>
    <i name="e_0_energy">   -188.58826135 </i>
   </energy>
  </scstep>
  <scstep>
   <time name="dav">   33.48   33.56</time>
   <time name="total">   34.03   34.12</time>
   <energy>
    <i name="e_fr_energy">   -188.71206450 </i>
    <i name="e_wo_entrp">   -188.43240296 </i>
    <i name="e_0_energy">   -188.57223373 </i>
   </energy>
  </scstep>
  <scstep>
   <time name="dav">   31.33   31.40</time>
   <time name="total">   31.88   31.96</time>
   <energy>
    <i name="e_fr_energy">   -188.70162619 </i>
    <i name="e_wo_entrp">   -188.42297630 </i>
    <i name="e_0_energy">   -188.56230125 </i>
   </energy>
  </scstep>
  <scstep>
   <time name="dav">   30.53   30.61</time>
   <time name="total">   31.08   31.17</time>
   <energy>
    <i name="e_fr_energy">   -188.70054930 </i>
    <i name="e_wo_entrp">   -188.42230654 </i>
    <i name="e_0_energy">   -188.56142792 </i>
   </energy>
  </scstep>
  <scstep>
   <time name="dav">   31.75   31.83</time>
   <time name="total">   32.30   32.39</time>
   <energy>
    <i name="e_fr_energy">   -188.70011154 </i>
    <i name="e_wo_entrp">   -188.42209792 </i>
    <i name="e_0_energy">   -188.56110473 </i>
   </energy>
  </scstep>
  <scstep>
   <time name="dav">   30.49   30.56</time>
   <time name="total">   31.04   31.12</time>
   <energy>
    <i name="e_fr_energy">   -188.70021174 </i>
    <i name="e_wo_entrp">   -188.42233353 </i>
    <i name="e_0_energy">   -188.56127263 </i>
   </energy>
  </scstep>
  <scstep>
   <time name="dav">   22.13   22.18</time>
   <time name="total">   22.17   22.23</time>
   <energy>
    <i name="alphaZ">     78.91638475 </i>
    <i name="ewald">  39378.04693055 </i>
    <i name="hartreedc"> -45346.34198625 </i>
    <i name="XCdc">   -237.96915435 </i>
    <i name="pawpsdc">   3950.51834893 </i>
    <i name="pawaedc">  -3365.03845250 </i>
    <i name="eentropy">     -0.27797949 </i>
    <i name="bandstr">  -1407.99677543 </i>
    <i name="atom">   6761.44252427 </i>
    <i name="e_fr_energy">   -188.70015951 </i>
    <i name="e_wo_entrp">   -188.42218002 </i>
    <i name="e_0_energy">   -188.56116976 </i>
   </energy>
  </scstep>
  <structure>
   <crystal>
    <varray name="basis" >
     <v>       8.85743935       5.10766561       0.00000000 </v>
     <v>      -8.85475877       5.10305486       0.00000000 </v>
     <v>       0.00000000       0.00000000      30.00000000 </v>
    </varray>
    <i name="volume">   2712.81437470 </i>
    <varray name="rec_basis" >
     <v>       0.05643278       0.09792147       0.00000000 </v>
     <v>      -0.05648376       0.09795111       0.00000000 </v>
     <v>       0.00000000       0.00000000       0.03333333 </v>
    </varray>
   </crystal>
   <varray name="positions" >
    <v>       0.66673051       0.66634549      -0.00015071 </v>
    <v>       0.66863108       0.33451581      -0.00006766 </v>
    <v>       0.33255243      -0.00191115       0.00010909 </v>
    <v>       1.00135080       0.33612957       0.00004478 </v>
    <v>       0.33046070       0.66531878       0.00023222 </v>
    <v>       0.00120330       0.66504776       0.00000666 </v>
    <v>       0.00006510      -0.00024464      -0.00016108 </v>
    <v>       0.33260334       0.33480276      -0.00010388 </v>
    <v>       0.66616152       0.00008972       0.00008989 </v>
    <v>       0.11131370       0.22157460       0.95073300 </v>
    <v>       0.22424571       0.10893881       0.04803419 </v>
    <v>       0.11091737       0.55539851       0.95066804 </v>
    <v>       0.22259827       0.44396970       0.04932575 </v>
    <v>       0.11498320       0.89149703       0.95195828 </v>
    <v>       0.22446660       0.78224181       0.04812731 </v>
    <v>       0.44604172       0.22036285       0.95313398 </v>
    <v>       0.55362983       0.11263115       0.04699109 </v>
    <v>       0.44853109       0.55670396       0.95194349 </v>
    <v>       0.55897923       0.44586438       0.04687670 </v>
    <v>       0.44297009       0.89169280       0.95203697 </v>
    <v>       0.55828762       0.77625093       0.04792417 </v>
    <v>       0.77489034       0.22358952       0.95201492 </v>
    <v>       0.88839020       0.11038941       0.04919591 </v>
    <v>       0.77316086       0.55349552       0.95311832 </v>
    <v>       0.88432656       0.44213963       0.04808969 </v>
    <v>       0.77594335       0.88496387       0.95183421 </v>
    <v>       0.88477994       0.77641588       0.04799455 </v>
   </varray>
  </structure>
  <varray name="forces" >
   <v>       0.00673830       0.06709820       0.03526117 </v>
   <v>       0.14716917       0.25645389      -0.09503420 </v>
   <v>       0.17241590      -0.25341288      -0.05350035 </v>
   <v>      -0.09313893       0.56663091       0.00161659 </v>
   <v>      -0.23132689      -0.62128437       0.03609271 </v>
   <v>       0.59316329       0.03232481       0.00475220 </v>
   <v>      -0.09725389      -0.00471722       0.05690853 </v>
   <v>      -0.52268339      -0.08979592      -0.10032390 </v>
   <v>       0.07875177       0.04123048       0.08587178 </v>
   <v>       0.08245179      -0.00423554      -0.03605597 </v>
   <v>      -0.07936903       0.01268880      -0.12409896 </v>
   <v>      -0.00810781       0.00867400      -0.34845274 </v>
   <v>       0.12516889       0.00532914       0.26870978 </v>
   <v>      -0.09752167       0.05164375       0.04952729 </v>
   <v>      -0.02397732       0.06159580       0.20483105 </v>
   <v>      -0.11166838       0.00232474       0.33608356 </v>
   <v>       0.09887652      -0.00134545      -0.13135509 </v>
   <v>       0.06374284      -0.05206306       0.02821190 </v>
   <v>      -0.05657545      -0.08040975      -0.16455061 </v>
   <v>       0.02746407       0.10154531       0.06337045 </v>
   <v>      -0.02801988       0.09868812      -0.11063089 </v>
   <v>       0.02159153      -0.10213189       0.03688939 </v>
   <v>       0.06787404      -0.08455931      -0.10841041 </v>
   <v>       0.01479291      -0.04246917       0.05030025 </v>
   <v>      -0.03928914      -0.06629033       0.15579084 </v>
   <v>      -0.04448429       0.04447261       0.01781999 </v>
   <v>      -0.06678496       0.05201432      -0.15962434 </v>
  </varray>
  <varray name="stress" >
   <v>     -19.90050007      -0.01668882       0.04265500 </v>
   <v>      -0.01668869     -19.46626557      -0.01657502 </v>
   <v>       0.04265495      -0.01657484      -1.75443410 </v>
  </varray>
  <energy>
   <i name="e_fr_energy">   -188.70015951 </i>
   <i name="e_wo_entrp">   -188.56116976 </i>
   <i name="e_0_energy">     -0.27797949 </i>
  </energy>
  <time name="totalsc">  446.05  447.22</time>
 </calculation>
 <calculation>
  <scstep>
   <time name="dav">   24.68   24.74</time>
   <time name="total">   25.22   25.29</time>
   <energy>
    <i name="alphaZ">     82.33632002 </i>
    <i name="ewald">  41299.00105994 </i>
    <i name="hartreedc"> -47297.73635151 </i>
    <i name="XCdc">   -233.85174000 </i>
    <i name="pawpsdc">   3949.79731966 </i>
    <i name="pawaedc">  -3364.31109040 </i>
    <i name="eentropy">     -0.23489479 </i>
    <i name="bandstr">  -1387.06603568 </i>
    <i name="atom">   6761.44252427 </i>
    <i name="e_fr_energy">   -190.62288850 </i>
    <i name="e_wo_entrp">   -190.38799370 </i>
    <i name="e_0_energy">   -190.50544110 </i>
   </energy>
  </scstep>
  <scstep>
   <time name="dav">   29.74   29.81</time>
   <time name="total">   30.27   30.35</time>
   <energy>
    <i name="e_fr_energy">   -190.57185493 </i>
    <i name="e_wo_entrp">   -190.33772525 </i>
    <i name="e_0_energy">   -190.45479009 </i>
   </energy>
  </scstep>
  <scstep>
   <time name="dav">   32.09   32.16</time>
   <time name="total">   32.62   32.70</time>
   <energy>
    <i name="e_fr_energy">   -190.10659818 </i>
    <i name="e_wo_entrp">   -189.85626828 </i>
    <i name="e_0_energy">   -189.98143323 </i>
   </energy>
  </scstep>
  <scstep>
   <time name="dav">   33.04   33.12</time>
   <time name="total">   33.58   33.67</time>
   <energy>
    <i name="e_fr_energy">   -189.89858193 </i>
    <i name="e_wo_entrp">   -189.66507317 </i>
    <i name="e_0_energy">   -189.78182755 </i>
   </energy>
  </scstep>
  <scstep>
   <time name="dav">   31.93   32.00</time>
   <time name="total">   32.46   32.55</time>
   <energy>
    <i name="e_fr_energy">   -189.87853745 </i>
    <i name="e_wo_entrp">   -189.63994545 </i>
    <i name="e_0_energy">   -189.75924145 </i>
   </energy>
  </scstep>
  <scstep>
   <time name="dav">   32.50   32.58</time>
   <time name="total">   33.04   33.12</time>
   <energy>
    <i name="e_fr_energy">   -189.80047672 </i>
    <i name="e_wo_entrp">   -189.56319145 </i>
    <i name="e_0_energy">   -189.68183408 </i>
   </energy>
  </scstep>
  <scstep>
   <time name="dav">   30.45   30.52</time>
   <time name="total">   30.99   31.07</time>
   <energy>
    <i name="e_fr_energy">   -189.79360553 </i>
    <i name="e_wo_entrp">   -189.55704392 </i>
    <i name="e_0_energy">   -189.67532472 </i>
   </energy>
  </scstep>
  <scstep>
   <time name="dav">   29.70   29.77</time>
   <time name="total">   30.24   30.32</time>
   <energy>
    <i name="e_fr_energy">   -189.79372371 </i>
    <i name="e_wo_entrp">   -189.55704363 </i>
    <i name="e_0_energy">   -189.67538367 </i>
   </energy>
  </scstep>
  <scstep>
   <time name="dav">   28.23   28.30</time>
   <time name="total">   28.77   28.85</time>
   <energy>
    <i name="e_fr_energy">   -189.79389377 </i>
    <i name="e_wo_entrp">   -189.55722265 </i>
    <i name="e_0_energy">   -189.67555821 </i>
   </energy>
  </scstep>
  <scstep>
   <time name="dav">   26.91   26.97</time>
   <time name="total">   27.44   27.52</time>
   <energy>
    <i name="e_fr_energy">   -189.79399938 </i>
    <i name="e_wo_entrp">   -189.55735972 </i>
    <i name="e_0_energy">   -189.67567955 </i>
   </energy>
  </scstep>
  <scstep>
   <time name="dav">   24.82   24.88</time>
   <time name="total">   25.36   25.43</time>
   <energy>
    <i name="e_fr_energy">   -189.79365391 </i>
    <i name="e_wo_entrp">   -189.55689534 </i>
    <i name="e_0_energy">   -189.67527462 </i>
   </energy>
  </scstep>
  <scstep>
   <time name="dav">   20.61   20.66</time>
   <time name="total">   20.65   20.71</time>
   <energy>
    <i name="alphaZ">     82.33632002 </i>
    <i name="ewald">  41299.00105994 </i>
    <i name="hartreedc"> -47271.29150496 </i>
    <i name="XCdc">   -235.24075446 </i>
    <i name="pawpsdc">   4038.90566986 </i>
    <i name="pawaedc">  -3454.62059289 </i>
    <i name="eentropy">     -0.23675310 </i>
    <i name="bandstr">  -1410.08965078 </i>
    <i name="atom">   6761.44252427 </i>
    <i name="e_fr_energy">   -189.79368210 </i>
    <i name="e_wo_entrp">   -189.55692900 </i>
    <i name="e_0_energy">   -189.67530555 </i>
   </energy>
  </scstep>
  <structure>
   <crystal>
    <varray name="basis" >
     <v>       8.66939517       5.00148919       0.00000000 </v>
     <v>      -8.66695317       4.99728934       0.00000000 </v>
     <v>       0.00000000       0.00000000      30.00000000 </v>
    </varray>
    <i name="volume">   2600.13445933 </i>
    <varray name="rec_basis" >
     <v>       0.05765805       0.09999813       0.00000000 </v>
     <v>      -0.05770651       0.10002631       0.00000000 </v>
     <v>       0.00000000       0.00000000       0.03333333 </v>
    </varray>
   </crystal>
   <varray name="positions" >
    <v>       0.66684870       0.66645077      -0.00013072 </v>
    <v>       0.66919929       0.33480159      -0.00012152 </v>
    <v>       0.33229594      -0.00249880       0.00007877 </v>
    <v>       1.00220486       0.33716274       0.00004569 </v>
    <v>       0.32920431       0.66450620       0.00025268 </v>
    <v>       0.00182629       0.66453192       0.00000936 </v>
    <v>      -0.00003607      -0.00015909      -0.00012882 </v>
    <v>       0.33195229       0.33515519      -0.00016074 </v>
    <v>       0.66630573       0.00008276       0.00013856 </v>
    <v>       0.11138577       0.22148836       0.95071257 </v>
    <v>       0.22419068       0.10903617       0.04796385 </v>
    <v>       0.11092403       0.55542074       0.95047055 </v>
    <v>       0.22272725       0.44385836       0.04947805 </v>
    <v>       0.11497561       0.89167671       0.95198635 </v>
    <v>       0.22454615       0.78236743       0.04824341 </v>
    <v>       0.44593844       0.22047397       0.95332447 </v>
    <v>       0.55372246       0.11253395       0.04691664 </v>
    <v>       0.44850557       0.55655603       0.95195948 </v>
    <v>       0.55879106       0.44578479       0.04678344 </v>
    <v>       0.44316551       0.89183554       0.95207288 </v>
    <v>       0.55842505       0.77644220       0.04786147 </v>
    <v>       0.77474101       0.22339868       0.95203583 </v>
    <v>       0.88831454       0.11018339       0.04913446 </v>
    <v>       0.77310434       0.55341058       0.95314683 </v>
    <v>       0.88417849       0.44206696       0.04817799 </v>
    <v>       0.77597471       0.88508066       0.95184431 </v>
    <v>       0.88480246       0.77656665       0.04790407 </v>
   </varray>
  </structure>
  <varray name="forces" >
   <v>      -0.03162732       0.11307899       0.05602699 </v>
   <v>       0.16189784       0.23879648      -0.08561509 </v>
   <v>       0.16182894      -0.26797886      -0.07165862 </v>
   <v>      -0.02954782       0.59066525      -0.00386568 </v>
   <v>      -0.21556144      -0.66169206       0.00135822 </v>
   <v>       0.59925643       0.06122139       0.00910323 </v>
   <v>      -0.15053843      -0.00006099       0.07675715 </v>
   <v>      -0.56331719      -0.15176385      -0.08286797 </v>
   <v>       0.14653426       0.06134500       0.06342753 </v>
   <v>      -0.00591865      -0.01302269      -0.60128566 </v>
   <v>       0.06091413       0.02774874       0.37023917 </v>
   <v>      -0.00655137       0.01291479      -0.91582627 </v>
   <v>       0.04306653       0.00466410       0.85488316 </v>
   <v>       0.02555869       0.09691529      -0.43867040 </v>
   <v>      -0.06359363       0.11765311       0.71848890 </v>
   <v>       0.03393610       0.00196964      -0.09700297 </v>
   <v>      -0.07280209       0.00414041       0.32973543 </v>
   <v>       0.03425137       0.08746945      -0.47031752 </v>
   <v>       0.01837974       0.03643147       0.27880241 </v>
   <v>      -0.06557458       0.02200092      -0.41396303 </v>
   <v>       0.07433752       0.00802957       0.36770802 </v>
   <v>      -0.07457313      -0.02257157      -0.44894329 </v>
   <v>       0.01957855      -0.00099541       0.43371988 </v>
   <v>      -0.01372027      -0.08402199      -0.39612606 </v>
   <v>      -0.07467106      -0.12555658       0.65537299 </v>
   <v>       0.02560172      -0.08156280      -0.50498851 </v>
   <v>      -0.03714483      -0.07581780       0.31550802 </v>
  </varray>
  <varray name="stress" >
   <v>     -10.14894631      -0.01584381       0.01867493 </v>
   <v>      -0.01584368      -9.81705300      -0.02870251 </v>
   <v>       0.01867486      -0.02870241       6.47752779 </v>
  </varray>
  <energy>
   <i name="e_fr_energy">   -189.79368210 </i>
   <i name="e_wo_entrp">   -189.67530555 </i>
   <i name="e_0_energy">     -0.23675310 </i>
  </energy>
  <time name="totalsc">  395.35  396.40</time>
 </calculation>
 <calculation>
  <scstep>
   <time name="dav">   22.98   23.03</time>
   <time name="total">   23.51   23.57</time>
   <energy>
    <i name="alphaZ">     85.80757383 </i>
    <i name="ewald">  42828.10142007 </i>
    <i name="hartreedc"> -48844.72637061 </i>
    <i name="XCdc">   -232.95558005 </i>
    <i name="pawpsdc">   4038.95072342 </i>
    <i name="pawaedc">  -3454.66366523 </i>
    <i name="eentropy">     -0.20505462 </i>
    <i name="bandstr">  -1373.11868688 </i>
    <i name="atom">   6761.44252427 </i>
    <i name="e_fr_energy">   -191.36711580 </i>
    <i name="e_wo_entrp">   -191.16206118 </i>
    <i name="e_0_energy">   -191.26458849 </i>
   </energy>
  </scstep>
  <scstep>
   <time name="dav">   33.98   34.06</time>
   <time name="total">   34.50   34.59</time>
   <energy>
    <i name="e_fr_energy">   -191.20443434 </i>
    <i name="e_wo_entrp">   -190.99938662 </i>
    <i name="e_0_energy">   -191.10191048 </i>
   </energy>
  </scstep>
  <scstep>
   <time name="dav">   31.75   31.83</time>
   <time name="total">   32.27   32.35</time>
   <energy>
    <i name="e_fr_energy">   -191.30986607 </i>
    <i name="e_wo_entrp">   -191.08163953 </i>
    <i name="e_0_energy">   -191.19575280 </i>
   </energy>
  </scstep>
  <scstep>
   <time name="dav">   32.32   32.40</time>
   <time name="total">   32.84   32.93</time>
   <energy>
    <i name="e_fr_energy">   -190.93680071 </i>
    <i name="e_wo_entrp">   -190.72854691 </i>
    <i name="e_0_energy">   -190.83267381 </i>
   </energy>
  </scstep>
  <scstep>
   <time name="dav">   32.45   32.53</time>
   <time name="total">   32.98   33.06</time>
   <energy>
    <i name="e_fr_energy">   -190.88888510 </i>
    <i name="e_wo_entrp">   -190.68189213 </i>
    <i name="e_0_energy">   -190.78538862 </i>
   </energy>
  </scstep>
  <scstep>
   <time name="dav">   31.80   31.88</time>
   <time name="total">   32.32   32.41</time>
   <energy>
    <i name="e_fr_energy">   -190.80490126 </i>
    <i name="e_wo_entrp">   -190.59421985 </i>
    <i name="e_0_energy">   -190.69956055 </i>
   </energy>
  </scstep>
  <scstep>
   <time name="dav">   32.89   32.97</time>
   <time name="total">   33.42   33.50</time>
   <energy>
    <i name="e_fr_energy">   -190.79013282 </i>
    <i name="e_wo_entrp">   -190.58032192 </i>
    <i name="e_0_energy">   -190.68522737 </i>
   </energy>
  </scstep>
  <scstep>
   <time name="dav">   27.26   27.32</time>
   <time name="total">   27.78   27.85</time>
   <energy>
    <i name="e_fr_energy">   -190.78755942 </i>
    <i name="e_wo_entrp">   -190.57790494 </i>
    <i name="e_0_energy">   -190.68273218 </i>
   </energy>
  </scstep>
  <scstep>
   <time name="dav">   30.65   30.72</time>
   <time name="total">   31.18   31.26</time>
   <energy>
    <i name="e_fr_energy">   -190.78790502 </i>
    <i name="e_wo_entrp">   -190.57823203 </i>
    <i name="e_0_energy">   -190.68306853 </i>
   </energy>
  </scstep>
  <scstep>
   <time name="dav">   29.27   29.34</time>
   <time name="total">   29.79   29.87</time>
   <energy>
    <i name="e_fr_energy">   -190.78766808 </i>
    <i name="e_wo_entrp">   -190.57798814 </i>
    <i name="e_0_energy">   -190.68282811 </i>
   </energy>
  </scstep>
  <scstep>
   <time name="dav">   24.97   25.02</time>
   <time name="total">   25.49   25.56</time>
   <energy>
    <i name="e_fr_energy">   -190.78756095 </i>
    <i name="e_wo_entrp">   -190.57788059 </i>
    <i name="e_0_energy">   -190.68272077 </i>
   </energy>
  </scstep>
  <scstep>
   <time name="dav">   21.21   21.26</time>
   <time name="total">   21.25   21.31</time>
   <energy>
    <i name="alphaZ">     85.80757383 </i>
    <i name="ewald">  42828.10142007 </i>
    <i name="hartreedc"> -48816.22474571 </i>
    <i name="XCdc">   -234.28211446 </i>
    <i name="pawpsdc">   4064.15128378 </i>
    <i name="pawaedc">  -3480.04765971 </i>
    <i name="eentropy">     -0.20972214 </i>
    <i name="bandstr">  -1399.52611843 </i>
    <i name="atom">   6761.44252427 </i>
    <i name="e_fr_energy">   -190.78755849 </i>
    <i name="e_wo_entrp">   -190.57783635 </i>
    <i name="e_0_energy">   -190.68269742 </i>
   </energy>
  </scstep>
  <structure>
   <crystal>
    <varray name="basis" >
     <v>       8.48751635       4.90135790       0.00000000 </v>
     <v>      -8.48568132       4.89820543       0.00000000 </v>
     <v>       0.00000000       0.00000000      30.00000000 </v>
    </varray>
    <i name="volume">   2494.94879518 </i>
    <varray name="rec_basis" >
     <v>       0.05889747       0.10203433       0.00000000 </v>
     <v>      -0.05893537       0.10205640       0.00000000 </v>
     <v>       0.00000000       0.00000000       0.03333333 </v>
    </varray>
   </crystal>
   <varray name="positions" >
    <v>       0.66750224       0.66744346       0.00000289 </v>
    <v>       0.67125688       0.33564716      -0.00029076 </v>
    <v>       0.33115049      -0.00478383      -0.00008499 </v>
    <v>       1.00594902       0.34093859       0.00003304 </v>
    <v>       0.32420315       0.66101643       0.00022600 </v>
    <v>       0.00445514       0.66281246       0.00003190 </v>
    <v>      -0.00064519       0.00047301       0.00004693 </v>
    <v>       0.32875402       0.33614466      -0.00031747 </v>
    <v>       0.66736685      -0.00010997       0.00025081 </v>
    <v>       0.11113389       0.22153338       0.94898791 </v>
    <v>       0.22482371       0.10882556       0.04915001 </v>
    <v>       0.11099407       0.55553368       0.94809291 </v>
    <v>       0.22279235       0.44384835       0.05174548 </v>
    <v>       0.11596477       0.89212737       0.95066373 </v>
    <v>       0.22513621       0.78353127       0.05016692 </v>
    <v>       0.44628176       0.22015327       0.95275596 </v>
    <v>       0.55325235       0.11308375       0.04799073 </v>
    <v>       0.44948276       0.55737075       0.95056258 </v>
    <v>       0.55948478       0.44613026       0.04773703 </v>
    <v>       0.44273433       0.89214583       0.95081064 </v>
    <v>       0.55866487       0.77585034       0.04902880 </v>
    <v>       0.77439047       0.22386369       0.95069396 </v>
    <v>       0.88851802       0.11038433       0.05049262 </v>
    <v>       0.77238391       0.55287113       0.95194775 </v>
    <v>       0.88292369       0.44145332       0.04995889 </v>
    <v>       0.77534272       0.88406184       0.95035502 </v>
    <v>       0.88391719       0.77586437       0.04896063 </v>
   </varray>
  </structure>
  <varray name="forces" >
   <v>      -0.05211279       0.18012698       0.06150547 </v>
   <v>       0.15896040       0.19647327      -0.03782399 </v>
   <v>       0.17250837      -0.26176009      -0.07243794 </v>
   <v>       0.04918733       0.57251958      -0.00527970 </v>
   <v>      -0.18686119      -0.64812390      -0.03098412 </v>
   <v>       0.56196343       0.07020613       0.02780140 </v>
   <v>      -0.20826637      -0.00691506       0.05005876 </v>
   <v>      -0.57686733      -0.16604590      -0.02891427 </v>
   <v>       0.19387268       0.06736717       0.01243147 </v>
   <v>      -0.07880152      -0.02409546      -0.45981001 </v>
   <v>       0.00665564       0.04265490       0.21035563 </v>
   <v>      -0.00090502      -0.00361187      -0.71396828 </v>
   <v>      -0.04864458       0.01407675       0.68150433 </v>
   <v>       0.03297127      -0.02180104      -0.26279409 </v>
   <v>       0.01275983       0.00088895       0.55721181 </v>
   <v>      -0.04051361      -0.00219091      -0.02256743 </v>
   <v>      -0.03863391       0.01118827       0.23367476 </v>
   <v>      -0.06387349       0.01079499      -0.30065234 </v>
   <v>      -0.02187850      -0.02388096       0.13925193 </v>
   <v>       0.03439710      -0.05020639      -0.21545849 </v>
   <v>      -0.03400079      -0.08689352       0.21221190 </v>
   <v>       0.01827961       0.05811319      -0.27422077 </v>
   <v>      -0.06585462       0.09287984       0.30097059 </v>
   <v>       0.04715382       0.03399590      -0.30903361 </v>
   <v>       0.00662320       0.00388082       0.46043189 </v>
   <v>       0.03324466      -0.03959198      -0.39409226 </v>
   <v>       0.08863641      -0.02004967       0.18062736 </v>
  </varray>
  <varray name="stress" >
   <v>      -5.71931824       0.07398943      -0.07246186 </v>
   <v>       0.07398929      -5.65909836       0.07557305 </v>
   <v>      -0.07246204       0.07557320       4.48139987 </v>
  </varray>
  <energy>
   <i name="e_fr_energy">   -190.78755849 </i>
   <i name="e_wo_entrp">   -190.68269742 </i>
   <i name="e_0_energy">     -0.20972214 </i>
  </energy>
  <time name="totalsc">  401.58  402.64</time>
 </calculation>
 <calculation>
  <scstep>
   <time name="dav">   22.96   23.02</time>
   <time name="total">   23.47   23.54</time>
   <energy>
    <i name="alphaZ">     90.07603296 </i>
    <i name="ewald">  44620.17566882 </i>
    <i name="hartreedc"> -50662.64543524 </i>
    <i name="XCdc">   -231.89144138 </i>
    <i name="pawpsdc">   4064.09552958 </i>
    <i name="pawaedc">  -3479.98799924 </i>
    <i name="eentropy">     -0.20285261 </i>
    <i name="bandstr">  -1353.16249610 </i>
    <i name="atom">   6761.44252427 </i>
    <i name="e_fr_energy">   -192.10046894 </i>
    <i name="e_wo_entrp">   -191.89761634 </i>
    <i name="e_0_energy">   -191.99904264 </i>
   </energy>
  </scstep>
  <scstep>
   <time name="dav">   30.12   30.19</time>
   <time name="total">   30.62   30.71</time>
   <energy>
    <i name="e_fr_energy">   -191.86540394 </i>
    <i name="e_wo_entrp">   -191.65679751 </i>
    <i name="e_0_energy">   -191.76110072 </i>
   </energy>
  </scstep>
  <scstep>
   <time name="dav">   29.55   29.62</time>
   <time name="total">   30.06   30.14</time>
   <energy>
    <i name="e_fr_energy">   -192.06775707 </i>
    <i name="e_wo_entrp">   -191.84785822 </i>
    <i name="e_0_energy">   -191.95780764 </i>
   </energy>
  </scstep>
  <scstep>
   <time name="dav">   30.11   30.19</time>
   <time name="total">   30.62   30.70</time>
   <energy>
    <i name="e_fr_energy">   -191.74860885 </i>
    <i name="e_wo_entrp">   -191.53390553 </i>
    <i name="e_0_energy">   -191.64125719 </i>
   </energy>
  </scstep>
  <scstep>
   <time name="dav">   32.08   32.15</time>
   <time name="total">   32.59   32.68</time>
   <energy>
    <i name="e_fr_energy">   -191.57271895 </i>
    <i name="e_wo_entrp">   -191.37314166 </i>
    <i name="e_0_energy">   -191.47293031 </i>
   </energy>
  </scstep>
  <scstep>
   <time name="dav">   31.86   31.93</time>
   <time name="total">   32.37   32.45</time>
   <energy>
    <i name="e_fr_energy">   -191.44748512 </i>
    <i name="e_wo_entrp">   -191.23509486 </i>
    <i name="e_0_energy">   -191.34128999 </i>
   </energy>
  </scstep>
  <scstep>
   <time name="dav">   31.88   31.95</time>
   <time name="total">   32.39   32.48</time>
   <energy>
    <i name="e_fr_energy">   -191.43313644 </i>
    <i name="e_wo_entrp">   -191.22260406 </i>
    <i name="e_0_energy">   -191.32787025 </i>
   </energy>
  </scstep>
  <scstep>
   <time name="dav">   28.53   28.60</time>
   <time name="total">   29.03   29.11</time>
   <energy>
    <i name="e_fr_energy">   -191.42893351 </i>
    <i name="e_wo_entrp">   -191.21860826 </i>
    <i name="e_0_energy">   -191.32377089 </i>
   </energy>
  </scstep>
  <scstep>
   <time name="dav">   32.81   32.89</time>
   <time name="total">   33.32   33.41</time>
   <energy>
    <i name="e_fr_energy">   -191.43046164 </i>
    <i name="e_wo_entrp">   -191.22035499 </i>
    <i name="e_0_energy">   -191.32540832 </i>
   </energy>
  </scstep>
  <scstep>
   <time name="dav">   29.53   29.60</time>
   <time name="total">   30.04   30.12</time>
   <energy>
    <i name="e_fr_energy">   -191.42886822 </i>
    <i name="e_wo_entrp">   -191.21833139 </i>
    <i name="e_0_energy">   -191.32359981 </i>
   </energy>
  </scstep>
  <scstep>
   <time name="dav">   25.32   25.38</time>
   <time name="total">   25.36   25.42</time>
   <energy>
    <i name="alphaZ">     90.07603296 </i>
    <i name="ewald">  44620.17566882 </i>
    <i name="hartreedc"> -50629.42427705 </i>
    <i name="XCdc">   -233.38241777 </i>
    <i name="pawpsdc">   4085.23007455 </i>
    <i name="pawaedc">  -3501.21733381 </i>
    <i name="eentropy">     -0.21048941 </i>
    <i name="bandstr">  -1384.11871966 </i>
    <i name="atom">   6761.44252427 </i>
    <i name="e_fr_energy">   -191.42893710 </i>
    <i name="e_wo_entrp">   -191.21844769 </i>
    <i name="e_0_energy">   -191.32369240 </i>
   </energy>
  </scstep>
  <structure>
   <crystal>
    <varray name="basis" >
     <v>       8.28430460       4.78849781       0.00000000 </v>
     <v>      -8.27829796       4.77811814       0.00000000 </v>
     <v>       0.00000000       0.00000000      30.00000000 </v>
    </varray>
    <i name="volume">   2376.71993210 </i>
    <varray name="rec_basis" >
     <v>       0.06031150       0.10449230       0.00000000 </v>
     <v>      -0.06044252       0.10456812       0.00000000 </v>
     <v>       0.00000000       0.00000000       0.03333333 </v>
    </varray>
   </crystal>
   <varray name="positions" >
    <v>       0.66930782       0.67006994       0.00026440 </v>
    <v>       0.67481519       0.33691526      -0.00045707 </v>
    <v>       0.32909503      -0.00921243      -0.00038987 </v>
    <v>       1.01339917       0.34763874       0.00000750 </v>
    <v>       0.31485268       0.65429628       0.00008634 </v>
    <v>       0.00937602       0.65973515       0.00013666 </v>
    <v>      -0.00220246       0.00191178       0.00027906 </v>
    <v>       0.32246656       0.33808178      -0.00044385 </v>
    <v>       0.66966504      -0.00067241       0.00030534 </v>
    <v>       0.11020330       0.22186347       0.94653925 </v>
    <v>       0.22569031       0.10903510       0.05054895 </v>
    <v>       0.11098012       0.55553807       0.94460092 </v>
    <v>       0.22255662       0.44439274       0.05511174 </v>
    <v>       0.11644992       0.89175853       0.94905405 </v>
    <v>       0.22545085       0.78394138       0.05296287 </v>
    <v>       0.44628546       0.22010774       0.95220728 </v>
    <v>       0.55280687       0.11381045       0.04941638 </v>
    <v>       0.44973297       0.55843063       0.94879580 </v>
    <v>       0.55963287       0.44626379       0.04879342 </v>
    <v>       0.44200917       0.89143162       0.94938755 </v>
    <v>       0.55753543       0.77465746       0.05041729 </v>
    <v>       0.77507529       0.22478337       0.94904180 </v>
    <v>       0.88927205       0.11206181       0.05228344 </v>
    <v>       0.77271307       0.55274588       0.95024175 </v>
    <v>       0.88250100       0.44120772       0.05237459 </v>
    <v>       0.77477404       0.88280951       0.94822462 </v>
    <v>       0.88377006       0.77461110       0.05020969 </v>
   </varray>
  </structure>
  <varray name="forces" >
   <v>      -0.01166764       0.25703959      -0.01510409 </v>
   <v>       0.14957245       0.16677232      -0.00351593 </v>
   <v>       0.21123273      -0.22900337       0.02397223 </v>
   <v>       0.12458462       0.00184750      -0.05156378 </v>
   <v>      -0.05742140      -0.08392892       0.02578219 </v>
   <v>       0.15901116       0.00366004      -0.03672305 </v>
   <v>      -0.32371169      -0.00377591      -0.02501601 </v>
   <v>      -0.35609669      -0.13652019       0.06481586 </v>
   <v>       0.20093864       0.11730168       0.00858785 </v>
   <v>      -0.11929682      -0.04534724      -0.17485845 </v>
   <v>      -0.07739994       0.03306464      -0.07155084 </v>
   <v>       0.00077138      -0.06168893      -0.24957879 </v>
   <v>      -0.08222607       0.03591961       0.25481686 </v>
   <v>      -0.01308024      -0.14566823       0.07980686 </v>
   <v>       0.10381370      -0.07881965       0.14408374 </v>
   <v>      -0.17838468      -0.02597994       0.19630419 </v>
   <v>       0.04107585      -0.00010967      -0.03572115 </v>
   <v>      -0.15914207      -0.08732968       0.03106493 </v>
   <v>      -0.07618939      -0.08997745      -0.13290796 </v>
   <v>       0.17185445      -0.12248415       0.06825834 </v>
   <v>      -0.15202101      -0.16485172      -0.09361681 </v>
   <v>       0.13648339       0.11518712       0.02059887 </v>
   <v>      -0.12448216       0.16190523       0.07817301 </v>
   <v>       0.06626834       0.14406809       0.00854273 </v>
   <v>       0.12827706       0.11985793       0.08555228 </v>
   <v>       0.03318859       0.02543423      -0.14384555 </v>
   <v>       0.20404745       0.09342705      -0.05635754 </v>
  </varray>
  <varray name="stress" >
   <v>       0.01705290       0.24351712       0.02345299 </v>
   <v>       0.24351719       0.27385390       0.34794934 </v>
   <v>       0.02345302       0.34794936      -0.71579850 </v>
  </varray>
  <energy>
   <i name="e_fr_energy">   -191.42893710 </i>
   <i name="e_wo_entrp">   -191.32369240 </i>
   <i name="e_0_energy">     -0.21048941 </i>
  </energy>
  <time name="totalsc">  374.21  375.21</time>
 </calculation>
 <calculation>
  <scstep>
   <time name="dav">   22.96   23.01</time>
   <time name="total">   23.47   23.53</time>
   <energy>
    <i name="alphaZ">     89.98740848 </i>
    <i name="ewald">  44566.88203745 </i>
    <i name="hartreedc"> -50575.75122687 </i>
    <i name="XCdc">   -233.49958964 </i>
    <i name="pawpsdc">   4085.39404762 </i>
    <i name="pawaedc">  -3501.37858490 </i>
    <i name="eentropy">     -0.21356169 </i>
    <i name="bandstr">  -1384.34109929 </i>
    <i name="atom">   6761.44252427 </i>
    <i name="e_fr_energy">   -191.47804457 </i>
    <i name="e_wo_entrp">   -191.26448288 </i>
    <i name="e_0_energy">   -191.37126373 </i>
   </energy>
  </scstep>
  <scstep>
   <time name="dav">   33.64   33.72</time>
   <time name="total">   34.15   34.24</time>
   <energy>
    <i name="e_fr_energy">   -191.53086708 </i>
    <i name="e_wo_entrp">   -191.30745672 </i>
    <i name="e_0_energy">   -191.41916190 </i>
   </energy>
  </scstep>
  <scstep>
   <time name="dav">   32.21   32.29</time>
   <time name="total">   32.72   32.81</time>
   <energy>
    <i name="e_fr_energy">   -191.48880240 </i>
    <i name="e_wo_entrp">   -191.27474761 </i>
    <i name="e_0_energy">   -191.38177500 </i>
   </energy>
  </scstep>
  <scstep>
   <time name="dav">   29.99   30.06</time>
   <time name="total">   30.50   30.58</time>
   <energy>
    <i name="e_fr_energy">   -191.49038824 </i>
    <i name="e_wo_entrp">   -191.27485703 </i>
    <i name="e_0_energy">   -191.38262264 </i>
   </energy>
  </scstep>
  <scstep>
   <time name="dav">   27.34   27.41</time>
   <time name="total">   27.85   27.93</time>
   <energy>
    <i name="e_fr_energy">   -191.48701524 </i>
    <i name="e_wo_entrp">   -191.27184257 </i>
    <i name="e_0_energy">   -191.37942890 </i>
   </energy>
  </scstep>
  <scstep>
   <time name="dav">   27.91   27.97</time>
   <time name="total">   28.42   28.50</time>
   <energy>
    <i name="e_fr_energy">   -191.48698482 </i>
    <i name="e_wo_entrp">   -191.27167335 </i>
    <i name="e_0_energy">   -191.37932909 </i>
   </energy>
  </scstep>
  <scstep>
   <time name="dav">   27.30   27.36</time>
   <time name="total">   27.80   27.88</time>
   <energy>
    <i name="e_fr_energy">   -191.48667796 </i>
    <i name="e_wo_entrp">   -191.27162879 </i>
    <i name="e_0_energy">   -191.37915338 </i>
   </energy>
  </scstep>
  <scstep>
   <time name="dav">   22.07   22.12</time>
   <time name="total">   22.11   22.17</time>
   <energy>
    <i name="alphaZ">     89.98740848 </i>
    <i name="ewald">  44566.88203745 </i>
    <i name="hartreedc"> -50577.35647414 </i>
    <i name="XCdc">   -233.45683676 </i>
    <i name="pawpsdc">   4082.50889361 </i>
    <i name="pawaedc">  -3498.44974303 </i>
    <i name="eentropy">     -0.21513287 </i>
    <i name="bandstr">  -1382.82936368 </i>
    <i name="atom">   6761.44252427 </i>
    <i name="e_fr_energy">   -191.48668667 </i>
    <i name="e_wo_entrp">   -191.27155381 </i>
    <i name="e_0_energy">   -191.37912024 </i>
   </energy>
  </scstep>
  <structure>
   <crystal>
    <varray name="basis" >
     <v>       8.28865238       4.79770509       0.00000000 </v>
     <v>      -8.27658297       4.77682207       0.00000000 </v>
     <v>       0.00000000       0.00000000      30.00000000 </v>
    </varray>
    <i name="volume">   2379.06065480 </i>
    <varray name="rec_basis" >
     <v>       0.06023582       0.10436787       0.00000000 </v>
     <v>      -0.06049915       0.10452006       0.00000000 </v>
     <v>       0.00000000       0.00000000       0.03333333 </v>
    </varray>
   </crystal>
   <varray name="positions" >
    <v>       0.67053832       0.67136137       0.00023826 </v>
    <v>       0.67604519       0.33730487      -0.00046123 </v>
    <v>       0.32857937      -0.01092422      -0.00034931 </v>
    <v>       1.01370562       0.34723551      -0.00007408 </v>
    <v>       0.31434608       0.65409832       0.00012845 </v>
    <v>       0.00981064       0.65932046       0.00007760 </v>
    <v>      -0.00313793       0.00281239       0.00023734 </v>
    <v>       0.32081691       0.33841176      -0.00033995 </v>
    <v>       0.67080619      -0.00066206       0.00031850 </v>
    <v>       0.10964324       0.22197795       0.94628481 </v>
    <v>       0.22562401       0.10942207       0.05042118 </v>
    <v>       0.11067546       0.55522857       0.94423646 </v>
    <v>       0.22250147       0.44480352       0.05548550 </v>
    <v>       0.11568123       0.89107345       0.94919661 </v>
    <v>       0.22535317       0.78324452       0.05316593 </v>
    <v>       0.44564246       0.22049362       0.95252560 </v>
    <v>       0.55292948       0.11368419       0.04934560 </v>
    <v>       0.44883676       0.55844272       0.94886233 </v>
    <v>       0.55896228       0.44603262       0.04857138 </v>
    <v>       0.44190106       0.89033261       0.94951030 </v>
    <v>       0.55628733       0.77428592       0.05025470 </v>
    <v>       0.77603526       0.22495481       0.94909075 </v>
    <v>       0.88971342       0.11321182       0.05238991 </v>
    <v>       0.77361941       0.55327438       0.95027155 </v>
    <v>       0.88347149       0.44143853       0.05248781 </v>
    <v>       0.77500209       0.88285355       0.94801652 </v>
    <v>       0.88482445       0.77450121       0.05010740 </v>
   </varray>
  </structure>
  <varray name="forces" >
   <v>       0.01468492       0.24851907       0.01960190 </v>
   <v>       0.16115115       0.19810901       0.01105147 </v>
   <v>       0.25874804      -0.22340880      -0.00426773 </v>
   <v>       0.12149713       0.04412787      -0.02009425 </v>
   <v>      -0.12843783      -0.18681502      -0.03882814 </v>
   <v>       0.24255321      -0.02059691      -0.03384778 </v>
   <v>      -0.38878303       0.01456302      -0.00058112 </v>
   <v>      -0.36544472      -0.14604940       0.02484268 </v>
   <v>       0.19482940       0.14359224       0.02736910 </v>
   <v>      -0.05255413      -0.02944949      -0.16276914 </v>
   <v>      -0.06737539      -0.00389050      -0.08495186 </v>
   <v>       0.01927344      -0.03381795      -0.12080031 </v>
   <v>      -0.08275743       0.00841908       0.17654929 </v>
   <v>      -0.02617561      -0.08938460       0.10464625 </v>
   <v>       0.04439210      -0.05764454       0.13222829 </v>
   <v>      -0.11445813      -0.02096401       0.24709773 </v>
   <v>       0.03422653       0.00130114      -0.06140257 </v>
   <v>      -0.09018071      -0.04976405       0.05522754 </v>
   <v>      -0.06077920      -0.05220726      -0.16944546 </v>
   <v>       0.12513209      -0.05196489       0.05959202 </v>
   <v>      -0.07756087      -0.08154248      -0.09485266 </v>
   <v>       0.08049786       0.04857457      -0.01764717 </v>
   <v>      -0.08467944       0.08014166       0.11319103 </v>
   <v>       0.03502606       0.08944120       0.00965071 </v>
   <v>       0.07870744       0.06921022       0.05550562 </v>
   <v>       0.01925976       0.02009227      -0.14523282 </v>
   <v>       0.10920735       0.08140856      -0.08183264 </v>
  </varray>
  <varray name="stress" >
   <v>      -0.06146587       0.01535239      -0.12075593 </v>
   <v>       0.01535224      -0.19172812       0.17018385 </v>
   <v>      -0.12075601       0.17018388      -1.22995932 </v>
  </varray>
  <energy>
   <i name="e_fr_energy">   -191.48668667 </i>
   <i name="e_wo_entrp">   -191.37912024 </i>
   <i name="e_0_energy">     -0.21513287 </i>
  </energy>
  <time name="totalsc">  271.55  272.26</time>
 </calculation>
 <calculation>
  <scstep>
   <time name="dav">   22.93   22.99</time>
   <time name="total">   23.44   23.50</time>
   <energy>
    <i name="alphaZ">     90.07216336 </i>
    <i name="ewald">  44606.95509324 </i>
    <i name="hartreedc"> -50618.25440825 </i>
    <i name="XCdc">   -233.39638958 </i>
    <i name="pawpsdc">   4082.41629959 </i>
    <i name="pawaedc">  -3498.35596416 </i>
    <i name="eentropy">     -0.21679007 </i>
    <i name="bandstr">  -1382.20255804 </i>
    <i name="atom">   6761.44252427 </i>
    <i name="e_fr_energy">   -191.54002965 </i>
    <i name="e_wo_entrp">   -191.32323958 </i>
    <i name="e_0_energy">   -191.43163461 </i>
   </energy>
  </scstep>
  <scstep>
   <time name="dav">   34.91   34.99</time>
   <time name="total">   35.42   35.51</time>
   <energy>
    <i name="e_fr_energy">   -191.57457799 </i>
    <i name="e_wo_entrp">   -191.34656436 </i>
    <i name="e_0_energy">   -191.46057117 </i>
   </energy>
  </scstep>
  <scstep>
   <time name="dav">   32.24   32.32</time>
   <time name="total">   32.75   32.84</time>
   <energy>
    <i name="e_fr_energy">   -191.54678913 </i>
    <i name="e_wo_entrp">   -191.32995054 </i>
    <i name="e_0_energy">   -191.43836983 </i>
   </energy>
  </scstep>
  <scstep>
   <time name="dav">   29.30   29.37</time>
   <time name="total">   29.81   29.89</time>
   <energy>
    <i name="e_fr_energy">   -191.54639872 </i>
    <i name="e_wo_entrp">   -191.32742300 </i>
    <i name="e_0_energy">   -191.43691086 </i>
   </energy>
  </scstep>
  <scstep>
   <time name="dav">   28.05   28.11</time>
   <time name="total">   28.55   28.63</time>
   <energy>
    <i name="e_fr_energy">   -191.54512085 </i>
    <i name="e_wo_entrp">   -191.32688910 </i>
    <i name="e_0_energy">   -191.43600497 </i>
   </energy>
  </scstep>
  <scstep>
   <time name="dav">   26.77   26.84</time>
   <time name="total">   27.28   27.36</time>
   <energy>
    <i name="e_fr_energy">   -191.54448116 </i>
    <i name="e_wo_entrp">   -191.32558022 </i>
    <i name="e_0_energy">   -191.43503069 </i>
   </energy>
  </scstep>
  <scstep>
   <time name="dav">   28.11   28.17</time>
   <time name="total">   28.61   28.69</time>
   <energy>
    <i name="e_fr_energy">   -191.54431278 </i>
    <i name="e_wo_entrp">   -191.32538528 </i>
    <i name="e_0_energy">   -191.43484903 </i>
   </energy>
  </scstep>
  <scstep>
   <time name="dav">   23.24   23.30</time>
   <time name="total">   23.28   23.34</time>
   <energy>
    <i name="alphaZ">     90.07216336 </i>
    <i name="ewald">  44606.95509324 </i>
    <i name="hartreedc"> -50618.10253081 </i>
    <i name="XCdc">   -233.41122278 </i>
    <i name="pawpsdc">   4084.50156799 </i>
    <i name="pawaedc">  -3500.46821905 </i>
    <i name="eentropy">     -0.21881724 </i>
    <i name="bandstr">  -1382.31488314 </i>
    <i name="atom">   6761.44252427 </i>
    <i name="e_fr_energy">   -191.54432418 </i>
    <i name="e_wo_entrp">   -191.32550694 </i>
[...]
      <set comment="kpoint 31">
       <r>  -17.5473    1.0000 </r>
       <r>  -17.2593    1.0000 </r>
       <r>  -16.9186    1.0000 </r>
       <r>  -16.7157    1.0000 </r>
       <r>  -16.5072    1.0000 </r>
       <r>  -16.4596    1.0000 </r>
       <r>  -16.3252    1.0000 </r>
       <r>  -16.1939    1.0000 </r>
       <r>  -16.1300    1.0000 </r>
       <r>  -16.0208    1.0000 </r>
       <r>  -15.8995    1.0000 </r>
       <r>  -15.8285    1.0000 </r>
       <r>  -15.7863    1.0000 </r>
       <r>  -15.6765    1.0000 </r>
       <r>  -15.6171    1.0000 </r>
       <r>  -15.4768    1.0000 </r>
       <r>  -15.4271    1.0000 </r>
       <r>  -15.2298    1.0000 </r>
       <r>   -9.7796    1.0000 </r>
       <r>   -9.4757    1.0000 </r>
       <r>   -9.3734    1.0000 </r>
       <r>   -9.0374    1.0000 </r>
       <r>   -8.7728    1.0000 </r>
       <r>   -8.7305    1.0000 </r>
       <r>   -8.6377    1.0000 </r>
       <r>   -8.5725    1.0000 </r>
       <r>   -8.3885    1.0000 </r>
       <r>   -8.2791    1.0000 </r>
       <r>   -8.2421    1.0000 </r>
       <r>   -8.1549    1.0000 </r>
       <r>   -8.1089    1.0000 </r>
       <r>   -8.0824    1.0000 </r>
       <r>   -7.9899    1.0000 </r>
       <r>   -7.9270    1.0000 </r>
       <r>   -7.8278    1.0000 </r>
       <r>   -7.7720    1.0000 </r>
       <r>   -7.5175    1.0000 </r>
       <r>   -7.4620    1.0000 </r>
       <r>   -7.4050    1.0000 </r>
       <r>   -7.3398    1.0000 </r>
       <r>   -7.1419    1.0000 </r>
       <r>   -7.0576    1.0000 </r>
       <r>   -6.9659    1.0000 </r>
       <r>   -6.8870    1.0000 </r>
       <r>   -6.8676    1.0000 </r>
       <r>   -6.7715    1.0000 </r>
       <r>   -6.6881    1.0000 </r>
       <r>   -6.6149    1.0000 </r>
       <r>   -6.5346    1.0000 </r>
       <r>   -6.4873    1.0000 </r>
       <r>   -6.4265    1.0000 </r>
       <r>   -6.3450    1.0000 </r>
       <r>   -6.2764    1.0000 </r>
       <r>   -6.1413    1.0000 </r>
       <r>   -6.1092    1.0000 </r>
       <r>   -6.0319    1.0000 </r>
       <r>   -5.9798    1.0000 </r>
       <r>   -5.9333    1.0000 </r>
       <r>   -5.8858    1.0000 </r>
       <r>   -5.7835    1.0000 </r>
       <r>   -5.6483    1.0000 </r>
       <r>   -5.6003    1.0000 </r>
       <r>   -5.5263    1.0000 </r>
       <r>   -5.4258    1.0000 </r>
       <r>   -5.2919    1.0000 </r>
       <r>   -5.1855    1.0000 </r>
       <r>   -5.0953    1.0000 </r>
       <r>   -4.8412    1.0000 </r>
       <r>   -4.7720    1.0000 </r>
       <r>   -4.7061    1.0000 </r>
       <r>   -4.6132    1.0000 </r>
       <r>   -4.4411    1.0000 </r>
       <r>   -4.4146    1.0000 </r>
       <r>   -4.3615    1.0000 </r>
       <r>   -4.1506    1.0000 </r>
       <r>   -4.0523    1.0000 </r>
       <r>   -3.8998    1.0000 </r>
       <r>   -3.5750    0.9506 </r>
       <r>   -3.4472    0.7726 </r>
       <r>   -3.2974    0.3775 </r>
       <r>   -3.0887    0.0369 </r>
       <r>   -2.9171    0.0013 </r>
       <r>   -2.8118    0.0001 </r>
       <r>   -2.6049    0.0000 </r>
       <r>   -2.5707    0.0000 </r>
       <r>   -2.4804    0.0000 </r>
       <r>   -2.2071    0.0000 </r>
       <r>   -2.1777    0.0000 </r>
       <r>   -2.0817    0.0000 </r>
       <r>   -1.9085    0.0000 </r>
       <r>   -1.7610    0.0000 </r>
       <r>   -1.5603    0.0000 </r>
       <r>   -1.4709    0.0000 </r>
       <r>   -1.3009    0.0000 </r>
       <r>   -1.1890    0.0000 </r>
       <r>   -1.1613    0.0000 </r>
       <r>   -1.0525    0.0000 </r>
       <r>   -1.0178    0.0000 </r>
       <r>   -0.9536    0.0000 </r>
       <r>   -0.9214    0.0000 </r>
       <r>   -0.8647    0.0000 </r>
       <r>   -0.7394    0.0000 </r>
       <r>   -0.6711    0.0000 </r>
       <r>   -0.5982    0.0000 </r>
       <r>   -0.4946    0.0000 </r>
       <r>   -0.4308    0.0000 </r>
       <r>   -0.3602    0.0000 </r>
       <r>   -0.0364    0.0000 </r>
       <r>    0.0966    0.0000 </r>
       <r>    0.2549    0.0000 </r>
       <r>    0.4730    0.0000 </r>
       <r>    0.5219    0.0000 </r>
       <r>    0.6741    0.0000 </r>
       <r>    1.0131    0.0000 </r>
       <r>    1.0516    0.0000 </r>
       <r>    1.1859    0.0000 </r>
       <r>    1.4845    0.0000 </r>
       <r>    2.1399    0.0000 </r>
       <r>    2.2944    0.0000 </r>
       <r>    2.3976    0.0000 </r>
      </set>
      <set comment="kpoint 32">
       <r>  -17.5663    1.0000 </r>
       <r>  -17.1676    1.0000 </r>
       <r>  -17.0389    1.0000 </r>
       <r>  -16.7177    1.0000 </r>
       <r>  -16.4778    1.0000 </r>
       <r>  -16.3946    1.0000 </r>
       <r>  -16.3053    1.0000 </r>
       <r>  -16.2035    1.0000 </r>
       <r>  -16.1105    1.0000 </r>
       <r>  -16.0497    1.0000 </r>
       <r>  -15.9424    1.0000 </r>
       <r>  -15.8655    1.0000 </r>
       <r>  -15.7851    1.0000 </r>
       <r>  -15.6735    1.0000 </r>
       <r>  -15.6102    1.0000 </r>
       <r>  -15.4660    1.0000 </r>
       <r>  -15.4192    1.0000 </r>
       <r>  -15.2274    1.0000 </r>
       <r>   -9.6956    1.0000 </r>
       <r>   -9.5894    1.0000 </r>
       <r>   -9.4061    1.0000 </r>
       <r>   -9.0500    1.0000 </r>
       <r>   -8.7034    1.0000 </r>
       <r>   -8.6487    1.0000 </r>
       <r>   -8.5094    1.0000 </r>
       <r>   -8.4839    1.0000 </r>
       <r>   -8.4320    1.0000 </r>
       <r>   -8.3416    1.0000 </r>
       <r>   -8.2687    1.0000 </r>
       <r>   -8.2540    1.0000 </r>
       <r>   -8.1544    1.0000 </r>
       <r>   -8.0940    1.0000 </r>
       <r>   -8.0488    1.0000 </r>
       <r>   -7.9417    1.0000 </r>
       <r>   -7.8105    1.0000 </r>
       <r>   -7.7897    1.0000 </r>
       <r>   -7.5556    1.0000 </r>
       <r>   -7.4152    1.0000 </r>
       <r>   -7.3316    1.0000 </r>
       <r>   -7.2582    1.0000 </r>
       <r>   -7.1870    1.0000 </r>
       <r>   -7.1023    1.0000 </r>
       <r>   -6.9829    1.0000 </r>
       <r>   -6.8983    1.0000 </r>
       <r>   -6.8585    1.0000 </r>
       <r>   -6.7801    1.0000 </r>
       <r>   -6.7051    1.0000 </r>
       <r>   -6.5772    1.0000 </r>
       <r>   -6.5368    1.0000 </r>
       <r>   -6.4625    1.0000 </r>
       <r>   -6.4355    1.0000 </r>
       <r>   -6.3413    1.0000 </r>
       <r>   -6.2882    1.0000 </r>
       <r>   -6.2445    1.0000 </r>
       <r>   -6.1233    1.0000 </r>
       <r>   -6.0315    1.0000 </r>
       <r>   -5.9693    1.0000 </r>
       <r>   -5.9000    1.0000 </r>
       <r>   -5.8499    1.0000 </r>
       <r>   -5.7258    1.0000 </r>
       <r>   -5.7189    1.0000 </r>
       <r>   -5.5379    1.0000 </r>
       <r>   -5.4749    1.0000 </r>
       <r>   -5.4094    1.0000 </r>
       <r>   -5.2679    1.0000 </r>
       <r>   -5.2045    1.0000 </r>
       <r>   -5.0606    1.0000 </r>
       <r>   -4.9513    1.0000 </r>
       <r>   -4.8352    1.0000 </r>
       <r>   -4.6918    1.0000 </r>
       <r>   -4.6299    1.0000 </r>
       <r>   -4.4776    1.0000 </r>
       <r>   -4.4039    1.0000 </r>
       <r>   -4.3562    1.0000 </r>
       <r>   -4.1140    1.0000 </r>
       <r>   -4.0484    1.0000 </r>
       <r>   -3.8230    0.9997 </r>
       <r>   -3.6403    0.9827 </r>
       <r>   -3.4786    0.8338 </r>
       <r>   -3.3374    0.4882 </r>
       <r>   -3.0557    0.0216 </r>
       <r>   -2.8624    0.0004 </r>
       <r>   -2.7686    0.0000 </r>
       <r>   -2.6046    0.0000 </r>
       <r>   -2.5340    0.0000 </r>
       <r>   -2.4585    0.0000 </r>
       <r>   -2.2499    0.0000 </r>
       <r>   -2.1812    0.0000 </r>
       <r>   -2.1007    0.0000 </r>
       <r>   -1.9096    0.0000 </r>
       <r>   -1.7475    0.0000 </r>
       <r>   -1.5524    0.0000 </r>
       <r>   -1.4752    0.0000 </r>
       <r>   -1.3042    0.0000 </r>
       <r>   -1.2359    0.0000 </r>
       <r>   -1.1840    0.0000 </r>
       <r>   -1.0577    0.0000 </r>
       <r>   -1.0109    0.0000 </r>
       <r>   -0.9682    0.0000 </r>
       <r>   -0.9111    0.0000 </r>
       <r>   -0.8404    0.0000 </r>
       <r>   -0.7783    0.0000 </r>
       <r>   -0.6939    0.0000 </r>
       <r>   -0.5622    0.0000 </r>
       <r>   -0.5271    0.0000 </r>
       <r>   -0.3492    0.0000 </r>
       <r>   -0.2542    0.0000 </r>
       <r>   -0.1280    0.0000 </r>
       <r>    0.1251    0.0000 </r>
       <r>    0.2776    0.0000 </r>
       <r>    0.3489    0.0000 </r>
       <r>    0.5408    0.0000 </r>
       <r>    0.6594    0.0000 </r>
       <r>    0.9988    0.0000 </r>
       <r>    1.0211    0.0000 </r>
       <r>    1.2774    0.0000 </r>
       <r>    1.4299    0.0000 </r>
       <r>    2.1038    0.0000 </r>
       <r>    2.2661    0.0000 </r>
       <r>    2.5654    0.0000 </r>
      </set>
      <set comment="kpoint 33">
       <r>  -17.5649    1.0000 </r>
       <r>  -17.2339    1.0000 </r>
       <r>  -16.9190    1.0000 </r>
       <r>  -16.7192    1.0000 </r>
       <r>  -16.5353    1.0000 </r>
       <r>  -16.4337    1.0000 </r>
       <r>  -16.3330    1.0000 </r>
       <r>  -16.1824    1.0000 </r>
       <r>  -16.0447    1.0000 </r>
       <r>  -16.0063    1.0000 </r>
       <r>  -15.9674    1.0000 </r>
       <r>  -15.8848    1.0000 </r>
       <r>  -15.7771    1.0000 </r>
       <r>  -15.6870    1.0000 </r>
       <r>  -15.6266    1.0000 </r>
       <r>  -15.4587    1.0000 </r>
       <r>  -15.4214    1.0000 </r>
       <r>  -15.2285    1.0000 </r>
       <r>   -9.7558    1.0000 </r>
       <r>   -9.4671    1.0000 </r>
       <r>   -9.3317    1.0000 </r>
       <r>   -9.0807    1.0000 </r>
       <r>   -8.8584    1.0000 </r>
       <r>   -8.7426    1.0000 </r>
       <r>   -8.5326    1.0000 </r>
       <r>   -8.4904    1.0000 </r>
       <r>   -8.4179    1.0000 </r>
       <r>   -8.3239    1.0000 </r>
       <r>   -8.2636    1.0000 </r>
       <r>   -8.1961    1.0000 </r>
       <r>   -8.1387    1.0000 </r>
       <r>   -8.0682    1.0000 </r>
       <r>   -8.0366    1.0000 </r>
       <r>   -7.8633    1.0000 </r>
       <r>   -7.8249    1.0000 </r>
       <r>   -7.7593    1.0000 </r>
       <r>   -7.6019    1.0000 </r>
       <r>   -7.4210    1.0000 </r>
       <r>   -7.3135    1.0000 </r>
       <r>   -7.1886    1.0000 </r>
       <r>   -7.1669    1.0000 </r>
       <r>   -7.1053    1.0000 </r>
       <r>   -6.9999    1.0000 </r>
       <r>   -6.9232    1.0000 </r>
       <r>   -6.8340    1.0000 </r>
       <r>   -6.7799    1.0000 </r>
       <r>   -6.7296    1.0000 </r>
       <r>   -6.5982    1.0000 </r>
       <r>   -6.5364    1.0000 </r>
       <r>   -6.4777    1.0000 </r>
       <r>   -6.4171    1.0000 </r>
       <r>   -6.3683    1.0000 </r>
       <r>   -6.2988    1.0000 </r>
       <r>   -6.2582    1.0000 </r>
       <r>   -6.1414    1.0000 </r>
       <r>   -6.0589    1.0000 </r>
       <r>   -5.9622    1.0000 </r>
       <r>   -5.9124    1.0000 </r>
       <r>   -5.8638    1.0000 </r>
       <r>   -5.8071    1.0000 </r>
       <r>   -5.6815    1.0000 </r>
       <r>   -5.6298    1.0000 </r>
       <r>   -5.4771    1.0000 </r>
       <r>   -5.3624    1.0000 </r>
       <r>   -5.2727    1.0000 </r>
       <r>   -5.1018    1.0000 </r>
       <r>   -5.0654    1.0000 </r>
       <r>   -4.9030    1.0000 </r>
       <r>   -4.8126    1.0000 </r>
       <r>   -4.6782    1.0000 </r>
       <r>   -4.6115    1.0000 </r>
       <r>   -4.5419    1.0000 </r>
       <r>   -4.4045    1.0000 </r>
       <r>   -4.2872    1.0000 </r>
       <r>   -4.1241    1.0000 </r>
       <r>   -4.0346    1.0000 </r>
       <r>   -3.8122    0.9996 </r>
       <r>   -3.7219    0.9964 </r>
       <r>   -3.4997    0.8682 </r>
       <r>   -3.3964    0.6508 </r>
       <r>   -3.0139    0.0103 </r>
       <r>   -2.8206    0.0001 </r>
       <r>   -2.7367    0.0000 </r>
       <r>   -2.6092    0.0000 </r>
       <r>   -2.4926    0.0000 </r>
       <r>   -2.4332    0.0000 </r>
       <r>   -2.2928    0.0000 </r>
       <r>   -2.1720    0.0000 </r>
       <r>   -2.1299    0.0000 </r>
       <r>   -1.8745    0.0000 </r>
       <r>   -1.7311    0.0000 </r>
       <r>   -1.5324    0.0000 </r>
       <r>   -1.4601    0.0000 </r>
       <r>   -1.3633    0.0000 </r>
       <r>   -1.2556    0.0000 </r>
       <r>   -1.1927    0.0000 </r>
       <r>   -1.0882    0.0000 </r>
       <r>   -1.0289    0.0000 </r>
       <r>   -0.9346    0.0000 </r>
       <r>   -0.9191    0.0000 </r>
       <r>   -0.8591    0.0000 </r>
       <r>   -0.7452    0.0000 </r>
       <r>   -0.7222    0.0000 </r>
       <r>   -0.6161    0.0000 </r>
       <r>   -0.4575    0.0000 </r>
       <r>   -0.3596    0.0000 </r>
       <r>   -0.2150    0.0000 </r>
       <r>   -0.1349    0.0000 </r>
       <r>    0.1273    0.0000 </r>
       <r>    0.1706    0.0000 </r>
       <r>    0.3728    0.0000 </r>
       <r>    0.5851    0.0000 </r>
       <r>    0.6507    0.0000 </r>
       <r>    0.9719    0.0000 </r>
       <r>    1.0251    0.0000 </r>
       <r>    1.3620    0.0000 </r>
       <r>    1.3990    0.0000 </r>
       <r>    2.1279    0.0000 </r>
       <r>    2.3025    0.0000 </r>
       <r>    2.3821    0.0000 </r>
      </set>
      <set comment="kpoint 34">
       <r>  -17.5583    1.0000 </r>
       <r>  -17.2780    1.0000 </r>
       <r>  -16.7672    1.0000 </r>
       <r>  -16.7100    1.0000 </r>
       <r>  -16.6837    1.0000 </r>
       <r>  -16.4433    1.0000 </r>
       <r>  -16.3425    1.0000 </r>
       <r>  -16.1765    1.0000 </r>
       <r>  -16.0175    1.0000 </r>
       <r>  -15.9989    1.0000 </r>
       <r>  -15.9467    1.0000 </r>
       <r>  -15.8766    1.0000 </r>
       <r>  -15.7498    1.0000 </r>
       <r>  -15.7271    1.0000 </r>
       <r>  -15.6386    1.0000 </r>
       <r>  -15.4574    1.0000 </r>
       <r>  -15.4228    1.0000 </r>
       <r>  -15.2304    1.0000 </r>
       <r>   -9.7911    1.0000 </r>
       <r>   -9.3554    1.0000 </r>
       <r>   -9.2161    1.0000 </r>
       <r>   -9.1163    1.0000 </r>
       <r>   -9.0186    1.0000 </r>
       <r>   -8.8555    1.0000 </r>
       <r>   -8.5312    1.0000 </r>
       <r>   -8.5014    1.0000 </r>
       <r>   -8.4118    1.0000 </r>
       <r>   -8.3231    1.0000 </r>
       <r>   -8.2604    1.0000 </r>
       <r>   -8.1587    1.0000 </r>
       <r>   -8.1442    1.0000 </r>
       <r>   -8.0422    1.0000 </r>
       <r>   -7.9792    1.0000 </r>
       <r>   -7.8853    1.0000 </r>
       <r>   -7.7988    1.0000 </r>
       <r>   -7.7046    1.0000 </r>
       <r>   -7.5468    1.0000 </r>
       <r>   -7.4377    1.0000 </r>
       <r>   -7.3397    1.0000 </r>
       <r>   -7.2726    1.0000 </r>
       <r>   -7.1360    1.0000 </r>
       <r>   -7.0655    1.0000 </r>
       <r>   -7.0027    1.0000 </r>
       <r>   -6.9291    1.0000 </r>
       <r>   -6.8584    1.0000 </r>
       <r>   -6.7444    1.0000 </r>
       <r>   -6.6460    1.0000 </r>
       <r>   -6.6426    1.0000 </r>
       <r>   -6.5697    1.0000 </r>
       <r>   -6.4975    1.0000 </r>
       <r>   -6.4147    1.0000 </r>
       <r>   -6.3890    1.0000 </r>
       <r>   -6.3355    1.0000 </r>
       <r>   -6.2226    1.0000 </r>
       <r>   -6.1691    1.0000 </r>
       <r>   -6.0437    1.0000 </r>
       <r>   -5.9819    1.0000 </r>
       <r>   -5.9157    1.0000 </r>
       <r>   -5.8620    1.0000 </r>
       <r>   -5.8365    1.0000 </r>
       <r>   -5.7383    1.0000 </r>
       <r>   -5.5940    1.0000 </r>
       <r>   -5.5456    1.0000 </r>
       <r>   -5.3584    1.0000 </r>
       <r>   -5.3006    1.0000 </r>
       <r>   -5.0947    1.0000 </r>
       <r>   -4.8919    1.0000 </r>
       <r>   -4.8630    1.0000 </r>
       <r>   -4.8265    1.0000 </r>
       <r>   -4.7162    1.0000 </r>
       <r>   -4.6078    1.0000 </r>
       <r>   -4.5580    1.0000 </r>
       <r>   -4.4016    1.0000 </r>
       <r>   -4.2247    1.0000 </r>
       <r>   -4.1387    1.0000 </r>
       <r>   -4.0238    1.0000 </r>
       <r>   -3.8301    0.9997 </r>
       <r>   -3.7747    0.9989 </r>
       <r>   -3.5099    0.8831 </r>
       <r>   -3.4180    0.7056 </r>
       <r>   -2.9958    0.0072 </r>
       <r>   -2.8095    0.0001 </r>
       <r>   -2.7249    0.0000 </r>
       <r>   -2.6147    0.0000 </r>
       <r>   -2.4722    0.0000 </r>
       <r>   -2.4190    0.0000 </r>
       <r>   -2.3121    0.0000 </r>
       <r>   -2.1649    0.0000 </r>
       <r>   -2.1419    0.0000 </r>
       <r>   -1.8507    0.0000 </r>
       <r>   -1.7184    0.0000 </r>
       <r>   -1.5207    0.0000 </r>
       <r>   -1.4566    0.0000 </r>
       <r>   -1.4013    0.0000 </r>
       <r>   -1.2638    0.0000 </r>
       <r>   -1.1888    0.0000 </r>
       <r>   -1.1035    0.0000 </r>
       <r>   -0.9998    0.0000 </r>
       <r>   -0.9706    0.0000 </r>
       <r>   -0.8939    0.0000 </r>
       <r>   -0.8713    0.0000 </r>
       <r>   -0.7705    0.0000 </r>
       <r>   -0.6899    0.0000 </r>
       <r>   -0.6581    0.0000 </r>
       <r>   -0.4095    0.0000 </r>
       <r>   -0.3994    0.0000 </r>
       <r>   -0.2090    0.0000 </r>
       <r>   -0.1187    0.0000 </r>
       <r>    0.0549    0.0000 </r>
       <r>    0.2030    0.0000 </r>
       <r>    0.3760    0.0000 </r>
       <r>    0.6105    0.0000 </r>
       <r>    0.6487    0.0000 </r>
       <r>    0.9591    0.0000 </r>
       <r>    1.0352    0.0000 </r>
       <r>    1.3754    0.0000 </r>
       <r>    1.4158    0.0000 </r>
       <r>    2.1900    0.0000 </r>
       <r>    2.2528    0.0000 </r>
       <r>    2.3907    0.0000 </r>
      </set>
     </set>
    </set>
   </array>
  </eigenvalues>
  <separator name="orbital magnetization" >
   <v name="MAGDIPOLOUT">      0.00000000      0.00000000      0.00000000</v>
  </separator>
 </calculation>
 <structure name="finalpos" >
  <crystal>
   <varray name="basis" >
    <v>       8.36013605       4.83627021       0.00000000 </v>
    <v>      -8.33971612       4.80095836       0.00000000 </v>
    <v>       0.00000000       0.00000000      30.00000000 </v>
   </varray>
   <i name="volume">   2414.09357040 </i>
   <varray name="rec_basis" >
    <v>       0.05966163       0.10363786       0.00000000 </v>
    <v>      -0.06010045       0.10389162       0.00000000 </v>
    <v>       0.00000000       0.00000000       0.03333333 </v>
   </varray>
  </crystal>
  <varray name="positions" >
   <v>       0.70179888       0.68286293      -0.00134471 </v>
   <v>       0.69386655       0.34236579      -0.00021402 </v>
   <v>       0.33894975      -0.02961598       0.00125270 </v>
   <v>       1.00093822       0.33591499       0.00011711 </v>
   <v>       0.29826834       0.64710862       0.00022325 </v>
   <v>       0.00897197       0.64910236       0.00062979 </v>
   <v>      -0.01559496       0.02024000      -0.00048631 </v>
   <v>       0.29994160       0.33594382      -0.00033170 </v>
   <v>       0.68921344       0.01394126       0.00014250 </v>
   <v>       0.10314731       0.22260109       0.94329974 </v>
   <v>       0.22219581       0.10906225       0.04740839 </v>
   <v>       0.10367406       0.54833158       0.94336974 </v>
   <v>       0.21430822       0.44421418       0.05674555 </v>
   <v>       0.11489799       0.89550176       0.95610070 </v>
   <v>       0.22301658       0.77712621       0.05556168 </v>
   <v>       0.44297018       0.21988978       0.95901741 </v>
   <v>       0.55727078       0.11451803       0.04929142 </v>
   <v>       0.44820705       0.55852587       0.95189509 </v>
   <v>       0.55634113       0.44754296       0.04272217 </v>
   <v>       0.44399359       0.88213612       0.95006242 </v>
   <v>       0.55425580       0.77055824       0.04328649 </v>
   <v>       0.77188551       0.22296656       0.94644184 </v>
   <v>       0.88770348       0.11758445       0.05653285 </v>
   <v>       0.78015463       0.55388042       0.94851757 </v>
   <v>       0.88383090       0.44321090       0.05483700 </v>
   <v>       0.77696682       0.88727502       0.94548190 </v>
   <v>       0.89704083       0.78542524       0.04943934 </v>
  </varray>
 </structure>
</modeling>
