unknown system                          
           1
     8.857439    5.107666    0.000000
    -8.854759    5.103055    0.000000
     0.000000    0.000000   30.000000
   V    Mo   W    S 
   3   3   3  18
Direct configuration=     1
   0.66666669  0.66666669  0.00000000
   0.66666669  0.33333334  0.00000000
   0.33333334  0.00000000  0.00000000
   1.00000000  0.33333334  0.00000000
   0.33333334  0.66666669  0.00000000
   0.00000000  0.66666669  0.00000000
   0.00000000  0.00000000  0.00000000
   0.33333334  0.33333334  0.00000000
   0.66666669  0.00000000  0.00000000
   0.11068511  0.22244981  0.95539999
   0.22244981  0.11068511  0.04460000
   0.11068511  0.55578315  0.95539999
   0.22244981  0.44401845  0.04460000
   0.11068511  0.88911647  0.95539999
   0.22244981  0.77735180  0.04460000
   0.44401845  0.22244981  0.95539999
   0.55578315  0.11068511  0.04460000
   0.44401845  0.55578315  0.95539999
   0.55578315  0.44401845  0.04460000
   0.44401845  0.88911647  0.95539999
   0.55578315  0.77735180  0.04460000
   0.77735180  0.22244981  0.95539999
   0.88911647  0.11068511  0.04460000
   0.77735180  0.55578315  0.95539999
   0.88911647  0.44401845  0.04460000
   0.77735180  0.88911647  0.95539999
   0.88911647  0.77735180  0.04460000
unknown system                          
           1
     8.669395    5.001489    0.000000
    -8.666953    4.997289    0.000000
     0.000000    0.000000   30.000000
   V    Mo   W    S 
   3   3   3  18
Direct configuration=     2
   0.66673051  0.66634549 -0.00015071
   0.66863108  0.33451581 -0.00006766
   0.33255243 -0.00191115  0.00010909
   1.00135080  0.33612957  0.00004478
   0.33046070  0.66531878  0.00023222
   0.00120330  0.66504776  0.00000666
   0.00006510 -0.00024464 -0.00016108
   0.33260334  0.33480276 -0.00010388
   0.66616152  0.00008972  0.00008989
   0.11131370  0.22157460  0.95073300
   0.22424571  0.10893881  0.04803419
   0.11091737  0.55539851  0.95066804
   0.22259827  0.44396970  0.04932575
   0.11498320  0.89149703  0.95195828
   0.22446660  0.78224181  0.04812731
   0.44604172  0.22036285  0.95313398
   0.55362983  0.11263115  0.04699109
   0.44853109  0.55670396  0.95194349
   0.55897923  0.44586438  0.04687670
   0.44297009  0.89169280  0.95203697
   0.55828762  0.77625093  0.04792417
   0.77489034  0.22358952  0.95201492
   0.88839020  0.11038941  0.04919591
   0.77316086  0.55349552  0.95311832
   0.88432656  0.44213963  0.04808969
   0.77594335  0.88496387  0.95183421
   0.88477994  0.77641588  0.04799455
unknown system                          
           1
     8.487516    4.901358    0.000000
    -8.485681    4.898205    0.000000
     0.000000    0.000000   30.000000
   V    Mo   W    S 
   3   3   3  18
Direct configuration=     3
   0.66684870  0.66645077 -0.00013072
   0.66919929  0.33480159 -0.00012152
   0.33229594 -0.00249880  0.00007877
   1.00220486  0.33716274  0.00004569
   0.32920431  0.66450620  0.00025268
   0.00182629  0.66453192  0.00000936
  -0.00003607 -0.00015909 -0.00012882
   0.33195229  0.33515519 -0.00016074
   0.66630573  0.00008276  0.00013856
   0.11138577  0.22148836  0.95071257
   0.22419068  0.10903617  0.04796385
   0.11092403  0.55542074  0.95047055
   0.22272725  0.44385836  0.04947805
   0.11497561  0.89167671  0.95198635
   0.22454615  0.78236743  0.04824341
   0.44593844  0.22047397  0.95332447
   0.55372246  0.11253395  0.04691664
   0.44850557  0.55655603  0.95195948
   0.55879106  0.44578479  0.04678344
   0.44316551  0.89183554  0.95207288
   0.55842505  0.77644220  0.04786147
   0.77474101  0.22339868  0.95203583
   0.88831454  0.11018339  0.04913446
   0.77310434  0.55341058  0.95314683
   0.88417849  0.44206696  0.04817799
   0.77597471  0.88508066  0.95184431
   0.88480246  0.77656665  0.04790407
unknown system                          
           1
     8.284305    4.788498    0.000000
    -8.278298    4.778118    0.000000
     0.000000    0.000000   30.000000
   V    Mo   W    S 
   3   3   3  18
Direct configuration=     4
   0.66750224  0.66744346  0.00000289
   0.67125688  0.33564716 -0.00029076
   0.33115049 -0.00478383 -0.00008499
   1.00594902  0.34093859  0.00003304
   0.32420315  0.66101643  0.00022600
   0.00445514  0.66281246  0.00003190
  -0.00064519  0.00047301  0.00004693
   0.32875402  0.33614466 -0.00031747
   0.66736685 -0.00010997  0.00025081
   0.11113389  0.22153338  0.94898791
   0.22482371  0.10882556  0.04915001
   0.11099407  0.55553368  0.94809291
   0.22279235  0.44384835  0.05174548
   0.11596477  0.89212737  0.95066373
   0.22513621  0.78353127  0.05016692
   0.44628176  0.22015327  0.95275596
   0.55325235  0.11308375  0.04799073
   0.44948276  0.55737075  0.95056258
   0.55948478  0.44613026  0.04773703
   0.44273433  0.89214583  0.95081064
   0.55866487  0.77585034  0.04902880
   0.77439047  0.22386369  0.95069396
   0.88851802  0.11038433  0.05049262
   0.77238391  0.55287113  0.95194775
   0.88292369  0.44145332  0.04995889
   0.77534272  0.88406184  0.95035502
   0.88391719  0.77586437  0.04896063
unknown system                          
           1
     8.288652    4.797705    0.000000
    -8.276583    4.776822    0.000000
     0.000000    0.000000   30.000000
   V    Mo   W    S 
   3   3   3  18
Direct configuration=     5
   0.66930782  0.67006994  0.00026440
   0.67481519  0.33691526 -0.00045707
   0.32909503 -0.00921243 -0.00038987
   1.01339917  0.34763874  0.00000750
   0.31485268  0.65429628  0.00008634
   0.00937602  0.65973515  0.00013666
  -0.00220246  0.00191178  0.00027906
   0.32246656  0.33808178 -0.00044385
   0.66966504 -0.00067241  0.00030534
   0.11020330  0.22186347  0.94653925
   0.22569031  0.10903510  0.05054895
   0.11098012  0.55553807  0.94460092
   0.22255662  0.44439274  0.05511174
   0.11644992  0.89175853  0.94905405
   0.22545085  0.78394138  0.05296287
   0.44628546  0.22010774  0.95220728
   0.55280687  0.11381045  0.04941638
   0.44973297  0.55843063  0.94879580
   0.55963287  0.44626379  0.04879342
   0.44200917  0.89143162  0.94938755
   0.55753543  0.77465746  0.05041729
   0.77507529  0.22478337  0.94904180
   0.88927205  0.11206181  0.05228344
   0.77271307  0.55274588  0.95024175
   0.88250100  0.44120772  0.05237459
   0.77477404  0.88280951  0.94822462
   0.88377006  0.77461110  0.05020969
unknown system                          
           1
     8.286369    4.795127    0.000000
    -8.273770    4.773336    0.000000
     0.000000    0.000000   30.000000
   V    Mo   W    S 
   3   3   3  18
Direct configuration=     6
   0.67053832  0.67136137  0.00023826
   0.67604519  0.33730487 -0.00046123
   0.32857937 -0.01092422 -0.00034931
   1.01370562  0.34723551 -0.00007408
   0.31434608  0.65409832  0.00012845
   0.00981064  0.65932046  0.00007760
  -0.00313793  0.00281239  0.00023734
   0.32081691  0.33841176 -0.00033995
   0.67080619 -0.00066206  0.00031850
   0.10964324  0.22197795  0.94628481
   0.22562401  0.10942207  0.05042118
   0.11067546  0.55522857  0.94423646
   0.22250147  0.44480352  0.05548550
   0.11568123  0.89107345  0.94919661
   0.22535317  0.78324452  0.05316593
   0.44564246  0.22049362  0.95252560
   0.55292948  0.11368419  0.04934560
   0.44883676  0.55844272  0.94886233
   0.55896228  0.44603262  0.04857138
   0.44190106  0.89033261  0.94951030
   0.55628733  0.77428592  0.05025470
   0.77603526  0.22495481  0.94909075
   0.88971342  0.11321182  0.05238991
   0.77361941  0.55327438  0.95027155
   0.88347149  0.44143853  0.05248781
   0.77500209  0.88285355  0.94801652
   0.88482445  0.77450121  0.05010740
unknown system                          
           1
     8.288470    4.796372    0.000000
    -8.275697    4.774279    0.000000
     0.000000    0.000000   30.000000
   V    Mo   W    S 
   3   3   3  18
Direct configuration=     7
   0.67185966  0.67261014  0.00027186
   0.67755546  0.33784823 -0.00044556
   0.32817901 -0.01286365 -0.00035870
   1.01435942  0.34716832 -0.00010780
   0.31293760  0.65346205  0.00006580
   0.01046573  0.65847746  0.00002373
  -0.00421659  0.00403971  0.00023835
   0.31894133  0.33876401 -0.00029998
   0.67212732 -0.00051406  0.00036290
   0.10932509  0.22198876  0.94599118
   0.22542084  0.10960444  0.05030234
   0.11055710  0.55499898  0.94399655
   0.22230146  0.44509780  0.05581302
   0.11515565  0.89068791  0.94934485
   0.22519665  0.78282404  0.05341338
   0.44519968  0.22072383  0.95291555
   0.55302972  0.11359945  0.04926506
   0.44832019  0.55846959  0.94892886
   0.55852119  0.44594689  0.04831236
   0.44199000  0.88968587  0.94958841
   0.55562520  0.77408131  0.05011925
   0.77653191  0.22497975  0.94904223
   0.88988554  0.11389489  0.05259494
   0.77418240  0.55362614  0.95026619
   0.88405184  0.44155633  0.05260760
   0.77515343  0.88288205  0.94775535
   0.88555764  0.77457425  0.04999218
unknown system                          
           1
     8.274205    4.789929    0.000000
    -8.262277    4.769288    0.000000
     0.000000    0.000000   30.000000
   V    Mo   W    S 
   3   3   3  18
Direct configuration=     8
   0.67192998  0.67265301  0.00027293
   0.67761714  0.33786674 -0.00044556
   0.32819073 -0.01295595 -0.00035866
   1.01427709  0.34704564 -0.00010916
   0.31296036  0.65353276  0.00007101
   0.01045761  0.65846243  0.00002233
  -0.00427588  0.00412622  0.00023562
   0.31890424  0.33874413 -0.00029819
   0.67219123 -0.00048363  0.00036466
   0.10932486  0.22197557  0.94599926
   0.22539824  0.10960398  0.05027505
   0.11054179  0.55497279  0.94402099
   0.22229571  0.44511127  0.05578858
   0.11513176  0.89068962  0.94937951
   0.22518622  0.78281415  0.05339346
   0.44518000  0.22072073  0.95295289
   0.55303455  0.11358507  0.04924300
   0.44830970  0.55845993  0.94895431
   0.55850564  0.44594705  0.04828221
   0.44200939  0.88968244  0.94960727
   0.55563123  0.77409373  0.05009240
   0.77651867  0.22495880  0.94905244
   0.88987593  0.11389279  0.05259666
   0.77418949  0.55363736  0.95028322
   0.88407053  0.44156007  0.05259055
   0.77516246  0.88290330  0.94776503
   0.88559579  0.77461447  0.04996806
unknown system                          
           1
     8.280499    4.794841    0.000000
    -8.265923    4.769617    0.000000
     0.000000    0.000000   30.000000
   V    Mo   W    S 
   3   3   3  18
Direct configuration=     9
   0.67145426  0.67243219  0.00026016
   0.67684592  0.33748717 -0.00044688
   0.32779526 -0.01289019 -0.00035572
   1.01459191  0.34751387 -0.00011199
   0.31313407  0.65383841  0.00008526
   0.01100652  0.65935694  0.00003771
  -0.00363167  0.00346806  0.00025450
   0.31921338  0.33862079 -0.00030000
   0.67137776 -0.00084422  0.00035205
   0.10926949  0.22202492  0.94598442
   0.22561773  0.10954696  0.05037323
   0.11059857  0.55511202  0.94389251
   0.22236027  0.44505474  0.05590276
   0.11548817  0.89072988  0.94923948
   0.22536819  0.78303652  0.05340337
   0.44506101  0.22049289  0.95279195
   0.55279378  0.11349220  0.04931028
   0.44836784  0.55848211  0.94881720
   0.55857209  0.44603258  0.04845897
   0.44175183  0.88977354  0.94958878
   0.55558119  0.77402889  0.05022459
   0.77673224  0.22503424  0.94901012
   0.88999084  0.11395538  0.05253261
   0.77419576  0.55367763  0.95020317
   0.88411310  0.44158784  0.05266969
   0.77515147  0.88279621  0.94773643
   0.88541350  0.77437290  0.05008523
unknown system                          
           1
     8.293050    4.800158    0.000000
    -8.276305    4.771200    0.000000
     0.000000    0.000000   30.000000
   V    Mo   W    S 
   3   3   3  18
Direct configuration=    10
   0.67261668  0.67351125  0.00028442
   0.67807755  0.33787574 -0.00045721
   0.32738557 -0.01479946 -0.00036436
   1.01487399  0.34714082 -0.00014358
   0.31213582  0.65369206  0.00009748
   0.01170118  0.65889023  0.00000681
  -0.00451613  0.00458648  0.00025261
   0.31766556  0.33876097 -0.00027040
   0.67243518 -0.00071373  0.00038501
   0.10899381  0.22196526  0.94569709
   0.22550855  0.10964287  0.05027362
   0.11042239  0.55484064  0.94363234
   0.22224504  0.44536110  0.05618075
   0.11517554  0.89051186  0.94936485
   0.22531355  0.78285108  0.05362572
   0.44464920  0.22051315  0.95314790
   0.55276589  0.11338106  0.04925395
   0.44804237  0.55852142  0.94885374
   0.55827407  0.44602448  0.04825881
   0.44178462  0.88934907  0.94961868
   0.55514765  0.77387434  0.05012528
   0.77702407  0.22500572  0.94892427
   0.89011816  0.11446113  0.05276195
   0.77457389  0.55394544  0.95017669
   0.88454526  0.44168364  0.05280756
   0.77524951  0.88282617  0.94750334
   0.88600546  0.77451165  0.05000257
unknown system                          
           1
     8.294024    4.800407    0.000000
    -8.276478    4.770069    0.000000
     0.000000    0.000000   30.000000
   V    Mo   W    S 
   3   3   3  18
Direct configuration=    11
   0.67375183  0.67439356  0.00029032
   0.67954554  0.33846914 -0.00046464
   0.32737657 -0.01609861 -0.00034630
   1.01475239  0.34655066 -0.00015199
   0.31141993  0.65335663  0.00005423
   0.01163788  0.65782546 -0.00004433
  -0.00558479  0.00579634  0.00023730
   0.31645242  0.33897759 -0.00026032
   0.67376102 -0.00035024  0.00042855
   0.10889376  0.22184225  0.94556065
   0.22526087  0.10974143  0.05012636
   0.11030282  0.55458555  0.94364576
   0.22213964  0.44562195  0.05620241
   0.11471149  0.89037367  0.94952471
   0.22514401  0.78260876  0.05380527
   0.44446871  0.22065760  0.95352050
   0.55292012  0.11336667  0.04914652
   0.44775307  0.55848995  0.94903590
   0.55803271  0.44596317  0.04796607
   0.44203715  0.88901735  0.94962336
   0.55496611  0.77384049  0.04995764
   0.77697324  0.22488607  0.94892988
   0.89004552  0.11464455  0.05290738
   0.77481861  0.55408073  0.95027085
   0.88478220  0.44178065  0.05276961
   0.77534968  0.88297257  0.94741661
   0.88650195  0.77482051  0.04984758
unknown system                          
           1
     8.288784    4.797299    0.000000
    -8.271873    4.768056    0.000000
     0.000000    0.000000   30.000000
   V    Mo   W    S 
   3   3   3  18
Direct configuration=    12
   0.67441898  0.67493671  0.00031423
   0.68031648  0.33873606 -0.00046822
   0.32733077 -0.01700963 -0.00035756
   1.01468503  0.34618049 -0.00016858
   0.31095422  0.65331060  0.00005160
   0.01184023  0.65741942 -0.00005762
  -0.00616994  0.00647417  0.00022922
   0.31573369  0.33902421 -0.00025056
   0.67443005 -0.00017746  0.00045133
   0.10881350  0.22179674  0.94545229
   0.22513810  0.10978372  0.05003167
   0.11021136  0.55440690  0.94359414
   0.22206616  0.44575307  0.05626596
   0.11451464  0.89030833  0.94965161
   0.22505819  0.78248467  0.05387877
   0.44433281  0.22068849  0.95373971
   0.55295596  0.11333077  0.04908915
   0.44762748  0.55849886  0.94910742
   0.55789267  0.44594506  0.04781095
   0.44212618  0.88885677  0.94965481
   0.55485453  0.77381227  0.04985854
   0.77697249  0.22482267  0.94889693
   0.89003616  0.11480105  0.05303448
   0.77495925  0.55418189  0.95028313
   0.88492490  0.44181081  0.05280791
   0.77539297  0.88304477  0.94733665
   0.88679757  0.77499304  0.04976197
unknown system                          
           1
     8.302839    4.804336    0.000000
    -8.283269    4.770509    0.000000
     0.000000    0.000000   30.000000
   V    Mo   W    S 
   3   3   3  18
Direct configuration=    13
   0.67428388  0.67486837  0.00033113
   0.68009460  0.33870795 -0.00046738
   0.32739178 -0.01658812 -0.00036844
   1.01479890  0.34625625 -0.00018030
   0.31108999  0.65322478  0.00006938
   0.01164705  0.65741634 -0.00004250
  -0.00613916  0.00624471  0.00023441
   0.31591148  0.33905587 -0.00024818
   0.67428895 -0.00035479  0.00043474
   0.10886699  0.22183474  0.94553247
   0.22513536  0.10981297  0.05004233
   0.11025195  0.55445930  0.94365121
   0.22210089  0.44572034  0.05620718
   0.11451046  0.89032030  0.94963057
   0.22504156  0.78242524  0.05381348
   0.44440339  0.22076478  0.95369312
   0.55303436  0.11336113  0.04907749
   0.44765781  0.55848159  0.94911167
   0.55793941  0.44595046  0.04782017
   0.44216001  0.88892225  0.94968010
   0.55494586  0.77385827  0.04985057
   0.77697370  0.22484797  0.94896308
   0.89004232  0.11473307  0.05295932
   0.77487134  0.55413639  0.95031131
   0.88488202  0.44178973  0.05275385
   0.77538355  0.88302206  0.94739933
   0.88664599  0.77494250  0.04973980
unknown system                          
           1
     8.312843    4.808391    0.000000
    -8.291745    4.771935    0.000000
     0.000000    0.000000   30.000000
   V    Mo   W    S 
   3   3   3  18
Direct configuration=    14
   0.67610579  0.67623119  0.00038056
   0.68234497  0.33942734 -0.00047488
   0.32738921 -0.01927643 -0.00038422
   1.01422842  0.34510461 -0.00020257
   0.30989709  0.65327992  0.00006036
   0.01226595  0.65639177 -0.00007827
  -0.00766239  0.00820277  0.00019689
   0.31408327  0.33910104 -0.00022784
   0.67615137  0.00041386  0.00051512
   0.10863280  0.22167304  0.94518082
   0.22478745  0.10985899  0.04976672
   0.10994236  0.55389217  0.94348582
   0.22184596  0.44605595  0.05638263
   0.11400694  0.89017807  0.95002533
   0.22480078  0.78215323  0.05403019
   0.44404990  0.22075032  0.95430316
   0.55304783  0.11326080  0.04895068
   0.44738516  0.55854819  0.94930225
   0.55754841  0.44588251  0.04739678
   0.44237306  0.88848143  0.94972601
   0.55462700  0.77375219  0.04957741
   0.77683246  0.22461958  0.94877547
   0.88995942  0.11514544  0.05340659
   0.77530442  0.55442499  0.95030347
   0.88521464  0.44187457  0.05292374
   0.77547713  0.88327252  0.94714383
   0.88757503  0.77551441  0.04953385
unknown system                          
           1
     8.321364    4.810449    0.000000
    -8.297590    4.769388    0.000000
     0.000000    0.000000   30.000000
   V    Mo   W    S 
   3   3   3  18
Direct configuration=    15
   0.67752084  0.67723108  0.00040917
   0.68411926  0.33997812 -0.00047717
   0.32769846 -0.02085176 -0.00039544
   1.01350539  0.34400724 -0.00020929
   0.30906953  0.65319481  0.00003615
   0.01239125  0.65537293 -0.00010965
  -0.00897099  0.00966851  0.00015190
   0.31280531  0.33908753 -0.00022278
   0.67776949  0.00119940  0.00057918
   0.10846929  0.22154306  0.94494570
   0.22443701  0.10983505  0.04954995
   0.10972195  0.55342067  0.94340657
   0.22159527  0.44626474  0.05647912
   0.11357859  0.89016666  0.95035704
   0.22458949  0.78189749  0.05418080
   0.44395883  0.22083338  0.95474605
   0.55313137  0.11325730  0.04884531
   0.44728859  0.55863173  0.94945485
   0.55732971  0.44581467  0.04705803
   0.44262432  0.88817577  0.94975288
   0.55443990  0.77368630  0.04936040
   0.77662288  0.22445618  0.94864770
   0.88986816  0.11544604  0.05376010
   0.77552501  0.55456247  0.95030480
   0.88535046  0.44186276  0.05304413
   0.77550515  0.88343192  0.94695789
   0.88826994  0.77604039  0.04938651
unknown system                          
           1
     8.339879    4.819010    0.000000
    -8.312942    4.772496    0.000000
     0.000000    0.000000   30.000000
   V    Mo   W    S 
   3   3   3  18
Direct configuration=    16
   0.67974312  0.67874545  0.00046547
   0.68683237  0.34077276 -0.00046860
   0.32839518 -0.02314675 -0.00039559
   1.01225848  0.34234445 -0.00020075
   0.30773771  0.65285897  0.00003088
   0.01255186  0.65387846 -0.00013073
  -0.01092353  0.01176464  0.00006278
   0.31091815  0.33908731 -0.00020644
   0.68031493  0.00262150  0.00068082
   0.10818574  0.22138117  0.94461046
   0.22380688  0.10975022  0.04916366
   0.10931749  0.55257289  0.94330317
   0.22112356  0.44651771  0.05654963
   0.11292982  0.89022857  0.95095325
   0.22424112  0.78144007  0.05435917
   0.44386269  0.22096532  0.95544375
   0.55326486  0.11325145  0.04868892
   0.44714780  0.55873587  0.94971781
   0.55698567  0.44570612  0.04648956
   0.44303935  0.88768196  0.94980787
   0.55418991  0.77362988  0.04894142
   0.77622558  0.22414127  0.94841036
   0.88969511  0.11591880  0.05433920
   0.77591189  0.55475391  0.95029772
   0.88555254  0.44188078  0.05325094
   0.77550710  0.88375024  0.94670423
   0.88939908  0.77698147  0.04913093
unknown system                          
           1
     8.338926    4.817510    0.000000
    -8.309808    4.767229    0.000000
     0.000000    0.000000   30.000000
   V    Mo   W    S 
   3   3   3  18
Direct configuration=    17
   0.68212020  0.68023696  0.00048282
   0.68941664  0.34146381 -0.00045723
   0.32939769 -0.02539391 -0.00035915
   1.01058172  0.34054891 -0.00018129
   0.30635972  0.65246790  0.00000303
   0.01270420  0.65256169 -0.00014767
  -0.01275860  0.01371496 -0.00006758
   0.30915947  0.33898947 -0.00022140
   0.68302491  0.00450160  0.00076081
   0.10775652  0.22122121  0.94424206
   0.22306337  0.10948585  0.04875510
   0.10879167  0.55155524  0.94318372
   0.22044744  0.44668680  0.05666415
   0.11229714  0.89047762  0.95164182
   0.22388132  0.78091092  0.05456873
   0.44382085  0.22104634  0.95615002
   0.55337627  0.11325397  0.04857950
   0.44711190  0.55891082  0.94996341
   0.55668689  0.44562327  0.04591283
   0.44349946  0.88710250  0.94982838
   0.55389568  0.77351438  0.04848046
   0.77578221  0.22375048  0.94807825
   0.88952623  0.11648300  0.05502508
   0.77637213  0.55494422  0.95023218
   0.88576138  0.44193755  0.05354974
   0.77540675  0.88409268  0.94640229
   0.89073130  0.77812620  0.04892982
unknown system                          
           1
     8.348132    4.823200    0.000000
    -8.318576    4.772157    0.000000
     0.000000    0.000000   30.000000
   V    Mo   W    S 
   3   3   3  18
Direct configuration=    18
   0.68416573  0.68135010  0.00048216
   0.69128106  0.34195770 -0.00043757
   0.33044638 -0.02677139 -0.00028140
   1.00916710  0.33922713 -0.00011333
   0.30510971  0.65172294  0.00000513
   0.01260669  0.65148198 -0.00013039
  -0.01397936  0.01504590 -0.00016166
   0.30781068  0.33896739 -0.00023196
   0.68516389  0.00626131  0.00081856
   0.10734914  0.22117226  0.94403714
   0.22236594  0.10922659  0.04835650
   0.10828237  0.55066718  0.94315161
   0.21977208  0.44668526  0.05662808
   0.11183649  0.89085120  0.95230164
   0.22357387  0.78033183  0.05468461
   0.44384814  0.22111456  0.95674825
   0.55359348  0.11326731  0.04847522
   0.44703708  0.55898669  0.95021052
   0.55650103  0.44559357  0.04538993
   0.44396449  0.88655747  0.94986410
   0.55374936  0.77349668  0.04796925
   0.77539540  0.22340875  0.94783317
   0.88939322  0.11688796  0.05548394
   0.77679798  0.55500311  0.95020284
   0.88589189  0.44207031  0.05373198
   0.77526319  0.88444370  0.94622998
   0.89182742  0.77920695  0.04875160
unknown system                          
           1
     8.349963    4.824366    0.000000
    -8.319544    4.771830    0.000000
     0.000000    0.000000   30.000000
   V    Mo   W    S 
   3   3   3  18
Direct configuration=    19
   0.68459567  0.68150643  0.00045265
   0.69144928  0.34197166 -0.00043260
   0.33071966 -0.02693942 -0.00025324
   1.00881628  0.33899081 -0.00011014
   0.30491582  0.65159457 -0.00000179
   0.01256155  0.65140995 -0.00012179
  -0.01406974  0.01522797 -0.00019391
   0.30762155  0.33892671 -0.00025147
   0.68543340  0.00663953  0.00079362
   0.10721830  0.22117924  0.94397919
   0.22227695  0.10912558  0.04831173
   0.10812860  0.55046895  0.94312602
   0.21958448  0.44663886  0.05667053
   0.11179938  0.89098659  0.95243205
   0.22352655  0.78020017  0.05472994
   0.44386750  0.22109337  0.95683662
   0.55365422  0.11330004  0.04850177
   0.44707957  0.55903357  0.95022631
   0.55650458  0.44561278  0.04531526
   0.44405137  0.88642042  0.94985486
   0.55369701  0.77344499  0.04786640
   0.77533290  0.22335941  0.94774853
   0.88939907  0.11698236  0.05560587
   0.77688713  0.55500679  0.95015570
   0.88588271  0.44210677  0.05381035
   0.77520474  0.88449366  0.94617512
   0.89207593  0.77943270  0.04877231
unknown system                          
           1
     8.357635    4.829222    0.000000
    -8.326530    4.775493    0.000000
     0.000000    0.000000   30.000000
   V    Mo   W    S 
   3   3   3  18
Direct configuration=    20
   0.68597632  0.68207770  0.00041520
   0.69228282  0.34215756 -0.00041420
   0.33149496 -0.02764956 -0.00018044
   1.00792709  0.33826923 -0.00006763
   0.30411419  0.65112082 -0.00000381
   0.01248382  0.65092269 -0.00009422
  -0.01465902  0.01595600 -0.00024432
   0.30687194  0.33887872 -0.00027444
   0.68653248  0.00777343  0.00079413
   0.10691272  0.22119997  0.94387567
   0.22194961  0.10894253  0.04808468
   0.10774400  0.54995403  0.94312617
   0.21910417  0.44652442  0.05665932
   0.11166453  0.89131189  0.95286473
   0.22338182  0.77982579  0.05478051
   0.44386883  0.22106446  0.95717258
   0.55382378  0.11332003  0.04848089
   0.44706207  0.55906022  0.95036293
   0.55644249  0.44565311  0.04501430
   0.44427219  0.88604707  0.94989566
   0.55361640  0.77339941  0.04749716
   0.77511607  0.22319481  0.94758733
   0.88933471  0.11715283  0.05583726
   0.77715505  0.55501135  0.95010492
   0.88589147  0.44222547  0.05392400
   0.77512246  0.88471582  0.94608776
   0.89272750  0.78010465  0.04871374
unknown system                          
           1
     8.357699    4.829982    0.000000
    -8.326169    4.775510    0.000000
     0.000000    0.000000   30.000000
   V    Mo   W    S 
   3   3   3  18
Direct configuration=    21
   0.68693984  0.68238192  0.00037142
   0.69278163  0.34227910 -0.00040194
   0.33201130 -0.02811156 -0.00012017
   1.00735028  0.33792417 -0.00004685
   0.30362767  0.65083732 -0.00000120
   0.01238973  0.65065254 -0.00007471
  -0.01491033  0.01636248 -0.00029076
   0.30642868  0.33885746 -0.00029357
   0.68705496  0.00847041  0.00077374
   0.10668925  0.22122235  0.94379383
   0.22179217  0.10882527  0.04795418
   0.10745419  0.54961619  0.94311127
   0.21877821  0.44643512  0.05667568
   0.11162625  0.89154550  0.95314314
   0.22329286  0.77957164  0.05483408
   0.44386198  0.22102100  0.95737597
   0.55395338  0.11336344  0.04849618
   0.44706576  0.55908780  0.95044302
   0.55641127  0.44568934  0.04483312
   0.44440333  0.88576294  0.94990455
   0.55352517  0.77331181  0.04724699
   0.77496889  0.22311575  0.94746729
   0.88929011  0.11728239  0.05601294
   0.77732901  0.55500425  0.95005126
   0.88586312  0.44230659  0.05401444
   0.77507011  0.88485866  0.94601689
   0.89316561  0.78054057  0.04870912
unknown system                          
           1
     8.363990    4.834433    0.000000
    -8.332436    4.779911    0.000000
     0.000000    0.000000   30.000000
   V    Mo   W    S 
   3   3   3  18
Direct configuration=    22
   0.68855453  0.68290318  0.00030396
   0.69345508  0.34244067 -0.00038474
   0.33284092 -0.02848971 -0.00001962
   1.00647002  0.33737734 -0.00000587
   0.30281261  0.65023507 -0.00000086
   0.01207410  0.65012476 -0.00003621
  -0.01542293  0.01694489 -0.00032698
   0.30574659  0.33877431 -0.00032469
   0.68796418  0.00949170  0.00075980
   0.10636312  0.22129081  0.94372999
   0.22156733  0.10871430  0.04774900
   0.10703362  0.54917310  0.94312658
   0.21829150  0.44627348  0.05665623
   0.11159433  0.89189804  0.95356784
   0.22313124  0.77913478  0.05490184
   0.44387466  0.22098943  0.95768055
   0.55424096  0.11344067  0.04850589
   0.44705793  0.55910293  0.95059695
   0.55640831  0.44579944  0.04453242
   0.44462290  0.88531355  0.94992543
   0.55347792  0.77319094  0.04681004
   0.77474478  0.22303445  0.94733541
   0.88918700  0.11737248  0.05616163
   0.77757223  0.55497727  0.94999502
   0.88580772  0.44244561  0.05410631
   0.77502308  0.88507467  0.94597125
   0.89372073  0.78118631  0.04868272
unknown system                          
           1
     8.360761    4.832832    0.000000
    -8.329659    4.779089    0.000000
     0.000000    0.000000   30.000000
   V    Mo   W    S 
   3   3   3  18
Direct configuration=    23
   0.69003145  0.68321095  0.00019938
   0.69387717  0.34248180 -0.00035701
   0.33361865 -0.02882624  0.00008164
   1.00572201  0.33695368  0.00001587
   0.30213424  0.64972171  0.00001133
   0.01180806  0.64981967  0.00000599
  -0.01557798  0.01750612 -0.00038669
   0.30508294  0.33865182 -0.00034616
   0.68850240  0.01036721  0.00069762
   0.10600759  0.22136108  0.94363448
   0.22144574  0.10861809  0.04760884
   0.10658487  0.54875759  0.94310135
   0.21781823  0.44607275  0.05668450
   0.11165418  0.89226979  0.95393448
   0.22300263  0.77875749  0.05498085
   0.44388163  0.22094777  0.95791659
   0.55455535  0.11356165  0.04857278
   0.44708896  0.55912082  0.95070813
   0.55638472  0.44589422  0.04428917
   0.44477910  0.88489092  0.94993674
   0.55335982  0.77299102  0.04641936
   0.77452651  0.22297830  0.94716869
   0.88911379  0.11753914  0.05637797
   0.77780000  0.55494205  0.94987105
   0.88568533  0.44252993  0.05425130
   0.77499837  0.88527851  0.94586678
   0.89432870  0.78181661  0.04875488
unknown system                          
           1
     8.364060    4.835015    0.000000
    -8.333120    4.781548    0.000000
     0.000000    0.000000   30.000000
   V    Mo   W    S 
   3   3   3  18
Direct configuration=    24
   0.69104188  0.68336597  0.00013510
   0.69405536  0.34248439 -0.00034045
   0.33410528 -0.02905185  0.00015281
   1.00524093  0.33665988  0.00004744
   0.30170130  0.64949468  0.00001806
   0.01164079  0.64967573  0.00004550
  -0.01576601  0.01783225 -0.00038487
   0.30468108  0.33852144 -0.00036378
   0.68883684  0.01087838  0.00068141
   0.10579581  0.22143339  0.94360353
   0.22141579  0.10858325  0.04751677
   0.10631598  0.54857528  0.94311983
   0.21752333  0.44591522  0.05667549
   0.11179628  0.89252226  0.95416899
   0.22296735  0.77858069  0.05499450
   0.44384620  0.22087386  0.95805945
   0.55472212  0.11358874  0.04859709
   0.44708587  0.55907435  0.95079706
   0.55638199  0.44599504  0.04413265
   0.44479503  0.88465414  0.94997176