   27   27  100    1
  0.9710400E+02  0.1002848E-08  0.1002848E-08  0.3000000E-08  0.5000000E-15
  1.000000000000000E-004
  CAR 
 unknown system                          
    159     34    120
 
  0.0000000E+00  0.0000000E+00  0.0000000E+00  0.1562500E-01
    1      -17.826879   1.000000
    2      -16.729180   1.000000
    3      -16.643156   1.000000
    4      -16.613198   1.000000
    5      -16.531777   1.000000
    6      -16.513942   1.000000
    7      -16.335619   1.000000
    8      -16.270979   1.000000
    9      -16.228149   1.000000
   10      -16.057372   1.000000
   11      -16.037235   1.000000
   12      -16.026477   1.000000
   13      -15.862619   1.000000
   14      -15.720952   1.000000
   15      -15.598970   1.000000
   16      -15.553733   1.000000
   17      -15.302246   1.000000
   18      -15.235489   1.000000
   19       -9.358497   1.000000
   20       -9.043329   1.000000
   21       -8.935576   1.000000
   22       -8.910479   1.000000
   23       -8.712402   1.000000
   24       -8.683901   1.000000
   25       -8.634443   1.000000
   26       -8.560700   1.000000
   27       -8.492415   1.000000
   28       -8.346225   1.000000
   29       -8.306438   1.000000
   30       -8.279574   1.000000
   31       -8.274547   1.000000
   32       -8.200081   1.000000
   33       -8.160520   1.000000
   34       -8.079809   1.000000
   35       -7.953917   1.000000
   36       -7.769983   1.000000
   37       -7.708736   1.000000
   38       -7.551359   1.000000
   39       -7.488445   1.000000
   40       -7.435277   1.000000
   41       -7.306203   1.000000
   42       -7.209773   1.000000
   43       -7.170210   1.000000
   44       -6.945341   1.000000
   45       -6.837577   1.000000
   46       -6.806958   1.000000
   47       -6.771858   1.000000
   48       -6.683594   1.000000
   49       -6.571758   1.000000
   50       -6.530546   1.000000
   51       -6.407426   1.000000
   52       -6.377812   1.000000
   53       -6.292649   1.000000
   54       -6.229922   1.000000
   55       -6.151235   1.000000
   56       -6.036969   1.000000
   57       -5.961502   1.000000
   58       -5.818109   1.000000
   59       -5.733267   1.000000
   60       -5.637203   1.000000
   61       -5.572114   1.000000
   62       -5.530600   1.000000
   63       -5.179594   1.000000
   64       -5.111953   1.000000
   65       -5.043561   1.000000
   66       -4.986732   1.000000
   67       -4.917262   1.000000
   68       -4.866959   1.000000
   69       -4.741625   1.000000
   70       -4.658391   1.000000
   71       -4.568217   1.000000
   72       -4.527283   1.000000
   73       -4.480249   1.000000
   74       -4.352962   1.000000
   75       -4.224006   1.000000
   76       -4.020205   1.000000
   77       -3.730712   0.999398
   78       -3.595166   0.988678
   79       -3.536844   0.969047
   80       -3.331648   0.661301
   81       -3.205331   0.316618
   82       -2.755065   0.000126
   83       -2.637037   0.000003
   84       -2.542942   0.000000
   85       -2.472126   0.000000
   86       -2.347894   0.000000
   87       -2.240497   0.000000
   88       -2.206123   0.000000
   89       -2.120803   0.000000
   90       -2.004511   0.000000
   91       -1.940993   0.000000
   92       -1.652775   0.000000
   93       -1.420723   0.000000
   94       -1.316183   0.000000
   95       -1.224691   0.000000
   96       -1.117102   0.000000
   97       -0.953574   0.000000
   98       -0.885186   0.000000
   99       -0.831347   0.000000
  100       -0.675084   0.000000
  101       -0.592926   0.000000
  102       -0.537384   0.000000
  103       -0.336063   0.000000
  104       -0.261701   0.000000
  105       -0.221101   0.000000
  106       -0.146357   0.000000
  107        0.009153   0.000000
  108        0.060014   0.000000
  109        0.190340   0.000000
  110        0.238208   0.000000
  111        0.393534   0.000000
  112        0.426829   0.000000
  113        0.634622   0.000000
  114        0.829786   0.000000
  115        0.861013   0.000000
  116        0.965839   0.000000
  117        1.138428   0.000000
  118        1.634298   0.000000
  119        1.831674   0.000000
  120        2.150509   0.000000
 
  0.1250000E+00  0.2775558E-16  0.0000000E+00  0.3125000E-01
    1      -17.803871   1.000000
    2      -16.772346   1.000000
    3      -16.692742   1.000000
    4      -16.657918   1.000000
    5      -16.571313   1.000000
    6      -16.459426   1.000000
    7      -16.337056   1.000000
    8      -16.228750   1.000000
    9      -16.207971   1.000000
   10      -16.077760   1.000000
   11      -16.019037   1.000000
   12      -15.970793   1.000000
   13      -15.839918   1.000000
   14      -15.731926   1.000000
   15      -15.603276   1.000000
   16      -15.545505   1.000000
   17      -15.319126   1.000000
   18      -15.237589   1.000000
   19       -9.384862   1.000000
   20       -9.086487   1.000000
   21       -9.040891   1.000000
   22       -8.968171   1.000000
   23       -8.760342   1.000000
   24       -8.733030   1.000000
   25       -8.701578   1.000000
   26       -8.579084   1.000000
   27       -8.455187   1.000000
   28       -8.382118   1.000000
   29       -8.305477   1.000000
   30       -8.248891   1.000000
   31       -8.190567   1.000000
   32       -8.142884   1.000000
   33       -8.051048   1.000000
   34       -7.966981   1.000000
   35       -7.796954   1.000000
   36       -7.761770   1.000000
   37       -7.668537   1.000000
   38       -7.587814   1.000000
   39       -7.487886   1.000000
   40       -7.395213   1.000000
   41       -7.316041   1.000000
   42       -7.209323   1.000000
   43       -7.161534   1.000000
   44       -6.985692   1.000000
   45       -6.926642   1.000000
   46       -6.831081   1.000000
   47       -6.777459   1.000000
   48       -6.678680   1.000000
   49       -6.589283   1.000000
   50       -6.480632   1.000000
   51       -6.398995   1.000000
   52       -6.384058   1.000000
   53       -6.265559   1.000000
   54       -6.251168   1.000000
   55       -6.111665   1.000000
   56       -6.033916   1.000000
   57       -5.944432   1.000000
   58       -5.833920   1.000000
   59       -5.712874   1.000000
   60       -5.627842   1.000000
   61       -5.590010   1.000000
   62       -5.521807   1.000000
   63       -5.292767   1.000000
   64       -5.154033   1.000000
   65       -5.112967   1.000000
   66       -5.004872   1.000000
   67       -4.958305   1.000000
   68       -4.871029   1.000000
   69       -4.759066   1.000000
   70       -4.636351   1.000000
   71       -4.549851   1.000000
   72       -4.523028   1.000000
   73       -4.393767   1.000000
   74       -4.332218   1.000000
   75       -4.159360   1.000000
   76       -3.960059   0.999999
   77       -3.776174   0.999814
   78       -3.698608   0.998697
   79       -3.564591   0.980452
   80       -3.403503   0.822285
   81       -3.061223   0.067305
   82       -2.754879   0.000125
   83       -2.678170   0.000013
   84       -2.529436   0.000000
   85       -2.434134   0.000000
   86       -2.314423   0.000000
   87       -2.278722   0.000000
   88       -2.175249   0.000000
   89       -2.101438   0.000000
   90       -1.975350   0.000000
   91       -1.964790   0.000000
   92       -1.635946   0.000000
   93       -1.420343   0.000000
   94       -1.292524   0.000000
   95       -1.225481   0.000000
   96       -1.110698   0.000000
   97       -0.962764   0.000000
   98       -0.926243   0.000000
   99       -0.807268   0.000000
  100       -0.729956   0.000000
  101       -0.681184   0.000000
  102       -0.605487   0.000000
  103       -0.442037   0.000000
  104       -0.283875   0.000000
  105       -0.226057   0.000000
  106       -0.157112   0.000000
  107        0.001775   0.000000
  108        0.067463   0.000000
  109        0.200109   0.000000
  110        0.261059   0.000000
  111        0.350396   0.000000
  112        0.454416   0.000000
  113        0.613127   0.000000
  114        0.811674   0.000000
  115        0.908944   0.000000
  116        1.016226   0.000000
  117        1.162368   0.000000
  118        1.679048   0.000000
  119        1.869117   0.000000
  120        2.185688   0.000000
 
  0.2500000E+00  0.5551115E-16  0.0000000E+00  0.3125000E-01
    1      -17.737874   1.000000
    2      -16.949232   1.000000
    3      -16.734316   1.000000
    4      -16.688095   1.000000
    5      -16.620744   1.000000
    6      -16.405030   1.000000
    7      -16.334181   1.000000
    8      -16.204467   1.000000
    9      -16.138522   1.000000
   10      -16.063524   1.000000
   11      -15.992931   1.000000
   12      -15.903373   1.000000
   13      -15.798990   1.000000
   14      -15.734921   1.000000
   15      -15.610691   1.000000
   16      -15.531480   1.000000
   17      -15.353849   1.000000
   18      -15.245667   1.000000
   19       -9.532182   1.000000
   20       -9.230434   1.000000
   21       -9.109385   1.000000
   22       -9.025964   1.000000
   23       -8.880201   1.000000
   24       -8.828908   1.000000
   25       -8.744750   1.000000
   26       -8.521276   1.000000
   27       -8.397113   1.000000
   28       -8.357644   1.000000
   29       -8.288206   1.000000
   30       -8.189238   1.000000
   31       -8.135934   1.000000
   32       -8.060484   1.000000
   33       -7.961654   1.000000
   34       -7.863085   1.000000
   35       -7.789382   1.000000
   36       -7.673762   1.000000
   37       -7.558264   1.000000
   38       -7.501446   1.000000
   39       -7.407234   1.000000
   40       -7.311521   1.000000
   41       -7.265825   1.000000
   42       -7.212207   1.000000
   43       -7.106700   1.000000
   44       -7.048883   1.000000
   45       -6.982418   1.000000
   46       -6.840369   1.000000
   47       -6.821039   1.000000
   48       -6.695665   1.000000
   49       -6.572274   1.000000
   50       -6.503237   1.000000
   51       -6.420716   1.000000
   52       -6.310196   1.000000
   53       -6.249915   1.000000
   54       -6.181948   1.000000
   55       -6.086370   1.000000
   56       -6.018389   1.000000
   57       -5.925599   1.000000
   58       -5.849453   1.000000
   59       -5.772879   1.000000
   60       -5.687133   1.000000
   61       -5.636413   1.000000
   62       -5.531652   1.000000
   63       -5.477159   1.000000
   64       -5.332406   1.000000
   65       -5.161768   1.000000
   66       -5.072424   1.000000
   67       -4.925414   1.000000
   68       -4.887225   1.000000
   69       -4.792472   1.000000
   70       -4.611619   1.000000
   71       -4.508692   1.000000
   72       -4.461146   1.000000
   73       -4.302456   1.000000
   74       -4.227498   1.000000
   75       -4.084968   1.000000
   76       -4.050610   1.000000
   77       -3.936949   0.999999
   78       -3.700968   0.998767
   79       -3.602551   0.990139
   80       -3.333190   0.665282
   81       -2.961401   0.013832
   82       -2.785276   0.000283
   83       -2.686131   0.000017
   84       -2.517316   0.000000
   85       -2.385020   0.000000
   86       -2.328573   0.000000
   87       -2.230851   0.000000
   88       -2.168339   0.000000
   89       -2.037936   0.000000
   90       -2.009371   0.000000
   91       -1.878220   0.000000
   92       -1.605705   0.000000
   93       -1.419174   0.000000
   94       -1.271524   0.000000
   95       -1.209849   0.000000
   96       -1.102730   0.000000
   97       -1.019234   0.000000
   98       -0.967709   0.000000
   99       -0.911040   0.000000
  100       -0.814616   0.000000
  101       -0.759454   0.000000
  102       -0.730534   0.000000
  103       -0.554863   0.000000
  104       -0.372437   0.000000
  105       -0.320581   0.000000
  106       -0.224549   0.000000
  107       -0.018365   0.000000
  108        0.035525   0.000000
  109        0.168035   0.000000
  110        0.249107   0.000000
  111        0.373315   0.000000
  112        0.485784   0.000000
  113        0.594596   0.000000
  114        0.760740   0.000000
  115        1.020887   0.000000
  116        1.133336   0.000000
  117        1.247955   0.000000
  118        1.802750   0.000000
  119        1.977105   0.000000
  120        2.289804   0.000000
 
  0.3750000E+00  0.0000000E+00  0.0000000E+00  0.3125000E-01
    1      -17.643498   1.000000
    2      -17.135366   1.000000
    3      -16.767187   1.000000
    4      -16.710070   1.000000
    5      -16.637562   1.000000
    6      -16.394651   1.000000
    7      -16.329779   1.000000
    8      -16.165161   1.000000
    9      -16.091484   1.000000
   10      -16.042421   1.000000
   11      -15.955153   1.000000
   12      -15.881514   1.000000
   13      -15.787392   1.000000
   14      -15.689346   1.000000
   15      -15.622909   1.000000
   16      -15.547325   1.000000
   17      -15.359105   1.000000
   18      -15.258757   1.000000
   19       -9.711802   1.000000
   20       -9.332560   1.000000
   21       -9.153775   1.000000
   22       -9.037076   1.000000
   23       -8.961017   1.000000
   24       -8.885452   1.000000
   25       -8.704155   1.000000
   26       -8.443482   1.000000
   27       -8.347678   1.000000
   28       -8.310778   1.000000
   29       -8.267881   1.000000
   30       -8.217245   1.000000
   31       -8.172729   1.000000
   32       -7.990846   1.000000
   33       -7.945091   1.000000
   34       -7.891887   1.000000
   35       -7.781473   1.000000
   36       -7.659100   1.000000
   37       -7.504512   1.000000
   38       -7.439259   1.000000
   39       -7.341296   1.000000
   40       -7.309844   1.000000
   41       -7.208401   1.000000
   42       -7.118914   1.000000
   43       -7.073855   1.000000
   44       -6.966575   1.000000
   45       -6.900639   1.000000
   46       -6.792966   1.000000
   47       -6.745087   1.000000
   48       -6.632756   1.000000
   49       -6.538988   1.000000
   50       -6.464496   1.000000
   51       -6.416663   1.000000
   52       -6.339384   1.000000
   53       -6.221525   1.000000
   54       -6.168889   1.000000
   55       -6.079597   1.000000
   56       -6.044503   1.000000
   57       -5.950192   1.000000
   58       -5.912906   1.000000
   59       -5.866225   1.000000
   60       -5.775568   1.000000
   61       -5.720008   1.000000
   62       -5.662628   1.000000
   63       -5.590661   1.000000
   64       -5.334819   1.000000
   65       -5.172213   1.000000
   66       -5.121314   1.000000
   67       -4.975517   1.000000
   68       -4.849445   1.000000
   69       -4.770963   1.000000
   70       -4.725314   1.000000
   71       -4.500015   1.000000
   72       -4.420444   1.000000
   73       -4.348184   1.000000
   74       -4.162310   1.000000
   75       -4.102768   1.000000
   76       -4.032350   1.000000
   77       -3.888578   0.999993
   78       -3.677337   0.997885
   79       -3.644724   0.995728
   80       -3.203509   0.312045
   81       -2.966508   0.015159
   82       -2.798954   0.000403
   83       -2.659418   0.000007
   84       -2.512987   0.000000
   85       -2.425635   0.000000
   86       -2.289782   0.000000
   87       -2.219073   0.000000
   88       -2.125526   0.000000
   89       -2.018891   0.000000
   90       -1.970888   0.000000
   91       -1.769151   0.000000
   92       -1.593940   0.000000
   93       -1.413090   0.000000
   94       -1.291247   0.000000
   95       -1.201808   0.000000
   96       -1.136831   0.000000
   97       -1.087115   0.000000
   98       -1.037622   0.000000
   99       -0.969636   0.000000
  100       -0.886773   0.000000
  101       -0.831377   0.000000
  102       -0.745841   0.000000
  103       -0.662603   0.000000
  104       -0.469295   0.000000
  105       -0.374855   0.000000
  106       -0.283774   0.000000
  107       -0.124890   0.000000
  108       -0.050375   0.000000
  109        0.155015   0.000000
  110        0.222485   0.000000
  111        0.368994   0.000000
  112        0.542736   0.000000
  113        0.601918   0.000000
  114        0.748287   0.000000
  115        1.096829   0.000000
  116        1.240890   0.000000
  117        1.353303   0.000000
  118        1.987141   0.000000
  119        2.147417   0.000000
  120        2.459066   0.000000
 
  0.5000000E+00  0.1110223E-15  0.0000000E+00  0.1562500E-01
    1      -17.582715   1.000000
    2      -17.229173   1.000000
    3      -16.779434   1.000000
    4      -16.720826   1.000000
    5      -16.638343   1.000000
    6      -16.397279   1.000000
    7      -16.329277   1.000000
    8      -16.138942   1.000000
    9      -16.077961   1.000000
   10      -16.029923   1.000000
   11      -15.954784   1.000000
   12      -15.873981   1.000000
   13      -15.766038   1.000000
   14      -15.664220   1.000000
   15      -15.631775   1.000000
   16      -15.579968   1.000000
   17      -15.344091   1.000000
   18      -15.267648   1.000000
   19       -9.782803   1.000000
   20       -9.369109   1.000000
   21       -9.177470   1.000000
   22       -9.056430   1.000000
   23       -8.977196   1.000000
   24       -8.868765   1.000000
   25       -8.676886   1.000000
   26       -8.435528   1.000000
   27       -8.336862   1.000000
   28       -8.311277   1.000000
   29       -8.268415   1.000000
   30       -8.190773   1.000000
   31       -8.171363   1.000000
   32       -7.998568   1.000000
   33       -7.939238   1.000000
   34       -7.915702   1.000000
   35       -7.767161   1.000000
   36       -7.679078   1.000000
   37       -7.503392   1.000000
   38       -7.476229   1.000000
   39       -7.354316   1.000000
   40       -7.259431   1.000000
   41       -7.185197   1.000000
   42       -7.078244   1.000000
   43       -7.050417   1.000000
   44       -6.905518   1.000000
   45       -6.801232   1.000000
   46       -6.714950   1.000000
   47       -6.657226   1.000000
   48       -6.577453   1.000000
   49       -6.565735   1.000000
   50       -6.472281   1.000000
   51       -6.406464   1.000000
   52       -6.318853   1.000000
   53       -6.264261   1.000000
   54       -6.237411   1.000000
   55       -6.131398   1.000000
   56       -6.083756   1.000000
   57       -6.014074   1.000000
   58       -5.882917   1.000000
   59       -5.860276   1.000000
   60       -5.750962   1.000000
   61       -5.730436   1.000000
   62       -5.715662   1.000000
   63       -5.548234   1.000000
   64       -5.344850   1.000000
   65       -5.316254   1.000000
   66       -5.116845   1.000000
   67       -5.048317   1.000000
   68       -4.937245   1.000000
   69       -4.761066   1.000000
   70       -4.600905   1.000000
   71       -4.530237   1.000000
   72       -4.483004   1.000000
   73       -4.323592   1.000000
   74       -4.168865   1.000000
   75       -4.082027   1.000000
   76       -3.979149   1.000000
   77       -3.853444   0.999980
   78       -3.688838   0.998368
   79       -3.656112   0.996639
   80       -3.131432   0.158723
   81       -2.989776   0.022676
   82       -2.802566   0.000442
   83       -2.647855   0.000005
   84       -2.514541   0.000000
   85       -2.448334   0.000000
   86       -2.270320   0.000000
   87       -2.219001   0.000000
   88       -2.102653   0.000000
   89       -2.016011   0.000000
   90       -1.943932   0.000000
   91       -1.707463   0.000000
   92       -1.608021   0.000000
   93       -1.408543   0.000000
   94       -1.295919   0.000000
   95       -1.224770   0.000000
   96       -1.183434   0.000000
   97       -1.102242   0.000000
   98       -1.042234   0.000000
   99       -0.987854   0.000000
  100       -0.901309   0.000000
  101       -0.857981   0.000000
  102       -0.764240   0.000000
  103       -0.694143   0.000000
  104       -0.517285   0.000000
  105       -0.375469   0.000000
  106       -0.322726   0.000000
  107       -0.171036   0.000000
  108       -0.086989   0.000000
  109        0.146083   0.000000
  110        0.206546   0.000000
  111        0.360835   0.000000
  112        0.567410   0.000000
  113        0.608523   0.000000
  114        0.752810   0.000000
  115        1.124677   0.000000
  116        1.277725   0.000000
  117        1.398558   0.000000
  118        2.205746   0.000000
  119        2.237544   0.000000
  120        2.350332   0.000000
 
  0.0000000E+00  0.1250000E+00  0.0000000E+00  0.3125000E-01
    1      -17.801853   1.000000
    2      -16.803171   1.000000
    3      -16.720712   1.000000
    4      -16.603292   1.000000
    5      -16.561347   1.000000
    6      -16.437791   1.000000
    7      -16.355795   1.000000
    8      -16.253045   1.000000
    9      -16.200276   1.000000
   10      -16.061873   1.000000
   11      -16.010803   1.000000
   12      -15.978502   1.000000
   13      -15.854388   1.000000
   14      -15.730825   1.000000
   15      -15.598829   1.000000
   16      -15.551742   1.000000
   17      -15.310925   1.000000
   18      -15.241103   1.000000
   19       -9.360450   1.000000
   20       -9.162350   1.000000
   21       -9.055250   1.000000
   22       -8.951080   1.000000
   23       -8.807093   1.000000
   24       -8.680714   1.000000
   25       -8.572611   1.000000
   26       -8.565452   1.000000
   27       -8.440558   1.000000
   28       -8.417328   1.000000
   29       -8.351193   1.000000
   30       -8.248329   1.000000
   31       -8.218273   1.000000
   32       -8.147437   1.000000
   33       -8.048570   1.000000
   34       -7.947540   1.000000
   35       -7.826210   1.000000
   36       -7.767707   1.000000
   37       -7.705335   1.000000
   38       -7.555295   1.000000
   39       -7.502532   1.000000
   40       -7.348794   1.000000
   41       -7.314109   1.000000
   42       -7.238056   1.000000
   43       -7.168896   1.000000
   44       -7.024838   1.000000
   45       -6.872547   1.000000
   46       -6.842291   1.000000
   47       -6.748230   1.000000
   48       -6.662671   1.000000
   49       -6.596437   1.000000
   50       -6.485614   1.000000
   51       -6.411399   1.000000
   52       -6.388191   1.000000
   53       -6.271645   1.000000
   54       -6.230984   1.000000
   55       -6.143425   1.000000
   56       -6.052212   1.000000
   57       -5.929863   1.000000
   58       -5.845088   1.000000
   59       -5.705693   1.000000
   60       -5.615145   1.000000
   61       -5.584039   1.000000
   62       -5.513943   1.000000
   63       -5.261309   1.000000
   64       -5.191485   1.000000
   65       -5.138046   1.000000
   66       -5.000163   1.000000
   67       -4.946091   1.000000
   68       -4.861041   1.000000
   69       -4.773413   1.000000
   70       -4.650330   1.000000
   71       -4.564288   1.000000
   72       -4.512070   1.000000
   73       -4.371156   1.000000
   74       -4.286788   1.000000
   75       -4.195899   1.000000
   76       -3.954191   0.999999
   77       -3.782924   0.999845
   78       -3.704690   0.998870
   79       -3.543692   0.972279
   80       -3.403316   0.821941
   81       -3.064564   0.070436
   82       -2.754551   0.000124
   83       -2.673888   0.000011
   84       -2.539574   0.000000
   85       -2.430578   0.000000
   86       -2.325077   0.000000
   87       -2.269828   0.000000
   88       -2.176271   0.000000
   89       -2.095743   0.000000
   90       -1.999222   0.000000
   91       -1.939295   0.000000
   92       -1.637562   0.000000
   93       -1.435093   0.000000
   94       -1.307216   0.000000
   95       -1.219196   0.000000
   96       -1.094346   0.000000
   97       -0.965278   0.000000
   98       -0.908667   0.000000
   99       -0.834283   0.000000
  100       -0.718693   0.000000
  101       -0.620120   0.000000
  102       -0.561563   0.000000
  103       -0.439528   0.000000
  104       -0.336441   0.000000
  105       -0.266581   0.000000
  106       -0.195589   0.000000
  107       -0.044618   0.000000
  108        0.103847   0.000000
  109        0.151587   0.000000
  110        0.221634   0.000000
  111        0.374320   0.000000
  112        0.565983   0.000000
  113        0.621264   0.000000
  114        0.825102   0.000000
  115        0.889491   0.000000
  116        1.025024   0.000000
  117        1.143304   0.000000
  118        1.679415   0.000000
  119        1.869935   0.000000
  120        2.185811   0.000000
 
  0.1250000E+00  0.1250000E+00  0.0000000E+00  0.3125000E-01
    1      -17.756493   1.000000
    2      -16.877665   1.000000
    3      -16.812159   1.000000
    4      -16.668764   1.000000
    5      -16.502175   1.000000
    6      -16.451936   1.000000
    7      -16.351904   1.000000
    8      -16.232514   1.000000
    9      -16.141037   1.000000
   10      -16.065347   1.000000
   11      -15.985398   1.000000
   12      -15.937977   1.000000
   13      -15.818069   1.000000
   14      -15.730430   1.000000
   15      -15.599843   1.000000
   16      -15.535222   1.000000
   17      -15.339684   1.000000
   18      -15.248940   1.000000
   19       -9.443783   1.000000
   20       -9.283264   1.000000
   21       -9.105070   1.000000
   22       -9.027636   1.000000
   23       -8.855976   1.000000
   24       -8.761981   1.000000
   25       -8.631821   1.000000
   26       -8.525397   1.000000
   27       -8.402264   1.000000
   28       -8.373958   1.000000
   29       -8.305841   1.000000
   30       -8.244819   1.000000
   31       -8.182837   1.000000
   32       -8.135255   1.000000
   33       -7.971456   1.000000
   34       -7.848674   1.000000
   35       -7.810780   1.000000
   36       -7.702422   1.000000
   37       -7.548035   1.000000
   38       -7.497921   1.000000
   39       -7.386065   1.000000
   40       -7.343414   1.000000
   41       -7.283766   1.000000
   42       -7.215710   1.000000
   43       -7.184699   1.000000
   44       -7.074701   1.000000
   45       -6.959625   1.000000
   46       -6.856586   1.000000
   47       -6.756546   1.000000
   48       -6.703551   1.000000
   49       -6.597325   1.000000
   50       -6.515196   1.000000
   51       -6.436888   1.000000
   52       -6.304929   1.000000
   53       -6.256896   1.000000
   54       -6.179083   1.000000
   55       -6.127860   1.000000
   56       -6.013294   1.000000
   57       -5.923180   1.000000
   58       -5.853696   1.000000
   59       -5.710272   1.000000
   60       -5.659727   1.000000
   61       -5.566401   1.000000
   62       -5.491630   1.000000
   63       -5.415030   1.000000
   64       -5.374821   1.000000
   65       -5.162361   1.000000
   66       -5.059263   1.000000
   67       -4.962303   1.000000
   68       -4.917749   1.000000
   69       -4.748005   1.000000
   70       -4.626659   1.000000
   71       -4.558908   1.000000
   72       -4.439675   1.000000
   73       -4.301274   1.000000
   74       -4.224277   1.000000
   75       -4.105592   1.000000
   76       -4.019235   1.000000
   77       -3.883363   0.999992
   78       -3.724457   0.999297
   79       -3.599028   0.989464
   80       -3.331337   0.660498
   81       -2.957987   0.013002
   82       -2.807315   0.000498
   83       -2.692277   0.000020
   84       -2.513665   0.000000
   85       -2.407894   0.000000
   86       -2.332590   0.000000
   87       -2.277514   0.000000
   88       -2.152640   0.000000
   89       -2.054383   0.000000
   90       -2.005810   0.000000
   91       -1.925486   0.000000
   92       -1.605386   0.000000
   93       -1.438483   0.000000
   94       -1.268433   0.000000
   95       -1.200900   0.000000
   96       -1.079891   0.000000
   97       -0.990273   0.000000
   98       -0.945524   0.000000
   99       -0.810195   0.000000
  100       -0.807998   0.000000
  101       -0.709493   0.000000
  102       -0.683056   0.000000
  103       -0.539769   0.000000
  104       -0.416115   0.000000
  105       -0.295779   0.000000
  106       -0.258484   0.000000
  107       -0.038878   0.000000
  108        0.069591   0.000000
  109        0.119168   0.000000
  110        0.242500   0.000000
  111        0.371081   0.000000
  112        0.510233   0.000000
  113        0.603219   0.000000
  114        0.820667   0.000000
  115        0.997953   0.000000
  116        1.068971   0.000000
  117        1.260859   0.000000
  118        1.765968   0.000000
  119        1.941016   0.000000
  120        2.256059   0.000000
 
  0.2500000E+00  0.1250000E+00  0.0000000E+00  0.3125000E-01
    1      -17.673402   1.000000
    2      -17.032884   1.000000
    3      -16.918890   1.000000
    4      -16.656040   1.000000
    5      -16.518239   1.000000
    6      -16.411603   1.000000
    7      -16.333014   1.000000
    8      -16.209382   1.000000
    9      -16.099207   1.000000
   10      -16.062713   1.000000
   11      -15.955591   1.000000
   12      -15.899010   1.000000
   13      -15.808193   1.000000
   14      -15.681922   1.000000
   15      -15.623132   1.000000
   16      -15.522209   1.000000
   17      -15.362362   1.000000
   18      -15.258655   1.000000
   19       -9.612473   1.000000
   20       -9.428671   1.000000
   21       -9.168915   1.000000
   22       -9.056076   1.000000
   23       -8.842717   1.000000
   24       -8.816058   1.000000
   25       -8.655819   1.000000
   26       -8.455447   1.000000
   27       -8.357556   1.000000
   28       -8.324824   1.000000
   29       -8.274927   1.000000
   30       -8.228222   1.000000
   31       -8.174617   1.000000
   32       -8.084389   1.000000
   33       -7.922853   1.000000
   34       -7.916945   1.000000
   35       -7.871582   1.000000
   36       -7.625248   1.000000
   37       -7.491383   1.000000
   38       -7.428475   1.000000
   39       -7.358889   1.000000
   40       -7.287465   1.000000
   41       -7.241482   1.000000
   42       -7.151058   1.000000
   43       -7.071509   1.000000
   44       -6.963216   1.000000
   45       -6.888065   1.000000
   46       -6.823320   1.000000
   47       -6.777226   1.000000