       N       E                     dE             d eps       ncg     rms          rms(c)
DAV:   1     0.112437251181E+04    0.11244E+04   -0.35868E+04  8160   0.577E+02
DAV:   2    -0.465151649258E+01   -0.11290E+04   -0.10881E+04 11280   0.173E+02
DAV:   3    -0.200080258103E+03   -0.19543E+03   -0.18796E+03 10920   0.819E+01
DAV:   4    -0.208992112599E+03   -0.89119E+01   -0.86312E+01 12000   0.258E+01
DAV:   5    -0.209323861526E+03   -0.33175E+00   -0.33077E+00 11360   0.366E+00    0.275E+01
DAV:   6    -0.237111452719E+03   -0.27788E+02   -0.11014E+02 12600   0.604E+01    0.596E+01
DAV:   7    -0.196426564278E+03    0.40685E+02   -0.17765E+02 13320   0.152E+02    0.199E+01
DAV:   8    -0.189400745560E+03    0.70258E+01   -0.17569E+01 12040   0.127E+01    0.125E+01
DAV:   9    -0.188166952118E+03    0.12338E+01   -0.31486E+00 13040   0.634E+00    0.914E+00
DAV:  10    -0.186998761967E+03    0.11682E+01   -0.20962E+00 13520   0.738E+00    0.274E+00
DAV:  11    -0.186968802136E+03    0.29960E-01   -0.59785E-01 13320   0.258E+00    0.281E+00
DAV:  12    -0.187096440071E+03   -0.12764E+00   -0.84153E-01 12120   0.495E+00    0.501E+00
DAV:  13    -0.186879892388E+03    0.21655E+00   -0.55571E-01 12800   0.411E+00    0.212E+00
DAV:  14    -0.186856041353E+03    0.23851E-01   -0.13025E-01 13360   0.208E+00    0.172E+00
DAV:  15    -0.186835180058E+03    0.20861E-01   -0.72324E-02 11880   0.162E+00    0.848E-01
DAV:  16    -0.186827711886E+03    0.74682E-02   -0.11896E-02 12040   0.455E-01    0.449E-01
DAV:  17    -0.186825817403E+03    0.18945E-02   -0.78602E-03 12560   0.429E-01    0.232E-01
DAV:  18    -0.186825367464E+03    0.44994E-03   -0.24384E-03 11880   0.144E-01    0.178E-01
DAV:  19    -0.186825017709E+03    0.34975E-03   -0.96737E-04 10680   0.132E-01    0.476E-02
DAV:  20    -0.186825752312E+03   -0.73460E-03   -0.68862E-04  9360   0.587E-02    0.503E-02
DAV:  21    -0.186826344840E+03   -0.59253E-03   -0.27074E-04  7720   0.454E-02    0.449E-02
DAV:  22    -0.186827518180E+03   -0.11733E-02   -0.22069E-04  7560   0.628E-02    0.406E-02
DAV:  23    -0.186828737542E+03   -0.12194E-02   -0.14600E-04  7520   0.448E-02    0.113E-02
DAV:  24    -0.186829328442E+03   -0.59090E-03   -0.31214E-05  6600   0.142E-02    0.752E-03
DAV:  25    -0.186829691353E+03   -0.36291E-03   -0.15686E-05  5840   0.120E-02    0.499E-03
DAV:  26    -0.186829925916E+03   -0.23456E-03   -0.90501E-06  6760   0.740E-03    0.155E-03
DAV:  27    -0.186830028407E+03   -0.10249E-03   -0.38255E-06  7160   0.481E-03    0.161E-03
DAV:  28    -0.186830069404E+03   -0.40997E-04   -0.20159E-06  7280   0.366E-03
   1 F= -.18683007E+03 E0= -.18665753E+03  d E =-.186830E+03
       N       E                     dE             d eps       ncg     rms          rms(c)
DAV:   1    -0.187460063387E+03   -0.63003E+00   -0.27146E+02  8160   0.350E+01    0.464E+00
DAV:   2    -0.189373224716E+03   -0.19132E+01   -0.20266E+01 12280   0.153E+01    0.885E+00
DAV:   3    -0.189332794727E+03    0.40430E-01   -0.40628E+00 12440   0.121E+01    0.669E+00
DAV:   4    -0.188726753778E+03    0.60604E+00   -0.61968E-01 12560   0.464E+00    0.177E+00
DAV:   5    -0.188741368829E+03   -0.14615E-01   -0.31120E-01 11520   0.201E+00    0.279E+00
DAV:   6    -0.188735037106E+03    0.63317E-02   -0.45662E-01 12720   0.371E+00    0.315E+00
DAV:   7    -0.188660670901E+03    0.74366E-01   -0.20856E-01 12480   0.266E+00    0.132E+00
DAV:   8    -0.188639734357E+03    0.20937E-01   -0.61777E-02 12480   0.107E+00    0.654E-01
DAV:   9    -0.188637266732E+03    0.24676E-02   -0.14955E-02 11760   0.641E-01    0.584E-01
DAV:  10    -0.188635077829E+03    0.21889E-02   -0.58919E-03 12520   0.429E-01    0.225E-01
DAV:  11    -0.188634582401E+03    0.49543E-03   -0.23529E-03 12760   0.190E-01    0.112E-01
DAV:  12    -0.188634657277E+03   -0.74877E-04   -0.88274E-04 12000   0.949E-02
   2 F= -.18863466E+03 E0= -.18849255E+03  d E =-.180459E+01
       N       E                     dE             d eps       ncg     rms          rms(c)
DAV:   1    -0.190563245854E+03   -0.19287E+01   -0.31147E+01  9280   0.142E+01    0.448E+00
DAV:   2    -0.190551926023E+03    0.11320E-01   -0.28570E+00 11400   0.973E+00    0.748E+00
DAV:   3    -0.190032517638E+03    0.51941E+00   -0.13533E+00 12280   0.868E+00    0.416E+00
DAV:   4    -0.189824908199E+03    0.20761E+00   -0.70769E-01 12840   0.408E+00    0.249E+00
DAV:   5    -0.189740473645E+03    0.84435E-01   -0.29679E-01 11440   0.197E+00    0.114E+00
DAV:   6    -0.189726702853E+03    0.13771E-01   -0.61926E-02 11960   0.135E+00    0.841E-01
DAV:   7    -0.189721063083E+03    0.56398E-02   -0.14871E-02 12240   0.701E-01    0.220E-01
DAV:   8    -0.189720908923E+03    0.15416E-03   -0.21491E-03 11040   0.171E-01    0.141E-01
DAV:   9    -0.189721157490E+03   -0.24857E-03   -0.10470E-03 10440   0.142E-01    0.159E-01
DAV:  10    -0.189721520495E+03   -0.36300E-03   -0.14019E-03 10520   0.258E-01    0.244E-01
DAV:  11    -0.189720968016E+03    0.55248E-03   -0.79761E-04  9280   0.190E-01    0.271E-02
DAV:  12    -0.189720986609E+03   -0.18593E-04   -0.62944E-05  5720   0.316E-02
   3 F= -.18972099E+03 E0= -.18960125E+03  d E =-.108633E+01
       N       E                     dE             d eps       ncg     rms          rms(c)
DAV:   1    -0.191254061413E+03   -0.15331E+01   -0.70817E+01  8160   0.192E+01    0.458E+00
DAV:   2    -0.191138874746E+03    0.11519E+00   -0.53675E+00 13320   0.823E+00    0.514E+00
DAV:   3    -0.191180642991E+03   -0.41768E-01   -0.15776E+00 12240   0.915E+00    0.643E+00
DAV:   4    -0.190827333649E+03    0.35331E+00   -0.13310E+00 12600   0.726E+00    0.313E+00
DAV:   5    -0.190824895990E+03    0.24377E-02   -0.54685E-01 12000   0.483E+00    0.334E+00
DAV:   6    -0.190683755343E+03    0.14114E+00   -0.21175E-01 12160   0.323E+00    0.828E-01
DAV:   7    -0.190678824125E+03    0.49312E-02   -0.38397E-02 12320   0.907E-01    0.506E-01
DAV:   8    -0.190677628013E+03    0.11961E-02   -0.12124E-02 11720   0.699E-01    0.543E-01
DAV:   9    -0.190674916838E+03    0.27112E-02   -0.44842E-03 11440   0.492E-01    0.150E-01
DAV:  10    -0.190675206127E+03   -0.28929E-03   -0.11694E-03 10480   0.136E-01    0.124E-01
DAV:  11    -0.190675054236E+03    0.15189E-03   -0.86506E-04 10480   0.107E-01    0.479E-02
DAV:  12    -0.190675047808E+03    0.64281E-05   -0.14439E-04  7200   0.450E-02
   4 F= -.19067505E+03 E0= -.19057377E+03  d E =-.954061E+00
       N       E                     dE             d eps       ncg     rms          rms(c)
DAV:   1    -0.192121486516E+03   -0.14464E+01   -0.15257E+02  8160   0.277E+01    0.581E+00
DAV:   2    -0.191867281007E+03    0.25421E+00   -0.96430E+00 12080   0.885E+00    0.461E+00
DAV:   3    -0.192252724432E+03   -0.38544E+00   -0.24480E+00 12200   0.109E+01    0.932E+00
DAV:   4    -0.191577546472E+03    0.67518E+00   -0.24915E+00 12200   0.114E+01    0.370E+00
DAV:   5    -0.191415897578E+03    0.16165E+00   -0.59116E-01 12320   0.403E+00    0.227E+00
DAV:   6    -0.191365253990E+03    0.50644E-01   -0.21787E-01 12480   0.318E+00    0.155E+00
DAV:   7    -0.191347510266E+03    0.17744E-01   -0.86090E-02 12280   0.179E+00    0.636E-01
DAV:   8    -0.191340809532E+03    0.67007E-02   -0.11375E-02 10680   0.506E-01    0.202E-01
DAV:   9    -0.191342283394E+03   -0.14739E-02   -0.40512E-03 12480   0.433E-01    0.392E-01
DAV:  10    -0.191341123479E+03    0.11599E-02   -0.36122E-03 11480   0.422E-01    0.128E-01
DAV:  11    -0.191340955449E+03    0.16803E-03   -0.72630E-04 10320   0.124E-01    0.599E-02
DAV:  12    -0.191340921098E+03    0.34351E-04   -0.12863E-04  7560   0.486E-02
   5 F= -.19134092E+03 E0= -.19124674E+03  d E =-.665873E+00
       N       E                     dE             d eps       ncg     rms          rms(c)
DAV:   1    -0.191415784220E+03   -0.74829E-01   -0.54748E+00  8160   0.496E+00    0.656E-01
DAV:   2    -0.191477388167E+03   -0.61604E-01   -0.27559E-01 13560   0.292E+00    0.227E+00
DAV:   3    -0.191427081115E+03    0.50307E-01   -0.11940E-01 12440   0.231E+00    0.518E-01
DAV:   4    -0.191428162828E+03   -0.10817E-02   -0.15934E-02 11600   0.879E-01    0.653E-01
DAV:   5    -0.191423868812E+03    0.42940E-02   -0.80888E-03 12040   0.662E-01    0.213E-01
DAV:   6    -0.191423549384E+03    0.31943E-03   -0.22391E-03 10880   0.206E-01    0.130E-01
DAV:   7    -0.191423298186E+03    0.25120E-03   -0.11715E-03 10320   0.119E-01    0.603E-02
DAV:   8    -0.191423240999E+03    0.57187E-04   -0.19448E-04  6760   0.774E-02
   6 F= -.19142324E+03 E0= -.19132734E+03  d E =-.823199E-01
       N       E                     dE             d eps       ncg     rms          rms(c)
DAV:   1    -0.191430630916E+03   -0.73327E-02   -0.45798E-02  8240   0.460E-01    0.710E-02
DAV:   2    -0.191431288526E+03   -0.65761E-03   -0.23556E-03 12560   0.268E-01    0.239E-01
DAV:   3    -0.191430681605E+03    0.60692E-03   -0.11657E-03  9400   0.252E-01    0.508E-02
DAV:   4    -0.191430718587E+03   -0.36982E-04   -0.12112E-04  5920   0.789E-02
   7 F= -.19143072E+03 E0= -.19133484E+03  d E =-.747759E-02
       N       E                     dE             d eps       ncg     rms          rms(c)
DAV:   1    -0.191238396350E+03    0.19229E+00   -0.28554E+01  8160   0.114E+01    0.121E+00
DAV:   2    -0.191349558045E+03   -0.11116E+00   -0.81555E-01 13480   0.333E+00    0.246E+00
DAV:   3    -0.191281175385E+03    0.68383E-01   -0.19053E-01 12160   0.320E+00    0.120E+00
DAV:   4    -0.191273422566E+03    0.77528E-02   -0.51688E-02 12280   0.140E+00    0.949E-01
DAV:   5    -0.191267202654E+03    0.62199E-02   -0.31535E-02 12120   0.128E+00    0.685E-01
DAV:   6    -0.191263504613E+03    0.36980E-02   -0.14740E-02 11800   0.744E-01    0.334E-01
DAV:   7    -0.191262280780E+03    0.12238E-02   -0.63562E-03 11960   0.407E-01    0.245E-01
DAV:   8    -0.191261984981E+03    0.29580E-03   -0.27542E-03 11800   0.382E-01    0.219E-01
DAV:   9    -0.191261473703E+03    0.51128E-03   -0.85130E-04  9480   0.203E-01    0.448E-02
DAV:  10    -0.191261469255E+03    0.44478E-05   -0.15447E-04  6800   0.472E-02
   8 F= -.19126147E+03 E0= -.19116878E+03  d E =0.169249E+00
       N       E                     dE             d eps       ncg     rms          rms(c)
DAV:   1    -0.191208229371E+03    0.53244E-01   -0.52574E+00  8160   0.483E+00    0.555E-01
DAV:   2    -0.191234721603E+03   -0.26492E-01   -0.15445E-01 13600   0.192E+00    0.133E+00
DAV:   3    -0.191213915382E+03    0.20806E-01   -0.42812E-02 12480   0.156E+00    0.414E-01
DAV:   4    -0.191213469245E+03    0.44614E-03   -0.94795E-03 11200   0.552E-01    0.407E-01
DAV:   5    -0.191212438818E+03    0.10304E-02   -0.61400E-03 12480   0.553E-01    0.333E-01
DAV:   6    -0.191211443457E+03    0.99536E-03   -0.29889E-03 11440   0.361E-01    0.125E-01
DAV:   7    -0.191211349974E+03    0.93483E-04   -0.89200E-04 10640   0.131E-01
   9 F= -.19121135E+03 E0= -.19112110E+03  d E =0.501193E-01
       N       E                     dE             d eps       ncg     rms          rms(c)
DAV:   1    -0.191209001379E+03    0.24421E-02   -0.12120E+01  8160   0.734E+00    0.807E-01
DAV:   2    -0.191224315077E+03   -0.15314E-01   -0.27535E-01 12840   0.168E+00    0.868E-01
DAV:   3    -0.191225076626E+03   -0.76155E-03   -0.54145E-02 12440   0.164E+00    0.107E+00
DAV:   4    -0.191215850586E+03    0.92260E-02   -0.31075E-02 12360   0.131E+00    0.578E-01
DAV:   5    -0.191213269685E+03    0.25809E-02   -0.13202E-02 11160   0.794E-01    0.480E-01
DAV:   6    -0.191211840496E+03    0.14292E-02   -0.80887E-03 11600   0.676E-01    0.310E-01
DAV:   7    -0.191210743220E+03    0.10973E-02   -0.25576E-03 11920   0.319E-01    0.823E-02
DAV:   8    -0.191210676848E+03    0.66372E-04   -0.45195E-04 10040   0.112E-01
  10 F= -.19121068E+03 E0= -.19112087E+03  d E =0.673126E-03
       N       E                     dE             d eps       ncg     rms          rms(c)
DAV:   1    -0.191255323183E+03   -0.44580E-01   -0.43176E+00  8160   0.436E+00    0.542E-01
DAV:   2    -0.191287329753E+03   -0.32007E-01   -0.15775E-01 12760   0.210E+00    0.152E+00
DAV:   3    -0.191261693468E+03    0.25636E-01   -0.59553E-02 12280   0.179E+00    0.445E-01
DAV:   4    -0.191260675380E+03    0.10181E-02   -0.94237E-03 10840   0.565E-01    0.392E-01
DAV:   5    -0.191259858092E+03    0.81729E-03   -0.56519E-03 11440   0.539E-01    0.297E-01
DAV:   6    -0.191258888610E+03    0.96948E-03   -0.18986E-03 11120   0.276E-01    0.857E-02
DAV:   7    -0.191259104994E+03   -0.21638E-03   -0.84609E-04 10760   0.161E-01    0.142E-01
DAV:   8    -0.191258904082E+03    0.20091E-03   -0.56002E-04  9040   0.182E-01    0.766E-02
DAV:   9    -0.191258841461E+03    0.62621E-04   -0.12110E-04  6160   0.765E-02
  11 F= -.19125884E+03 E0= -.19116619E+03  d E =-.481646E-01
       N       E                     dE             d eps       ncg     rms          rms(c)
DAV:   1    -0.191327127706E+03   -0.68224E-01   -0.15918E+01  8160   0.838E+00    0.975E-01
DAV:   2    -0.191398707460E+03   -0.71580E-01   -0.48319E-01 13320   0.298E+00    0.220E+00
DAV:   3    -0.191352705192E+03    0.46002E-01   -0.18945E-01 12200   0.298E+00    0.109E+00
DAV:   4    -0.191343422292E+03    0.92829E-02   -0.38277E-02 12360   0.118E+00    0.726E-01
DAV:   5    -0.191341055541E+03    0.23668E-02   -0.21339E-02 12160   0.106E+00    0.616E-01
DAV:   6    -0.191336917516E+03    0.41380E-02   -0.83115E-03 11720   0.585E-01    0.183E-01
DAV:   7    -0.191336798623E+03    0.11889E-03   -0.24321E-03 11680   0.200E-01    0.976E-02
DAV:   8    -0.191336611292E+03    0.18733E-03   -0.67006E-04 10720   0.129E-01    0.716E-02
DAV:   9    -0.191336599456E+03    0.11836E-04   -0.25002E-04  8280   0.114E-01
  12 F= -.19133660E+03 E0= -.19124000E+03  d E =-.777580E-01
       N       E                     dE             d eps       ncg     rms          rms(c)
DAV:   1    -0.191328515655E+03    0.80956E-02   -0.74698E-01  8160   0.187E+00    0.279E-01
DAV:   2    -0.191328349995E+03    0.16566E-03   -0.21022E-02 11440   0.438E-01    0.255E-01
DAV:   3    -0.191328816387E+03   -0.46639E-03   -0.73783E-03 12040   0.531E-01    0.430E-01
DAV:   4    -0.191327239917E+03    0.15765E-02   -0.45375E-03 11080   0.461E-01    0.172E-01
DAV:   5    -0.191327023565E+03    0.21635E-03   -0.16218E-03 10280   0.251E-01    0.163E-01
DAV:   6    -0.191326828934E+03    0.19463E-03   -0.96820E-04  9600   0.231E-01    0.105E-01
DAV:   7    -0.191326710576E+03    0.11836E-03   -0.29365E-04  7320   0.115E-01    0.446E-02
DAV:   8    -0.191326710237E+03    0.33948E-06   -0.10023E-04  6000   0.745E-02
  13 F= -.19132671E+03 E0= -.19123038E+03  d E =0.988922E-02
       N       E                     dE             d eps       ncg     rms          rms(c)
DAV:   1    -0.191356986960E+03   -0.30276E-01   -0.26323E+00  8160   0.343E+00    0.391E-01
DAV:   2    -0.191368495254E+03   -0.11508E-01   -0.81223E-02 13480   0.124E+00    0.857E-01
DAV:   3    -0.191361309584E+03    0.71857E-02   -0.27443E-02 12120   0.115E+00    0.429E-01
DAV:   4    -0.191360064611E+03    0.12450E-02   -0.65447E-03 11480   0.497E-01    0.297E-01
DAV:   5    -0.191359584046E+03    0.48057E-03   -0.31826E-03 11080   0.415E-01    0.236E-01
DAV:   6    -0.191358992865E+03    0.59118E-03   -0.14017E-03  9760   0.245E-01    0.855E-02
DAV:   7    -0.191359292328E+03   -0.29946E-03   -0.93848E-04 10480   0.211E-01    0.183E-01
DAV:   8    -0.191358940017E+03    0.35231E-03   -0.58244E-04  8400   0.184E-01    0.348E-02
DAV:   9    -0.191358939194E+03    0.82283E-06   -0.44264E-05  5680   0.350E-02
  14 F= -.19135894E+03 E0= -.19126178E+03  d E =-.322290E-01
       N       E                     dE             d eps       ncg     rms          rms(c)
DAV:   1    -0.191368711896E+03   -0.97719E-02   -0.22622E-01  8160   0.102E+00    0.125E-01
DAV:   2    -0.191369815280E+03   -0.11034E-02   -0.77862E-03 13600   0.398E-01    0.279E-01
DAV:   3    -0.191369050310E+03    0.76497E-03   -0.26159E-03 11560   0.360E-01    0.128E-01
DAV:   4    -0.191368965941E+03    0.84370E-04   -0.62992E-04  8360   0.161E-01
  15 F= -.19136897E+03 E0= -.19127177E+03  d E =-.100267E-01
       N       E                     dE             d eps       ncg     rms          rms(c)
DAV:   1    -0.191324148800E+03    0.44902E-01   -0.50356E+00  8160   0.484E+00    0.624E-01
DAV:   2    -0.191346067712E+03   -0.21919E-01   -0.16810E-01 13600   0.184E+00    0.124E+00
DAV:   3    -0.191328623739E+03    0.17444E-01   -0.47259E-02 12240   0.160E+00    0.535E-01
DAV:   4    -0.191326574117E+03    0.20496E-02   -0.12492E-02 11120   0.693E-01    0.394E-01
DAV:   5    -0.191326075404E+03    0.49871E-03   -0.76102E-03 11680   0.624E-01    0.435E-01
DAV:   6    -0.191324254579E+03    0.18208E-02   -0.51761E-03 11560   0.500E-01    0.159E-01
DAV:   7    -0.191324164334E+03    0.90245E-04   -0.14616E-03 10240   0.193E-01    0.117E-01
DAV:   8    -0.191324097056E+03    0.67278E-04   -0.69243E-04  9160   0.180E-01
  16 F= -.19132410E+03 E0= -.19122725E+03  d E =0.448689E-01
       N       E                     dE             d eps       ncg     rms          rms(c)
DAV:   1    -0.191400446697E+03   -0.76282E-01   -0.13826E+01  8160   0.808E+00    0.105E+00
DAV:   2    -0.191464007105E+03   -0.63560E-01   -0.48229E-01 13480   0.317E+00    0.217E+00
DAV:   3    -0.191416127612E+03    0.47879E-01   -0.16026E-01 12240   0.290E+00    0.938E-01
DAV:   4    -0.191408168731E+03    0.79589E-02   -0.37688E-02 11880   0.117E+00    0.673E-01
DAV:   5    -0.191407799708E+03    0.36902E-03   -0.25360E-02 11280   0.114E+00    0.822E-01
DAV:   6    -0.191401165244E+03    0.66345E-02   -0.15670E-02 11800   0.879E-01    0.234E-01
DAV:   7    -0.191401170579E+03   -0.53343E-05   -0.38777E-03 11680   0.341E-01    0.244E-01
DAV:   8    -0.191400725850E+03    0.44473E-03   -0.21968E-03 10240   0.333E-01    0.174E-01
DAV:   9    -0.191400407996E+03    0.31785E-03   -0.64285E-04  8680   0.162E-01    0.413E-02
DAV:  10    -0.191400399839E+03    0.81563E-05   -0.12340E-04  6680   0.459E-02
  17 F= -.19140040E+03 E0= -.19130354E+03  d E =-.763028E-01
       N       E                     dE             d eps       ncg     rms          rms(c)
DAV:   1    -0.191410178550E+03   -0.97706E-02   -0.24417E-01  8160   0.106E+00    0.120E-01
DAV:   2    -0.191411320606E+03   -0.11421E-02   -0.83501E-03 12600   0.368E-01    0.276E-01
DAV:   3    -0.191410648899E+03    0.67171E-03   -0.23534E-03 11400   0.348E-01    0.131E-01
DAV:   4    -0.191410496686E+03    0.15221E-03   -0.45547E-04  8080   0.127E-01    0.582E-02
DAV:   5    -0.191410510755E+03   -0.14068E-04   -0.22631E-04  6640   0.102E-01
  18 F= -.19141051E+03 E0= -.19131405E+03  d E =-.101109E-01
       N       E                     dE             d eps       ncg     rms          rms(c)
DAV:   1    -0.191429529646E+03   -0.19033E-01   -0.79804E-01  8160   0.192E+00    0.228E-01
DAV:   2    -0.191433316135E+03   -0.37865E-02   -0.23792E-02 13560   0.669E-01    0.549E-01
DAV:   3    -0.191430464842E+03    0.28513E-02   -0.86086E-03 11800   0.666E-01    0.214E-01
DAV:   4    -0.191430161545E+03    0.30330E-03   -0.14936E-03 10040   0.226E-01    0.128E-01
DAV:   5    -0.191430078119E+03    0.83426E-04   -0.84280E-04 11080   0.188E-01
  19 F= -.19143008E+03 E0= -.19133455E+03  d E =-.195674E-01
       N       E                     dE             d eps       ncg     rms          rms(c)
DAV:   1    -0.191428402397E+03    0.17591E-02   -0.10306E-01  8160   0.731E-01    0.192E-01
DAV:   2    -0.191437515461E+03   -0.91131E-02   -0.20183E-02 12200   0.961E-01    0.990E-01
DAV:   3    -0.191428259848E+03    0.92556E-02   -0.14824E-02 10120   0.855E-01    0.965E-02
DAV:   4    -0.191428201070E+03    0.58778E-04   -0.52246E-04  9680   0.958E-02
  20 F= -.19142820E+03 E0= -.19133257E+03  d E =0.187705E-02
       N       E                     dE             d eps       ncg     rms          rms(c)
DAV:   1    -0.191440212761E+03   -0.11953E-01   -0.37581E+00  8160   0.414E+00    0.646E-01
DAV:   2    -0.191504281654E+03   -0.64069E-01   -0.21777E-01 12520   0.254E+00    0.273E+00
DAV:   3    -0.191443924600E+03    0.60357E-01   -0.14844E-01 12080   0.243E+00    0.457E-01
DAV:   4    -0.191441952738E+03    0.19719E-02   -0.75861E-03 11280   0.441E-01    0.293E-01
DAV:   5    -0.191441430919E+03    0.52182E-03   -0.48416E-03 12840   0.478E-01    0.303E-01
DAV:   6    -0.191440748202E+03    0.68272E-03   -0.31351E-03 11560   0.427E-01    0.171E-01
DAV:   7    -0.191440315004E+03    0.43320E-03   -0.11415E-03 10280   0.191E-01    0.502E-02
DAV:   8    -0.191440307673E+03    0.73306E-05   -0.18251E-04  7240   0.791E-02
  21 F= -.19144031E+03 E0= -.19134486E+03  d E =-.121066E-01
       N       E                     dE             d eps       ncg     rms          rms(c)
DAV:   1    -0.191459673587E+03   -0.19359E-01   -0.52945E+00  8160   0.500E+00    0.883E-01
DAV:   2    -0.191562680891E+03   -0.10301E+00   -0.34294E-01 12680   0.355E+00    0.309E+00
DAV:   3    -0.191460656581E+03    0.10202E+00   -0.15766E-01 12200   0.311E+00    0.573E-01
DAV:   4    -0.191460258842E+03    0.39774E-03   -0.20007E-02 11200   0.928E-01    0.688E-01
DAV:   5    -0.191456063244E+03    0.41956E-02   -0.15854E-02 12240   0.940E-01    0.408E-01
DAV:   6    -0.191454857042E+03    0.12062E-02   -0.69259E-03 11720   0.548E-01    0.296E-01
DAV:   7    -0.191454383406E+03    0.47364E-03   -0.35756E-03 10640   0.463E-01    0.228E-01
DAV:   8    -0.191453793757E+03    0.58965E-03   -0.12003E-03 10480   0.247E-01    0.694E-02
DAV:   9    -0.191453712878E+03    0.80879E-04   -0.16154E-04  6400   0.564E-02
  22 F= -.19145371E+03 E0= -.19136011E+03  d E =-.134052E-01
       N       E                     dE             d eps       ncg     rms          rms(c)
DAV:   1    -0.191491945112E+03   -0.38151E-01   -0.28533E+00  8160   0.367E+00    0.451E-01
DAV:   2    -0.191502506380E+03   -0.10561E-01   -0.89688E-02 13560   0.122E+00    0.901E-01
DAV:   3    -0.191495970117E+03    0.65363E-02   -0.30233E-02 12080   0.125E+00    0.504E-01
DAV:   4    -0.191493753674E+03    0.22164E-02   -0.69184E-03 12000   0.555E-01    0.265E-01
DAV:   5    -0.191493299672E+03    0.45400E-03   -0.33719E-03 10480   0.383E-01    0.288E-01
DAV:   6    -0.191492749363E+03    0.55031E-03   -0.27628E-03 10880   0.385E-01    0.176E-01
DAV:   7    -0.191492633021E+03    0.11634E-03   -0.10944E-03  9600   0.225E-01    0.134E-01
DAV:   8    -0.191492445409E+03    0.18761E-03   -0.39786E-04  8600   0.170E-01    0.574E-02
DAV:   9    -0.191492403897E+03    0.41512E-04   -0.84446E-05  6680   0.706E-02
  23 F= -.19149240E+03 E0= -.19140193E+03  d E =-.386910E-01
       N       E                     dE             d eps       ncg     rms          rms(c)
DAV:   1    -0.191519044608E+03   -0.26599E-01   -0.13888E+00  8160   0.255E+00    0.298E-01
DAV:   2    -0.191524563473E+03   -0.55189E-02   -0.46921E-02 13520   0.894E-01    0.617E-01
DAV:   3    -0.191521567411E+03    0.29961E-02   -0.11389E-02 12240   0.807E-01    0.319E-01
DAV:   4    -0.191520754105E+03    0.81331E-03   -0.27805E-03 11120   0.366E-01    0.201E-01
DAV:   5    -0.191520524905E+03    0.22920E-03   -0.16003E-03  9960   0.310E-01    0.180E-01
DAV:   6    -0.191520294466E+03    0.23044E-03   -0.10554E-03 10400   0.227E-01    0.102E-01
DAV:   7    -0.191520312876E+03   -0.18410E-04   -0.56217E-04  8360   0.185E-01
  24 F= -.19152031E+03 E0= -.19143168E+03  d E =-.279090E-01
       N       E                     dE             d eps       ncg     rms          rms(c)
DAV:   1    -0.191482314809E+03    0.37980E-01   -0.63337E+00  8160   0.542E+00    0.825E-01
DAV:   2    -0.191553030170E+03   -0.70715E-01   -0.28436E-01 13200   0.305E+00    0.260E+00
DAV:   3    -0.191486223114E+03    0.66807E-01   -0.15453E-01 12240   0.281E+00    0.711E-01
DAV:   4    -0.191484594357E+03    0.16288E-02   -0.21157E-02 11400   0.948E-01    0.695E-01
DAV:   5    -0.191481705257E+03    0.28891E-02   -0.17907E-02 12280   0.994E-01    0.512E-01
DAV:   6    -0.191478727804E+03    0.29775E-02   -0.64777E-03 10920   0.519E-01    0.180E-01
DAV:   7    -0.191478933503E+03   -0.20570E-03   -0.25093E-03 12760   0.321E-01    0.224E-01
DAV:   8    -0.191478412544E+03    0.52096E-03   -0.12684E-03  9960   0.290E-01    0.852E-02
DAV:   9    -0.191478314107E+03    0.98437E-04   -0.22741E-04  8040   0.979E-02
  25 F= -.19147831E+03 E0= -.19138535E+03  d E =0.419988E-01
       N       E                     dE             d eps       ncg     rms          rms(c)
DAV:   1    -0.191555322693E+03   -0.76910E-01   -0.13591E+01  8160   0.805E+00    0.100E+00
DAV:   2    -0.191620584382E+03   -0.65262E-01   -0.44407E-01 13200   0.292E+00    0.234E+00
DAV:   3    -0.191573334377E+03    0.47250E-01   -0.16366E-01 12240   0.298E+00    0.102E+00
DAV:   4    -0.191563240634E+03    0.10094E-01   -0.28344E-02 11960   0.105E+00    0.506E-01
DAV:   5    -0.191560010229E+03    0.32304E-02   -0.13472E-02 11800   0.695E-01    0.488E-01
DAV:   6    -0.191559670506E+03    0.33972E-03   -0.10733E-02 12480   0.825E-01    0.459E-01
DAV:   7    -0.191557614034E+03    0.20565E-02   -0.47406E-03 11080   0.486E-01    0.123E-01
DAV:   8    -0.191557314761E+03    0.29927E-03   -0.79153E-04 10400   0.117E-01    0.495E-02
DAV:   9    -0.191557317711E+03   -0.29504E-05   -0.17319E-04  9200   0.947E-02
  26 F= -.19155732E+03 E0= -.19147156E+03  d E =-.790036E-01
       N       E                     dE             d eps       ncg     rms          rms(c)
DAV:   1    -0.191610906652E+03   -0.53592E-01   -0.69778E+00  8160   0.574E+00    0.634E-01
DAV:   2    -0.191627025085E+03   -0.16118E-01   -0.20779E-01 12800   0.144E+00    0.809E-01
DAV:   3    -0.191625869088E+03    0.11560E-02   -0.44097E-02 12400   0.154E+00    0.849E-01
DAV:   4    -0.191619027465E+03    0.68416E-02   -0.15479E-02 12320   0.980E-01    0.364E-01
DAV:   5    -0.191617396167E+03    0.16313E-02   -0.51169E-03 11480   0.489E-01    0.288E-01
DAV:   6    -0.191617811293E+03   -0.41513E-03   -0.43071E-03 11960   0.548E-01    0.339E-01
DAV:   7    -0.191616690970E+03    0.11203E-02   -0.24468E-03 10920   0.371E-01    0.123E-01
DAV:   8    -0.191616564670E+03    0.12630E-03   -0.55565E-04  8680   0.193E-01    0.816E-02
DAV:   9    -0.191616482281E+03    0.82389E-04   -0.13230E-04  7200   0.922E-02
  27 F= -.19161648E+03 E0= -.19153424E+03  d E =-.591646E-01
       N       E                     dE             d eps       ncg     rms          rms(c)
DAV:   1    -0.191644859078E+03   -0.28294E-01   -0.18901E+00  8160   0.297E+00    0.343E-01
DAV:   2    -0.191648691045E+03   -0.38320E-02   -0.63300E-02 11960   0.768E-01    0.361E-01
DAV:   3    -0.191649851362E+03   -0.11603E-02   -0.10067E-02 12240   0.783E-01    0.515E-01
DAV:   4    -0.191646998932E+03    0.28524E-02   -0.50029E-03 11920   0.562E-01    0.177E-01
DAV:   5    -0.191646980114E+03    0.18818E-04   -0.17524E-03 10240   0.301E-01    0.201E-01
DAV:   6    -0.191646666251E+03    0.31386E-03   -0.12321E-03 11000   0.292E-01    0.112E-01
DAV:   7    -0.191646522904E+03    0.14335E-03   -0.42200E-04  8240   0.145E-01    0.625E-02
DAV:   8    -0.191646490392E+03    0.32512E-04   -0.12875E-04  6160   0.979E-02
  28 F= -.19164649E+03 E0= -.19156496E+03  d E =-.300081E-01
       N       E                     dE             d eps       ncg     rms          rms(c)
DAV:   1    -0.191678608856E+03   -0.32086E-01   -0.30021E+00  8160   0.369E+00    0.364E-01
DAV:   2    -0.191685282903E+03   -0.66740E-02   -0.84906E-02 12120   0.889E-01    0.409E-01
DAV:   3    -0.191685955473E+03   -0.67257E-03   -0.11889E-02 11240   0.855E-01    0.522E-01
DAV:   4    -0.191683236305E+03    0.27192E-02   -0.52298E-03 11440   0.570E-01    0.185E-01
DAV:   5    -0.191683064374E+03    0.17193E-03   -0.19852E-03 10520   0.318E-01    0.189E-01
DAV:   6    -0.191683054255E+03    0.10119E-04   -0.14366E-03 10760   0.307E-01    0.166E-01
DAV:   7    -0.191682754824E+03    0.29943E-03   -0.65805E-04  9720   0.199E-01    0.882E-02
DAV:   8    -0.191682678630E+03    0.76195E-04   -0.16930E-04  7160   0.107E-01
  29 F= -.19168268E+03 E0= -.19160209E+03  d E =-.361882E-01
       N       E                     dE             d eps       ncg     rms          rms(c)
DAV:   1    -0.191685605523E+03   -0.28507E-02   -0.22332E-02  8160   0.332E-01    0.521E-02
DAV:   2    -0.191685642770E+03   -0.37247E-04   -0.97538E-04 11400   0.118E-01
  30 F= -.19168564E+03 E0= -.19160497E+03  d E =-.296414E-02
       N       E                     dE             d eps       ncg     rms          rms(c)
DAV:   1    -0.191701142801E+03   -0.15537E-01   -0.83727E-01  8160   0.196E+00    0.254E-01
DAV:   2    -0.191708085321E+03   -0.69425E-02   -0.38796E-02 12240   0.977E-01    0.689E-01
DAV:   3    -0.191702818980E+03    0.52663E-02   -0.10576E-02 11960   0.831E-01    0.185E-01
DAV:   4    -0.191702553231E+03    0.26575E-03   -0.12781E-03  9760   0.223E-01    0.128E-01
DAV:   5    -0.191702544152E+03    0.90793E-05   -0.86440E-04 10400   0.237E-01
  31 F= -.19170254E+03 E0= -.19162282E+03  d E =-.169014E-01
       N       E                     dE             d eps       ncg     rms          rms(c)
DAV:   1    -0.191727775922E+03   -0.25223E-01   -0.13713E+00  8160   0.257E+00    0.368E-01
DAV:   2    -0.191729233715E+03   -0.14578E-02   -0.43329E-02 12600   0.795E-01    0.461E-01
DAV:   3    -0.191728516631E+03    0.71708E-03   -0.97951E-03 11440   0.840E-01    0.412E-01
DAV:   4    -0.191726620195E+03    0.18964E-02   -0.42494E-03 11920   0.514E-01    0.228E-01
DAV:   5    -0.191726649168E+03   -0.28973E-04   -0.27725E-03 10680   0.433E-01    0.254E-01
DAV:   6    -0.191725930323E+03    0.71885E-03   -0.14846E-03 10080   0.287E-01    0.781E-02
DAV:   7    -0.191725948598E+03   -0.18275E-04   -0.40432E-04  8080   0.148E-01
  32 F= -.19172595E+03 E0= -.19164557E+03  d E =-.234044E-01
       N       E                     dE             d eps       ncg     rms          rms(c)
DAV:   1    -0.191751612685E+03   -0.25682E-01   -0.18725E+00  8160   0.290E+00    0.292E-01
DAV:   2    -0.191756862699E+03   -0.52500E-02   -0.51580E-02 11480   0.830E-01    0.477E-01
DAV:   3    -0.191755129768E+03    0.17329E-02   -0.91425E-03 12200   0.773E-01    0.316E-01
DAV:   4    -0.191754093701E+03    0.10361E-02   -0.21841E-03 11320   0.348E-01    0.130E-01
DAV:   5    -0.191754118500E+03   -0.24799E-04   -0.12182E-03 10960   0.269E-01    0.156E-01
DAV:   6    -0.191754044761E+03    0.73739E-04   -0.90691E-04 10880   0.237E-01
  33 F= -.19175404E+03 E0= -.19167399E+03  d E =-.280962E-01
       N       E                     dE             d eps       ncg     rms          rms(c)
DAV:   1    -0.191758233034E+03   -0.41145E-02   -0.51917E-02  8160   0.503E-01    0.788E-02
DAV:   2    -0.191758947530E+03   -0.71450E-03   -0.23881E-03 12400   0.296E-01    0.246E-01
DAV:   3    -0.191758263146E+03    0.68438E-03   -0.98424E-04  9880   0.276E-01    0.516E-02
DAV:   4    -0.191758301340E+03   -0.38194E-04   -0.14254E-04  6280   0.883E-02
  34 F= -.19175830E+03 E0= -.19167828E+03  d E =-.425658E-02
       N       E                     dE             d eps       ncg     rms          rms(c)
DAV:   1    -0.191767868224E+03   -0.96051E-02   -0.37718E-01  8160   0.130E+00    0.173E-01
DAV:   2    -0.191770664235E+03   -0.27960E-02   -0.17939E-02 13200   0.693E-01    0.427E-01
DAV:   3    -0.191768689433E+03    0.19748E-02   -0.37862E-03 11280   0.527E-01    0.122E-01
DAV:   4    -0.191768569152E+03    0.12028E-03   -0.54366E-04  8440   0.179E-01    0.994E-02
DAV:   5    -0.191768523032E+03    0.46120E-04   -0.40044E-04  9000   0.177E-01
  35 F= -.19176852E+03 E0= -.19168842E+03  d E =-.102217E-01
       N       E                     dE             d eps       ncg     rms          rms(c)
DAV:   1    -0.191778598538E+03   -0.10029E-01   -0.28951E-01  8160   0.115E+00    0.134E-01
DAV:   2    -0.191780154499E+03   -0.15560E-02   -0.10057E-02 11320   0.487E-01    0.316E-01
DAV:   3    -0.191779071554E+03    0.10829E-02   -0.26610E-03 12000   0.414E-01    0.117E-01
DAV:   4    -0.191778962758E+03    0.10880E-03   -0.42208E-04  8240   0.137E-01    0.643E-02
DAV:   5    -0.191778970403E+03   -0.76454E-05   -0.27150E-04  8520   0.125E-01
  36 F= -.19177897E+03 E0= -.19169923E+03  d E =-.104474E-01
       N       E                     dE             d eps       ncg     rms          rms(c)
DAV:   1    -0.191821763300E+03   -0.42801E-01   -0.53979E+00  8160   0.492E+00    0.501E-01
DAV:   2    -0.191839404628E+03   -0.17641E-01   -0.14585E-01 11360   0.155E+00    0.967E-01
DAV:   3    -0.191830311541E+03    0.90931E-02   -0.30641E-02 12400   0.140E+00    0.462E-01
DAV:   4    -0.191827951226E+03    0.23603E-02   -0.50933E-03 11360   0.479E-01    0.205E-01
DAV:   5    -0.191828192538E+03   -0.24131E-03   -0.34696E-03 11360   0.421E-01    0.287E-01
DAV:   6    -0.191827904279E+03    0.28826E-03   -0.29145E-03 12040   0.444E-01    0.216E-01
DAV:   7    -0.191827303530E+03    0.60075E-03   -0.99370E-04  9960   0.235E-01    0.627E-02
DAV:   8    -0.191827281751E+03    0.21780E-04   -0.14622E-04  6960   0.930E-02
  37 F= -.19182728E+03 E0= -.19174839E+03  d E =-.483113E-01
       N       E                     dE             d eps       ncg     rms          rms(c)
DAV:   1    -0.191799030186E+03    0.28273E-01   -0.17110E+00  8160   0.277E+00    0.285E-01
DAV:   2    -0.191804990041E+03   -0.59599E-02   -0.51803E-02 11880   0.947E-01    0.557E-01
DAV:   3    -0.191802076714E+03    0.29133E-02   -0.10453E-02 12280   0.812E-01    0.269E-01
DAV:   4    -0.191801221480E+03    0.85523E-03   -0.17474E-03 11480   0.287E-01    0.119E-01
DAV:   5    -0.191801336453E+03   -0.11497E-03   -0.11954E-03 10400   0.247E-01    0.179E-01
DAV:   6    -0.191801158534E+03    0.17792E-03   -0.10269E-03 10280   0.257E-01    0.116E-01
DAV:   7    -0.191800988952E+03    0.16958E-03   -0.32870E-04  8600   0.129E-01    0.385E-02
DAV:   8    -0.191800982246E+03    0.67068E-05   -0.63932E-05  6800   0.656E-02
  38 F= -.19180098E+03 E0= -.19172121E+03  d E =0.262995E-01
       N       E                     dE             d eps       ncg     rms          rms(c)
DAV:   1    -0.191815226820E+03   -0.14238E-01   -0.58384E-01  8160   0.163E+00    0.195E-01
DAV:   2    -0.191816405256E+03   -0.11784E-02   -0.16611E-02 12520   0.490E-01    0.285E-01
DAV:   3    -0.191815850383E+03    0.55487E-03   -0.33459E-03 11440   0.467E-01    0.203E-01
DAV:   4    -0.191815384603E+03    0.46578E-03   -0.11408E-03 10840   0.252E-01    0.101E-01
DAV:   5    -0.191815365731E+03    0.18872E-04   -0.61340E-04  9880   0.187E-01
  39 F= -.19181537E+03 E0= -.19173518E+03  d E =-.143835E-01
       N       E                     dE             d eps       ncg     rms          rms(c)
DAV:   1    -0.191829248694E+03   -0.13864E-01   -0.54799E-01  8160   0.157E+00    0.180E-01
DAV:   2    -0.191832466732E+03   -0.32180E-02   -0.19734E-02 12080   0.682E-01    0.449E-01
DAV:   3    -0.191830205147E+03    0.22616E-02   -0.49024E-03 12240   0.571E-01    0.130E-01
DAV:   4    -0.191830156541E+03    0.48606E-04   -0.60650E-04  9120   0.187E-01
  40 F= -.19183016E+03 E0= -.19175040E+03  d E =-.147908E-01
       N       E                     dE             d eps       ncg     rms          rms(c)
DAV:   1    -0.191864667100E+03   -0.34462E-01   -0.31924E+00  8160   0.378E+00    0.388E-01
DAV:   2    -0.191873269859E+03   -0.86028E-02   -0.80470E-02 12160   0.109E+00    0.662E-01
DAV:   3    -0.191869488924E+03    0.37809E-02   -0.15811E-02 11920   0.103E+00    0.381E-01
DAV:   4    -0.191867817092E+03    0.16718E-02   -0.31544E-03 11080   0.399E-01    0.152E-01
DAV:   5    -0.191868116252E+03   -0.29916E-03   -0.22149E-03 12320   0.362E-01    0.226E-01
DAV:   6    -0.191867821093E+03    0.29516E-03   -0.16302E-03 11040   0.328E-01    0.146E-01
DAV:   7    -0.191867553311E+03    0.26778E-03   -0.50970E-04  8960   0.173E-01    0.692E-02
DAV:   8    -0.191867510691E+03    0.42619E-04   -0.10653E-04  5800   0.920E-02
  41 F= -.19186751E+03 E0= -.19178821E+03  d E =-.373542E-01
       N       E                     dE             d eps       ncg     rms          rms(c)
DAV:   1    -0.191880753400E+03   -0.13200E-01   -0.37622E-01  8160   0.131E+00    0.155E-01
DAV:   2    -0.191882016252E+03   -0.12629E-02   -0.11850E-02 11960   0.456E-01    0.286E-01
DAV:   3    -0.191881242232E+03    0.77402E-03   -0.25963E-03 12080   0.415E-01    0.136E-01
DAV:   4    -0.191881024608E+03    0.21762E-03   -0.49387E-04  8360   0.159E-01    0.666E-02
DAV:   5    -0.191881052945E+03   -0.28337E-04   -0.31406E-04  8720   0.136E-01
  42 F= -.19188105E+03 E0= -.19180158E+03  d E =-.135423E-01
       N       E                     dE             d eps       ncg     rms          rms(c)
DAV:   1    -0.191910651677E+03   -0.29627E-01   -0.21105E+00  8160   0.309E+00    0.361E-01
DAV:   2    -0.191917711100E+03   -0.70594E-02   -0.62285E-02 11560   0.110E+00    0.693E-01
DAV:   3    -0.191913064486E+03    0.46466E-02   -0.13366E-02 11920   0.967E-01    0.295E-01
DAV:   4    -0.191912010387E+03    0.10541E-02   -0.25859E-03 12240   0.363E-01    0.174E-01
DAV:   5    -0.191912096906E+03   -0.86518E-04   -0.17766E-03 10680   0.363E-01    0.207E-01
DAV:   6    -0.191911674616E+03    0.42229E-03   -0.11807E-03 10560   0.268E-01    0.759E-02
DAV:   7    -0.191911595679E+03    0.78936E-04   -0.32680E-04  8120   0.107E-01
  43 F= -.19191160E+03 E0= -.19183170E+03  d E =-.305427E-01
       N       E                     dE             d eps       ncg     rms          rms(c)
DAV:   1    -0.191924944789E+03   -0.13270E-01   -0.44584E-01  8160   0.146E+00    0.242E-01
DAV:   2    -0.191925901613E+03   -0.95682E-03   -0.19730E-02 11160   0.632E-01    0.342E-01
DAV:   3    -0.191924956641E+03    0.94497E-03   -0.47133E-03 12200   0.577E-01    0.226E-01
DAV:   4    -0.191924430150E+03    0.52649E-03   -0.17166E-03 11440   0.321E-01    0.149E-01
DAV:   5    -0.191924402261E+03    0.27889E-04   -0.11431E-03 10040   0.268E-01    0.160E-01
DAV:   6    -0.191924144914E+03    0.25735E-03   -0.60858E-04  8760   0.210E-01    0.634E-02
DAV:   7    -0.191924108661E+03    0.36253E-04   -0.18920E-04  5800   0.823E-02
  44 F= -.19192411E+03 E0= -.19184492E+03  d E =-.125130E-01
       N       E                     dE             d eps       ncg     rms          rms(c)
DAV:   1    -0.191947960687E+03   -0.23816E-01   -0.14497E+00  8160   0.257E+00    0.311E-01
DAV:   2    -0.191953275437E+03   -0.53148E-02   -0.46364E-02 12160   0.931E-01    0.596E-01
DAV:   3    -0.191949749533E+03    0.35259E-02   -0.10474E-02 12240   0.851E-01    0.263E-01
DAV:   4    -0.191948926983E+03    0.82255E-03   -0.23767E-03 11720   0.313E-01    0.134E-01
DAV:   5    -0.191948874846E+03    0.52136E-04   -0.13763E-03 10640   0.235E-01    0.152E-01
DAV:   6    -0.191948782405E+03    0.92441E-04   -0.84959E-04 10320   0.257E-01
  45 F= -.19194878E+03 E0= -.19186898E+03  d E =-.246737E-01
       N       E                     dE             d eps       ncg     rms          rms(c)
DAV:   1    -0.191978950820E+03   -0.30076E-01   -0.32721E+00  8160   0.384E+00    0.398E-01
DAV:   2    -0.191988401186E+03   -0.94504E-02   -0.96724E-02 11280   0.112E+00    0.624E-01
DAV:   3    -0.191985578767E+03    0.28224E-02   -0.16039E-02 12000   0.104E+00    0.419E-01
DAV:   4    -0.191983594463E+03    0.19843E-02   -0.42366E-03 12040   0.482E-01    0.167E-01
DAV:   5    -0.191983344277E+03    0.25019E-03   -0.19946E-03 10680   0.222E-01    0.142E-01
DAV:   6    -0.191983564503E+03   -0.22023E-03   -0.12758E-03 11600   0.318E-01    0.185E-01
DAV:   7    -0.191983097954E+03    0.46655E-03   -0.59182E-04 10480   0.211E-01    0.292E-02
DAV:   8    -0.191983116510E+03   -0.18556E-04   -0.67317E-05  6440   0.645E-02
  46 F= -.19198312E+03 E0= -.19190297E+03  d E =-.343341E-01
       N       E                     dE             d eps       ncg     rms          rms(c)
DAV:   1    -0.192006443664E+03   -0.23346E-01   -0.22676E+00  8160   0.322E+00    0.351E-01
DAV:   2    -0.192012337534E+03   -0.58939E-02   -0.72716E-02 12240   0.890E-01    0.458E-01
DAV:   3    -0.192011436779E+03    0.90076E-03   -0.11121E-02 12240   0.846E-01    0.407E-01
DAV:   4    -0.192009592491E+03    0.18443E-02   -0.40085E-03 11880   0.498E-01    0.164E-01
DAV:   5    -0.192009214564E+03    0.37793E-03   -0.17797E-03 11040   0.195E-01    0.104E-01
DAV:   6    -0.192009422604E+03   -0.20804E-03   -0.94361E-04 10800   0.251E-01    0.160E-01
DAV:   7    -0.192009071419E+03    0.35119E-03   -0.42145E-04  9000   0.187E-01    0.195E-02
DAV:   8    -0.192009075142E+03   -0.37233E-05   -0.44713E-05  6200   0.301E-02
  47 F= -.19200908E+03 E0= -.19192806E+03  d E =-.259586E-01
       N       E                     dE             d eps       ncg     rms          rms(c)
DAV:   1    -0.192043084844E+03   -0.34013E-01   -0.20164E+01  8160   0.955E+00    0.963E-01
DAV:   2    -0.192095987239E+03   -0.52902E-01   -0.59928E-01 11600   0.252E+00    0.126E+00
DAV:   3    -0.192087632771E+03    0.83545E-02   -0.90538E-02 12320   0.238E+00    0.110E+00
DAV:   4    -0.192074789601E+03    0.12843E-01   -0.28270E-02 12240   0.137E+00    0.466E-01
DAV:   5    -0.192071249074E+03    0.35405E-02   -0.12071E-02 11440   0.585E-01    0.268E-01
DAV:   6    -0.192073517877E+03   -0.22688E-02   -0.71843E-03 12640   0.702E-01    0.496E-01
DAV:   7    -0.192070412661E+03    0.31052E-02   -0.39802E-03 11360   0.547E-01    0.853E-02
DAV:   8    -0.192070455043E+03   -0.42382E-04   -0.49700E-04  8720   0.164E-01
  48 F= -.19207046E+03 E0= -.19198823E+03  d E =-.613799E-01
       N       E                     dE             d eps       ncg     rms          rms(c)
DAV:   1    -0.192082506007E+03   -0.12093E-01   -0.20873E+00  8160   0.307E+00    0.331E-01
DAV:   2    -0.192089048778E+03   -0.65428E-02   -0.78155E-02 12160   0.855E-01    0.374E-01
DAV:   3    -0.192088628063E+03    0.42071E-03   -0.10486E-02 12400   0.749E-01    0.395E-01
DAV:   4    -0.192087111325E+03    0.15167E-02   -0.35097E-03 12400   0.518E-01    0.175E-01
DAV:   5    -0.192086663245E+03    0.44808E-03   -0.11892E-03 10240   0.192E-01    0.839E-02
DAV:   6    -0.192087050338E+03   -0.38709E-03   -0.96062E-04 10880   0.248E-01    0.189E-01
DAV:   7    -0.192086631975E+03    0.41836E-03   -0.58585E-04  9080   0.212E-01    0.270E-02
DAV:   8    -0.192086637824E+03   -0.58488E-05   -0.53168E-05  6200   0.477E-02
  49 F= -.19208664E+03 E0= -.19200397E+03  d E =-.161828E-01
       N       E                     dE             d eps       ncg     rms          rms(c)
DAV:   1    -0.192097282089E+03   -0.10650E-01   -0.19834E+00  8160   0.298E+00    0.305E-01
DAV:   2    -0.192102788284E+03   -0.55062E-02   -0.58965E-02 12240   0.819E-01    0.419E-01
DAV:   3    -0.192101150310E+03    0.16380E-02   -0.99072E-03 12360   0.735E-01    0.315E-01
DAV:   4    -0.192100345697E+03    0.80461E-03   -0.27777E-03 12440   0.432E-01    0.181E-01
DAV:   5    -0.192099976070E+03    0.36963E-03   -0.11183E-03 10600   0.250E-01    0.122E-01
DAV:   6    -0.192100058239E+03   -0.82169E-04   -0.80137E-04 10800   0.240E-01
  50 F= -.19210006E+03 E0= -.19201742E+03  d E =-.134204E-01
       N       E                     dE             d eps       ncg     rms          rms(c)
DAV:   1    -0.192107417635E+03   -0.74416E-02   -0.77392E-01  8160   0.187E+00    0.203E-01
DAV:   2    -0.192109028970E+03   -0.16113E-02   -0.22086E-02 12080   0.430E-01    0.222E-01
DAV:   3    -0.192108664728E+03    0.36424E-03   -0.42226E-03 11600   0.403E-01    0.223E-01
DAV:   4    -0.192108321051E+03    0.34368E-03   -0.13693E-03 10920   0.318E-01    0.138E-01
DAV:   5    -0.192108065675E+03    0.25538E-03   -0.50676E-04  9520   0.167E-01    0.675E-02
DAV:   6    -0.192108151724E+03   -0.86049E-04   -0.34676E-04  9440   0.165E-01
  51 F= -.19210815E+03 E0= -.19202552E+03  d E =-.809348E-02
       N       E                     dE             d eps       ncg     rms          rms(c)
DAV:   1    -0.192115918232E+03   -0.78526E-02   -0.10005E+00  8160   0.211E+00    0.219E-01
DAV:   2    -0.192118550879E+03   -0.26326E-02   -0.28540E-02 13200   0.599E-01    0.296E-01
DAV:   3    -0.192117594243E+03    0.95664E-03   -0.51673E-03 11320   0.494E-01    0.222E-01
DAV:   4    -0.192117260614E+03    0.33363E-03   -0.14760E-03 11040   0.318E-01    0.143E-01
DAV:   5    -0.192117035024E+03    0.22559E-03   -0.54071E-04  9360   0.181E-01    0.856E-02
DAV:   6    -0.192117071180E+03   -0.36157E-04   -0.38177E-04  9640   0.172E-01
  52 F= -.19211707E+03 E0= -.19203484E+03  d E =-.891946E-02
       N       E                     dE             d eps       ncg     rms          rms(c)
DAV:   1    -0.192129863321E+03   -0.12828E-01   -0.51155E+00  8160   0.477E+00    0.477E-01
DAV:   2    -0.192142131619E+03   -0.12268E-01   -0.13442E-01 12640   0.120E+00    0.611E-01
DAV:   3    -0.192137873872E+03    0.42577E-02   -0.23767E-02 11360   0.103E+00    0.468E-01
DAV:   4    -0.192136387594E+03    0.14863E-02   -0.67684E-03 12200   0.691E-01    0.308E-01
DAV:   5    -0.192135251196E+03    0.11364E-02   -0.26566E-03 12680   0.394E-01    0.186E-01
DAV:   6    -0.192135457151E+03   -0.20596E-03   -0.19145E-03 11960   0.382E-01    0.205E-01
DAV:   7    -0.192134970919E+03    0.48623E-03   -0.84987E-04 10000   0.224E-01    0.484E-02
DAV:   8    -0.192134966242E+03    0.46770E-05   -0.10624E-04  6920   0.913E-02
  53 F= -.19213497E+03 E0= -.19205429E+03  d E =-.178951E-01
       N       E                     dE             d eps       ncg     rms          rms(c)
DAV:   1    -0.192143365418E+03   -0.83945E-02   -0.30609E+00  8160   0.369E+00    0.386E-01
DAV:   2    -0.192151863297E+03   -0.84979E-02   -0.86109E-02 12920   0.109E+00    0.562E-01
DAV:   3    -0.192148182310E+03    0.36810E-02   -0.16106E-02 11840   0.915E-01    0.370E-01
DAV:   4    -0.192147183837E+03    0.99847E-03   -0.43271E-03 12280   0.534E-01    0.240E-01
DAV:   5    -0.192146594570E+03    0.58927E-03   -0.17210E-03 12360   0.326E-01    0.165E-01
DAV:   6    -0.192146569720E+03    0.24850E-04   -0.11781E-03 11040   0.297E-01    0.140E-01
DAV:   7    -0.192146363251E+03    0.20647E-03   -0.49659E-04  9440   0.155E-01    0.426E-02
DAV:   8    -0.192146356890E+03    0.63605E-05   -0.93704E-05  6840   0.832E-02
  54 F= -.19214636E+03 E0= -.19206747E+03  d E =-.113906E-01
       N       E                     dE             d eps       ncg     rms          rms(c)
DAV:   1    -0.192151433983E+03   -0.50707E-02   -0.14862E+00  8160   0.258E+00    0.269E-01
DAV:   2    -0.192155127423E+03   -0.36934E-02   -0.44013E-02 12160   0.623E-01    0.298E-01
DAV:   3    -0.192154324082E+03    0.80334E-03   -0.70602E-03 12240   0.548E-01    0.277E-01
DAV:   4    -0.192153700373E+03    0.62371E-03   -0.20905E-03 12600   0.404E-01    0.161E-01
DAV:   5    -0.192153359185E+03    0.34119E-03   -0.74030E-04 10320   0.196E-01    0.841E-02
DAV:   6    -0.192153539612E+03   -0.18043E-03   -0.58735E-04 10880   0.213E-01    0.137E-01
DAV:   7    -0.192153322057E+03    0.21756E-03   -0.33130E-04  8920   0.160E-01    0.365E-02
DAV:   8    -0.192153314653E+03    0.74035E-05   -0.51479E-05  6200   0.604E-02
  55 F= -.19215331E+03 E0= -.19207607E+03  d E =-.695776E-02
       N       E                     dE             d eps       ncg     rms          rms(c)
DAV:   1    -0.192154029851E+03   -0.70779E-03   -0.31582E-02  8160   0.384E-01    0.593E-02
DAV:   2    -0.192154238252E+03   -0.20840E-03   -0.16860E-03 11920   0.216E-01    0.120E-01
DAV:   3    -0.192154078237E+03    0.16001E-03   -0.31993E-04  8880   0.164E-01    0.424E-02
DAV:   4    -0.192154064760E+03    0.13477E-04   -0.57615E-05  6000   0.673E-02
  56 F= -.19215406E+03 E0= -.19207717E+03  d E =-.750107E-03
       N       E                     dE             d eps       ncg     rms          rms(c)
DAV:   1    -0.192155860173E+03   -0.17819E-02   -0.14704E-01  8160   0.814E-01    0.902E-02
DAV:   2    -0.192156200696E+03   -0.34052E-03   -0.42256E-03 12240   0.195E-01    0.101E-01
DAV:   3    -0.192156137437E+03    0.63259E-04   -0.72518E-04 11040   0.192E-01
  57 F= -.19215614E+03 E0= -.19207986E+03  d E =-.207268E-02
       N       E                     dE             d eps       ncg     rms          rms(c)
DAV:   1    -0.192157377060E+03   -0.11764E-02   -0.81681E-02  8160   0.619E-01    0.932E-02
DAV:   2    -0.192157627780E+03   -0.25072E-03   -0.27378E-03 12200   0.175E-01    0.112E-01
DAV:   3    -0.192157420479E+03    0.20730E-03   -0.79994E-04 11000   0.163E-01    0.823E-02
DAV:   4    -0.192157398645E+03    0.21834E-04   -0.24089E-04  8080   0.135E-01
  58 F= -.19215740E+03 E0= -.19208156E+03  d E =-.126121E-02
       N       E                     dE             d eps       ncg     rms          rms(c)
DAV:   1    -0.192160894888E+03   -0.34744E-02   -0.18726E+00  8160   0.290E+00    0.313E-01
DAV:   2    -0.192164910281E+03   -0.40154E-02   -0.51294E-02 12280   0.700E-01    0.333E-01
DAV:   3    -0.192164067778E+03    0.84250E-03   -0.83296E-03 11400   0.610E-01    0.337E-01
DAV:   4    -0.192163183710E+03    0.88407E-03   -0.30636E-03 12000   0.477E-01    0.199E-01
DAV:   5    -0.192162691713E+03    0.49200E-03   -0.13142E-03 10240   0.239E-01    0.106E-01
DAV:   6    -0.192162817751E+03   -0.12604E-03   -0.76858E-04 10880   0.240E-01    0.138E-01
DAV:   7    -0.192162591201E+03    0.22655E-03   -0.37314E-04  8800   0.174E-01    0.357E-02
DAV:   8    -0.192162572957E+03    0.18244E-04   -0.55873E-05  6720   0.458E-02
  59 F= -.19216257E+03 E0= -.19208858E+03  d E =-.517431E-02
       N       E                     dE             d eps       ncg     rms          rms(c)
DAV:   1    -0.192162913720E+03   -0.32252E-03   -0.25032E+00  8160   0.335E+00    0.367E-01
DAV:   2    -0.192170691225E+03   -0.77775E-02   -0.74908E-02 12640   0.100E+00    0.556E-01
DAV:   3    -0.192167658865E+03    0.30324E-02   -0.13774E-02 11000   0.934E-01    0.387E-01
DAV:   4    -0.192166373775E+03    0.12851E-02   -0.41130E-03 12400   0.502E-01    0.208E-01
DAV:   5    -0.192165993016E+03    0.38076E-03   -0.18594E-03 10400   0.317E-01    0.171E-01
DAV:   6    -0.192165813783E+03    0.17923E-03   -0.95859E-04 10520   0.268E-01    0.110E-01
DAV:   7    -0.192165709882E+03    0.10390E-03   -0.39986E-04  9160   0.141E-01    0.584E-02
DAV:   8    -0.192165675489E+03    0.34393E-04   -0.12474E-04  6960   0.102E-01
  60 F= -.19216568E+03 E0= -.19209367E+03  d E =-.310253E-02
       N       E                     dE             d eps       ncg     rms          rms(c)
DAV:   1    -0.192165652018E+03    0.57864E-04   -0.99904E-02  8160   0.672E-01    0.786E-02
DAV:   2    -0.192166166329E+03   -0.51431E-03   -0.27995E-03 12680   0.294E-01    0.194E-01
DAV:   3    -0.192165727424E+03    0.43890E-03   -0.85081E-04 10120   0.250E-01    0.640E-02
DAV:   4    -0.192165689913E+03    0.37511E-04   -0.14096E-04  6040   0.813E-02
  61 F= -.19216569E+03 E0= -.19209331E+03  d E =-.144241E-04
