<?xml version="1.0" encoding="ISO-8859-1"?>
<modeling>
 <generator>
  <i name="program" type="string">vasp </i>
  <i name="version" type="string">5.4.1  </i>
  <i name="subversion" type="string">05Feb16 (build Jul 05 2020 17:13:04) complex                          parallel </i>
  <i name="platform" type="string">IFC91_ompi </i>
  <i name="date" type="string">2024 04 23 </i>
  <i name="time" type="string">20:45:57 </i>
 </generator>
 <incar>
  <i type="int" name="ISTART">     0</i>
  <i type="string" name="PREC">normal</i>
  <i type="string" name="ALGO"> Normal</i>
  <i type="int" name="ISPIN">     1</i>
  <i type="int" name="ICHARG">     2</i>
  <i type="int" name="IBRION">     1</i>
  <i type="int" name="NSW">   100</i>
  <i type="int" name="ISIF">     3</i>
  <i type="int" name="ISYM">     0</i>
  <i name="SYMPREC">      0.00000001</i>
  <i name="POTIM">      0.50000000</i>
  <i type="logical" name="LREAL"> F  </i>
  <i type="logical" name="LPLANE"> F  </i>
  <i type="int" name="ISMEAR">     0</i>
  <i type="logical" name="LWAVE"> F  </i>
  <i type="logical" name="LCHARG"> F  </i>
  <v type="int" name="KPOINT_BSE">    -1     0     0     0</v>
 </incar>
 <kpoints>
  <generation param="Gamma">
   <v type="int" name="divisions">       8        8        1 </v>
   <v name="usershift">      0.00000000       0.00000000       0.00000000 </v>
   <v name="genvec1">      0.12500000       0.00000000       0.00000000 </v>
   <v name="genvec2">     -0.00000000       0.12500000       0.00000000 </v>
   <v name="genvec3">      0.00000000       0.00000000       1.00000000 </v>
   <v name="shift">      0.00000000       0.00000000       0.00000000 </v>
  </generation>
  <varray name="kpointlist" >
   <v>       0.00000000       0.00000000       0.00000000 </v>
   <v>       0.12500000       0.00000000       0.00000000 </v>
   <v>       0.25000000       0.00000000       0.00000000 </v>
   <v>       0.37500000       0.00000000       0.00000000 </v>
   <v>       0.50000000       0.00000000       0.00000000 </v>
   <v>       0.00000000       0.12500000       0.00000000 </v>
   <v>       0.12500000       0.12500000       0.00000000 </v>
   <v>       0.25000000       0.12500000       0.00000000 </v>
   <v>       0.37500000       0.12500000       0.00000000 </v>
   <v>       0.50000000       0.12500000       0.00000000 </v>
   <v>      -0.37500000       0.12500000       0.00000000 </v>
   <v>      -0.25000000       0.12500000       0.00000000 </v>
   <v>      -0.12500000       0.12500000       0.00000000 </v>
   <v>       0.00000000       0.25000000       0.00000000 </v>
   <v>       0.12500000       0.25000000       0.00000000 </v>
   <v>       0.25000000       0.25000000       0.00000000 </v>
   <v>       0.37500000       0.25000000       0.00000000 </v>
   <v>       0.50000000       0.25000000       0.00000000 </v>
   <v>      -0.37500000       0.25000000       0.00000000 </v>
   <v>      -0.25000000       0.25000000       0.00000000 </v>
   <v>      -0.12500000       0.25000000       0.00000000 </v>
   <v>      -0.00000000       0.37500000       0.00000000 </v>
   <v>       0.12500000       0.37500000       0.00000000 </v>
   <v>       0.25000000       0.37500000       0.00000000 </v>
   <v>       0.37500000       0.37500000       0.00000000 </v>
   <v>       0.50000000       0.37500000       0.00000000 </v>
   <v>      -0.37500000       0.37500000       0.00000000 </v>
   <v>      -0.25000000       0.37500000       0.00000000 </v>
   <v>      -0.12500000       0.37500000       0.00000000 </v>
   <v>       0.00000000       0.50000000       0.00000000 </v>
   <v>       0.12500000       0.50000000       0.00000000 </v>
   <v>       0.25000000       0.50000000       0.00000000 </v>
   <v>       0.37500000       0.50000000       0.00000000 </v>
   <v>       0.50000000       0.50000000       0.00000000 </v>
  </varray>
  <varray name="weights" >
   <v>       0.01562500 </v>
   <v>       0.03125000 </v>
   <v>       0.03125000 </v>
   <v>       0.03125000 </v>
   <v>       0.01562500 </v>
   <v>       0.03125000 </v>
   <v>       0.03125000 </v>
   <v>       0.03125000 </v>
   <v>       0.03125000 </v>
   <v>       0.03125000 </v>
   <v>       0.03125000 </v>
   <v>       0.03125000 </v>
   <v>       0.03125000 </v>
   <v>       0.03125000 </v>
   <v>       0.03125000 </v>
   <v>       0.03125000 </v>
   <v>       0.03125000 </v>
   <v>       0.03125000 </v>
   <v>       0.03125000 </v>
   <v>       0.03125000 </v>
   <v>       0.03125000 </v>
   <v>       0.03125000 </v>
   <v>       0.03125000 </v>
   <v>       0.03125000 </v>
   <v>       0.03125000 </v>
   <v>       0.03125000 </v>
   <v>       0.03125000 </v>
   <v>       0.03125000 </v>
   <v>       0.03125000 </v>
   <v>       0.01562500 </v>
   <v>       0.03125000 </v>
   <v>       0.03125000 </v>
   <v>       0.03125000 </v>
   <v>       0.01562500 </v>
  </varray>
 </kpoints>
 <parameters>
  <separator name="general" >
   <i type="string" name="SYSTEM">unknown system</i>
   <i type="logical" name="LCOMPAT"> F  </i>
  </separator>
  <separator name="electronic" >
   <i type="string" name="PREC">normal</i>
   <i name="ENMAX">    280.00000000</i>
   <i name="ENAUG">    373.43800000</i>
   <i name="EDIFF">      0.00010000</i>
   <i type="int" name="IALGO">    38</i>
   <i type="int" name="IWAVPR">    11</i>
   <i type="int" name="NBANDS">   120</i>
   <i name="NELECT">    159.00000000</i>
   <i type="int" name="TURBO">     0</i>
   <i type="int" name="IRESTART">     0</i>
   <i type="int" name="NREBOOT">     0</i>
   <i type="int" name="NMIN">     0</i>
   <i name="EREF">      0.00000000</i>
   <separator name="electronic smearing" >
    <i type="int" name="ISMEAR">     0</i>
    <i name="SIGMA">      0.20000000</i>
    <i name="KSPACING">      0.50000000</i>
    <i type="logical" name="KGAMMA"> T  </i>
   </separator>
   <separator name="electronic projectors" >
    <i type="logical" name="LREAL"> F  </i>
    <v name="ROPT">      0.00000000      0.00000000      0.00000000      0.00000000</v>
    <i type="int" name="LMAXPAW">  -100</i>
    <i type="int" name="LMAXMIX">     2</i>
    <i type="logical" name="NLSPLINE"> F  </i>
   </separator>
   <separator name="electronic startup" >
    <i type="int" name="ISTART">     0</i>
    <i type="int" name="ICHARG">     2</i>
    <i type="int" name="INIWAV">     1</i>
   </separator>
   <separator name="electronic spin" >
    <i type="int" name="ISPIN">     1</i>
    <i type="logical" name="LNONCOLLINEAR"> F  </i>
    <v name="MAGMOM">      1.00000000      1.00000000      1.00000000      1.00000000      1.00000000      1.00000000      1.00000000      1.00000000      1.00000000      1.00000000      1.00000000      1.00000000      1.00000000      1.00000000      1.00000000      1.00000000      1.00000000      1.00000000      1.00000000      1.00000000
      1.00000000      1.00000000      1.00000000      1.00000000      1.00000000      1.00000000      1.00000000</v>
    <i name="NUPDOWN">     -1.00000000</i>
    <i type="logical" name="LSORBIT"> F  </i>
    <v name="SAXIS">      0.00000000      0.00000000      1.00000000</v>
    <i type="logical" name="LSPIRAL"> F  </i>
    <v name="QSPIRAL">      0.00000000      0.00000000      0.00000000</v>
    <i type="logical" name="LZEROZ"> F  </i>
   </separator>
   <separator name="electronic exchange-correlation" >
    <i type="logical" name="LASPH"> F  </i>
    <i type="logical" name="LMETAGGA"> F  </i>
   </separator>
   <separator name="electronic convergence" >
    <i type="int" name="NELM">    60</i>
    <i type="int" name="NELMDL">    -5</i>
    <i type="int" name="NELMIN">     2</i>
    <i name="ENINI">    280.00000000</i>
    <separator name="electronic convergence detail" >
     <i type="logical" name="LDIAG"> T  </i>
     <i type="logical" name="LSUBROT"> F  </i>
     <i name="WEIMIN">      0.00100000</i>
     <i name="EBREAK">      0.00000021</i>
     <i name="DEPER">      0.30000000</i>
     <i type="int" name="NRMM">     4</i>
     <i name="TIME">      0.40000000</i>
    </separator>
   </separator>
   <separator name="electronic mixer" >
    <i name="AMIX">      0.40000000</i>
    <i name="BMIX">      1.00000000</i>
    <i name="AMIN">      0.10000000</i>
    <i name="AMIX_MAG">      1.60000000</i>
    <i name="BMIX_MAG">      1.00000000</i>
    <separator name="electronic mixer details" >
     <i type="int" name="IMIX">     4</i>
     <i type="logical" name="MIXFIRST"> F  </i>
     <i type="int" name="MAXMIX">   -45</i>
     <i name="WC">    100.00000000</i>
     <i type="int" name="INIMIX">     1</i>
     <i type="int" name="MIXPRE">     1</i>
     <i type="int" name="MREMOVE">     5</i>
    </separator>
   </separator>
   <separator name="electronic dipolcorrection" >
    <i type="logical" name="LDIPOL"> F  </i>
    <i type="logical" name="LMONO"> F  </i>
    <i type="int" name="IDIPOL">     0</i>
    <i name="EPSILON">      1.00000000</i>
    <v name="DIPOL">   -100.00000000   -100.00000000   -100.00000000</v>
    <i name="EFIELD">      0.00000000</i>
   </separator>
  </separator>
  <separator name="grids" >
   <i type="int" name="NGX">    42</i>
   <i type="int" name="NGY">    42</i>
   <i type="int" name="NGZ">   126</i>
   <i type="int" name="NGXF">    84</i>
   <i type="int" name="NGYF">    84</i>
   <i type="int" name="NGZF">   252</i>
   <i type="logical" name="ADDGRID"> F  </i>
  </separator>
  <separator name="ionic" >
   <i type="int" name="NSW">   100</i>
   <i type="int" name="IBRION">     1</i>
   <i type="int" name="ISIF">     3</i>
   <i name="PSTRESS">      0.00000000</i>
   <i name="EDIFFG">      0.00100000</i>
   <i type="int" name="NFREE">     0</i>
   <i name="POTIM">      0.50000000</i>
   <i name="SMASS">     -3.00000000</i>
   <i name="SCALEE">      1.00000000</i>
  </separator>
  <separator name="ionic md" >
   <i name="TEBEG">      0.00010000</i>
   <i name="TEEND">      0.00010000</i>
   <i type="int" name="NBLOCK">     1</i>
   <i type="int" name="KBLOCK">   100</i>
   <i type="int" name="NPACO">   256</i>
   <i name="APACO">     16.00000000</i>
  </separator>
  <separator name="symmetry" >
   <i type="int" name="ISYM">     0</i>
   <i name="SYMPREC">      0.00000001</i>
  </separator>
  <separator name="dos" >
   <i type="logical" name="LORBIT"> F  </i>
   <v name="RWIGS">     -1.00000000     -1.00000000     -1.00000000     -1.00000000</v>
   <i type="int" name="NEDOS">   301</i>
   <i name="EMIN">     10.00000000</i>
   <i name="EMAX">    -10.00000000</i>
   <i name="EFERMI">      0.00000000</i>
  </separator>
  <separator name="writing" >
   <i type="int" name="NWRITE">     2</i>
   <i type="logical" name="LWAVE"> F  </i>
   <i type="logical" name="LCHARG"> F  </i>
   <i type="logical" name="LPARD"> F  </i>
   <i type="logical" name="LVTOT"> F  </i>
   <i type="logical" name="LVHAR"> F  </i>
   <i type="logical" name="LELF"> F  </i>
   <i type="logical" name="LOPTICS"> F  </i>
   <v name="STM">      0.00000000      0.00000000      0.00000000      0.00000000      0.00000000      0.00000000      0.00000000</v>
  </separator>
  <separator name="performance" >
   <i type="int" name="NPAR">    40</i>
   <i type="int" name="NSIM">     4</i>
   <i type="int" name="NBLK">    -1</i>
   <i type="logical" name="LPLANE"> F  </i>
   <i type="logical" name="LSCALAPACK"> T  </i>
   <i type="logical" name="LSCAAWARE"> F  </i>
   <i type="logical" name="LSCALU"> F  </i>
   <i type="logical" name="LASYNC"> F  </i>
   <i type="logical" name="LORBITALREAL"> F  </i>
  </separator>
  <separator name="miscellaneous" >
   <i type="int" name="IDIOT">     3</i>
   <i type="logical" name="LMUSIC"> F  </i>
   <v name="POMASS">     50.94100000     95.94000000    183.85000000     32.06600000</v>
   <v name="DARWINR">      0.00000000      0.00000000      0.00000000      0.00000000</v>
   <v name="DARWINV">      1.00000000      1.00000000      1.00000000      1.00000000</v>
   <i type="logical" name="LCORR"> T  </i>
  </separator>
  <i type="logical" name="GGA_COMPAT"> T  </i>
  <i type="logical" name="LBERRY"> F  </i>
  <i type="int" name="ICORELEVEL">     0</i>
  <i type="logical" name="LDAU"> F  </i>
  <i type="int" name="I_CONSTRAINED_M">     0</i>
  <separator name="electronic exchange-correlation" >
   <i type="string" name="GGA">--</i>
   <i type="int" name="VOSKOWN">     0</i>
   <i type="logical" name="LHFCALC"> F  </i>
   <i type="string" name="PRECFOCK"></i>
   <i type="logical" name="LSYMGRAD"> F  </i>
   <i type="logical" name="LHFONE"> F  </i>
   <i type="logical" name="LRHFCALC"> F  </i>
   <i type="logical" name="LTHOMAS"> F  </i>
   <i type="logical" name="LMODELHF"> F  </i>
   <i name="ENCUT4O">     -1.00000000</i>
   <i type="int" name="EXXOEP">     0</i>
   <i type="int" name="FOURORBIT">     0</i>
   <i name="AEXX">      0.00000000</i>
   <i name="HFALPHA">      0.00000000</i>
   <i name="MCALPHA">      0.00000000</i>
   <i name="ALDAX">      1.00000000</i>
   <i name="AGGAX">      1.00000000</i>
   <i name="ALDAC">      1.00000000</i>
   <i name="AGGAC">      1.00000000</i>
   <i type="int" name="NKREDX">     1</i>
   <i type="int" name="NKREDY">     1</i>
   <i type="int" name="NKREDZ">     1</i>
   <i type="logical" name="SHIFTRED"> F  </i>
   <i type="logical" name="ODDONLY"> F  </i>
   <i type="logical" name="EVENONLY"> F  </i>
   <i type="int" name="LMAXFOCK">     0</i>
   <i type="int" name="NMAXFOCKAE">     0</i>
   <i type="logical" name="LFOCKAEDFT"> F  </i>
   <i name="HFSCREEN">      0.00000000</i>
   <i name="HFSCREENC">      0.00000000</i>
   <i type="int" name="NBANDSGWLOW">     0</i>
  </separator>
  <separator name="vdW DFT" >
   <i type="logical" name="LUSE_VDW"> F  </i>
   <i name="Zab_VDW">     -0.84910000</i>
   <i name="PARAM1">      0.12340000</i>
   <i name="PARAM2">      1.00000000</i>
   <i name="PARAM3">      0.00000000</i>
  </separator>
  <separator name="model GW" >
   <i type="int" name="MODEL_GW">     0</i>
   <i name="MODEL_EPS0">     58.26239943</i>
   <i name="MODEL_ALPHA">      1.00000000</i>
  </separator>
  <separator name="linear response parameters" >
   <i type="logical" name="LEPSILON"> F  </i>
   <i type="logical" name="LRPA"> F  </i>
   <i type="logical" name="LNABLA"> F  </i>
   <i type="logical" name="LVEL"> F  </i>
   <i type="int" name="KINTER">     0</i>
   <i name="CSHIFT">      0.10000000</i>
   <i name="OMEGAMAX">     -1.00000000</i>
   <i name="DEG_THRESHOLD">      0.00200000</i>
  </separator>
  <separator name="orbital magnetization" >
   <i type="logical" name="NUCIND"> F  </i>
   <v name="MAGPOS">      0.00000000      0.00000000      0.00000000</v>
   <i type="logical" name="LNICSALL"> T  </i>
   <i type="logical" name="ORBITALMAG"> F  </i>
   <i type="logical" name="LMAGBLOCH"> F  </i>
   <i type="logical" name="LCHIMAG"> F  </i>
   <i type="logical" name="LGAUGE"> T  </i>
   <i type="int" name="MAGATOM">     0</i>
   <v name="MAGDIPOL">      0.00000000      0.00000000      0.00000000</v>
   <v name="AVECCONST">      0.00000000      0.00000000      0.00000000</v>
  </separator>
  <separator name="response functions" >
   <i type="logical" name="LADDER"> F  </i>
   <i type="logical" name="LFXC"> F  </i>
   <i type="logical" name="LHARTREE"> T  </i>
   <i type="int" name="IBSE">     0</i>
   <v type="int" name="KPOINT">    -1     0     0     0</v>
   <i type="logical" name="LTCTE"> F  </i>
   <i type="logical" name="LTETE"> F  </i>
   <i type="logical" name="LTRIPLET"> F  </i>
   <i type="logical" name="LFXCEPS"> F  </i>
   <i type="logical" name="LFXHEG"> F  </i>
   <i type="int" name="NATURALO">     0</i>
   <i type="logical" name="L2ORDER"> F  </i>
   <i type="logical" name="LUSEW"> F  </i>
   <i name="ENCUTGW">     -2.00000000</i>
   <i name="ENCUTGWSOFT">     -2.00000000</i>
   <i name="ENCUTLF">     -1.00000000</i>
   <i type="int" name="LMAXMP2">    -1</i>
   <i name="SCISSOR">      0.00000000</i>
   <i type="int" name="NOMEGA">     0</i>
   <i type="int" name="NOMEGAR">     0</i>
   <i type="int" name="NBANDSGW">    -1</i>
   <i type="int" name="NBANDSO">    -1</i>
   <i type="int" name="NBANDSV">    -1</i>
   <i type="int" name="NELM">     1</i>
   <i type="int" name="NELMHF">     1</i>
   <i type="int" name="DIM">     3</i>
   <i type="int" name="ANTIRES">     0</i>
   <i name="OMEGAMAX">    -30.00000000</i>
   <i name="OMEGAMIN">    -30.00000000</i>
   <i name="OMEGATL">   -200.00000000</i>
   <i type="int" name="OMEGAGRID">     0</i>
   <i name="CSHIFT">     -0.10000000</i>
   <i type="logical" name="SELFENERGY"> F  </i>
   <i type="logical" name="LSPECTRAL"> F  </i>
   <i type="logical" name="LSPECTRALGW"> F  </i>
   <i type="logical" name="LSINGLES"> F  </i>
   <i type="logical" name="LFERMIGW"> F  </i>
   <i type="logical" name="ODDONLYGW"> F  </i>
   <i type="logical" name="EVENONLYGW"> F  </i>
   <i type="int" name="NKREDLFX">     1</i>
   <i type="int" name="NKREDLFY">     1</i>
   <i type="int" name="NKREDLFZ">     1</i>
   <i type="int" name="MAXMEM">  1800</i>
   <i type="int" name="TELESCOPE">     0</i>
   <i type="int" name="TAUPAR">     1</i>
   <i type="int" name="OMEGAPAR">    -1</i>
   <i name="LAMBDA">      1.00000000</i>
  </separator>
  <separator name="External order field" >
   <i name="OFIELD_KAPPA">      0.00000000</i>
   <v name="OFIELD_K">      0.00000000      0.00000000      0.00000000</v>
   <i name="OFIELD_Q6_NEAR">      0.00000000</i>
   <i name="OFIELD_Q6_FAR">      0.00000000</i>
   <i name="OFIELD_A">      0.00000000</i>
  </separator>
 </parameters>
 <atominfo>
  <atoms>      27 </atoms>
  <types>       4 </types>
  <array name="atoms" >
   <dimension dim="1">ion</dimension>
   <field type="string">element</field>
   <field type="int">atomtype</field>
   <set>
    <rc><c>V </c><c>   1</c></rc>
    <rc><c>V </c><c>   1</c></rc>
    <rc><c>V </c><c>   1</c></rc>
    <rc><c>Mo</c><c>   2</c></rc>
    <rc><c>Mo</c><c>   2</c></rc>
    <rc><c>Mo</c><c>   2</c></rc>
    <rc><c>W </c><c>   3</c></rc>
    <rc><c>W </c><c>   3</c></rc>
    <rc><c>W </c><c>   3</c></rc>
    <rc><c>S </c><c>   4</c></rc>
    <rc><c>S </c><c>   4</c></rc>
    <rc><c>S </c><c>   4</c></rc>
    <rc><c>S </c><c>   4</c></rc>
    <rc><c>S </c><c>   4</c></rc>
    <rc><c>S </c><c>   4</c></rc>
    <rc><c>S </c><c>   4</c></rc>
    <rc><c>S </c><c>   4</c></rc>
    <rc><c>S </c><c>   4</c></rc>
    <rc><c>S </c><c>   4</c></rc>
    <rc><c>S </c><c>   4</c></rc>
    <rc><c>S </c><c>   4</c></rc>
    <rc><c>S </c><c>   4</c></rc>
    <rc><c>S </c><c>   4</c></rc>
    <rc><c>S </c><c>   4</c></rc>
    <rc><c>S </c><c>   4</c></rc>
    <rc><c>S </c><c>   4</c></rc>
    <rc><c>S </c><c>   4</c></rc>
   </set>
  </array>
  <array name="atomtypes" >
   <dimension dim="1">type</dimension>
   <field type="int">atomspertype</field>
   <field type="string">element</field>
   <field>mass</field>
   <field>valence</field>
   <field type="string">pseudopotential</field>
   <set>
    <rc><c>   3</c><c>V </c><c>     50.94100000</c><c>      5.00000000</c><c> PAW_PBE V 08Apr2002                    </c></rc>
    <rc><c>   3</c><c>Mo</c><c>     95.94000000</c><c>      6.00000000</c><c> PAW_PBE Mo 08Apr2002                   </c></rc>
    <rc><c>   3</c><c>W </c><c>    183.85000000</c><c>      6.00000000</c><c> PAW_PBE W 08Apr2002                    </c></rc>
    <rc><c>  18</c><c>S </c><c>     32.06600000</c><c>      6.00000000</c><c>  PAW_PBE S 17Jan2003                   </c></rc>
   </set>
  </array>
 </atominfo>
 <structure name="initialpos" >
  <crystal>
   <varray name="basis" >
    <v>       8.66999996       5.03999989       0.00000000 </v>
    <v>      -8.66999982       5.04000013       0.00000000 </v>
    <v>       0.00000000       0.00000000      30.00000000 </v>
   </varray>
   <i name="volume">   2621.80797419 </i>
   <varray name="rec_basis" >
    <v>       0.05767013       0.09920635       0.00000000 </v>
    <v>      -0.05767013       0.09920635       0.00000000 </v>
    <v>       0.00000000       0.00000000       0.03333333 </v>
   </varray>
  </crystal>
  <varray name="positions" >
   <v>       0.33333334       0.33333334       0.00000000 </v>
   <v>       0.33333334       0.66666669       0.00000000 </v>
   <v>       0.66666669       0.00000000       0.00000000 </v>
   <v>       0.33333334       0.00000000       0.00000000 </v>
   <v>       0.66666669       0.33333334       0.00000000 </v>
   <v>       0.66666669       0.66666669       0.00000000 </v>
   <v>       0.00000000       0.00000000       0.00000000 </v>
   <v>       1.00000000       0.33333334       0.00000000 </v>
   <v>       0.00000000       0.66666669       0.00000000 </v>
   <v>       0.11068511       0.22244981       0.95539999 </v>
   <v>       0.22244981       0.11068511       0.04460000 </v>
   <v>       0.11068511       0.55578315       0.95539999 </v>
   <v>       0.22244981       0.44401845       0.04460000 </v>
   <v>       0.11068511       0.88911647       0.95539999 </v>
   <v>       0.22244981       0.77735180       0.04460000 </v>
   <v>       0.44401845       0.22244981       0.95539999 </v>
   <v>       0.55578315       0.11068511       0.04460000 </v>
   <v>       0.44401845       0.55578315       0.95539999 </v>
   <v>       0.55578315       0.44401845       0.04460000 </v>
   <v>       0.44401845       0.88911647       0.95539999 </v>
   <v>       0.55578315       0.77735180       0.04460000 </v>
   <v>       0.77735180       0.22244981       0.95539999 </v>
   <v>       0.88911647       0.11068511       0.04460000 </v>
   <v>       0.77735180       0.55578315       0.95539999 </v>
   <v>       0.88911647       0.44401845       0.04460000 </v>
   <v>       0.77735180       0.88911647       0.95539999 </v>
   <v>       0.88911647       0.77735180       0.04460000 </v>
  </varray>
 </structure>
 <calculation>
  <scstep>
   <time name="dav">   23.19   23.25</time>
   <time name="total">   23.24   23.31</time>
   <energy>
    <i name="alphaZ">     81.65567618 </i>
    <i name="ewald">  41890.23011096 </i>
    <i name="hartreedc"> -47722.87367266 </i>
    <i name="XCdc">   -242.92712308 </i>
    <i name="pawpsdc">   3467.42045192 </i>
    <i name="pawaedc">  -2871.19716117 </i>
    <i name="eentropy">     -0.51976611 </i>
    <i name="bandstr">   -238.85852850 </i>
    <i name="atom">   6761.44252427 </i>
    <i name="e_fr_energy">   1124.37251181 </i>
    <i name="e_wo_entrp">   1124.89227792 </i>
    <i name="e_0_energy">   1124.63239487 </i>
   </energy>
  </scstep>
  <scstep>
   <time name="dav">   30.00   30.08</time>
   <time name="total">   30.01   30.09</time>
   <energy>
    <i name="e_fr_energy">     -4.65151649 </i>
    <i name="e_wo_entrp">     -4.45810566 </i>
    <i name="e_0_energy">     -4.55481108 </i>
   </energy>
  </scstep>
  <scstep>
   <time name="dav">   29.31   29.38</time>
   <time name="total">   29.31   29.39</time>
   <energy>
    <i name="e_fr_energy">   -200.08025810 </i>
    <i name="e_wo_entrp">   -199.81108227 </i>
    <i name="e_0_energy">   -199.94567019 </i>
   </energy>
  </scstep>
  <scstep>
   <time name="dav">   31.51   31.59</time>
   <time name="total">   31.52   31.60</time>
   <energy>
    <i name="e_fr_energy">   -208.99211260 </i>
    <i name="e_wo_entrp">   -208.68786251 </i>
    <i name="e_0_energy">   -208.83998755 </i>
   </energy>
  </scstep>
  <scstep>
   <time name="dav">   30.13   30.21</time>
   <time name="total">   30.60   30.68</time>
   <energy>
    <i name="e_fr_energy">   -209.32386153 </i>
    <i name="e_wo_entrp">   -209.02217884 </i>
    <i name="e_0_energy">   -209.17302018 </i>
   </energy>
  </scstep>
  <scstep>
   <time name="dav">   32.84   32.92</time>
   <time name="total">   33.34   33.43</time>
   <energy>
    <i name="e_fr_energy">   -237.11145272 </i>
    <i name="e_wo_entrp">   -236.83123755 </i>
    <i name="e_0_energy">   -236.97134514 </i>
   </energy>
  </scstep>
  <scstep>
   <time name="dav">   34.44   34.52</time>
   <time name="total">   34.94   35.04</time>
   <energy>
    <i name="e_fr_energy">   -196.42656428 </i>
    <i name="e_wo_entrp">   -196.10670484 </i>
    <i name="e_0_energy">   -196.26663456 </i>
   </energy>
  </scstep>
  <scstep>
   <time name="dav">   31.64   31.72</time>
   <time name="total">   32.15   32.24</time>
   <energy>
    <i name="e_fr_energy">   -189.40074556 </i>
    <i name="e_wo_entrp">   -189.10946852 </i>
    <i name="e_0_energy">   -189.25510704 </i>
   </energy>
  </scstep>
  <scstep>
   <time name="dav">   33.85   33.93</time>
   <time name="total">   34.37   34.46</time>
   <energy>
    <i name="e_fr_energy">   -188.16695212 </i>
    <i name="e_wo_entrp">   -187.82902586 </i>
    <i name="e_0_energy">   -187.99798899 </i>
   </energy>
  </scstep>
  <scstep>
   <time name="dav">   34.86   34.95</time>
   <time name="total">   35.40   35.49</time>
   <energy>
    <i name="e_fr_energy">   -186.99876197 </i>
    <i name="e_wo_entrp">   -186.65140832 </i>
    <i name="e_0_energy">   -186.82508514 </i>
   </energy>
  </scstep>
  <scstep>
   <time name="dav">   34.46   34.54</time>
   <time name="total">   34.99   35.09</time>
   <energy>
    <i name="e_fr_energy">   -186.96880214 </i>
    <i name="e_wo_entrp">   -186.61897731 </i>
    <i name="e_0_energy">   -186.79388972 </i>
   </energy>
  </scstep>
  <scstep>
   <time name="dav">   31.79   31.87</time>
   <time name="total">   32.32   32.41</time>
   <energy>
    <i name="e_fr_energy">   -187.09644007 </i>
    <i name="e_wo_entrp">   -186.75674966 </i>
    <i name="e_0_energy">   -186.92659487 </i>
   </energy>
  </scstep>
  <scstep>
   <time name="dav">   33.32   33.40</time>
   <time name="total">   33.86   33.95</time>
   <energy>
    <i name="e_fr_energy">   -186.87989239 </i>
    <i name="e_wo_entrp">   -186.54328174 </i>
    <i name="e_0_energy">   -186.71158707 </i>
   </energy>
  </scstep>
  <scstep>
   <time name="dav">   34.50   34.59</time>
   <time name="total">   35.04   35.13</time>
   <energy>
    <i name="e_fr_energy">   -186.85604135 </i>
    <i name="e_wo_entrp">   -186.51159503 </i>
    <i name="e_0_energy">   -186.68381819 </i>
   </energy>
  </scstep>
  <scstep>
   <time name="dav">   31.28   31.35</time>
   <time name="total">   31.81   31.89</time>
   <energy>
    <i name="e_fr_energy">   -186.83518006 </i>
    <i name="e_wo_entrp">   -186.48831708 </i>
    <i name="e_0_energy">   -186.66174857 </i>
   </energy>
  </scstep>
  <scstep>
   <time name="dav">   31.60   31.68</time>
   <time name="total">   32.14   32.22</time>
   <energy>
    <i name="e_fr_energy">   -186.82771189 </i>
    <i name="e_wo_entrp">   -186.48090092 </i>
    <i name="e_0_energy">   -186.65430640 </i>
   </energy>
  </scstep>
  <scstep>
   <time name="dav">   32.70   32.78</time>
   <time name="total">   33.23   33.32</time>
   <energy>
    <i name="e_fr_energy">   -186.82581740 </i>
    <i name="e_wo_entrp">   -186.48102679 </i>
    <i name="e_0_energy">   -186.65342210 </i>
   </energy>
  </scstep>
  <scstep>
   <time name="dav">   31.28   31.35</time>
   <time name="total">   31.81   31.90</time>
   <energy>
    <i name="e_fr_energy">   -186.82536746 </i>
    <i name="e_wo_entrp">   -186.48030955 </i>
    <i name="e_0_energy">   -186.65283851 </i>
   </energy>
  </scstep>
  <scstep>
   <time name="dav">   28.58   28.65</time>
   <time name="total">   29.12   29.20</time>
   <energy>
    <i name="e_fr_energy">   -186.82501771 </i>
    <i name="e_wo_entrp">   -186.47968121 </i>
    <i name="e_0_energy">   -186.65234946 </i>
   </energy>
  </scstep>
  <scstep>
   <time name="dav">   25.72   25.78</time>
   <time name="total">   26.25   26.32</time>
   <energy>
    <i name="e_fr_energy">   -186.82575231 </i>
    <i name="e_wo_entrp">   -186.48059087 </i>
    <i name="e_0_energy">   -186.65317159 </i>
   </energy>
  </scstep>
  <scstep>
   <time name="dav">   22.25   22.31</time>
   <time name="total">   22.79   22.85</time>
   <energy>
    <i name="e_fr_energy">   -186.82634484 </i>
    <i name="e_wo_entrp">   -186.48135802 </i>
    <i name="e_0_energy">   -186.65385143 </i>
   </energy>
  </scstep>
  <scstep>
   <time name="dav">   21.85   21.90</time>
   <time name="total">   22.39   22.45</time>
   <energy>
    <i name="e_fr_energy">   -186.82751818 </i>
    <i name="e_wo_entrp">   -186.48235919 </i>
    <i name="e_0_energy">   -186.65493869 </i>
   </energy>
  </scstep>
  <scstep>
   <time name="dav">   21.82   21.87</time>
   <time name="total">   22.36   22.41</time>
   <energy>
    <i name="e_fr_energy">   -186.82873754 </i>
    <i name="e_wo_entrp">   -186.48369275 </i>
    <i name="e_0_energy">   -186.65621514 </i>
   </energy>
  </scstep>
  <scstep>
   <time name="dav">   19.89   19.94</time>
   <time name="total">   20.43   20.48</time>
   <energy>
    <i name="e_fr_energy">   -186.82932844 </i>
    <i name="e_wo_entrp">   -186.48426495 </i>
    <i name="e_0_energy">   -186.65679669 </i>
   </energy>
  </scstep>
  <scstep>
   <time name="dav">   18.28   18.32</time>
   <time name="total">   18.81   18.86</time>
   <energy>
    <i name="e_fr_energy">   -186.82969135 </i>
    <i name="e_wo_entrp">   -186.48458835 </i>
    <i name="e_0_energy">   -186.65713985 </i>
   </energy>
  </scstep>
  <scstep>
   <time name="dav">   20.24   20.29</time>
   <time name="total">   20.78   20.83</time>
   <energy>
    <i name="e_fr_energy">   -186.82992592 </i>
    <i name="e_wo_entrp">   -186.48484003 </i>
    <i name="e_0_energy">   -186.65738297 </i>
   </energy>
  </scstep>
  <scstep>
   <time name="dav">   21.17   21.22</time>
   <time name="total">   21.70   21.76</time>
   <energy>
    <i name="e_fr_energy">   -186.83002841 </i>
    <i name="e_wo_entrp">   -186.48493983 </i>
    <i name="e_0_energy">   -186.65748412 </i>
   </energy>
  </scstep>
  <scstep>
   <time name="dav">   21.44   21.49</time>
   <time name="total">   21.48   21.54</time>
   <energy>
    <i name="alphaZ">     81.65567618 </i>
    <i name="ewald">  41890.23011096 </i>
    <i name="hartreedc"> -47832.85910116 </i>
    <i name="XCdc">   -231.61138407 </i>
    <i name="pawpsdc">   4192.00219246 </i>
    <i name="pawaedc">  -3610.00444345 </i>
    <i name="eentropy">     -0.34508587 </i>
    <i name="bandstr">  -1437.34055872 </i>
    <i name="atom">   6761.44252427 </i>
    <i name="e_fr_energy">   -186.83006940 </i>
    <i name="e_wo_entrp">   -186.48498354 </i>
    <i name="e_0_energy">   -186.65752647 </i>
   </energy>
  </scstep>
  <structure>
   <crystal>
    <varray name="basis" >
     <v>       8.66999996       5.03999989       0.00000000 </v>
     <v>      -8.66999982       5.04000013       0.00000000 </v>
     <v>       0.00000000       0.00000000      30.00000000 </v>
    </varray>
    <i name="volume">   2621.80797419 </i>
    <varray name="rec_basis" >
     <v>       0.05767013       0.09920635       0.00000000 </v>
     <v>      -0.05767013       0.09920635       0.00000000 </v>
     <v>       0.00000000       0.00000000       0.03333333 </v>
    </varray>
   </crystal>
   <varray name="positions" >
    <v>       0.33333334       0.33333334       0.00000000 </v>
    <v>       0.33333334       0.66666669       0.00000000 </v>
    <v>       0.66666669       0.00000000       0.00000000 </v>
    <v>       0.33333334       0.00000000       0.00000000 </v>
    <v>       0.66666669       0.33333334       0.00000000 </v>
    <v>       0.66666669       0.66666669       0.00000000 </v>
    <v>       0.00000000       0.00000000       0.00000000 </v>
    <v>       1.00000000       0.33333334       0.00000000 </v>
    <v>       0.00000000       0.66666669       0.00000000 </v>
    <v>       0.11068511       0.22244981       0.95539999 </v>
    <v>       0.22244981       0.11068511       0.04460000 </v>
    <v>       0.11068511       0.55578315       0.95539999 </v>
    <v>       0.22244981       0.44401845       0.04460000 </v>
    <v>       0.11068511       0.88911647       0.95539999 </v>
    <v>       0.22244981       0.77735180       0.04460000 </v>
    <v>       0.44401845       0.22244981       0.95539999 </v>
    <v>       0.55578315       0.11068511       0.04460000 </v>
    <v>       0.44401845       0.55578315       0.95539999 </v>
    <v>       0.55578315       0.44401845       0.04460000 </v>
    <v>       0.44401845       0.88911647       0.95539999 </v>
    <v>       0.55578315       0.77735180       0.04460000 </v>
    <v>       0.77735180       0.22244981       0.95539999 </v>
    <v>       0.88911647       0.11068511       0.04460000 </v>
    <v>       0.77735180       0.55578315       0.95539999 </v>
    <v>       0.88911647       0.44401845       0.04460000 </v>
    <v>       0.77735180       0.88911647       0.95539999 </v>
    <v>       0.88911647       0.77735180       0.04460000 </v>
   </varray>
  </structure>
  <varray name="forces" >
   <v>       0.35808210       0.28263709       0.09138567 </v>
   <v>       0.08985087       0.27141998       0.00800138 </v>
   <v>      -0.22286651      -0.19537234      -0.10236213 </v>
   <v>       0.01880454       0.27885170       0.00008443 </v>
   <v>      -0.25024981      -0.15075687      -0.09795299 </v>
   <v>       0.19273519      -0.16555817      -0.01008364 </v>
   <v>       0.24261155      -0.14979686       0.10407819 </v>
   <v>      -0.21632317      -0.10873484       0.02624765 </v>
   <v>      -0.25202260      -0.14198235       0.02430017 </v>
   <v>       0.46038127       0.57904055      -2.12459615 </v>
   <v>      -0.63718776       0.56486797       2.17421411 </v>
   <v>       0.46061847       0.56979243      -2.16929282 </v>
   <v>       0.25564328       0.51558137       1.41317007 </v>
   <v>       0.08620366      -0.13382812      -2.91079822 </v>
   <v>       0.65525586      -0.15304151       2.07412862 </v>
   <v>      -0.72672964       0.01423559      -2.13791811 </v>
   <v>       0.74321939      -0.00488584       2.10681663 </v>
   <v>      -0.32240470      -0.66034669      -1.41574277 </v>
   <v>      -0.55512232      -0.71818135       2.18304351 </v>
   <v>       0.91294762       0.02527229      -1.49053714 </v>
   <v>      -0.89318875      -0.00582339       1.45642285 </v>
   <v>       0.62377289      -0.56568667      -2.17781595 </v>
   <v>      -0.45242726      -0.56172594       2.14804220 </v>
   <v>       0.22647840       0.14548338      -2.91190454 </v>
   <v>      -0.05291670       0.15979657       2.88628961 </v>
   <v>      -0.69332294       0.14919638      -2.10067878 </v>
   <v>      -0.05184293       0.15954565       2.95345814 </v>
  </varray>
  <varray name="stress" >
   <v>       7.44877743      -0.05625850      -1.64576456 </v>
   <v>      -0.05625854       4.27436009      -0.13645086 </v>
   <v>      -1.64576454      -0.13645075      30.33692286 </v>
  </varray>
  <energy>
   <i name="e_fr_energy">   -186.83006940 </i>
   <i name="e_wo_entrp">   -186.65752647 </i>
   <i name="e_0_energy">     -0.34508587 </i>
  </energy>
  <time name="totalsc">  850.81  853.08</time>
 </calculation>
 <calculation>
  <scstep>
   <time name="dav">   23.12   23.18</time>
   <time name="total">   23.67   23.72</time>
   <energy>
    <i name="alphaZ">     78.92876111 </i>
    <i name="ewald">  39382.89390519 </i>
    <i name="hartreedc"> -45340.39285328 </i>
    <i name="XCdc">   -239.06586615 </i>
    <i name="pawpsdc">   4192.00266673 </i>
    <i name="pawaedc">  -3610.00490767 </i>
    <i name="eentropy">     -0.28494844 </i>
    <i name="bandstr">  -1412.97934515 </i>
    <i name="atom">   6761.44252427 </i>
    <i name="e_fr_energy">   -187.46006339 </i>
    <i name="e_wo_entrp">   -187.17511495 </i>
    <i name="e_0_energy">   -187.31758917 </i>
   </energy>
  </scstep>
  <scstep>
   <time name="dav">   32.23   32.31</time>
   <time name="total">   32.77   32.85</time>
   <energy>
    <i name="e_fr_energy">   -189.37322472 </i>
    <i name="e_wo_entrp">   -189.05064559 </i>
    <i name="e_0_energy">   -189.21193515 </i>
   </energy>
  </scstep>
  <scstep>
   <time name="dav">   32.43   32.51</time>
   <time name="total">   32.98   33.07</time>
   <energy>
    <i name="e_fr_energy">   -189.33279473 </i>
    <i name="e_wo_entrp">   -189.05353507 </i>
    <i name="e_0_energy">   -189.19316490 </i>
   </energy>
  </scstep>
  <scstep>
   <time name="dav">   32.66   32.74</time>
   <time name="total">   33.20   33.29</time>
   <energy>
    <i name="e_fr_energy">   -188.72675378 </i>
    <i name="e_wo_entrp">   -188.44162218 </i>
    <i name="e_0_energy">   -188.58418798 </i>
   </energy>
  </scstep>
  <scstep>
   <time name="dav">   30.44   30.52</time>
   <time name="total">   30.99   31.07</time>
   <energy>
    <i name="e_fr_energy">   -188.74136883 </i>
    <i name="e_wo_entrp">   -188.45227762 </i>
    <i name="e_0_energy">   -188.59682322 </i>
   </energy>
  </scstep>
  <scstep>
   <time name="dav">   33.04   33.12</time>
   <time name="total">   33.58   33.67</time>
   <energy>
    <i name="e_fr_energy">   -188.73503711 </i>
    <i name="e_wo_entrp">   -188.44437157 </i>
    <i name="e_0_energy">   -188.58970434 </i>
   </energy>
  </scstep>
  <scstep>
   <time name="dav">   32.53   32.61</time>
   <time name="total">   33.07   33.16</time>
   <energy>
    <i name="e_fr_energy">   -188.66067090 </i>
    <i name="e_wo_entrp">   -188.37560140 </i>
    <i name="e_0_energy">   -188.51813615 </i>
   </energy>
  </scstep>
  <scstep>
   <time name="dav">   32.52   32.59</time>
   <time name="total">   33.06   33.15</time>
   <energy>
    <i name="e_fr_energy">   -188.63973436 </i>
    <i name="e_wo_entrp">   -188.35429757 </i>
    <i name="e_0_energy">   -188.49701596 </i>
   </energy>
  </scstep>
  <scstep>
   <time name="dav">   31.02   31.09</time>
   <time name="total">   31.56   31.65</time>
   <energy>
    <i name="e_fr_energy">   -188.63726673 </i>
    <i name="e_wo_entrp">   -188.35267786 </i>
    <i name="e_0_energy">   -188.49497230 </i>
   </energy>
  </scstep>
  <scstep>
   <time name="dav">   32.64   32.71</time>
   <time name="total">   33.18   33.27</time>
   <energy>
    <i name="e_fr_energy">   -188.63507783 </i>
    <i name="e_wo_entrp">   -188.34991991 </i>
    <i name="e_0_energy">   -188.49249887 </i>
   </energy>
  </scstep>
  <scstep>
   <time name="dav">   33.15   33.23</time>
   <time name="total">   33.70   33.79</time>
   <energy>
    <i name="e_fr_energy">   -188.63458240 </i>
    <i name="e_wo_entrp">   -188.35019956 </i>
    <i name="e_0_energy">   -188.49239098 </i>
   </energy>
  </scstep>
  <scstep>
   <time name="dav">   31.60   31.68</time>
   <time name="total">   31.64   31.72</time>
   <energy>
    <i name="alphaZ">     78.92876111 </i>
    <i name="ewald">  39382.89390519 </i>
    <i name="hartreedc"> -45351.30290247 </i>
    <i name="XCdc">   -237.97596494 </i>
    <i name="pawpsdc">   3952.38852829 </i>
    <i name="pawaedc">  -3366.91321930 </i>
    <i name="eentropy">     -0.28421484 </i>
    <i name="bandstr">  -1407.81207459 </i>
    <i name="atom">   6761.44252427 </i>
    <i name="e_fr_energy">   -188.63465728 </i>
    <i name="e_wo_entrp">   -188.35044244 </i>
    <i name="e_0_energy">   -188.49254986 </i>
   </energy>
  </scstep>
  <structure>
   <crystal>
    <varray name="basis" >
     <v>       8.85799694       5.10156197       0.00000000 </v>
     <v>      -8.85965488       5.10441451       0.00000000 </v>
     <v>       0.00000000       0.00000000      30.00000000 </v>
    </varray>
    <i name="volume">   2712.38899383 </i>
    <varray name="rec_basis" >
     <v>       0.05645666       0.09799098       0.00000000 </v>
     <v>      -0.05642511       0.09797264       0.00000000 </v>
     <v>       0.00000000       0.00000000       0.03333333 </v>
    </varray>
   </crystal>
   <varray name="positions" >
    <v>       0.33568228       0.33368980       0.00014696 </v>
    <v>       0.33488233       0.66771572       0.00001287 </v>
    <v>       0.66511159      -0.00031500      -0.00016461 </v>
    <v>       0.33472024       0.00128226       0.00000014 </v>
    <v>       0.66524893       0.33330806      -0.00015752 </v>
    <v>       0.66641055       0.66533811      -0.00001622 </v>
    <v>      -0.00004194      -0.00139191       0.00016737 </v>
    <v>       0.99887775       0.33341479       0.00004221 </v>
    <v>      -0.00138069       0.66668833       0.00003908 </v>
    <v>       0.11473724       0.22394023       0.95198345 </v>
    <v>       0.22338050       0.11516131       0.04809633 </v>
    <v>       0.11469364       0.55722865       0.95191158 </v>
    <v>       0.22562861       0.44577477       0.04687250 </v>
    <v>       0.11028444       0.88823614       0.95071917 </v>
    <v>       0.22354038       0.77479632       0.04793538 </v>
    <v>       0.44206471       0.22453982       0.95196203 </v>
    <v>       0.55782752       0.10859397       0.04798795 </v>
    <v>       0.43996107       0.55351973       0.95312335 </v>
    <v>       0.55080151       0.44212569       0.04811053 </v>
    <v>       0.44667937       0.88669745       0.95300307 </v>
    <v>       0.55327029       0.77980892       0.04694206 </v>
    <v>       0.77637987       0.21800701       0.95189787 </v>
    <v>       0.88516933       0.10925543       0.04805424 </v>
    <v>       0.77867818       0.55584933       0.95071739 </v>
    <v>       0.88973403       0.44493046       0.04924141 </v>
    <v>       0.77613691       0.89175945       0.95202191 </v>
    <v>       0.88973581       0.77825961       0.04934942 </v>
   </varray>
  </structure>
  <varray name="forces" >
   <v>       0.34325354       0.22490372       0.01768810 </v>
   <v>       0.04388142       0.19495883       0.07361483 </v>
   <v>      -0.22213847      -0.11252861      -0.02444012 </v>
   <v>      -0.11793550       0.20074163       0.07245355 </v>
   <v>      -0.18195928       0.01270351      -0.02192981 </v>
   <v>       0.46069326       0.05945420      -0.06889356 </v>
   <v>       0.37710166      -0.21944115      -0.07088861 </v>
   <v>      -0.28903270      -0.11243677      -0.01366053 </v>
   <v>      -0.38358798      -0.18385417       0.00562743 </v>
   <v>      -0.05409572      -0.05095127       0.27386586 </v>
   <v>      -0.09088664      -0.03053829       0.01559066 </v>
   <v>      -0.05094268      -0.06080947       0.14509874 </v>
   <v>      -0.05580809      -0.07715272      -0.18978872 </v>
   <v>      -0.07004851      -0.09919526       0.00491647 </v>
   <v>      -0.01259917      -0.09835121      -0.11915569 </v>
   <v>      -0.07000979       0.00651873      -0.17280877 </v>
   <v>       0.05608913       0.00249868       0.05337548 </v>
   <v>      -0.00195743      -0.04462674       0.06905518 </v>
   <v>      -0.03840232      -0.08983868       0.16435795 </v>
   <v>       0.04387957       0.01648860      -0.01991719 </v>
   <v>      -0.02930397      -0.01063238      -0.10244058 </v>
   <v>       0.07134871       0.03982156      -0.02208732 </v>
   <v>       0.04959982       0.04614146      -0.13715266 </v>
   <v>       0.06310701       0.09288765      -0.18528608 </v>
   <v>       0.05869222       0.08827196       0.00960108 </v>
   <v>       0.02516816       0.10511721       0.08853583 </v>
   <v>       0.07589377       0.09984899       0.15466846 </v>
  </varray>
  <varray name="stress" >
   <v>     -19.98128023      -0.01537289       0.06091618 </v>
   <v>      -0.01537282     -19.53416080      -0.06125732 </v>
   <v>       0.06091631      -0.06125740      -1.72815091 </v>
  </varray>
  <energy>
   <i name="e_fr_energy">   -188.63465728 </i>
   <i name="e_wo_entrp">   -188.49254986 </i>
   <i name="e_0_energy">     -0.28421484 </i>
  </energy>
  <time name="totalsc">  427.82  428.94</time>
 </calculation>
 <calculation>
  <scstep>
   <time name="dav">   25.56   25.62</time>
   <time name="total">   26.10   26.16</time>
   <energy>
    <i name="alphaZ">     82.37054763 </i>
    <i name="ewald">  41315.77719237 </i>
    <i name="hartreedc"> -47314.89752314 </i>
    <i name="XCdc">   -233.83767104 </i>
    <i name="pawpsdc">   3950.16360263 </i>
    <i name="pawaedc">  -3364.66413957 </i>
    <i name="eentropy">     -0.23653089 </i>
    <i name="bandstr">  -1386.68124811 </i>
    <i name="atom">   6761.44252427 </i>
    <i name="e_fr_energy">   -190.56324585 </i>
    <i name="e_wo_entrp">   -190.32671496 </i>
    <i name="e_0_energy">   -190.44498041 </i>
   </energy>
  </scstep>
  <scstep>
   <time name="dav">   30.12   30.19</time>
   <time name="total">   30.64   30.73</time>
   <energy>
    <i name="e_fr_energy">   -190.55192602 </i>
    <i name="e_wo_entrp">   -190.31250890 </i>
    <i name="e_0_energy">   -190.43221746 </i>
   </energy>
  </scstep>
  <scstep>
   <time name="dav">   32.06   32.14</time>
   <time name="total">   32.59   32.67</time>
   <energy>
    <i name="e_fr_energy">   -190.03251764 </i>
    <i name="e_wo_entrp">   -189.78392875 </i>
    <i name="e_0_energy">   -189.90822319 </i>
   </energy>
  </scstep>
  <scstep>
   <time name="dav">   33.31   33.39</time>
   <time name="total">   33.84   33.93</time>
   <energy>
    <i name="e_fr_energy">   -189.82490820 </i>
    <i name="e_wo_entrp">   -189.58780011 </i>
    <i name="e_0_energy">   -189.70635416 </i>
   </energy>
  </scstep>
  <scstep>
   <time name="dav">   30.22   30.30</time>
   <time name="total">   30.76   30.84</time>
   <energy>
    <i name="e_fr_energy">   -189.74047364 </i>
    <i name="e_wo_entrp">   -189.49849220 </i>
    <i name="e_0_energy">   -189.61948292 </i>
   </energy>
  </scstep>
  <scstep>
   <time name="dav">   31.39   31.47</time>
   <time name="total">   31.93   32.01</time>
   <energy>
    <i name="e_fr_energy">   -189.72670285 </i>
    <i name="e_wo_entrp">   -189.48800594 </i>
    <i name="e_0_energy">   -189.60735440 </i>
   </energy>
  </scstep>
  <scstep>
   <time name="dav">   31.98   32.06</time>
   <time name="total">   32.52   32.60</time>
   <energy>
    <i name="e_fr_energy">   -189.72106308 </i>
    <i name="e_wo_entrp">   -189.48146037 </i>
    <i name="e_0_energy">   -189.60126173 </i>
   </energy>
  </scstep>
  <scstep>
   <time name="dav">   29.35   29.42</time>
   <time name="total">   29.89   29.96</time>
   <energy>
    <i name="e_fr_energy">   -189.72090892 </i>
    <i name="e_wo_entrp">   -189.48158106 </i>
    <i name="e_0_energy">   -189.60124499 </i>
   </energy>
  </scstep>
  <scstep>
   <time name="dav">   28.10   28.17</time>
   <time name="total">   28.64   28.71</time>
   <energy>
    <i name="e_fr_energy">   -189.72115749 </i>
    <i name="e_wo_entrp">   -189.48163592 </i>
    <i name="e_0_energy">   -189.60139671 </i>
   </energy>
  </scstep>
  <scstep>
   <time name="dav">   28.21   28.28</time>
   <time name="total">   28.75   28.82</time>
   <energy>
    <i name="e_fr_energy">   -189.72152049 </i>
    <i name="e_wo_entrp">   -189.48205907 </i>
    <i name="e_0_energy">   -189.60178978 </i>
   </energy>
  </scstep>
  <scstep>
   <time name="dav">   25.70   25.76</time>
   <time name="total">   26.23   26.30</time>
   <energy>
    <i name="e_fr_energy">   -189.72096802 </i>
    <i name="e_wo_entrp">   -189.48143703 </i>
    <i name="e_0_energy">   -189.60120252 </i>
   </energy>
  </scstep>
  <scstep>
   <time name="dav">   18.04   18.08</time>
   <time name="total">   18.08   18.13</time>
   <energy>
    <i name="alphaZ">     82.37054763 </i>
    <i name="ewald">  41315.77719237 </i>
    <i name="hartreedc"> -47288.11312822 </i>
    <i name="XCdc">   -235.23856219 </i>
    <i name="pawpsdc">   4039.00278724 </i>
    <i name="pawaedc">  -3454.70561718 </i>
    <i name="eentropy">     -0.23946566 </i>
    <i name="bandstr">  -1410.01726488 </i>
    <i name="atom">   6761.44252427 </i>
    <i name="e_fr_energy">   -189.72098661 </i>
    <i name="e_wo_entrp">   -189.48152095 </i>
    <i name="e_0_energy">   -189.60125378 </i>
   </energy>
  </scstep>
  <structure>
   <crystal>
    <varray name="basis" >
     <v>       8.66876030       4.99491588       0.00000000 </v>
     <v>      -8.67055052       4.99799995       0.00000000 </v>
     <v>       0.00000000       0.00000000      30.00000000 </v>
    </varray>
    <i name="volume">   2599.05401985 </i>
    <varray name="rec_basis" >
     <v>       0.05769022       0.10008123       0.00000000 </v>
     <v>      -0.05765462       0.10006056       0.00000000 </v>
     <v>       0.00000000       0.00000000       0.03333333 </v>
    </varray>
   </crystal>
   <varray name="positions" >
    <v>       0.33638821       0.33373524       0.00015701 </v>
    <v>       0.33525017       0.66799907       0.00005469 </v>
    <v>       0.66470989      -0.00028927      -0.00017849 </v>
    <v>       0.33494203       0.00173089       0.00004130 </v>
    <v>       0.66509506       0.33350427      -0.00016998 </v>
    <v>       0.66695315       0.66499433      -0.00005536 </v>
    <v>      -0.00004558      -0.00212101       0.00012709 </v>
    <v>       0.99841184       0.33350500       0.00003445 </v>
    <v>      -0.00205687       0.66675022       0.00004227 </v>
    <v>       0.11460009       0.22390717       0.95213905 </v>
    <v>       0.22324204       0.11519773       0.04810519 </v>
    <v>       0.11454306       0.55717610       0.95199401 </v>
    <v>       0.22544605       0.44569961       0.04676467 </v>
    <v>       0.11005137       0.88813786       0.95072196 </v>
    <v>       0.22336400       0.77464420       0.04786768 </v>
    <v>       0.44200823       0.22461803       0.95186385 </v>
    <v>       0.55788567       0.10854420       0.04801827 </v>
    <v>       0.43988465       0.55344709       0.95316258 </v>
    <v>       0.55061451       0.44201261       0.04820390 </v>
    <v>       0.44674913       0.88668279       0.95299176 </v>
    <v>       0.55322433       0.77981935       0.04688385 </v>
    <v>       0.77651503       0.21800489       0.95188532 </v>
    <v>       0.88529413       0.10928478       0.04797632 </v>
    <v>       0.77889404       0.55594375       0.95061212 </v>
    <v>       0.88993793       0.44502142       0.04924686 </v>
    <v>       0.77633669       0.89191078       0.95207221 </v>
    <v>       0.88997561       0.77835336       0.04943729 </v>
   </varray>
  </structure>
  <varray name="forces" >
   <v>       0.34741457       0.18277183      -0.00322363 </v>
   <v>       0.00993467       0.15101613       0.07433078 </v>
   <v>      -0.22429998      -0.05372028       0.00143850 </v>
   <v>      -0.15864702       0.15857662       0.07012710 </v>
   <v>      -0.14433733       0.07260094      -0.00013620 </v>
   <v>       0.53692382       0.14536698      -0.05769185 </v>
   <v>       0.42027068      -0.25547591      -0.08735650 </v>
   <v>      -0.31767330      -0.12233276      -0.01911218 </v>
   <v>      -0.42794004      -0.20194230       0.00367668 </v>
   <v>       0.01796175       0.07184621      -0.20756854 </v>
   <v>      -0.09374054       0.09900840       0.52446834 </v>
   <v>       0.01284276       0.07551209      -0.35435459 </v>
   <v>       0.02197984       0.05616291       0.26077112 </v>
   <v>      -0.01444701      -0.02780610      -0.55760395 </v>
   <v>       0.09317024      -0.03541869       0.35764080 </v>
   <v>      -0.14535539       0.00550999      -0.67476499 </v>
   <v>       0.12964582       0.01251000       0.53928382 </v>
   <v>      -0.03924606      -0.10349657      -0.37473090 </v>
   <v>      -0.07025534      -0.14245106       0.66926424 </v>
   <v>       0.11142416       0.01127752      -0.47604828 </v>
   <v>      -0.08685361      -0.00356850       0.33135138 </v>
   <v>       0.05602261      -0.10372766      -0.53436424 </v>
   <v>      -0.01765449      -0.08921502       0.35467689 </v>
   <v>       0.03191142       0.02037067      -0.76069866 </v>
   <v>       0.00615326       0.01922758       0.57333072 </v>
   <v>      -0.08764776       0.03149569      -0.40267655 </v>
   <v>       0.03244229       0.02590130       0.74997067 </v>
  </varray>
  <varray name="stress" >
   <v>     -10.17554301       0.02969154       0.07040591 </v>
   <v>       0.02969147      -9.77112290      -0.03656508 </v>
   <v>       0.07040582      -0.03656498       6.53650283 </v>
  </varray>
  <energy>
   <i name="e_fr_energy">   -189.72098661 </i>
   <i name="e_wo_entrp">   -189.60125378 </i>
   <i name="e_0_energy">     -0.23946566 </i>
  </energy>
  <time name="totalsc">  394.18  395.22</time>
 </calculation>
 <calculation>
  <scstep>
   <time name="dav">   23.15   23.20</time>
   <time name="total">   23.67   23.73</time>
   <energy>
    <i name="alphaZ">     85.82658774 </i>
    <i name="ewald">  42833.75116334 </i>
    <i name="hartreedc"> -48850.41738753 </i>
    <i name="XCdc">   -232.98055518 </i>
    <i name="pawpsdc">   4039.01831356 </i>
    <i name="pawaedc">  -3454.71832507 </i>
    <i name="eentropy">     -0.19656918 </i>
    <i name="bandstr">  -1372.97981336 </i>
    <i name="atom">   6761.44252427 </i>
    <i name="e_fr_energy">   -191.25406141 </i>
    <i name="e_wo_entrp">   -191.05749223 </i>
    <i name="e_0_energy">   -191.15577682 </i>
   </energy>
  </scstep>
  <scstep>
   <time name="dav">   34.42   34.50</time>
   <time name="total">   34.93   35.02</time>
   <energy>
    <i name="e_fr_energy">   -191.13887475 </i>
    <i name="e_wo_entrp">   -190.93618171 </i>
    <i name="e_0_energy">   -191.03752823 </i>
   </energy>
  </scstep>
  <scstep>
   <time name="dav">   31.98   32.06</time>
   <time name="total">   32.49   32.58</time>
   <energy>
    <i name="e_fr_energy">   -191.18064299 </i>
    <i name="e_wo_entrp">   -190.96409825 </i>
    <i name="e_0_energy">   -191.07237062 </i>
   </energy>
  </scstep>
  <scstep>
   <time name="dav">   32.77   32.84</time>
   <time name="total">   33.29   33.37</time>
   <energy>
    <i name="e_fr_energy">   -190.82733365 </i>
    <i name="e_wo_entrp">   -190.62307860 </i>
    <i name="e_0_energy">   -190.72520612 </i>
   </energy>
  </scstep>
  <scstep>
   <time name="dav">   31.42   31.49</time>
   <time name="total">   31.94   32.02</time>
   <energy>
    <i name="e_fr_energy">   -190.82489599 </i>
    <i name="e_wo_entrp">   -190.62677948 </i>
    <i name="e_0_energy">   -190.72583773 </i>
   </energy>
  </scstep>
  <scstep>
   <time name="dav">   31.75   31.82</time>
   <time name="total">   32.26   32.35</time>
   <energy>
    <i name="e_fr_energy">   -190.68375534 </i>
    <i name="e_wo_entrp">   -190.47956730 </i>
    <i name="e_0_energy">   -190.58166132 </i>
   </energy>
  </scstep>
  <scstep>
   <time name="dav">   32.18   32.25</time>
   <time name="total">   32.69   32.78</time>
   <energy>
    <i name="e_fr_energy">   -190.67882413 </i>
    <i name="e_wo_entrp">   -190.47661963 </i>
    <i name="e_0_energy">   -190.57772188 </i>
   </energy>
  </scstep>
  <scstep>
   <time name="dav">   30.85   30.92</time>
   <time name="total">   31.37   31.45</time>
   <energy>
    <i name="e_fr_energy">   -190.67762801 </i>
    <i name="e_wo_entrp">   -190.47529548 </i>
    <i name="e_0_energy">   -190.57646174 </i>
   </energy>
  </scstep>
  <scstep>
   <time name="dav">   30.31   30.39</time>
   <time name="total">   30.83   30.91</time>
   <energy>
    <i name="e_fr_energy">   -190.67491684 </i>
    <i name="e_wo_entrp">   -190.47243299 </i>
    <i name="e_0_energy">   -190.57367491 </i>
   </energy>
  </scstep>
  <scstep>
   <time name="dav">   28.18   28.24</time>
   <time name="total">   28.70   28.77</time>
   <energy>
    <i name="e_fr_energy">   -190.67520613 </i>
    <i name="e_wo_entrp">   -190.47243914 </i>
    <i name="e_0_energy">   -190.57382264 </i>
   </energy>
  </scstep>
  <scstep>
   <time name="dav">   28.21   28.28</time>
   <time name="total">   28.73   28.81</time>
   <energy>
    <i name="e_fr_energy">   -190.67505424 </i>
    <i name="e_wo_entrp">   -190.47251297 </i>
    <i name="e_0_energy">   -190.57378360 </i>
   </energy>
  </scstep>
  <scstep>
   <time name="dav">   21.33   21.38</time>
   <time name="total">   21.37   21.43</time>
   <energy>
    <i name="alphaZ">     85.82658774 </i>
    <i name="ewald">  42833.75116334 </i>
    <i name="hartreedc"> -48821.94721628 </i>
    <i name="XCdc">   -234.30692436 </i>
    <i name="pawpsdc">   4062.80985110 </i>
    <i name="pawaedc">  -3478.67387873 </i>
    <i name="eentropy">     -0.20255960 </i>
    <i name="bandstr">  -1399.37459529 </i>
    <i name="atom">   6761.44252427 </i>
    <i name="e_fr_energy">   -190.67504781 </i>
    <i name="e_wo_entrp">   -190.47248820 </i>
    <i name="e_0_energy">   -190.57376801 </i>
   </energy>
  </scstep>
  <structure>
   <crystal>
    <varray name="basis" >
     <v>       8.48734711       4.89834007       0.00000000 </v>
     <v>      -8.48728899       4.89822171       0.00000000 </v>
     <v>       0.00000000       0.00000000      30.00000000 </v>
    </varray>
    <i name="volume">   2494.39606748 </i>
    <varray name="rec_basis" >
     <v>       0.05891071       0.10207628       0.00000000 </v>
     <v>      -0.05891214       0.10207698       0.00000000 </v>
     <v>       0.00000000       0.00000000       0.03333333 </v>
    </varray>
   </crystal>
   <varray name="positions" >
    <v>       0.33868892       0.33351576       0.00013272 </v>
    <v>       0.33607457       0.66884841       0.00020903 </v>
    <v>       0.66370610       0.00033244      -0.00015372 </v>
    <v>       0.33519981       0.00324995       0.00018438 </v>
    <v>       0.66523058       0.33457435      -0.00015190 </v>
    <v>       0.67012382       0.66407106      -0.00016524 </v>
    <v>      -0.00015570      -0.00538800      -0.00006746 </v>
    <v>       0.99643326       0.33390168      -0.00000968 </v>
    <v>      -0.00497489       0.66704845       0.00004824 </v>
    <v>       0.11552182       0.22449351       0.95130416 </v>
    <v>       0.22384037       0.11648076       0.04961864 </v>
    <v>       0.11549095       0.55784915       0.95084035 </v>
    <v>       0.22631829       0.44619112       0.04768359 </v>
    <v>       0.11008118       0.88811336       0.94909479 </v>
    <v>       0.22378536       0.77409122       0.04900906 </v>
    <v>       0.44140788       0.22528200       0.95004537 </v>
    <v>       0.55856189       0.10807460       0.04954302 </v>
    <v>       0.43889577       0.55284808       0.95201367 </v>
    <v>       0.54929295       0.44128932       0.05001349 </v>
    <v>       0.44730556       0.88624210       0.95162289 </v>
    <v>       0.55282375       0.78020997       0.04793463 </v>
    <v>       0.77569033       0.21681967       0.95034854 </v>
    <v>       0.88424048       0.10855063       0.04912423 </v>
    <v>       0.77891275       0.55582108       0.94855402 </v>
    <v>       0.88983462       0.44502357       0.05090759 </v>
    <v>       0.77587418       0.89240285       0.95082555 </v>
    <v>       0.89000984       0.77827734       0.05148996 </v>
   </varray>
  </structure>
  <varray name="forces" >
   <v>       0.33062022       0.16426335      -0.05056581 </v>
   <v>       0.01919648       0.09779949       0.04775297 </v>
   <v>      -0.26638005       0.01954079       0.04822391 </v>
   <v>      -0.17448423       0.15833813       0.03047331 </v>
   <v>      -0.09207769       0.12453706       0.02242411 </v>
   <v>       0.57676177       0.21479412      -0.00658773 </v>
   <v>       0.49523718      -0.32948569      -0.04579342 </v>
   <v>      -0.38491819      -0.10084351      -0.02992137 </v>
   <v>      -0.47706563      -0.24289107      -0.00910149 </v>
   <v>       0.01393870       0.01129664      -0.01762008 </v>
   <v>      -0.05161735       0.03658980       0.37442269 </v>
   <v>      -0.03984095       0.03870528      -0.20462863 </v>
   <v>       0.01234637       0.00865723       0.17149841 </v>
   <v>       0.07424856       0.01304866      -0.40124451 </v>
   <v>      -0.01853309      -0.01678605       0.19444969 </v>
   <v>      -0.03658770       0.02572477      -0.45840584 </v>
   <v>      -0.00020386       0.01233331       0.36625318 </v>
   <v>       0.04693484       0.01924513      -0.24539257 </v>
   <v>      -0.01310369      -0.01618337       0.47292157 </v>
   <v>       0.00150613       0.00779911      -0.36875719 </v>
   <v>       0.05076258       0.01019966       0.20928773 </v>
   <v>      -0.04211878      -0.08532988      -0.40749614 </v>
   <v>       0.01111392      -0.05583816       0.15145583 </v>
   <v>       0.03445751      -0.03644890      -0.60877028 </v>
   <v>      -0.06501334      -0.01646016       0.40702457 </v>
   <v>       0.00127486      -0.03887172      -0.25547915 </v>
   <v>      -0.00645457      -0.02373404       0.61357622 </v>
  </varray>
  <varray name="stress" >
   <v>      -5.74974043      -0.01028265      -0.13504339 </v>
   <v>      -0.01028282      -5.96933256      -0.01266070 </v>
   <v>      -0.13504367      -0.01266051       4.48325948 </v>
  </varray>
  <energy>
   <i name="e_fr_energy">   -190.67504781 </i>
   <i name="e_wo_entrp">   -190.57376801 </i>
   <i name="e_0_energy">     -0.20255960 </i>
  </energy>
  <time name="totalsc">  406.52  407.59</time>
 </calculation>
 <calculation>
  <scstep>
   <time name="dav">   23.14   23.20</time>
   <time name="total">   23.66   23.71</time>
   <energy>
    <i name="alphaZ">     90.30823487 </i>
    <i name="ewald">  44733.13498949 </i>
    <i name="hartreedc"> -50777.77059357 </i>
    <i name="XCdc">   -231.72266236 </i>
    <i name="pawpsdc">   4062.76228890 </i>
    <i name="pawaedc">  -3478.62130942 </i>
    <i name="eentropy">     -0.17977086 </i>
    <i name="bandstr">  -1351.47518784 </i>
    <i name="atom">   6761.44252427 </i>
    <i name="e_fr_energy">   -192.12148652 </i>
    <i name="e_wo_entrp">   -191.94171565 </i>
    <i name="e_0_energy">   -192.03160108 </i>
   </energy>
  </scstep>
  <scstep>
   <time name="dav">   31.60   31.68</time>
   <time name="total">   32.11   32.19</time>
   <energy>
    <i name="e_fr_energy">   -191.86728101 </i>
    <i name="e_wo_entrp">   -191.67583367 </i>
    <i name="e_0_energy">   -191.77155734 </i>
   </energy>
  </scstep>
  <scstep>
   <time name="dav">   31.88   31.95</time>
   <time name="total">   32.38   32.47</time>
   <energy>
    <i name="e_fr_energy">   -192.25272443 </i>
    <i name="e_wo_entrp">   -192.05061579 </i>
    <i name="e_0_energy">   -192.15167011 </i>
   </energy>
  </scstep>
  <scstep>
   <time name="dav">   31.83   31.91</time>
   <time name="total">   32.35   32.43</time>
   <energy>
    <i name="e_fr_energy">   -191.57754647 </i>
    <i name="e_wo_entrp">   -191.38957021 </i>
    <i name="e_0_energy">   -191.48355834 </i>
   </energy>
  </scstep>
  <scstep>
   <time name="dav">   32.15   32.23</time>
   <time name="total">   32.66   32.75</time>
   <energy>
    <i name="e_fr_energy">   -191.41589758 </i>
    <i name="e_wo_entrp">   -191.23176873 </i>
    <i name="e_0_energy">   -191.32383316 </i>
   </energy>
  </scstep>
  <scstep>
   <time name="dav">   32.47   32.55</time>
   <time name="total">   32.98   33.07</time>
   <energy>
    <i name="e_fr_energy">   -191.36525399 </i>
    <i name="e_wo_entrp">   -191.17233503 </i>
    <i name="e_0_energy">   -191.26879451 </i>
   </energy>
  </scstep>
  <scstep>
   <time name="dav">   32.04   32.11</time>
   <time name="total">   32.55   32.63</time>
   <energy>
    <i name="e_fr_energy">   -191.34751027 </i>
    <i name="e_wo_entrp">   -191.16076749 </i>
    <i name="e_0_energy">   -191.25413888 </i>
   </energy>
  </scstep>
  <scstep>
   <time name="dav">   28.60   28.67</time>
   <time name="total">   29.11   29.19</time>
   <energy>
    <i name="e_fr_energy">   -191.34080953 </i>
    <i name="e_wo_entrp">   -191.15272034 </i>
    <i name="e_0_energy">   -191.24676494 </i>
   </energy>
  </scstep>
  <scstep>
   <time name="dav">   32.51   32.59</time>
   <time name="total">   33.02   33.10</time>
   <energy>
    <i name="e_fr_energy">   -191.34228339 </i>
    <i name="e_wo_entrp">   -191.15390656 </i>
    <i name="e_0_energy">   -191.24809498 </i>
   </energy>
  </scstep>
  <scstep>
   <time name="dav">   30.34   30.41</time>
   <time name="total">   30.85   30.93</time>
   <energy>
    <i name="e_fr_energy">   -191.34112348 </i>
    <i name="e_wo_entrp">   -191.15277026 </i>
    <i name="e_0_energy">   -191.24694687 </i>
   </energy>
  </scstep>
  <scstep>
   <time name="dav">   27.85   27.91</time>
   <time name="total">   28.36   28.43</time>
   <energy>
    <i name="e_fr_energy">   -191.34095545 </i>
    <i name="e_wo_entrp">   -191.15255155 </i>
    <i name="e_0_energy">   -191.24675350 </i>
   </energy>
  </scstep>
  <scstep>
   <time name="dav">   22.11   22.16</time>
   <time name="total">   22.15   22.21</time>
   <energy>
    <i name="alphaZ">     90.30823487 </i>
    <i name="ewald">  44733.13498949 </i>
    <i name="hartreedc"> -50742.79030004 </i>
    <i name="XCdc">   -233.30566506 </i>
    <i name="pawpsdc">   4086.56942074 </i>
    <i name="pawaedc">  -3502.53532031 </i>
    <i name="eentropy">     -0.18836650 </i>
    <i name="bandstr">  -1383.97643856 </i>
    <i name="atom">   6761.44252427 </i>
    <i name="e_fr_energy">   -191.34092110 </i>
    <i name="e_wo_entrp">   -191.15255460 </i>
    <i name="e_0_energy">   -191.24673785 </i>
   </energy>
  </scstep>
  <structure>
   <crystal>
    <varray name="basis" >
     <v>       8.27893320       4.77300682       0.00000000 </v>
     <v>      -8.27839152       4.77204921       0.00000000 </v>
     <v>       0.00000000       0.00000000      30.00000000 </v>
    </varray>
    <i name="volume">   2370.60887349 </i>
    <varray name="rec_basis" >
     <v>       0.06039017       0.10476285       0.00000000 </v>
     <v>      -0.06040229       0.10476971       0.00000000 </v>
     <v>       0.00000000       0.00000000       0.03333333 </v>
    </varray>
   </crystal>
   <varray name="positions" >
    <v>       0.34300823       0.33307395      -0.00006594 </v>
    <v>       0.33731631       0.66994745       0.00041624 </v>
    <v>       0.66213261       0.00248342       0.00004070 </v>
    <v>       0.33573784       0.00638124       0.00032608 </v>
    <v>       0.66621121       0.33684362      -0.00005232 </v>
    <v>       0.67711108       0.66265636      -0.00020822 </v>
    <v>      -0.00067619      -0.01296955      -0.00029035 </v>
    <v>       0.99239528       0.33531823      -0.00012967 </v>
    <v>      -0.01138775       0.66749160       0.00001655 </v>
    <v>       0.11634171       0.22486654       0.95065713 </v>
    <v>       0.22435846       0.11782578       0.05170739 </v>
    <v>       0.11629863       0.55891034       0.94944448 </v>
    <v>       0.22711777       0.44653649       0.04886545 </v>
    <v>       0.11091685       0.88787635       0.94684187 </v>
    <v>       0.22388110       0.77388260       0.05034889 </v>
    <v>       0.44119720       0.22605458       0.94758972 </v>
    <v>       0.55899033       0.10800962       0.05158864 </v>
    <v>       0.43894654       0.55252059       0.95051949 </v>
    <v>       0.54852722       0.44092725       0.05251970 </v>
    <v>       0.44762235       0.88609968       0.94963186 </v>
    <v>       0.55308003       0.78020034       0.04926973 </v>
    <v>       0.77395880       0.21555019       0.94813578 </v>
    <v>       0.88304217       0.10747378       0.05032733 </v>
    <v>       0.77853901       0.55506492       0.94545548 </v>
    <v>       0.88900892       0.44516254       0.05319031 </v>
    <v>       0.77503378       0.89209236       0.94923448 </v>
    <v>       0.88950495       0.77793416       0.05461907 </v>
   </varray>
  </structure>
  <varray name="forces" >
   <v>       0.28364295       0.19342083      -0.01110457 </v>
   <v>       0.10218711       0.04612819       0.05381866 </v>
   <v>      -0.38867116       0.05986501       0.01450349 </v>
   <v>      -0.10165992       0.15079070      -0.02285853 </v>
   <v>       0.07099357       0.05268674      -0.03412945 </v>
   <v>       0.27328904       0.11525372       0.01567891 </v>
   <v>       0.42495808      -0.28380378       0.04667022 </v>
   <v>      -0.51587406      -0.01487579      -0.04304944 </v>
   <v>      -0.20140986      -0.19918797      -0.06070549 </v>
   <v>      -0.00478971      -0.13904126       0.30655402 </v>
   <v>      -0.02383874      -0.05562767       0.06612799 </v>
   <v>      -0.16972699      -0.01141441       0.01174072 </v>
   <v>       0.00947607      -0.06880057      -0.09175377 </v>
   <v>       0.17103508      -0.01404829      -0.16631357 </v>
   <v>      -0.17271168      -0.04939881      -0.11748118 </v>
   <v>       0.05432333       0.05897203      -0.13492882 </v>
   <v>      -0.13220200       0.01913697       0.12080156 </v>
   <v>       0.13809294       0.15482307       0.00354967 </v>
   <v>       0.05206274       0.11099039       0.13446514 </v>
   <v>      -0.08929092       0.02393930      -0.04217492 </v>
   <v>       0.18334888       0.05635689      -0.07741443 </v>
   <v>      -0.11721685      -0.04967140      -0.15094753 </v>
   <v>       0.08303538       0.01283261      -0.17433793 </v>
   <v>       0.05696720      -0.07584278      -0.29510077 </v>
   <v>      -0.12525269       0.01760442       0.20753231 </v>
   <v>       0.12694584      -0.08302681       0.06866091 </v>
   <v>       0.01228637      -0.02806132       0.37219680 </v>
  </varray>
  <varray name="stress" >
   <v>       0.39239005       0.07708698      -0.31406614 </v>
   <v>       0.07708707      -0.07690244       0.16629169 </v>
   <v>      -0.31406615       0.16629178      -0.24170573 </v>
  </varray>
  <energy>
   <i name="e_fr_energy">   -191.34092110 </i>
   <i name="e_wo_entrp">   -191.24673785 </i>
   <i name="e_0_energy">     -0.18836650 </i>
  </energy>
  <time name="totalsc">  406.78  407.86</time>
 </calculation>
 <calculation>
  <scstep>
   <time name="dav">   23.11   23.16</time>
   <time name="total">   23.62   23.67</time>
   <energy>
    <i name="alphaZ">     90.16943238 </i>
    <i name="ewald">  44651.04225923 </i>
    <i name="hartreedc"> -50659.85857747 </i>
    <i name="XCdc">   -233.48089455 </i>
    <i name="pawpsdc">   4086.45742042 </i>
    <i name="pawaedc">  -3502.41810254 </i>
    <i name="eentropy">     -0.19013505 </i>
    <i name="bandstr">  -1384.57971091 </i>
    <i name="atom">   6761.44252427 </i>
    <i name="e_fr_energy">   -191.41578422 </i>
    <i name="e_wo_entrp">   -191.22564917 </i>
    <i name="e_0_energy">   -191.32071669 </i>
   </energy>
  </scstep>
  <scstep>
   <time name="dav">   34.98   35.06</time>
   <time name="total">   35.48   35.58</time>
   <energy>
    <i name="e_fr_energy">   -191.47738817 </i>
    <i name="e_wo_entrp">   -191.27714436 </i>
    <i name="e_0_energy">   -191.37726626 </i>
   </energy>
  </scstep>
  <scstep>
   <time name="dav">   32.43   32.51</time>
   <time name="total">   32.94   33.03</time>
   <energy>
    <i name="e_fr_energy">   -191.42708111 </i>
    <i name="e_wo_entrp">   -191.23627578 </i>
    <i name="e_0_energy">   -191.33167845 </i>
   </energy>
  </scstep>
  <scstep>
   <time name="dav">   30.55   30.62</time>
   <time name="total">   31.06   31.14</time>
   <energy>
    <i name="e_fr_energy">   -191.42816283 </i>
    <i name="e_wo_entrp">   -191.23621586 </i>
    <i name="e_0_energy">   -191.33218934 </i>
   </energy>
  </scstep>
  <scstep>
   <time name="dav">   31.56   31.64</time>
   <time name="total">   32.07   32.15</time>
   <energy>
    <i name="e_fr_energy">   -191.42386881 </i>
    <i name="e_wo_entrp">   -191.23193492 </i>
    <i name="e_0_energy">   -191.32790186 </i>
   </energy>
  </scstep>
  <scstep>
   <time name="dav">   28.99   29.06</time>
   <time name="total">   29.49   29.57</time>
   <energy>
    <i name="e_fr_energy">   -191.42354938 </i>
    <i name="e_wo_entrp">   -191.23159284 </i>
    <i name="e_0_energy">   -191.32757111 </i>
   </energy>
  </scstep>
  <scstep>
   <time name="dav">   27.83   27.90</time>
   <time name="total">   28.34   28.41</time>
   <energy>
    <i name="e_fr_energy">   -191.42329819 </i>
    <i name="e_wo_entrp">   -191.23134946 </i>
    <i name="e_0_energy">   -191.32732382 </i>
   </energy>
  </scstep>
  <scstep>
   <time name="dav">   20.31   20.36</time>
   <time name="total">   20.35   20.41</time>
   <energy>
    <i name="alphaZ">     90.16943238 </i>
    <i name="ewald">  44651.04225923 </i>
    <i name="hartreedc"> -50661.91290979 </i>
    <i name="XCdc">   -233.40862838 </i>
    <i name="pawpsdc">   4083.37040236 </i>
    <i name="pawaedc">  -3499.28555935 </i>
    <i name="eentropy">     -0.19180813 </i>
    <i name="bandstr">  -1382.64895359 </i>
    <i name="atom">   6761.44252427 </i>
    <i name="e_fr_energy">   -191.42324100 </i>
    <i name="e_wo_entrp">   -191.23143286 </i>
    <i name="e_0_energy">   -191.32733693 </i>
   </energy>
  </scstep>
  <structure>
   <crystal>
    <varray name="basis" >
     <v>       8.29106347       4.77547973       0.00000000 </v>
     <v>      -8.28868658       4.77133980       0.00000000 </v>
     <v>       0.00000000       0.00000000      30.00000000 </v>
    </varray>
    <i name="volume">   2374.25807499 </i>
    <varray name="rec_basis" >
     <v>       0.06028839       0.10473192       0.00000000 </v>
     <v>      -0.06034070       0.10476195       0.00000000 </v>
     <v>       0.00000000       0.00000000       0.03333333 </v>
    </varray>
   </crystal>
   <varray name="positions" >
    <v>       0.34463363       0.33323157      -0.00007828 </v>
    <v>       0.33779670       0.66985805       0.00049393 </v>
    <v>       0.66137392       0.00380706       0.00005831 </v>
    <v>       0.33617438       0.00732071       0.00028704 </v>
    <v>       0.66663935       0.33684373      -0.00010755 </v>
    <v>       0.67825845       0.66248527      -0.00018271 </v>
    <v>      -0.00085200      -0.01534752      -0.00021227 </v>
    <v>       0.99098142       0.33665458      -0.00019313 </v>
    <v>      -0.01275867       0.66707730      -0.00007639 </v>
    <v>       0.11562471       0.22419127       0.95115523 </v>
    <v>       0.22400240       0.11758118       0.05174873 </v>
    <v>       0.11573919       0.55929850       0.94950613 </v>
    <v>       0.22678127       0.44616266       0.04868695 </v>
    <v>       0.11130384       0.88733387       0.94665094 </v>
    <v>       0.22314955       0.77413314       0.05012576 </v>
    <v>       0.44164441       0.22616654       0.94745172 </v>
    <v>       0.55869864       0.10847706       0.05171553 </v>
    <v>       0.44009023       0.55289700       0.95056984 </v>
    <v>       0.54923725       0.44133287       0.05265588 </v>
    <v>       0.44747770       0.88647252       0.94962386 </v>
    <v>       0.55386309       0.77995765       0.04910957 </v>
    <v>       0.77343907       0.21567654       0.94796650 </v>
    <v>       0.88337539       0.10733534       0.05001926 </v>
    <v>       0.77834246       0.55455754       0.94508679 </v>
    <v>       0.88876709       0.44559654       0.05344398 </v>
    <v>       0.77501266       0.89133973       0.94938855 </v>
    <v>       0.88941833       0.77777376       0.05510575 </v>
   </varray>
  </structure>
  <varray name="forces" >
   <v>       0.29916015       0.25233523      -0.00090838 </v>
   <v>       0.15503642       0.05780779       0.10060633 </v>
   <v>      -0.41993612       0.04458403       0.02241361 </v>
   <v>      -0.12168830       0.18130422      -0.00252157 </v>
   <v>       0.08493929       0.03160924      -0.01080933 </v>
   <v>       0.32073882       0.09410813       0.00327419 </v>
   <v>       0.50494504      -0.30326371       0.00077243 </v>
   <v>      -0.61242328       0.01497671      -0.02697830 </v>
   <v>      -0.22509837      -0.23467798      -0.01191625 </v>
   <v>      -0.03256408      -0.11403597       0.37339452 </v>
   <v>      -0.02032987      -0.02845703       0.03440514 </v>
   <v>      -0.11416659       0.00121508      -0.01691064 </v>
   <v>       0.00819426      -0.06983926      -0.14034050 </v>
   <v>       0.12080915      -0.01740863      -0.10293816 </v>
   <v>      -0.11050848      -0.03849562      -0.16642254 </v>
   <v>       0.02216825       0.04743686      -0.13301365 </v>
   <v>      -0.09282126       0.00848395       0.11384796 </v>
   <v>       0.09220225       0.09225017       0.01050555 </v>
   <v>       0.05134161       0.05711100       0.11446435 </v>
   <v>      -0.05505591       0.02043191      -0.02228779 </v>
   <v>       0.11022544       0.05531159      -0.10590173 </v>
   <v>      -0.07792783      -0.04102881      -0.16570898 </v>
   <v>       0.05415284       0.02536869      -0.22263397 </v>
   <v>       0.03442837      -0.06914648      -0.22151427 </v>
   <v>      -0.09662145       0.00476950       0.19142115 </v>
   <v>       0.07605571      -0.04085242       0.11128194 </v>
   <v>       0.04474393      -0.03189821       0.27441889 </v>
  </varray>
  <varray name="stress" >
   <v>      -0.12527851      -0.01127418      -0.12946724 </v>
   <v>      -0.01127435      -0.25547484       0.11054819 </v>
   <v>      -0.12946715       0.11054833      -0.92233863 </v>
  </varray>
  <energy>
   <i name="e_fr_energy">   -191.42324100 </i>
   <i name="e_wo_entrp">   -191.32733693 </i>
   <i name="e_0_energy">     -0.19180813 </i>
  </energy>
  <time name="totalsc">  277.78  278.51</time>
 </calculation>
 <calculation>
  <scstep>
   <time name="dav">   23.27   23.33</time>
   <time name="total">   23.78   23.84</time>
   <energy>
    <i name="alphaZ">     90.17808577 </i>
    <i name="ewald">  44654.64480313 </i>
    <i name="hartreedc"> -50665.64103026 </i>
    <i name="XCdc">   -233.40459233 </i>
    <i name="pawpsdc">   4083.30626390 </i>
    <i name="pawaedc">  -3499.22045654 </i>
    <i name="eentropy">     -0.19172469 </i>
    <i name="bandstr">  -1382.54450417 </i>
    <i name="atom">   6761.44252427 </i>
    <i name="e_fr_energy">   -191.43063092 </i>
    <i name="e_wo_entrp">   -191.23890622 </i>
    <i name="e_0_energy">   -191.33476857 </i>
   </energy>
  </scstep>
  <scstep>
   <time name="dav">   32.65   32.72</time>
   <time name="total">   33.15   33.24</time>
   <energy>
    <i name="e_fr_energy">   -191.43128853 </i>
    <i name="e_wo_entrp">   -191.23873560 </i>
    <i name="e_0_energy">   -191.33501206 </i>
   </energy>
  </scstep>
  <scstep>
   <time name="dav">   25.82   25.88</time>
   <time name="total">   26.33   26.40</time>
   <energy>
    <i name="e_fr_energy">   -191.43068161 </i>
    <i name="e_wo_entrp">   -191.23881841 </i>
    <i name="e_0_energy">   -191.33475001 </i>
   </energy>
  </scstep>
  <scstep>
   <time name="dav">   18.45   18.50</time>
   <time name="total">   18.49   18.54</time>
   <energy>
    <i name="alphaZ">     90.17808577 </i>
    <i name="ewald">  44654.64480313 </i>
    <i name="hartreedc"> -50665.73767804 </i>
    <i name="XCdc">   -233.40548398 </i>
    <i name="pawpsdc">   4083.14571218 </i>
    <i name="pawaedc">  -3499.06051751 </i>
    <i name="eentropy">     -0.19175477 </i>
    <i name="bandstr">  -1382.44640964 </i>
    <i name="atom">   6761.44252427 </i>
    <i name="e_fr_energy">   -191.43071859 </i>
    <i name="e_wo_entrp">   -191.23896382 </i>
    <i name="e_0_energy">   -191.33484120 </i>
   </energy>
  </scstep>
  <structure>
   <crystal>
    <varray name="basis" >
     <v>       8.29077063       4.77517024       0.00000000 </v>
     <v>      -8.28841103       4.77106044       0.00000000 </v>
     <v>       0.00000000       0.00000000      30.00000000 </v>
    </varray>
    <i name="volume">   2374.03024359 </i>
    <varray name="rec_basis" >
     <v>       0.06029064       0.10473848       0.00000000 </v>
     <v>      -0.06034258       0.10476830       0.00000000 </v>
     <v>       0.00000000       0.00000000       0.03333333 </v>
    </varray>
   </crystal>
   <varray name="positions" >
    <v>       0.34479562       0.33326083      -0.00007856 </v>
    <v>       0.33785244       0.66984724       0.00050600 </v>
[...]
      <set comment="kpoint 31">
       <r>  -17.5261    1.0000 </r>
       <r>  -17.3137    1.0000 </r>
       <r>  -16.8998    1.0000 </r>
       <r>  -16.6377    1.0000 </r>
       <r>  -16.5107    1.0000 </r>
       <r>  -16.4406    1.0000 </r>
       <r>  -16.2543    1.0000 </r>
       <r>  -16.1909    1.0000 </r>
       <r>  -16.0650    1.0000 </r>
       <r>  -16.0247    1.0000 </r>
       <r>  -15.9712    1.0000 </r>
       <r>  -15.8755    1.0000 </r>
       <r>  -15.7956    1.0000 </r>
       <r>  -15.7389    1.0000 </r>
       <r>  -15.6442    1.0000 </r>
       <r>  -15.5211    1.0000 </r>
       <r>  -15.3438    1.0000 </r>
       <r>  -15.2528    1.0000 </r>
       <r>   -9.7741    1.0000 </r>
       <r>   -9.4176    1.0000 </r>
       <r>   -9.3395    1.0000 </r>
       <r>   -8.9926    1.0000 </r>
       <r>   -8.8088    1.0000 </r>
       <r>   -8.7389    1.0000 </r>
       <r>   -8.5468    1.0000 </r>
       <r>   -8.4790    1.0000 </r>
       <r>   -8.4035    1.0000 </r>
       <r>   -8.3650    1.0000 </r>
       <r>   -8.3147    1.0000 </r>
       <r>   -8.2277    1.0000 </r>
       <r>   -8.1645    1.0000 </r>
       <r>   -8.0566    1.0000 </r>
       <r>   -7.9916    1.0000 </r>
       <r>   -7.9237    1.0000 </r>
       <r>   -7.7235    1.0000 </r>
       <r>   -7.6405    1.0000 </r>
       <r>   -7.5558    1.0000 </r>
       <r>   -7.4129    1.0000 </r>
       <r>   -7.3199    1.0000 </r>
       <r>   -7.2328    1.0000 </r>
       <r>   -7.1608    1.0000 </r>
       <r>   -7.0870    1.0000 </r>
       <r>   -7.0063    1.0000 </r>
       <r>   -6.9683    1.0000 </r>
       <r>   -6.8811    1.0000 </r>
       <r>   -6.7971    1.0000 </r>
       <r>   -6.7270    1.0000 </r>
       <r>   -6.6776    1.0000 </r>
       <r>   -6.5698    1.0000 </r>
       <r>   -6.4488    1.0000 </r>
       <r>   -6.4186    1.0000 </r>
       <r>   -6.2978    1.0000 </r>
       <r>   -6.2249    1.0000 </r>
       <r>   -6.1939    1.0000 </r>
       <r>   -6.1163    1.0000 </r>
       <r>   -6.0539    1.0000 </r>
       <r>   -5.9973    1.0000 </r>
       <r>   -5.8876    1.0000 </r>
       <r>   -5.7963    1.0000 </r>
       <r>   -5.7770    1.0000 </r>
       <r>   -5.7229    1.0000 </r>
       <r>   -5.6440    1.0000 </r>
       <r>   -5.5599    1.0000 </r>
       <r>   -5.3725    1.0000 </r>
       <r>   -5.2875    1.0000 </r>
       <r>   -5.2057    1.0000 </r>
       <r>   -5.0404    1.0000 </r>
       <r>   -4.8973    1.0000 </r>
       <r>   -4.7939    1.0000 </r>
       <r>   -4.6260    1.0000 </r>
       <r>   -4.5150    1.0000 </r>
       <r>   -4.3953    1.0000 </r>
       <r>   -4.3324    1.0000 </r>
       <r>   -4.1988    1.0000 </r>
       <r>   -4.0948    1.0000 </r>
       <r>   -3.9954    1.0000 </r>
       <r>   -3.8721    1.0000 </r>
       <r>   -3.6835    0.9982 </r>
       <r>   -3.5544    0.9768 </r>
       <r>   -3.2025    0.3094 </r>
       <r>   -2.9509    0.0114 </r>
       <r>   -2.8043    0.0005 </r>
       <r>   -2.6429    0.0000 </r>
       <r>   -2.4943    0.0000 </r>
       <r>   -2.3977    0.0000 </r>
       <r>   -2.3008    0.0000 </r>
       <r>   -2.1580    0.0000 </r>
       <r>   -2.1113    0.0000 </r>
       <r>   -1.9902    0.0000 </r>
       <r>   -1.9535    0.0000 </r>
       <r>   -1.7488    0.0000 </r>
       <r>   -1.6086    0.0000 </r>
       <r>   -1.4940    0.0000 </r>
       <r>   -1.3661    0.0000 </r>
       <r>   -1.2359    0.0000 </r>
       <r>   -1.0980    0.0000 </r>
       <r>   -1.0560    0.0000 </r>
       <r>   -1.0033    0.0000 </r>
       <r>   -0.9388    0.0000 </r>
       <r>   -0.8691    0.0000 </r>
       <r>   -0.8357    0.0000 </r>
       <r>   -0.7927    0.0000 </r>
       <r>   -0.6236    0.0000 </r>
       <r>   -0.5874    0.0000 </r>
       <r>   -0.4801    0.0000 </r>
       <r>   -0.3571    0.0000 </r>
       <r>   -0.2883    0.0000 </r>
       <r>    0.0221    0.0000 </r>
       <r>    0.1037    0.0000 </r>
       <r>    0.1620    0.0000 </r>
       <r>    0.3372    0.0000 </r>
       <r>    0.5971    0.0000 </r>
       <r>    0.6706    0.0000 </r>
       <r>    0.9067    0.0000 </r>
       <r>    1.0891    0.0000 </r>
       <r>    1.1567    0.0000 </r>
       <r>    1.4233    0.0000 </r>
       <r>    2.1210    0.0000 </r>
       <r>    2.2853    0.0000 </r>
       <r>    2.3823    0.0000 </r>
      </set>
      <set comment="kpoint 32">
       <r>  -17.5407    1.0000 </r>
       <r>  -17.2690    1.0000 </r>
       <r>  -16.9826    1.0000 </r>
       <r>  -16.6381    1.0000 </r>
       <r>  -16.4477    1.0000 </r>
       <r>  -16.3565    1.0000 </r>
       <r>  -16.2740    1.0000 </r>
       <r>  -16.2154    1.0000 </r>
       <r>  -16.0925    1.0000 </r>
       <r>  -16.0258    1.0000 </r>
       <r>  -15.9802    1.0000 </r>
       <r>  -15.8644    1.0000 </r>
       <r>  -15.8258    1.0000 </r>
       <r>  -15.7627    1.0000 </r>
       <r>  -15.6257    1.0000 </r>
       <r>  -15.5241    1.0000 </r>
       <r>  -15.3321    1.0000 </r>
       <r>  -15.2519    1.0000 </r>
       <r>   -9.7217    1.0000 </r>
       <r>   -9.4680    1.0000 </r>
       <r>   -9.4212    1.0000 </r>
       <r>   -9.0097    1.0000 </r>
       <r>   -8.7157    1.0000 </r>
       <r>   -8.6027    1.0000 </r>
       <r>   -8.5483    1.0000 </r>
       <r>   -8.4959    1.0000 </r>
       <r>   -8.4215    1.0000 </r>
       <r>   -8.3851    1.0000 </r>
       <r>   -8.2779    1.0000 </r>
       <r>   -8.2189    1.0000 </r>
       <r>   -8.1684    1.0000 </r>
       <r>   -8.0904    1.0000 </r>
       <r>   -8.0196    1.0000 </r>
       <r>   -7.9217    1.0000 </r>
       <r>   -7.8027    1.0000 </r>
       <r>   -7.6033    1.0000 </r>
       <r>   -7.4862    1.0000 </r>
       <r>   -7.4215    1.0000 </r>
       <r>   -7.3875    1.0000 </r>
       <r>   -7.2976    1.0000 </r>
       <r>   -7.1578    1.0000 </r>
       <r>   -7.0782    1.0000 </r>
       <r>   -7.0145    1.0000 </r>
       <r>   -6.9532    1.0000 </r>
       <r>   -6.8820    1.0000 </r>
       <r>   -6.8118    1.0000 </r>
       <r>   -6.7331    1.0000 </r>
       <r>   -6.6328    1.0000 </r>
       <r>   -6.5458    1.0000 </r>
       <r>   -6.4805    1.0000 </r>
       <r>   -6.3963    1.0000 </r>
       <r>   -6.3092    1.0000 </r>
       <r>   -6.2456    1.0000 </r>
       <r>   -6.2109    1.0000 </r>
       <r>   -6.1718    1.0000 </r>
       <r>   -6.0809    1.0000 </r>
       <r>   -5.9418    1.0000 </r>
       <r>   -5.8731    1.0000 </r>
       <r>   -5.7988    1.0000 </r>
       <r>   -5.7279    1.0000 </r>
       <r>   -5.6745    1.0000 </r>
       <r>   -5.6378    1.0000 </r>
       <r>   -5.4810    1.0000 </r>
       <r>   -5.3988    1.0000 </r>
       <r>   -5.3524    1.0000 </r>
       <r>   -5.1531    1.0000 </r>
       <r>   -5.0857    1.0000 </r>
       <r>   -4.9238    1.0000 </r>
       <r>   -4.7872    1.0000 </r>
       <r>   -4.6448    1.0000 </r>
       <r>   -4.5055    1.0000 </r>
       <r>   -4.3594    1.0000 </r>
       <r>   -4.2979    1.0000 </r>
       <r>   -4.2250    1.0000 </r>
       <r>   -4.1127    1.0000 </r>
       <r>   -4.0200    1.0000 </r>
       <r>   -3.9761    1.0000 </r>
       <r>   -3.6700    0.9975 </r>
       <r>   -3.5143    0.9562 </r>
       <r>   -3.2478    0.4298 </r>
       <r>   -3.0010    0.0273 </r>
       <r>   -2.7558    0.0001 </r>
       <r>   -2.5944    0.0000 </r>
       <r>   -2.4815    0.0000 </r>
       <r>   -2.3397    0.0000 </r>
       <r>   -2.2670    0.0000 </r>
       <r>   -2.1368    0.0000 </r>
       <r>   -2.1024    0.0000 </r>
       <r>   -1.9651    0.0000 </r>
       <r>   -1.9205    0.0000 </r>
       <r>   -1.8000    0.0000 </r>
       <r>   -1.6015    0.0000 </r>
       <r>   -1.5304    0.0000 </r>
       <r>   -1.3920    0.0000 </r>
       <r>   -1.2736    0.0000 </r>
       <r>   -1.1242    0.0000 </r>
       <r>   -1.0896    0.0000 </r>
       <r>   -1.0100    0.0000 </r>
       <r>   -0.9593    0.0000 </r>
       <r>   -0.9176    0.0000 </r>
       <r>   -0.8250    0.0000 </r>
       <r>   -0.7999    0.0000 </r>
       <r>   -0.6019    0.0000 </r>
       <r>   -0.5734    0.0000 </r>
       <r>   -0.4443    0.0000 </r>
       <r>   -0.3474    0.0000 </r>
       <r>   -0.1943    0.0000 </r>
       <r>    0.0185    0.0000 </r>
       <r>    0.1203    0.0000 </r>
       <r>    0.2265    0.0000 </r>
       <r>    0.3425    0.0000 </r>
       <r>    0.5979    0.0000 </r>
       <r>    0.7145    0.0000 </r>
       <r>    0.8595    0.0000 </r>
       <r>    1.0269    0.0000 </r>
       <r>    1.1415    0.0000 </r>
       <r>    1.3241    0.0000 </r>
       <r>    2.0867    0.0000 </r>
       <r>    2.2571    0.0000 </r>
       <r>    2.5551    0.0000 </r>
      </set>
      <set comment="kpoint 33">
       <r>  -17.5233    1.0000 </r>
       <r>  -17.3340    1.0000 </r>
       <r>  -16.8872    1.0000 </r>
       <r>  -16.6487    1.0000 </r>
       <r>  -16.4831    1.0000 </r>
       <r>  -16.3897    1.0000 </r>
       <r>  -16.2768    1.0000 </r>
       <r>  -16.2024    1.0000 </r>
       <r>  -16.0698    1.0000 </r>
       <r>  -16.0289    1.0000 </r>
       <r>  -15.9698    1.0000 </r>
       <r>  -15.8795    1.0000 </r>
       <r>  -15.8098    1.0000 </r>
       <r>  -15.7684    1.0000 </r>
       <r>  -15.6041    1.0000 </r>
       <r>  -15.5368    1.0000 </r>
       <r>  -15.3469    1.0000 </r>
       <r>  -15.2530    1.0000 </r>
       <r>   -9.7423    1.0000 </r>
       <r>   -9.4238    1.0000 </r>
       <r>   -9.3389    1.0000 </r>
       <r>   -9.0231    1.0000 </r>
       <r>   -8.8513    1.0000 </r>
       <r>   -8.7369    1.0000 </r>
       <r>   -8.5267    1.0000 </r>
       <r>   -8.5102    1.0000 </r>
       <r>   -8.3973    1.0000 </r>
       <r>   -8.3515    1.0000 </r>
       <r>   -8.2563    1.0000 </r>
       <r>   -8.2063    1.0000 </r>
       <r>   -8.1595    1.0000 </r>
       <r>   -8.0420    1.0000 </r>
       <r>   -7.9711    1.0000 </r>
       <r>   -7.8594    1.0000 </r>
       <r>   -7.7896    1.0000 </r>
       <r>   -7.6423    1.0000 </r>
       <r>   -7.5145    1.0000 </r>
       <r>   -7.4033    1.0000 </r>
       <r>   -7.3621    1.0000 </r>
       <r>   -7.2944    1.0000 </r>
       <r>   -7.1803    1.0000 </r>
       <r>   -7.1168    1.0000 </r>
       <r>   -7.0148    1.0000 </r>
       <r>   -6.9579    1.0000 </r>
       <r>   -6.8836    1.0000 </r>
       <r>   -6.7950    1.0000 </r>
       <r>   -6.7033    1.0000 </r>
       <r>   -6.5969    1.0000 </r>
       <r>   -6.5375    1.0000 </r>
       <r>   -6.4606    1.0000 </r>
       <r>   -6.3555    1.0000 </r>
       <r>   -6.3424    1.0000 </r>
       <r>   -6.2829    1.0000 </r>
       <r>   -6.2150    1.0000 </r>
       <r>   -6.1330    1.0000 </r>
       <r>   -6.0973    1.0000 </r>
       <r>   -6.0392    1.0000 </r>
       <r>   -5.9348    1.0000 </r>
       <r>   -5.8410    1.0000 </r>
       <r>   -5.7611    1.0000 </r>
       <r>   -5.7109    1.0000 </r>
       <r>   -5.6535    1.0000 </r>
       <r>   -5.5774    1.0000 </r>
       <r>   -5.4501    1.0000 </r>
       <r>   -5.2545    1.0000 </r>
       <r>   -5.0725    1.0000 </r>
       <r>   -4.9829    1.0000 </r>
       <r>   -4.8003    1.0000 </r>
       <r>   -4.7410    1.0000 </r>
       <r>   -4.6167    1.0000 </r>
       <r>   -4.4941    1.0000 </r>
       <r>   -4.4283    1.0000 </r>
       <r>   -4.2867    1.0000 </r>
       <r>   -4.1963    1.0000 </r>
       <r>   -4.1659    1.0000 </r>
       <r>   -4.0557    1.0000 </r>
       <r>   -4.0266    1.0000 </r>
       <r>   -3.7229    0.9993 </r>
       <r>   -3.5029    0.9481 </r>
       <r>   -3.2636    0.4740 </r>
       <r>   -3.1031    0.1150 </r>
       <r>   -2.6827    0.0000 </r>
       <r>   -2.5721    0.0000 </r>
       <r>   -2.4389    0.0000 </r>
       <r>   -2.2852    0.0000 </r>
       <r>   -2.2210    0.0000 </r>
       <r>   -2.1377    0.0000 </r>
       <r>   -2.0990    0.0000 </r>
       <r>   -1.9383    0.0000 </r>
       <r>   -1.8901    0.0000 </r>
       <r>   -1.8196    0.0000 </r>
       <r>   -1.5884    0.0000 </r>
       <r>   -1.5346    0.0000 </r>
       <r>   -1.4004    0.0000 </r>
       <r>   -1.3143    0.0000 </r>
       <r>   -1.1530    0.0000 </r>
       <r>   -1.1291    0.0000 </r>
       <r>   -1.0695    0.0000 </r>
       <r>   -0.9928    0.0000 </r>
       <r>   -0.9613    0.0000 </r>
       <r>   -0.8340    0.0000 </r>
       <r>   -0.7734    0.0000 </r>
       <r>   -0.6019    0.0000 </r>
       <r>   -0.5107    0.0000 </r>
       <r>   -0.4326    0.0000 </r>
       <r>   -0.3693    0.0000 </r>
       <r>   -0.1123    0.0000 </r>
       <r>   -0.0005    0.0000 </r>
       <r>    0.1237    0.0000 </r>
       <r>    0.2626    0.0000 </r>
       <r>    0.3736    0.0000 </r>
       <r>    0.6134    0.0000 </r>
       <r>    0.7814    0.0000 </r>
       <r>    0.8305    0.0000 </r>
       <r>    0.9554    0.0000 </r>
       <r>    1.1621    0.0000 </r>
       <r>    1.2632    0.0000 </r>
       <r>    2.1150    0.0000 </r>
       <r>    2.2867    0.0000 </r>
       <r>    2.3653    0.0000 </r>
      </set>
      <set comment="kpoint 34">
       <r>  -17.4967    1.0000 </r>
       <r>  -17.3901    1.0000 </r>
       <r>  -16.7557    1.0000 </r>
       <r>  -16.6976    1.0000 </r>
       <r>  -16.5592    1.0000 </r>
       <r>  -16.3997    1.0000 </r>
       <r>  -16.2785    1.0000 </r>
       <r>  -16.2012    1.0000 </r>
       <r>  -16.0358    1.0000 </r>
       <r>  -16.0292    1.0000 </r>
       <r>  -15.9629    1.0000 </r>
       <r>  -15.8939    1.0000 </r>
       <r>  -15.8049    1.0000 </r>
       <r>  -15.7530    1.0000 </r>
       <r>  -15.5897    1.0000 </r>
       <r>  -15.5509    1.0000 </r>
       <r>  -15.3595    1.0000 </r>
       <r>  -15.2552    1.0000 </r>
       <r>   -9.7661    1.0000 </r>
       <r>   -9.3467    1.0000 </r>
       <r>   -9.2696    1.0000 </r>
       <r>   -9.0075    1.0000 </r>
       <r>   -8.9679    1.0000 </r>
       <r>   -8.8548    1.0000 </r>
       <r>   -8.5383    1.0000 </r>
       <r>   -8.5225    1.0000 </r>
       <r>   -8.3985    1.0000 </r>
       <r>   -8.2814    1.0000 </r>
       <r>   -8.2626    1.0000 </r>
       <r>   -8.2338    1.0000 </r>
       <r>   -8.1675    1.0000 </r>
       <r>   -7.9942    1.0000 </r>
       <r>   -7.9343    1.0000 </r>
       <r>   -7.8473    1.0000 </r>
       <r>   -7.7430    1.0000 </r>
       <r>   -7.6205    1.0000 </r>
       <r>   -7.5027    1.0000 </r>
       <r>   -7.4529    1.0000 </r>
       <r>   -7.3660    1.0000 </r>
       <r>   -7.2329    1.0000 </r>
       <r>   -7.2104    1.0000 </r>
       <r>   -7.1061    1.0000 </r>
       <r>   -7.0219    1.0000 </r>
       <r>   -7.0086    1.0000 </r>
       <r>   -6.9173    1.0000 </r>
       <r>   -6.7617    1.0000 </r>
       <r>   -6.6714    1.0000 </r>
       <r>   -6.5472    1.0000 </r>
       <r>   -6.5223    1.0000 </r>
       <r>   -6.4290    1.0000 </r>
       <r>   -6.4011    1.0000 </r>
       <r>   -6.3165    1.0000 </r>
       <r>   -6.2811    1.0000 </r>
       <r>   -6.2139    1.0000 </r>
       <r>   -6.1939    1.0000 </r>
       <r>   -6.1054    1.0000 </r>
       <r>   -6.0612    1.0000 </r>
       <r>   -6.0152    1.0000 </r>
       <r>   -5.8399    1.0000 </r>
       <r>   -5.7640    1.0000 </r>
       <r>   -5.7428    1.0000 </r>
       <r>   -5.6810    1.0000 </r>
       <r>   -5.5779    1.0000 </r>
       <r>   -5.5240    1.0000 </r>
       <r>   -5.2229    1.0000 </r>
       <r>   -5.0874    1.0000 </r>
       <r>   -4.7827    1.0000 </r>
       <r>   -4.7043    1.0000 </r>
       <r>   -4.6955    1.0000 </r>
       <r>   -4.6451    1.0000 </r>
       <r>   -4.5500    1.0000 </r>
       <r>   -4.4282    1.0000 </r>
       <r>   -4.3411    1.0000 </r>
       <r>   -4.2270    1.0000 </r>
       <r>   -4.1233    1.0000 </r>
       <r>   -4.0722    1.0000 </r>
       <r>   -4.0214    1.0000 </r>
       <r>   -3.7599    0.9997 </r>
       <r>   -3.5156    0.9570 </r>
       <r>   -3.2891    0.5457 </r>
       <r>   -3.1327    0.1610 </r>
       <r>   -2.6483    0.0000 </r>
       <r>   -2.5706    0.0000 </r>
       <r>   -2.4221    0.0000 </r>
       <r>   -2.2419    0.0000 </r>
       <r>   -2.2100    0.0000 </r>
       <r>   -2.1488    0.0000 </r>
       <r>   -2.0938    0.0000 </r>
       <r>   -1.9301    0.0000 </r>
       <r>   -1.8918    0.0000 </r>
       <r>   -1.8081    0.0000 </r>
       <r>   -1.5757    0.0000 </r>
       <r>   -1.5220    0.0000 </r>
       <r>   -1.4211    0.0000 </r>
       <r>   -1.3037    0.0000 </r>
       <r>   -1.1845    0.0000 </r>
       <r>   -1.1602    0.0000 </r>
       <r>   -1.0890    0.0000 </r>
       <r>   -1.0085    0.0000 </r>
       <r>   -0.9791    0.0000 </r>
       <r>   -0.8277    0.0000 </r>
       <r>   -0.7669    0.0000 </r>
       <r>   -0.6103    0.0000 </r>
       <r>   -0.4871    0.0000 </r>
       <r>   -0.4288    0.0000 </r>
       <r>   -0.3641    0.0000 </r>
       <r>   -0.1415    0.0000 </r>
       <r>    0.0304    0.0000 </r>
       <r>    0.1447    0.0000 </r>
       <r>    0.2461    0.0000 </r>
       <r>    0.3861    0.0000 </r>
       <r>    0.6367    0.0000 </r>
       <r>    0.7897    0.0000 </r>
       <r>    0.8462    0.0000 </r>
       <r>    0.9260    0.0000 </r>
       <r>    1.1755    0.0000 </r>
       <r>    1.2522    0.0000 </r>
       <r>    2.1918    0.0000 </r>
       <r>    2.2211    0.0000 </r>
       <r>    2.3636    0.0000 </r>
      </set>
     </set>
    </set>
   </array>
  </eigenvalues>
  <separator name="orbital magnetization" >
   <v name="MAGDIPOLOUT">      0.00000000      0.00000000      0.00000000</v>
  </separator>
 </calculation>
 <structure name="finalpos" >
  <crystal>
   <varray name="basis" >
    <v>       8.38955008       4.81386478       0.00000000 </v>
    <v>      -8.38901152       4.81300833       0.00000000 </v>
    <v>       0.00000000       0.00000000      30.00000000 </v>
   </varray>
   <i name="volume">   2422.87624519 </i>
   <varray name="rec_basis" >
    <v>       0.05959456       0.10387255       0.00000000 </v>
    <v>      -0.05960517       0.10387922       0.00000000 </v>
    <v>       0.00000000       0.00000000       0.03333333 </v>
   </varray>
  </crystal>
  <varray name="positions" >
   <v>       0.34338374       0.32110047       0.00000009 </v>
   <v>       0.32048850       0.69030920      -0.00209410 </v>
   <v>       0.63973470       0.01404660      -0.00215219 </v>
   <v>       0.32812848       0.00435642      -0.00096881 </v>
   <v>       0.63379472       0.32416604      -0.00095776 </v>
   <v>       0.68716999       0.64800951       0.00293008 </v>
   <v>       0.01482246      -0.01005763       0.00023962 </v>
   <v>       1.02240233       0.31141084       0.00434266 </v>
   <v>       0.00701961       0.69553843      -0.00079684 </v>
   <v>       0.12215498       0.22002813       0.94800438 </v>
   <v>       0.22450269       0.11839797       0.05390799 </v>
   <v>       0.10966625       0.55034371       0.95207529 </v>
   <v>       0.23977615       0.45528455       0.04883186 </v>
   <v>       0.11165716       0.88960475       0.94248534 </v>
   <v>       0.22163661       0.78166675       0.05250589 </v>
   <v>       0.43769121       0.22392356       0.94380628 </v>
   <v>       0.55002495       0.11123352       0.05268177 </v>
   <v>       0.44431957       0.56007237       0.95770242 </v>
   <v>       0.54816850       0.43860543       0.05530293 </v>
   <v>       0.44100366       0.89193725       0.94622609 </v>
   <v>       0.55351928       0.78009049       0.04273197 </v>
   <v>       0.78015105       0.22154485       0.95180595 </v>
   <v>       0.87468825       0.09405887       0.04937246 </v>
   <v>       0.78250689       0.55022364       0.94669436 </v>
   <v>       0.89167318       0.44141754       0.04140473 </v>
   <v>       0.77204719       0.89094220       0.95701187 </v>
   <v>       0.89608237       0.77995901       0.05690557 </v>
  </varray>
 </structure>
</modeling>
