unknown system                          
           1
     8.857997    5.101562    0.000000
    -8.859655    5.104415    0.000000
     0.000000    0.000000   30.000000
   V    Mo   W    S 
   3   3   3  18
Direct configuration=     1
   0.33333334  0.33333334  0.00000000
   0.33333334  0.66666669  0.00000000
   0.66666669  0.00000000  0.00000000
   0.33333334  0.00000000  0.00000000
   0.66666669  0.33333334  0.00000000
   0.66666669  0.66666669  0.00000000
   0.00000000  0.00000000  0.00000000
   1.00000000  0.33333334  0.00000000
   0.00000000  0.66666669  0.00000000
   0.11068511  0.22244981  0.95539999
   0.22244981  0.11068511  0.04460000
   0.11068511  0.55578315  0.95539999
   0.22244981  0.44401845  0.04460000
   0.11068511  0.88911647  0.95539999
   0.22244981  0.77735180  0.04460000
   0.44401845  0.22244981  0.95539999
   0.55578315  0.11068511  0.04460000
   0.44401845  0.55578315  0.95539999
   0.55578315  0.44401845  0.04460000
   0.44401845  0.88911647  0.95539999
   0.55578315  0.77735180  0.04460000
   0.77735180  0.22244981  0.95539999
   0.88911647  0.11068511  0.04460000
   0.77735180  0.55578315  0.95539999
   0.88911647  0.44401845  0.04460000
   0.77735180  0.88911647  0.95539999
   0.88911647  0.77735180  0.04460000
unknown system                          
           1
     8.668760    4.994916    0.000000
    -8.670551    4.998000    0.000000
     0.000000    0.000000   30.000000
   V    Mo   W    S 
   3   3   3  18
Direct configuration=     2
   0.33568228  0.33368980  0.00014696
   0.33488233  0.66771572  0.00001287
   0.66511159 -0.00031500 -0.00016461
   0.33472024  0.00128226  0.00000014
   0.66524893  0.33330806 -0.00015752
   0.66641055  0.66533811 -0.00001622
  -0.00004194 -0.00139191  0.00016737
   0.99887775  0.33341479  0.00004221
  -0.00138069  0.66668833  0.00003908
   0.11473724  0.22394023  0.95198345
   0.22338050  0.11516131  0.04809633
   0.11469364  0.55722865  0.95191158
   0.22562861  0.44577477  0.04687250
   0.11028444  0.88823614  0.95071917
   0.22354038  0.77479632  0.04793538
   0.44206471  0.22453982  0.95196203
   0.55782752  0.10859397  0.04798795
   0.43996107  0.55351973  0.95312335
   0.55080151  0.44212569  0.04811053
   0.44667937  0.88669745  0.95300307
   0.55327029  0.77980892  0.04694206
   0.77637987  0.21800701  0.95189787
   0.88516933  0.10925543  0.04805424
   0.77867818  0.55584933  0.95071739
   0.88973403  0.44493046  0.04924141
   0.77613691  0.89175945  0.95202191
   0.88973581  0.77825961  0.04934942
unknown system                          
           1
     8.487347    4.898340    0.000000
    -8.487289    4.898222    0.000000
     0.000000    0.000000   30.000000
   V    Mo   W    S 
   3   3   3  18
Direct configuration=     3
   0.33638821  0.33373524  0.00015701
   0.33525017  0.66799907  0.00005469
   0.66470989 -0.00028927 -0.00017849
   0.33494203  0.00173089  0.00004130
   0.66509506  0.33350427 -0.00016998
   0.66695315  0.66499433 -0.00005536
  -0.00004558 -0.00212101  0.00012709
   0.99841184  0.33350500  0.00003445
  -0.00205687  0.66675022  0.00004227
   0.11460009  0.22390717  0.95213905
   0.22324204  0.11519773  0.04810519
   0.11454306  0.55717610  0.95199401
   0.22544605  0.44569961  0.04676467
   0.11005137  0.88813786  0.95072196
   0.22336400  0.77464420  0.04786768
   0.44200823  0.22461803  0.95186385
   0.55788567  0.10854420  0.04801827
   0.43988465  0.55344709  0.95316258
   0.55061451  0.44201261  0.04820390
   0.44674913  0.88668279  0.95299176
   0.55322433  0.77981935  0.04688385
   0.77651503  0.21800489  0.95188532
   0.88529413  0.10928478  0.04797632
   0.77889404  0.55594375  0.95061212
   0.88993793  0.44502142  0.04924686
   0.77633669  0.89191078  0.95207221
   0.88997561  0.77835336  0.04943729
unknown system                          
           1
     8.278933    4.773007    0.000000
    -8.278392    4.772049    0.000000
     0.000000    0.000000   30.000000
   V    Mo   W    S 
   3   3   3  18
Direct configuration=     4
   0.33868892  0.33351576  0.00013272
   0.33607457  0.66884841  0.00020903
   0.66370610  0.00033244 -0.00015372
   0.33519981  0.00324995  0.00018438
   0.66523058  0.33457435 -0.00015190
   0.67012382  0.66407106 -0.00016524
  -0.00015570 -0.00538800 -0.00006746
   0.99643326  0.33390168 -0.00000968
  -0.00497489  0.66704845  0.00004824
   0.11552182  0.22449351  0.95130416
   0.22384037  0.11648076  0.04961864
   0.11549095  0.55784915  0.95084035
   0.22631829  0.44619112  0.04768359
   0.11008118  0.88811336  0.94909479
   0.22378536  0.77409122  0.04900906
   0.44140788  0.22528200  0.95004537
   0.55856189  0.10807460  0.04954302
   0.43889577  0.55284808  0.95201367
   0.54929295  0.44128932  0.05001349
   0.44730556  0.88624210  0.95162289
   0.55282375  0.78020997  0.04793463
   0.77569033  0.21681967  0.95034854
   0.88424048  0.10855063  0.04912423
   0.77891275  0.55582108  0.94855402
   0.88983462  0.44502357  0.05090759
   0.77587418  0.89240285  0.95082555
   0.89000984  0.77827734  0.05148996
unknown system                          
           1
     8.291063    4.775480    0.000000
    -8.288687    4.771340    0.000000
     0.000000    0.000000   30.000000
   V    Mo   W    S 
   3   3   3  18
Direct configuration=     5
   0.34300823  0.33307395 -0.00006594
   0.33731631  0.66994745  0.00041624
   0.66213261  0.00248342  0.00004070
   0.33573784  0.00638124  0.00032608
   0.66621121  0.33684362 -0.00005232
   0.67711108  0.66265636 -0.00020822
  -0.00067619 -0.01296955 -0.00029035
   0.99239528  0.33531823 -0.00012967
  -0.01138775  0.66749160  0.00001655
   0.11634171  0.22486654  0.95065713
   0.22435846  0.11782578  0.05170739
   0.11629863  0.55891034  0.94944448
   0.22711777  0.44653649  0.04886545
   0.11091685  0.88787635  0.94684187
   0.22388110  0.77388260  0.05034889
   0.44119720  0.22605458  0.94758972
   0.55899033  0.10800962  0.05158864
   0.43894654  0.55252059  0.95051949
   0.54852722  0.44092725  0.05251970
   0.44762235  0.88609968  0.94963186
   0.55308003  0.78020034  0.04926973
   0.77395880  0.21555019  0.94813578
   0.88304217  0.10747378  0.05032733
   0.77853901  0.55506492  0.94545548
   0.88900892  0.44516254  0.05319031
   0.77503378  0.89209236  0.94923448
   0.88950495  0.77793416  0.05461907
unknown system                          
           1
     8.290771    4.775170    0.000000
    -8.288411    4.771060    0.000000
     0.000000    0.000000   30.000000
   V    Mo   W    S 
   3   3   3  18
Direct configuration=     6
   0.34463363  0.33323157 -0.00007828
   0.33779670  0.66985805  0.00049393
   0.66137392  0.00380706  0.00005831
   0.33617438  0.00732071  0.00028704
   0.66663935  0.33684373 -0.00010755
   0.67825845  0.66248527 -0.00018271
  -0.00085200 -0.01534752 -0.00021227
   0.99098142  0.33665458 -0.00019313
  -0.01275867  0.66707730 -0.00007639
   0.11562471  0.22419127  0.95115523
   0.22400240  0.11758118  0.05174873
   0.11573919  0.55929850  0.94950613
   0.22678127  0.44616266  0.04868695
   0.11130384  0.88733387  0.94665094
   0.22314955  0.77413314  0.05012576
   0.44164441  0.22616654  0.94745172
   0.55869864  0.10847706  0.05171553
   0.44009023  0.55289700  0.95056984
   0.54923725  0.44133287  0.05265588
   0.44747770  0.88647252  0.94962386
   0.55386309  0.77995765  0.04910957
   0.77343907  0.21567654  0.94796650
   0.88337539  0.10733534  0.05001926
   0.77834246  0.55455754  0.94508679
   0.88876709  0.44559654  0.05344398
   0.77501266  0.89133973  0.94938855
   0.88941833  0.77777376  0.05510575
unknown system                          
           1
     8.294426    4.786874    0.000000
    -8.294450    4.786893    0.000000
     0.000000    0.000000   30.000000
   V    Mo   W    S 
   3   3   3  18
Direct configuration=     7
   0.34479562  0.33326083 -0.00007856
   0.33785244  0.66984724  0.00050600
   0.66129908  0.00391611  0.00006111
   0.33621628  0.00741708  0.00028682
   0.66667042  0.33683925 -0.00010881
   0.67836844  0.66245053 -0.00018234
  -0.00085729 -0.01557570 -0.00021228
   0.99085191  0.33679291 -0.00019648
  -0.01289987  0.66703845 -0.00007793
   0.11557584  0.22415575  0.95119881
   0.22398779  0.11757606  0.05175483
   0.11571568  0.55932471  0.94950278
   0.22675782  0.44613516  0.04867150
   0.11132432  0.88730098  0.94663643
   0.22311128  0.77414250  0.05010736
   0.44166686  0.22618019  0.94743362
   0.55868219  0.10850034  0.05173102
   0.44014504  0.55291154  0.95056964
   0.54926923  0.44134313  0.05267185
   0.44747373  0.88649198  0.94961933
   0.55390795  0.77995442  0.04909830
   0.77340513  0.21567682  0.94794474
   0.88339536  0.10733196  0.04999406
   0.77832364  0.55452343  0.94505745
   0.88874729  0.44561943  0.05346896
   0.77501283  0.89130737  0.94940019
   0.88941545  0.77775197  0.05514147
unknown system                          
           1
     8.288175    4.784248    0.000000
    -8.287858    4.783677    0.000000
     0.000000    0.000000   30.000000
   V    Mo   W    S 
   3   3   3  18
Direct configuration=     8
   0.34094905  0.33189844 -0.00007686
   0.33615840  0.67002652  0.00016545
   0.66395973  0.00138120  0.00001675
   0.33495942  0.00562666  0.00034257
   0.66519075  0.33727791 -0.00001756
   0.67583912  0.66290439 -0.00017982
  -0.00071445 -0.00999284 -0.00027613
   0.99401241  0.33263154  0.00000085
  -0.00985808  0.66841089 -0.00000103
   0.11699708  0.22492940  0.95003990
   0.22422587  0.11788724  0.05166020
   0.11592358  0.55839863  0.94959642
   0.22739418  0.44665629  0.04899470
   0.11061722  0.88834846  0.94684677
   0.22387708  0.77401873  0.05065824
   0.44132865  0.22634620  0.94784224
   0.55943043  0.10834312  0.05133905
   0.43910937  0.55240375  0.95066435
   0.54853622  0.44112131  0.05223825
   0.44786032  0.88631434  0.94966779
   0.55319574  0.77991868  0.04935628
   0.77410858  0.21564815  0.94856491
   0.88250888  0.10707148  0.05064188
   0.77872023  0.55526938  0.94555465
   0.88926886  0.44485409  0.05275257
   0.77513321  0.89203378  0.94914514
   0.88948261  0.77848674  0.05446233
unknown system                          
           1
     8.275794    4.773384    0.000000
    -8.272973    4.768474    0.000000
     0.000000    0.000000   30.000000
   V    Mo   W    S 
   3   3   3  18
Direct configuration=     9
   0.33919886  0.33127968 -0.00006810
   0.33542218  0.67030917  0.00002714
   0.66492955  0.00021297 -0.00000432
   0.33435278  0.00464422  0.00035084
   0.66476248  0.33769536 -0.00000536
   0.67518331  0.66321501 -0.00017865
  -0.00073421 -0.00767997 -0.00027230
   0.99540225  0.33065919  0.00004897
  -0.00862557  0.66914420  0.00001652
   0.11752689  0.22519235  0.94952296
   0.22430723  0.11794879  0.05165524
   0.11596449  0.55806772  0.94966459
   0.22765864  0.44691602  0.04915647
   0.11041821  0.88872452  0.94694066
   0.22415804  0.77402131  0.05087386
   0.44118394  0.22626519  0.94797127
   0.55961518  0.10824467  0.05116925
   0.43877071  0.55230195  0.95068855
   0.54825824  0.44110374  0.05212375
   0.44793480  0.88625625  0.94969453
   0.55281512  0.77982483  0.04946363
   0.77437313  0.21565865  0.94880419
   0.88222243  0.10694432  0.05097809
   0.77894285  0.55559520  0.94576147
   0.88950098  0.44466523  0.05245513
   0.77514750  0.89221689  0.94898223
   0.88952443  0.77878698  0.05417930
unknown system                          
           1
     8.278504    4.772181    0.000000
    -8.275035    4.766151    0.000000
     0.000000    0.000000   30.000000
   V    Mo   W    S 
   3   3   3  18
Direct configuration=    10
   0.33738841  0.33003053 -0.00003632
   0.33453405  0.67167556 -0.00007988
   0.66569467 -0.00111342  0.00004095
   0.33318706  0.00299116  0.00036701
   0.66439842  0.33969353  0.00000660
   0.67661193  0.66336136 -0.00018068
  -0.00103854 -0.00538976 -0.00016005
   0.99701556  0.32674648  0.00005172
  -0.00822525  0.67097942  0.00005086
   0.11775574  0.22498036  0.94884465
   0.22414630  0.11771159  0.05184863
   0.11533682  0.55787177  0.94986749
   0.22788018  0.44708945  0.04934754
   0.11052905  0.88899715  0.94682644
   0.22391968  0.77427803  0.05109018
   0.44119857  0.22593959  0.94788387
   0.55946214  0.10841717  0.05092671
   0.43929504  0.55274262  0.95079185
   0.54824418  0.44156043  0.05225786
   0.44780846  0.88658384  0.94964087
   0.55256254  0.77928160  0.04951995
   0.77433571  0.21569138  0.94899197
   0.88202449  0.10635506  0.05159105
   0.77933365  0.55585984  0.94564032
   0.88999514  0.44500292  0.05204365
   0.77512714  0.89174725  0.94859214
   0.88969331  0.77912954  0.05423451
unknown system                          
           1
     8.278127    4.766058    0.000000
    -8.272679    4.756605    0.000000
     0.000000    0.000000   30.000000
   V    Mo   W    S 
   3   3   3  18
Direct configuration=    11
   0.33844276  0.32977510 -0.00005885
   0.33485435  0.67255648 -0.00003299
   0.66513936 -0.00040808  0.00007300
   0.33313799  0.00319652  0.00034676
   0.66441567  0.34085325 -0.00000919
   0.67860127  0.66285711 -0.00019888
  -0.00131046 -0.00677089 -0.00017964
   0.99642862  0.32570669 -0.00000729
  -0.00970081  0.67171041 -0.00003274
   0.11738119  0.22444542  0.94899597
   0.22397115  0.11748235  0.05199609
   0.11467932  0.55793564  0.95003021
   0.22768061  0.44682353  0.04921420
   0.11069585  0.88885960  0.94662290
   0.22329545  0.77439586  0.05104724
   0.44138411  0.22593851  0.94769826
   0.55928079  0.10883370  0.05095313
   0.44010467  0.55316584  0.95095295
   0.54853790  0.44188460  0.05251524
   0.44773163  0.88694056  0.94954898
   0.55294719  0.77901546  0.04938269
   0.77393102  0.21569388  0.94890143
   0.88207140  0.10602251  0.05162808
   0.77942931  0.55560738  0.94518088
   0.89013643  0.44531615  0.05203547
   0.77513463  0.89121134  0.94861682
   0.88981306  0.77916553  0.05477916
unknown system                          
           1
     8.286515    4.771502    0.000000
    -8.281522    4.762837    0.000000
     0.000000    0.000000   30.000000
   V    Mo   W    S 
   3   3   3  18
Direct configuration=    12
   0.34075276  0.32962262 -0.00001612
   0.33551948  0.67459037  0.00005040
   0.66353680  0.00115212  0.00013945
   0.33330742  0.00349512  0.00036903
   0.66456180  0.34283782 -0.00005324
   0.68214695  0.66185475 -0.00008604
  -0.00188055 -0.01001108 -0.00006243
   0.99523300  0.32355582 -0.00004036
  -0.01244401  0.67329769 -0.00012544
   0.11696865  0.22349042  0.94927401
   0.22373752  0.11715252  0.05210529
   0.11355378  0.55798373  0.95046696
   0.22736517  0.44635466  0.04882392
   0.11093305  0.88864765  0.94626511
   0.22210483  0.77452871  0.05086444
   0.44171945  0.22605483  0.94740752
   0.55911421  0.10980661  0.05098214
   0.44152647  0.55388768  0.95136396
   0.54912946  0.44244464  0.05289434
   0.44761461  0.88749341  0.94939928
   0.55369502  0.77856964  0.04898727
   0.77312597  0.21570339  0.94879431
   0.88190950  0.10531985  0.05156742
   0.77964209  0.55507935  0.94437752
   0.89038612  0.44589321  0.05183563
   0.77498701  0.89021706  0.94881498
   0.88996788  0.77919184  0.05560055
unknown system                          
           1
     8.289227    4.770596    0.000000
    -8.283591    4.760817    0.000000
     0.000000    0.000000   30.000000
   V    Mo   W    S 
   3   3   3  18
Direct configuration=    13
   0.34048482  0.32976155 -0.00003223
   0.33543369  0.67429980  0.00002893
   0.66360014  0.00103004  0.00011488
   0.33337610  0.00347168  0.00034253
   0.66449278  0.34228039 -0.00007998
   0.68124473  0.66196484 -0.00012342
  -0.00167949 -0.00946068 -0.00011861
   0.99544693  0.32388957 -0.00005170
  -0.01179452  0.67301535 -0.00015816
   0.11710015  0.22364917  0.94925012
   0.22381401  0.11725324  0.05208434
   0.11378439  0.55797965  0.95040455
   0.22746091  0.44646082  0.04888242
   0.11089277  0.88869602  0.94633894
   0.22230860  0.77446899  0.05090579
   0.44164340  0.22606046  0.94746789
   0.55917761  0.10967005  0.05102155
   0.44124226  0.55373378  0.95130638
   0.54901229  0.44229916  0.05284591
   0.44763551  0.88738585  0.94940148
   0.55357449  0.77868348  0.04905249
   0.77327167  0.21569192  0.94879608
   0.88182734  0.10537003  0.05157919
   0.77962337  0.55518476  0.94454206
   0.89036811  0.44581135  0.05187107
   0.77497023  0.89040099  0.94883341
   0.88990217  0.77916219  0.05549398
unknown system                          
           1
     8.291471    4.770946    0.000000
    -8.285792    4.761095    0.000000
     0.000000    0.000000   30.000000
   V    Mo   W    S 
   3   3   3  18
Direct configuration=    14
   0.34159275  0.32990663 -0.00000634
   0.33576826  0.67531738  0.00006265
   0.66258195  0.00195305  0.00013111
   0.33364612  0.00354234  0.00033820
   0.66448707  0.34277777 -0.00012329
   0.68237626  0.66142398 -0.00008053
  -0.00183114 -0.01078740 -0.00008378
   0.99494098  0.32274317 -0.00006053
  -0.01269823  0.67378522 -0.00022049
   0.11702088  0.22324723  0.94939086
   0.22375925  0.11714095  0.05208792
   0.11335714  0.55795494  0.95062432
   0.22736460  0.44630628  0.04868555
   0.11100667  0.88865596  0.94622479
   0.22183850  0.77449564  0.05082199
   0.44175924  0.22612722  0.94737771
   0.55914457  0.11009691  0.05107073
   0.44175103  0.55399954  0.95150187
   0.54926652  0.44244019  0.05298662
   0.44758278  0.88760973  0.94931474
   0.55386895  0.77858281  0.04885976
   0.77298969  0.21568184  0.94874868
   0.88159607  0.10497952  0.05152170
   0.77973501  0.55501621  0.94428588
   0.89053476  0.44606510  0.05172491
   0.77485306  0.89004347  0.94902237
   0.88992169  0.77910878  0.05579250
unknown system                          
           1
     8.273254    4.768190    0.000000
    -8.268189    4.759390    0.000000
     0.000000    0.000000   30.000000
   V    Mo   W    S 
   3   3   3  18
Direct configuration=    15
   0.34196179  0.33000875  0.00000625
   0.33588501  0.67565735  0.00007499
   0.66217894  0.00229561  0.00013259
   0.33377868  0.00354375  0.00033569
   0.66444536  0.34282522 -0.00013858
   0.68258429  0.66121159 -0.00006126
  -0.00183405 -0.01113067 -0.00007152
   0.99480644  0.32234902 -0.00005875
  -0.01287520  0.67403344 -0.00024047
   0.11702673  0.22314006  0.94943088
   0.22375454  0.11711608  0.05207808
   0.11324701  0.55792637  0.95069369
   0.22734684  0.44627442  0.04862149
   0.11105647  0.88866419  0.94619486
   0.22172397  0.77450274  0.05079952
   0.44178607  0.22615141  0.94735683
   0.55913176  0.11021642  0.05110194
   0.44186489  0.55406287  0.95155792
   0.54934036  0.44245229  0.05302184
   0.44756314  0.88767356  0.94927786
   0.55394493  0.77858021  0.04879821
   0.77293399  0.21567939  0.94872827
   0.88148615  0.10484010  0.05150112
   0.77976885  0.55497253  0.94423044
   0.89060383  0.44613414  0.05166592
   0.77479806  0.88995861  0.94910069
   0.88990560  0.77907499  0.05586138
unknown system                          
           1
     8.302564    4.773642    0.000000
    -8.296594    4.763293    0.000000
     0.000000    0.000000   30.000000
   V    Mo   W    S 
   3   3   3  18
Direct configuration=    16
   0.33998462  0.32931664 -0.00003359
   0.33548360  0.67391769  0.00001751
   0.66464450  0.00085392  0.00016931
   0.33331403  0.00383216  0.00036669
   0.66493532  0.34279930 -0.00003668
   0.68201050  0.66246732 -0.00011512
  -0.00211911 -0.00967724 -0.00008592
   0.99497369  0.32391444 -0.00008272
  -0.01248145  0.67275730 -0.00013533
   0.11692855  0.22356868  0.94928958
   0.22377842  0.11727428  0.05213594
   0.11363982  0.55809141  0.95035964
   0.22739233  0.44626796  0.04889665
   0.11077303  0.88857553  0.94626988
   0.22209614  0.77448827  0.05089488
   0.44167601  0.22609990  0.94741376
   0.55932278  0.10968333  0.05086316
   0.44151277  0.55378848  0.95132490
   0.54897828  0.44251035  0.05286119
   0.44782007  0.88748274  0.94948332
   0.55374241  0.77862526  0.04905711
   0.77299304  0.21551628  0.94885920
   0.88196638  0.10547979  0.05155891
   0.77961623  0.55515212  0.94432983
   0.89019291  0.44581795  0.05198509
   0.77500004  0.89029851  0.94868318
   0.89003957  0.77931209  0.05566953
unknown system                          
           1
     8.301477    4.772515    0.000000
    -8.295536    4.762218    0.000000
     0.000000    0.000000   30.000000
   V    Mo   W    S 
   3   3   3  18
Direct configuration=    17
   0.34314176  0.33029180  0.00003334
   0.33620409  0.67673428  0.00010762
   0.66089596  0.00327287  0.00013020
   0.33410082  0.00352113  0.00031946
   0.66427345  0.34305244 -0.00019766
   0.68325246  0.66052959 -0.00001551
  -0.00179986 -0.01219371 -0.00005218
   0.99448204  0.32117191 -0.00006294
  -0.01341225  0.67481797 -0.00032100
   0.11704362  0.22280130  0.94954086
   0.22373375  0.11703562  0.05206967
   0.11289833  0.55785321  0.95090924
   0.22730196  0.44618964  0.04843632
   0.11120994  0.88868370  0.94609628
   0.22135895  0.77451799  0.05074281
   0.44187218  0.22622004  0.94728546
   0.55907392  0.11060803  0.05121338
   0.44223594  0.55427346  0.95173227
   0.54956569  0.44250542  0.05315465
   0.44747757  0.88786232  0.94915537
   0.55417606  0.77853012  0.04861997
   0.77275745  0.21570021  0.94865609
   0.88116427  0.10440148  0.05146902
   0.77988243  0.55482314  0.94404579
   0.89082667  0.44636049  0.05149698
   0.77464150  0.88966497  0.94932534
   0.88985577  0.77898504  0.05610909
unknown system                          
           1
     8.303042    4.771610    0.000000
    -8.297291    4.761647    0.000000
     0.000000    0.000000   30.000000
   V    Mo   W    S 
   3   3   3  18
Direct configuration=    18
   0.34347765  0.33035024  0.00005004
   0.33635707  0.67710644  0.00011679
   0.66059798  0.00362828  0.00013040
   0.33423661  0.00355133  0.00031449
   0.66427873  0.34315354 -0.00021600
   0.68347816  0.66035471  0.00000927
  -0.00182107 -0.01252225 -0.00004049
   0.99427788  0.32064741 -0.00006599
  -0.01362678  0.67503753 -0.00034899
   0.11704577  0.22269287  0.94958263
   0.22371797  0.11702496  0.05205919
   0.11275039  0.55781338  0.95099273
   0.22727127  0.44613071  0.04836315
   0.11124475  0.88868761  0.94606807
   0.22121567  0.77452414  0.05071501
   0.44189722  0.22625523  0.94726359
   0.55907500  0.11072984  0.05123007
   0.44236576  0.55432980  0.95179888
   0.54963187  0.44253765  0.05318972
   0.44748325  0.88794238  0.94912919
   0.55428595  0.77854820  0.04855047
   0.77268055  0.21567449  0.94864904
   0.88102715  0.10425078  0.05145433
   0.77993011  0.55478064  0.94398113
   0.89090821  0.44643789  0.05142991
   0.77457400  0.88958001  0.94940349
   0.88985333  0.77896662  0.05618977
unknown system                          
           1
     8.301376    4.770731    0.000000
    -8.295627    4.760775    0.000000
     0.000000    0.000000   30.000000
   V    Mo   W    S 
   3   3   3  18
Direct configuration=    19
   0.34419551  0.33062879  0.00006512
   0.33653097  0.67780323  0.00013978
   0.65964017  0.00430374  0.00012847
   0.33449588  0.00342873  0.00031549
   0.66407429  0.34308250 -0.00024197
   0.68367819  0.65984722  0.00003438
  -0.00172071 -0.01302612 -0.00002753
   0.99416471  0.31989253 -0.00004859
  -0.01375105  0.67558095 -0.00038138
   0.11709443  0.22255468  0.94964303
   0.22371967  0.11696353  0.05202356
   0.11259947  0.55774674  0.95111445
   0.22727774  0.44612687  0.04825619
   0.11135696  0.88873247  0.94602968
   0.22107775  0.77454081  0.05069024
   0.44193032  0.22626497  0.94724244
   0.55900236  0.11089668  0.05130422
   0.44248786  0.55443048  0.95188777
   0.54976475  0.44250554  0.05325205
   0.44739072  0.88802991  0.94904784
   0.55437371  0.77856381  0.04843670
   0.77267909  0.21572644  0.94862597
   0.88082385  0.10400242  0.05139453
   0.78000305  0.55471523  0.94393669
   0.89105394  0.44653108  0.05128980
   0.77447736  0.88947063  0.94958326
   0.88979346  0.77887059  0.05625772
unknown system                          
           1
     8.292892    4.764886    0.000000
    -8.285380    4.751876    0.000000
     0.000000    0.000000   30.000000
   V    Mo   W    S 
   3   3   3  18
Direct configuration=    20
   0.34414493  0.33039894  0.00007341
   0.33659511  0.67761252  0.00013693
   0.66008074  0.00438712  0.00013331
   0.33448171  0.00377830  0.00031301
   0.66411720  0.34322489 -0.00023625
   0.68377820  0.65992324  0.00003714
  -0.00179738 -0.01302198 -0.00002174
   0.99397660  0.31974117 -0.00006228
  -0.01396144  0.67549442 -0.00038125
   0.11708538  0.22250686  0.94965867
   0.22373211  0.11701031  0.05203606
   0.11245024  0.55769176  0.95112977
   0.22720501  0.44599574  0.04823377
   0.11132424  0.88871639  0.94602239
   0.22097699  0.77458462  0.05067238
   0.44193259  0.22633059  0.94723300
   0.55905136  0.11094650  0.05127141
   0.44258471  0.55437411  0.95190955
   0.54973327  0.44253835  0.05324273
   0.44749702  0.88815553  0.94905959
   0.55450987  0.77859706  0.04844713
   0.77256366  0.21564166  0.94861128
   0.88078185  0.10397202  0.05142997
   0.77998690  0.55472712  0.94388753
   0.89107099  0.44656633  0.05129991
   0.77447294  0.88941733  0.94956025
   0.88983965  0.77890356  0.05630224
unknown system                          
           1
     8.310171    4.772932    0.000000
    -8.304381    4.762901    0.000000
     0.000000    0.000000   30.000000
   V    Mo   W    S 
   3   3   3  18
Direct configuration=    21
   0.34484008  0.32950190  0.00018388
   0.33733456  0.67757866  0.00014031
   0.66129907  0.00605482  0.00011691
   0.33474186  0.00550205  0.00024418
   0.66416608  0.34361785 -0.00029143
   0.68455456  0.65973685  0.00012884
  -0.00206573 -0.01358194  0.00003391
   0.99253021  0.31744457 -0.00016342
  -0.01519549  0.67582715 -0.00046714
   0.11707530  0.22213158  0.94971440
   0.22368667  0.11713625  0.05218913
   0.11150855  0.55723019  0.95138386
   0.22675933  0.44528979  0.04804154
   0.11136305  0.88875228  0.94592307
   0.22044782  0.77490729  0.05051247
   0.44206721  0.22664706  0.94698159
   0.55921680  0.11154932  0.05132956
   0.44309852  0.55423588  0.95200986
   0.54983017  0.44268432  0.05343275
   0.44779309  0.88884229  0.94903900
   0.55527526  0.77881266  0.04840000
   0.77210791  0.21550072  0.94841139
   0.88031323  0.10341610  0.05165773
   0.77993901  0.55464236  0.94356794
   0.89140888  0.44679064  0.05116966
   0.77423049  0.88901640  0.94965254
   0.88988795  0.77894741  0.05665736
unknown system                          
           1
     8.319577    4.774524    0.000000
    -8.314673    4.766039    0.000000
     0.000000    0.000000   30.000000
   V    Mo   W    S 
   3   3   3  18
Direct configuration=    22
   0.34501353  0.33114934  0.00006173
   0.33651967  0.67867306  0.00016074
   0.65836879  0.00493197  0.00011116
   0.33472362  0.00296308  0.00030849
   0.66392137  0.34316091 -0.00028986
   0.68385339  0.65924163  0.00006346
  -0.00159769 -0.01364597 -0.00003398
   0.99428769  0.31922445 -0.00001283
  -0.01377877  0.67613342 -0.00043721
   0.11719344  0.22241143  0.94970542
   0.22374189  0.11690798  0.05195236
   0.11251774  0.55772321  0.95124005
   0.22739209  0.44628020  0.04814102
   0.11152422  0.88877951  0.94596816
   0.22088499  0.77446251  0.05073889
   0.44193893  0.22621923  0.94726183
   0.55890864  0.11106178  0.05143058
   0.44262916  0.55461134  0.95200987
   0.54989229  0.44247346  0.05332327
   0.44726157  0.88806825  0.94889639
   0.55444573  0.77857469  0.04827649
   0.77266558  0.21573163  0.94863973
   0.88050613  0.10368804  0.05129957
   0.78013692  0.55459184  0.94388608
   0.89122622  0.44666797  0.05113960
   0.77433726  0.88937273  0.94981026
   0.88970006  0.77875678  0.05634862
unknown system                          
           1
     8.326530    4.775648    0.000000
    -8.322005    4.767829    0.000000
     0.000000    0.000000   30.000000
   V    Mo   W    S 
   3   3   3  18
Direct configuration=    23
   0.34632643  0.33195510  0.00007292
   0.33652342  0.68009747  0.00019318
   0.65633265  0.00597154  0.00009417
   0.33509529  0.00227560  0.00032796
   0.66351625  0.34303628 -0.00031789
   0.68392882  0.65822738  0.00012930
  -0.00126926 -0.01447511 -0.00002578
   0.99449741  0.31804197  0.00005381
  -0.01361678  0.67705717 -0.00049159
   0.11739874  0.22222654  0.94976507
   0.22375473  0.11681612  0.05184754
   0.11234008  0.55759277  0.95143085
   0.22754489  0.44647340  0.04797929
   0.11180894  0.88891456  0.94586259
   0.22064876  0.77442091  0.05079740
   0.44195876  0.22615509  0.94725549
   0.55870760  0.11129670  0.05161055
   0.44279192  0.55484631  0.95216140
   0.55010283  0.44237101  0.05344183
   0.44705447  0.88819376  0.94867298
   0.55459516  0.77868395  0.04802788
   0.77271325  0.21581640  0.94862735
   0.87996244  0.10312626  0.05117984
   0.78033583  0.55444224  0.94382018
   0.89154631  0.44682630  0.05086691
   0.77406275  0.88927383  0.95017353
   0.88955275  0.77855089  0.05644316
unknown system                          
           1
     8.310926    4.771768    0.000000
    -8.304966    4.761464    0.000000
     0.000000    0.000000   30.000000
   V    Mo   W    S 
   3   3   3  18
Direct configuration=    24
   0.34730581  0.33220309  0.00010829
   0.33675773  0.68095636  0.00020374
   0.65554653  0.00694569  0.00006153
   0.33531193  0.00236034  0.00031280
   0.66319973  0.34299826 -0.00036309
   0.68403260  0.65757761  0.00018426
  -0.00110759 -0.01499303 -0.00001067
   0.99429201  0.31667607  0.00006773
  -0.01374089  0.67766279 -0.00056213
   0.11756725  0.22203758  0.94979098
   0.22373361  0.11681696  0.05184712
   0.11200522  0.55735387  0.95161619
   0.22752971  0.44640785  0.04783784
   0.11198751  0.88901489  0.94577630
   0.22044249  0.77451945  0.05078641
   0.44201888  0.22622800  0.94718018
   0.55859046  0.11158594  0.05174319
   0.44295826  0.55490045  0.95226517
   0.55023453  0.44231771  0.05357254
   0.44698851  0.88845006  0.94855846