   27   27  100    1
  0.9710400E+02  0.1002848E-08  0.1002848E-08  0.3000000E-08  0.5000000E-15
  1.000000000000000E-004
  CAR 
 unknown system                          
    159     34    120
 
  0.0000000E+00  0.0000000E+00  0.0000000E+00  0.1562500E-01
    1      -17.832644   1.000000
    2      -16.739110   1.000000
    3      -16.644575   1.000000
    4      -16.611783   1.000000
    5      -16.538617   1.000000
    6      -16.422857   1.000000
    7      -16.373592   1.000000
    8      -16.346405   1.000000
    9      -16.190464   1.000000
   10      -16.142426   1.000000
   11      -16.080008   1.000000
   12      -15.958386   1.000000
   13      -15.941907   1.000000
   14      -15.747536   1.000000
   15      -15.561349   1.000000
   16      -15.500300   1.000000
   17      -15.255284   1.000000
   18      -15.130264   1.000000
   19       -9.307039   1.000000
   20       -9.069928   1.000000
   21       -8.843392   1.000000
   22       -8.822487   1.000000
   23       -8.767177   1.000000
   24       -8.746069   1.000000
   25       -8.744097   1.000000
   26       -8.603361   1.000000
   27       -8.578400   1.000000
   28       -8.427867   1.000000
   29       -8.406822   1.000000
   30       -8.364531   1.000000
   31       -8.304676   1.000000
   32       -8.269587   1.000000
   33       -8.172212   1.000000
   34       -8.159990   1.000000
   35       -7.758921   1.000000
   36       -7.689638   1.000000
   37       -7.685899   1.000000
   38       -7.585549   1.000000
   39       -7.511210   1.000000
   40       -7.385873   1.000000
   41       -7.218732   1.000000
   42       -7.187637   1.000000
   43       -7.128250   1.000000
   44       -6.895224   1.000000
   45       -6.805902   1.000000
   46       -6.768520   1.000000
   47       -6.758135   1.000000
   48       -6.697408   1.000000
   49       -6.628441   1.000000
   50       -6.542330   1.000000
   51       -6.531186   1.000000
   52       -6.256693   1.000000
   53       -6.210715   1.000000
   54       -6.118738   1.000000
   55       -6.058409   1.000000
   56       -6.033361   1.000000
   57       -5.941107   1.000000
   58       -5.921797   1.000000
   59       -5.836318   1.000000
   60       -5.826854   1.000000
   61       -5.635322   1.000000
   62       -5.373311   1.000000
   63       -5.330362   1.000000
   64       -5.050532   1.000000
   65       -4.986133   1.000000
   66       -4.915612   1.000000
   67       -4.803183   1.000000
   68       -4.779520   1.000000
   69       -4.762106   1.000000
   70       -4.659550   1.000000
   71       -4.623258   1.000000
   72       -4.617298   1.000000
   73       -4.518603   1.000000
   74       -4.376193   1.000000
   75       -4.326783   1.000000
   76       -3.982171   1.000000
   77       -3.758288   0.999845
   78       -3.633063   0.996755
   79       -3.506078   0.965926
   80       -3.160819   0.268511
   81       -3.137570   0.217190
   82       -2.732896   0.000135
   83       -2.718018   0.000089
   84       -2.626357   0.000005
   85       -2.494952   0.000000
   86       -2.443702   0.000000
   87       -2.245948   0.000000
   88       -2.168654   0.000000
   89       -2.157712   0.000000
   90       -1.978887   0.000000
   91       -1.969336   0.000000
   92       -1.643475   0.000000
   93       -1.392169   0.000000
   94       -1.295932   0.000000
   95       -1.234911   0.000000
   96       -0.967100   0.000000
   97       -0.904545   0.000000
   98       -0.836855   0.000000
   99       -0.834769   0.000000
  100       -0.642929   0.000000
  101       -0.642134   0.000000
  102       -0.549392   0.000000
  103       -0.255192   0.000000
  104       -0.180036   0.000000
  105       -0.127515   0.000000
  106       -0.023015   0.000000
  107       -0.012208   0.000000
  108        0.052712   0.000000
  109        0.123091   0.000000
  110        0.136199   0.000000
  111        0.188654   0.000000
  112        0.304552   0.000000
  113        0.526336   0.000000
  114        0.914345   0.000000
  115        0.949565   0.000000
  116        1.238049   0.000000
  117        1.279588   0.000000
  118        1.660606   0.000000
  119        1.849808   0.000000
  120        2.180781   0.000000
 
  0.1250000E+00  0.2775558E-16  0.0000000E+00  0.3125000E-01
    1      -17.807256   1.000000
    2      -16.801186   1.000000
    3      -16.700926   1.000000
    4      -16.635994   1.000000
    5      -16.573448   1.000000
    6      -16.387720   1.000000
    7      -16.344197   1.000000
    8      -16.320033   1.000000
    9      -16.183520   1.000000
   10      -16.130372   1.000000
   11      -16.040256   1.000000
   12      -15.933793   1.000000
   13      -15.927669   1.000000
   14      -15.738089   1.000000
   15      -15.577052   1.000000
   16      -15.513193   1.000000
   17      -15.257615   1.000000
   18      -15.133586   1.000000
   19       -9.307374   1.000000
   20       -9.255202   1.000000
   21       -8.978353   1.000000
   22       -8.923390   1.000000
   23       -8.815248   1.000000
   24       -8.777360   1.000000
   25       -8.706133   1.000000
   26       -8.519071   1.000000
   27       -8.486754   1.000000
   28       -8.404401   1.000000
   29       -8.399427   1.000000
   30       -8.295372   1.000000
   31       -8.243489   1.000000
   32       -8.222483   1.000000
   33       -8.084160   1.000000
   34       -8.070755   1.000000
   35       -7.733026   1.000000
   36       -7.648759   1.000000
   37       -7.639111   1.000000
   38       -7.596055   1.000000
   39       -7.548489   1.000000
   40       -7.409968   1.000000
   41       -7.215297   1.000000
   42       -7.211180   1.000000
   43       -7.165781   1.000000
   44       -6.984010   1.000000
   45       -6.839704   1.000000
   46       -6.758094   1.000000
   47       -6.717885   1.000000
   48       -6.680966   1.000000
   49       -6.565846   1.000000
   50       -6.481343   1.000000
   51       -6.476677   1.000000
   52       -6.310334   1.000000
   53       -6.228681   1.000000
   54       -6.205485   1.000000
   55       -6.053381   1.000000
   56       -6.045437   1.000000
   57       -6.005280   1.000000
   58       -5.875347   1.000000
   59       -5.775395   1.000000
   60       -5.749903   1.000000
   61       -5.596545   1.000000
   62       -5.470685   1.000000
   63       -5.443218   1.000000
   64       -5.138946   1.000000
   65       -5.065107   1.000000
   66       -4.916043   1.000000
   67       -4.835676   1.000000
   68       -4.795710   1.000000
   69       -4.698455   1.000000
   70       -4.637179   1.000000
   71       -4.577867   1.000000
   72       -4.533001   1.000000
   73       -4.485954   1.000000
   74       -4.332857   1.000000
   75       -4.313971   1.000000
   76       -4.047345   1.000000
   77       -3.764538   0.999870
   78       -3.702525   0.999343
   79       -3.554466   0.984851
   80       -3.127318   0.196495
   81       -3.101092   0.149251
   82       -2.699734   0.000053
   83       -2.685533   0.000035
   84       -2.622013   0.000005
   85       -2.485679   0.000000
   86       -2.435042   0.000000
   87       -2.225972   0.000000
   88       -2.140909   0.000000
   89       -2.126896   0.000000
   90       -1.976046   0.000000
   91       -1.960777   0.000000
   92       -1.633365   0.000000
   93       -1.392582   0.000000
   94       -1.299227   0.000000
   95       -1.253747   0.000000
   96       -0.979824   0.000000
   97       -0.923396   0.000000
   98       -0.823583   0.000000
   99       -0.805607   0.000000
  100       -0.708845   0.000000
  101       -0.701964   0.000000
  102       -0.640184   0.000000
  103       -0.380263   0.000000
  104       -0.330517   0.000000
  105       -0.167858   0.000000
  106       -0.081359   0.000000
  107       -0.051860   0.000000
  108        0.065465   0.000000
  109        0.129780   0.000000
  110        0.230837   0.000000
  111        0.304756   0.000000
  112        0.376060   0.000000
  113        0.641578   0.000000
  114        0.903701   0.000000
  115        0.959000   0.000000
  116        1.197107   0.000000
  117        1.213521   0.000000
  118        1.703666   0.000000
  119        1.891945   0.000000
  120        2.215762   0.000000
 
  0.2500000E+00  0.5551115E-16  0.0000000E+00  0.3125000E-01
    1      -17.732257   1.000000
    2      -17.007515   1.000000
    3      -16.718510   1.000000
    4      -16.680481   1.000000
    5      -16.600647   1.000000
    6      -16.400971   1.000000
    7      -16.286053   1.000000
    8      -16.274323   1.000000
    9      -16.147005   1.000000
   10      -16.138544   1.000000
   11      -15.948398   1.000000
   12      -15.911093   1.000000
   13      -15.852201   1.000000
   14      -15.710830   1.000000
   15      -15.618265   1.000000
   16      -15.543325   1.000000
   17      -15.264263   1.000000
   18      -15.142939   1.000000
   19       -9.589177   1.000000
   20       -9.218206   1.000000
   21       -9.161275   1.000000
   22       -9.069732   1.000000
   23       -8.856956   1.000000
   24       -8.851757   1.000000
   25       -8.653591   1.000000
   26       -8.475685   1.000000
   27       -8.459870   1.000000
   28       -8.355978   1.000000
   29       -8.337367   1.000000
   30       -8.202182   1.000000
   31       -8.196819   1.000000
   32       -8.128816   1.000000
   33       -7.899216   1.000000
   34       -7.840424   1.000000
   35       -7.812358   1.000000
   36       -7.674406   1.000000
   37       -7.598057   1.000000
   38       -7.538076   1.000000
   39       -7.445572   1.000000
   40       -7.376371   1.000000
   41       -7.278416   1.000000
   42       -7.251718   1.000000
   43       -7.119134   1.000000
   44       -7.046493   1.000000
   45       -6.831749   1.000000
   46       -6.777254   1.000000
   47       -6.736706   1.000000
   48       -6.613742   1.000000
   49       -6.524513   1.000000
   50       -6.461857   1.000000
   51       -6.371356   1.000000
   52       -6.312825   1.000000
   53       -6.253546   1.000000
   54       -6.234119   1.000000
   55       -6.098070   1.000000
   56       -6.080142   1.000000
   57       -6.044184   1.000000
   58       -5.827507   1.000000
   59       -5.745081   1.000000
   60       -5.722258   1.000000
   61       -5.639819   1.000000
   62       -5.614400   1.000000
   63       -5.470677   1.000000
   64       -5.346739   1.000000
   65       -5.288453   1.000000
   66       -4.949031   1.000000
   67       -4.786213   1.000000
   68       -4.780561   1.000000
   69       -4.692943   1.000000
   70       -4.527497   1.000000
   71       -4.519741   1.000000
   72       -4.429388   1.000000
   73       -4.387845   1.000000
   74       -4.378312   1.000000
   75       -4.257616   1.000000
   76       -4.179459   1.000000
   77       -3.844068   0.999987
   78       -3.757994   0.999844
   79       -3.591783   0.992452
   80       -3.083056   0.121568
   81       -3.035242   0.066125
   82       -2.671456   0.000023
   83       -2.650336   0.000012
   84       -2.561415   0.000001
   85       -2.447726   0.000000
   86       -2.402356   0.000000
   87       -2.185511   0.000000
   88       -2.065276   0.000000
   89       -2.053274   0.000000
   90       -1.958286   0.000000
   91       -1.889441   0.000000
   92       -1.620383   0.000000
   93       -1.408991   0.000000
   94       -1.328275   0.000000
   95       -1.314440   0.000000
   96       -1.037867   0.000000
   97       -0.952644   0.000000
   98       -0.879478   0.000000
   99       -0.838838   0.000000
  100       -0.794008   0.000000
  101       -0.756785   0.000000
  102       -0.751832   0.000000
  103       -0.572712   0.000000
  104       -0.562358   0.000000
  105       -0.219740   0.000000
  106       -0.172452   0.000000
  107       -0.145498   0.000000
  108        0.098804   0.000000
  109        0.113945   0.000000
  110        0.299157   0.000000
  111        0.372442   0.000000
  112        0.583830   0.000000
  113        0.788671   0.000000
  114        0.920764   0.000000
  115        0.974956   0.000000
  116        1.114590   0.000000
  117        1.127911   0.000000
  118        1.823712   0.000000
  119        2.010943   0.000000
  120        2.319121   0.000000
 
  0.3750000E+00  0.0000000E+00  0.0000000E+00  0.3125000E-01
    1      -17.612406   1.000000
    2      -17.226212   1.000000
    3      -16.731322   1.000000
    4      -16.714761   1.000000
    5      -16.608211   1.000000
    6      -16.416445   1.000000
    7      -16.276267   1.000000
    8      -16.246587   1.000000
    9      -16.132252   1.000000
   10      -16.085632   1.000000
   11      -15.890271   1.000000
   12      -15.872318   1.000000
   13      -15.795364   1.000000
   14      -15.692381   1.000000
   15      -15.667026   1.000000
   16      -15.554190   1.000000
   17      -15.272328   1.000000
   18      -15.154773   1.000000
   19       -9.801991   1.000000
   20       -9.285187   1.000000
   21       -9.247738   1.000000
   22       -9.068439   1.000000
   23       -8.918611   1.000000
   24       -8.881575   1.000000
   25       -8.559077   1.000000
   26       -8.470929   1.000000
   27       -8.440448   1.000000
   28       -8.331673   1.000000
   29       -8.275354   1.000000
   30       -8.215907   1.000000
   31       -8.150659   1.000000
   32       -8.114340   1.000000
   33       -7.914009   1.000000
   34       -7.839994   1.000000
   35       -7.758238   1.000000
   36       -7.671917   1.000000
   37       -7.534647   1.000000
   38       -7.500365   1.000000
   39       -7.337835   1.000000
   40       -7.250592   1.000000
   41       -7.247533   1.000000
   42       -7.190743   1.000000
   43       -7.073998   1.000000
   44       -7.032741   1.000000
   45       -6.795981   1.000000
   46       -6.743012   1.000000
   47       -6.722048   1.000000
   48       -6.613757   1.000000
   49       -6.515140   1.000000
   50       -6.457280   1.000000
   51       -6.357809   1.000000
   52       -6.326856   1.000000
   53       -6.233989   1.000000
   54       -6.228107   1.000000
   55       -6.125586   1.000000
   56       -6.072044   1.000000
   57       -6.058440   1.000000
   58       -5.893753   1.000000
   59       -5.867922   1.000000
   60       -5.750855   1.000000
   61       -5.681581   1.000000
   62       -5.634267   1.000000
   63       -5.514073   1.000000
   64       -5.473218   1.000000
   65       -5.328107   1.000000
   66       -4.999582   1.000000
   67       -4.808985   1.000000
   68       -4.793877   1.000000
   69       -4.698395   1.000000
   70       -4.652900   1.000000
   71       -4.489021   1.000000
   72       -4.401915   1.000000
   73       -4.374766   1.000000
   74       -4.312861   1.000000
   75       -4.213886   1.000000
   76       -4.117477   1.000000
   77       -3.960103   1.000000
   78       -3.728726   0.999661
   79       -3.579156   0.990378
   80       -3.063473   0.095834
   81       -2.984659   0.031234
   82       -2.673275   0.000024
   83       -2.641623   0.000009
   84       -2.518490   0.000000
   85       -2.404931   0.000000
   86       -2.322398   0.000000
   87       -2.120188   0.000000
   88       -2.010650   0.000000
   89       -1.961029   0.000000
   90       -1.902063   0.000000
   91       -1.747801   0.000000
   92       -1.623705   0.000000
   93       -1.476929   0.000000
   94       -1.451831   0.000000
   95       -1.355023   0.000000
   96       -1.132067   0.000000
   97       -1.008544   0.000000
   98       -0.995383   0.000000
   99       -0.925064   0.000000
  100       -0.871070   0.000000
  101       -0.814800   0.000000
  102       -0.752157   0.000000
  103       -0.659493   0.000000
  104       -0.630221   0.000000
  105       -0.289662   0.000000
  106       -0.249338   0.000000
  107       -0.195272   0.000000
  108        0.060726   0.000000
  109        0.069967   0.000000
  110        0.335340   0.000000
  111        0.401454   0.000000
  112        0.714239   0.000000
  113        0.813402   0.000000
  114        0.897721   0.000000
  115        0.977107   0.000000
  116        1.130138   0.000000
  117        1.162820   0.000000
  118        2.003506   0.000000
  119        2.191869   0.000000
  120        2.389308   0.000000
 
  0.5000000E+00  0.1110223E-15  0.0000000E+00  0.1562500E-01
    1      -17.494373   1.000000
    2      -17.379122   1.000000
    3      -16.737583   1.000000
    4      -16.727135   1.000000
    5      -16.607588   1.000000
    6      -16.423501   1.000000
    7      -16.275599   1.000000
    8      -16.243335   1.000000
    9      -16.124092   1.000000
   10      -16.053944   1.000000
   11      -15.882052   1.000000
   12      -15.828146   1.000000
   13      -15.785032   1.000000
   14      -15.706143   1.000000
   15      -15.691025   1.000000
   16      -15.541151   1.000000
   17      -15.276088   1.000000
   18      -15.160710   1.000000
   19       -9.877873   1.000000
   20       -9.328136   1.000000
   21       -9.284308   1.000000
   22       -9.027274   1.000000
   23       -8.943078   1.000000
   24       -8.883840   1.000000
   25       -8.535357   1.000000
   26       -8.466203   1.000000
   27       -8.425833   1.000000
   28       -8.328778   1.000000
   29       -8.252125   1.000000
   30       -8.231729   1.000000
   31       -8.116841   1.000000
   32       -8.093205   1.000000
   33       -7.952165   1.000000
   34       -7.889312   1.000000
   35       -7.810974   1.000000
   36       -7.713771   1.000000
   37       -7.485647   1.000000
   38       -7.363196   1.000000
   39       -7.330969   1.000000
   40       -7.233778   1.000000
   41       -7.127658   1.000000
   42       -7.123213   1.000000
   43       -7.064534   1.000000
   44       -7.054025   1.000000
   45       -6.801821   1.000000
   46       -6.754899   1.000000
   47       -6.662741   1.000000
   48       -6.568132   1.000000
   49       -6.560143   1.000000
   50       -6.451389   1.000000
   51       -6.326218   1.000000
   52       -6.309692   1.000000
   53       -6.247420   1.000000
   54       -6.238519   1.000000
   55       -6.162036   1.000000
   56       -6.142241   1.000000
   57       -6.090779   1.000000
   58       -5.904601   1.000000
   59       -5.882217   1.000000
   60       -5.798654   1.000000
   61       -5.704146   1.000000
   62       -5.569710   1.000000
   63       -5.536986   1.000000
   64       -5.408377   1.000000
   65       -5.266134   1.000000
   66       -5.238190   1.000000
   67       -4.907013   1.000000
   68       -4.795915   1.000000
   69       -4.719495   1.000000
   70       -4.638312   1.000000
   71       -4.473709   1.000000
   72       -4.354024   1.000000
   73       -4.339297   1.000000
   74       -4.321362   1.000000
   75       -4.207710   1.000000
   76       -4.079204   1.000000
   77       -3.997339   1.000000
   78       -3.713337   0.999498
   79       -3.561186   0.986575
   80       -3.060616   0.092442
   81       -2.966294   0.023141
   82       -2.675005   0.000025
   83       -2.641919   0.000009
   84       -2.509497   0.000000
   85       -2.391639   0.000000
   86       -2.274680   0.000000
   87       -2.075584   0.000000
   88       -1.998922   0.000000
   89       -1.932675   0.000000
   90       -1.818316   0.000000
   91       -1.660132   0.000000
   92       -1.635205   0.000000
   93       -1.581801   0.000000
   94       -1.486506   0.000000
   95       -1.390939   0.000000
   96       -1.183087   0.000000
   97       -1.059328   0.000000
   98       -1.010094   0.000000
   99       -0.973431   0.000000
  100       -0.902548   0.000000
  101       -0.854466   0.000000
  102       -0.747796   0.000000
  103       -0.666516   0.000000
  104       -0.621480   0.000000
  105       -0.342617   0.000000
  106       -0.244437   0.000000
  107       -0.224507   0.000000
  108        0.031404   0.000000
  109        0.046685   0.000000
  110        0.344110   0.000000
  111        0.408238   0.000000
  112        0.738460   0.000000
  113        0.818426   0.000000
  114        0.874189   0.000000
  115        0.975298   0.000000
  116        1.163482   0.000000
  117        1.198808   0.000000
  118        2.200191   0.000000
  119        2.253607   0.000000
  120        2.375778   0.000000
 
  0.0000000E+00  0.1250000E+00  0.0000000E+00  0.3125000E-01
    1      -17.807063   1.000000
    2      -16.779487   1.000000
    3      -16.737104   1.000000
    4      -16.602326   1.000000
    5      -16.557855   1.000000
    6      -16.442149   1.000000
    7      -16.378994   1.000000
    8      -16.281492   1.000000
    9      -16.208508   1.000000
   10      -16.084030   1.000000
   11      -16.041131   1.000000
   12      -15.989436   1.000000
   13      -15.875602   1.000000
   14      -15.742453   1.000000
   15      -15.565498   1.000000
   16      -15.504174   1.000000
   17      -15.270405   1.000000
   18      -15.137874   1.000000
   19       -9.286402   1.000000
   20       -9.183123   1.000000
   21       -9.045736   1.000000
   22       -8.968048   1.000000
   23       -8.821150   1.000000
   24       -8.721956   1.000000
   25       -8.677965   1.000000
   26       -8.578920   1.000000
   27       -8.518502   1.000000
   28       -8.471775   1.000000
   29       -8.416285   1.000000
   30       -8.355033   1.000000
   31       -8.277957   1.000000
   32       -8.088224   1.000000
   33       -8.018067   1.000000
   34       -7.985291   1.000000
   35       -7.828132   1.000000
   36       -7.719374   1.000000
   37       -7.683807   1.000000
   38       -7.526960   1.000000
   39       -7.445457   1.000000
   40       -7.368490   1.000000
   41       -7.261640   1.000000
   42       -7.200163   1.000000
   43       -7.160580   1.000000
   44       -6.927686   1.000000
   45       -6.883746   1.000000
   46       -6.824550   1.000000
   47       -6.753780   1.000000
   48       -6.654086   1.000000
   49       -6.609225   1.000000
   50       -6.544628   1.000000
   51       -6.493201   1.000000
   52       -6.266597   1.000000
   53       -6.232938   1.000000
   54       -6.124270   1.000000
   55       -6.096180   1.000000
   56       -6.044854   1.000000
   57       -5.940531   1.000000
   58       -5.869210   1.000000
   59       -5.832413   1.000000
   60       -5.700523   1.000000
   61       -5.581220   1.000000
   62       -5.403142   1.000000
   63       -5.345757   1.000000
   64       -5.129167   1.000000
   65       -5.072615   1.000000
   66       -4.980150   1.000000
   67       -4.971232   1.000000
   68       -4.879301   1.000000
   69       -4.781173   1.000000
   70       -4.689891   1.000000
   71       -4.530205   1.000000
   72       -4.419117   1.000000
   73       -4.391668   1.000000
   74       -4.363003   1.000000
   75       -4.297209   1.000000
   76       -3.900054   0.999998
   77       -3.809857   0.999964
   78       -3.713058   0.999495
   79       -3.491687   0.957490
   80       -3.397110   0.853946
   81       -2.916356   0.009490
   82       -2.793245   0.000649
   83       -2.717270   0.000087
   84       -2.639296   0.000008
   85       -2.506336   0.000000
   86       -2.457080   0.000000
   87       -2.223316   0.000000
   88       -2.125137   0.000000
   89       -2.083543   0.000000
   90       -1.981004   0.000000
   91       -1.937311   0.000000
   92       -1.647081   0.000000
   93       -1.394100   0.000000
   94       -1.305733   0.000000
   95       -1.222877   0.000000
   96       -0.976741   0.000000
   97       -0.913841   0.000000
   98       -0.835991   0.000000
   99       -0.807917   0.000000
  100       -0.708984   0.000000
  101       -0.670936   0.000000
  102       -0.604807   0.000000
  103       -0.346130   0.000000
  104       -0.292258   0.000000
  105       -0.220071   0.000000
  106       -0.127242   0.000000
  107       -0.027148   0.000000
  108       -0.005356   0.000000
  109        0.098906   0.000000
  110        0.188310   0.000000
  111        0.256036   0.000000
  112        0.454153   0.000000
  113        0.620932   0.000000
  114        0.765331   0.000000
  115        1.055830   0.000000
  116        1.236927   0.000000
  117        1.316363   0.000000
  118        1.705648   0.000000
  119        1.889387   0.000000
  120        2.216329   0.000000
 
  0.1250000E+00  0.1250000E+00  0.0000000E+00  0.3125000E-01
    1      -17.756956   1.000000
    2      -16.909888   1.000000
    3      -16.805546   1.000000
    4      -16.656591   1.000000
    5      -16.527186   1.000000
    6      -16.397959   1.000000
    7      -16.361063   1.000000
    8      -16.264041   1.000000
    9      -16.194551   1.000000
   10      -16.064505   1.000000
   11      -16.000755   1.000000
   12      -15.943925   1.000000
   13      -15.843524   1.000000
   14      -15.724086   1.000000
   15      -15.596331   1.000000
   16      -15.521260   1.000000
   17      -15.274820   1.000000
   18      -15.142611   1.000000
   19       -9.450965   1.000000
   20       -9.303694   1.000000
   21       -9.155733   1.000000
   22       -9.029675   1.000000
   23       -8.841978   1.000000
   24       -8.764908   1.000000
   25       -8.660599   1.000000
   26       -8.506824   1.000000
   27       -8.447184   1.000000
   28       -8.406662   1.000000
   29       -8.365368   1.000000
   30       -8.293526   1.000000
   31       -8.151831   1.000000
   32       -8.119175   1.000000
   33       -7.973836   1.000000
   34       -7.889647   1.000000
   35       -7.802943   1.000000
   36       -7.685309   1.000000
   37       -7.615274   1.000000
   38       -7.546253   1.000000
   39       -7.428002   1.000000
   40       -7.372953   1.000000
   41       -7.274879   1.000000
   42       -7.208738   1.000000
   43       -7.157299   1.000000
   44       -6.996248   1.000000
   45       -6.851158   1.000000
   46       -6.810414   1.000000
   47       -6.777573   1.000000
   48       -6.646930   1.000000
   49       -6.571364   1.000000
   50       -6.437039   1.000000
   51       -6.393795   1.000000
   52       -6.340653   1.000000
   53       -6.261881   1.000000
   54       -6.190787   1.000000
   55       -6.109640   1.000000
   56       -6.040752   1.000000
   57       -5.989546   1.000000
   58       -5.850020   1.000000
   59       -5.800899   1.000000
   60       -5.642162   1.000000
   61       -5.560603   1.000000
   62       -5.529259   1.000000
   63       -5.489968   1.000000
   64       -5.259270   1.000000
   65       -5.145614   1.000000
   66       -5.086978   1.000000
   67       -4.879985   1.000000
   68       -4.866269   1.000000
   69       -4.731703   1.000000
   70       -4.602117   1.000000
   71       -4.499772   1.000000
   72       -4.382896   1.000000
   73       -4.350225   1.000000
   74       -4.292718   1.000000
   75       -4.269288   1.000000
   76       -4.086197   1.000000
   77       -3.914115   0.999999
   78       -3.705644   0.999392
   79       -3.537901   0.979771
   80       -3.284405   0.601244
   81       -2.899073   0.006791
   82       -2.771943   0.000380
   83       -2.677851   0.000028
   84       -2.586859   0.000001
   85       -2.494402   0.000000
   86       -2.437100   0.000000
   87       -2.164575   0.000000
   88       -2.087653   0.000000
   89       -2.032397   0.000000
   90       -1.962732   0.000000
   91       -1.929945   0.000000
   92       -1.630399   0.000000
   93       -1.397229   0.000000
   94       -1.329758   0.000000
   95       -1.253277   0.000000
   96       -1.001727   0.000000
   97       -0.938390   0.000000
   98       -0.857958   0.000000
   99       -0.809576   0.000000
  100       -0.773671   0.000000
  101       -0.745031   0.000000
  102       -0.723681   0.000000
  103       -0.551509   0.000000
  104       -0.439847   0.000000
  105       -0.267139   0.000000
  106       -0.158610   0.000000
  107       -0.079981   0.000000
  108        0.036289   0.000000
  109        0.111700   0.000000
  110        0.213213   0.000000
  111        0.406566   0.000000
  112        0.481420   0.000000
  113        0.764054   0.000000
  114        0.820653   0.000000
  115        1.025733   0.000000
  116        1.179736   0.000000
  117        1.240162   0.000000
  118        1.787445   0.000000
  119        1.970088   0.000000
  120        2.285765   0.000000
 
  0.2500000E+00  0.1250000E+00  0.0000000E+00  0.3125000E-01
    1      -17.659277   1.000000
    2      -17.111604   1.000000
    3      -16.879166   1.000000
    4      -16.661758   1.000000
    5      -16.520195   1.000000
    6      -16.393598   1.000000
    7      -16.281208   1.000000
    8      -16.266460   1.000000
    9      -16.173843   1.000000
   10      -16.072532   1.000000
   11      -15.967046   1.000000
   12      -15.846379   1.000000
   13      -15.815581   1.000000
   14      -15.697772   1.000000
   15      -15.647697   1.000000
   16      -15.529541   1.000000
   17      -15.281950   1.000000
   18      -15.151001   1.000000
   19       -9.700176   1.000000
   20       -9.402645   1.000000
   21       -9.215806   1.000000
   22       -9.079581   1.000000
   23       -8.885285   1.000000
   24       -8.731230   1.000000
   25       -8.568739   1.000000
   26       -8.493365   1.000000
   27       -8.421385   1.000000
   28       -8.334901   1.000000
   29       -8.290239   1.000000
   30       -8.229484   1.000000
   31       -8.185069   1.000000
   32       -8.135910   1.000000
   33       -7.961511   1.000000
   34       -7.844761   1.000000
   35       -7.758396   1.000000
   36       -7.679152   1.000000
   37       -7.568746   1.000000
   38       -7.524958   1.000000
   39       -7.397328   1.000000
   40       -7.322729   1.000000
   41       -7.201981   1.000000
   42       -7.166707   1.000000
   43       -7.140518   1.000000
   44       -6.939630   1.000000
   45       -6.846543   1.000000
   46       -6.799063   1.000000
   47       -6.733329   1.000000