       N       E                     dE             d eps       ncg     rms          rms(c)
DAV:   1     0.112378018661E+04    0.11238E+04   -0.35871E+04  8160   0.577E+02
DAV:   2    -0.260096758141E+01   -0.11264E+04   -0.10847E+04 11120   0.173E+02
DAV:   3    -0.199627886942E+03   -0.19703E+03   -0.18907E+03 10880   0.820E+01
DAV:   4    -0.208956899861E+03   -0.93290E+01   -0.90249E+01 12000   0.262E+01
DAV:   5    -0.209303472847E+03   -0.34657E+00   -0.34554E+00 11440   0.379E+00    0.275E+01
DAV:   6    -0.237866869413E+03   -0.28563E+02   -0.10805E+02 12640   0.601E+01    0.595E+01
DAV:   7    -0.196569446821E+03    0.41297E+02   -0.17518E+02 13320   0.152E+02    0.200E+01
DAV:   8    -0.189470987147E+03    0.70985E+01   -0.17626E+01 11960   0.127E+01    0.125E+01
DAV:   9    -0.188127079014E+03    0.13439E+01   -0.30313E+00 13520   0.635E+00    0.911E+00
DAV:  10    -0.186936123276E+03    0.11910E+01   -0.17256E+00 13440   0.760E+00    0.215E+00
DAV:  11    -0.187026708158E+03   -0.90585E-01   -0.59371E-01 13560   0.259E+00    0.373E+00
DAV:  12    -0.186950933174E+03    0.75775E-01   -0.71401E-01 12760   0.392E+00    0.329E+00
DAV:  13    -0.186865392943E+03    0.85540E-01   -0.24599E-01 13160   0.297E+00    0.181E+00
DAV:  14    -0.186827236545E+03    0.38156E-01   -0.90805E-02 12960   0.164E+00    0.610E-01
DAV:  15    -0.186823692803E+03    0.35437E-02   -0.11028E-02 11800   0.383E-01    0.368E-01
DAV:  16    -0.186825278362E+03   -0.15856E-02   -0.12099E-02 12920   0.601E-01    0.645E-01
DAV:  17    -0.186821579602E+03    0.36988E-02   -0.85270E-03 12680   0.487E-01    0.194E-01
DAV:  18    -0.186821209446E+03    0.37016E-03   -0.13614E-03 12320   0.174E-01    0.662E-02
DAV:  19    -0.186821772675E+03   -0.56323E-03   -0.80723E-04 10560   0.822E-02    0.840E-02
DAV:  20    -0.186822075404E+03   -0.30273E-03   -0.34474E-04  8360   0.521E-02    0.569E-02
DAV:  21    -0.186823290175E+03   -0.12148E-02   -0.31046E-04  8560   0.594E-02    0.251E-02
DAV:  22    -0.186824078872E+03   -0.78870E-03   -0.76321E-05  6720   0.239E-02    0.244E-02
DAV:  23    -0.186824894032E+03   -0.81516E-03   -0.83370E-05  7480   0.231E-02    0.860E-03
DAV:  24    -0.186825508177E+03   -0.61415E-03   -0.24916E-05  6240   0.131E-02    0.615E-03
DAV:  25    -0.186825951701E+03   -0.44352E-03   -0.17150E-05  6120   0.115E-02    0.321E-03
DAV:  26    -0.186826127529E+03   -0.17583E-03   -0.70065E-06  6960   0.639E-03    0.182E-03
DAV:  27    -0.186826231108E+03   -0.10358E-03   -0.38501E-06  6680   0.409E-03    0.132E-03
DAV:  28    -0.186826283441E+03   -0.52333E-04   -0.22327E-06  6960   0.292E-03
   1 F= -.18682628E+03 E0= -.18665571E+03  d E =-.186826E+03
       N       E                     dE             d eps       ncg     rms          rms(c)
DAV:   1    -0.187491798795E+03   -0.66557E+00   -0.27400E+02  8160   0.351E+01    0.461E+00
DAV:   2    -0.189350164706E+03   -0.18584E+01   -0.20002E+01 12280   0.151E+01    0.844E+00
DAV:   3    -0.189347702652E+03    0.24621E-02   -0.35709E+00 12480   0.119E+01    0.660E+00
DAV:   4    -0.188742599012E+03    0.60510E+00   -0.63077E-01 12760   0.472E+00    0.170E+00
DAV:   5    -0.188725550216E+03    0.17049E-01   -0.28745E-01 10440   0.144E+00    0.193E+00
DAV:   6    -0.188691211707E+03    0.34339E-01   -0.26003E-01 12200   0.176E+00    0.168E+00
DAV:   7    -0.188699457450E+03   -0.82457E-02   -0.18165E-01 12960   0.232E+00    0.218E+00
DAV:   8    -0.188657721737E+03    0.41736E-01   -0.63630E-02 13280   0.148E+00    0.360E-01
DAV:   9    -0.188656161876E+03    0.15599E-02   -0.62287E-03 10520   0.276E-01    0.226E-01
DAV:  10    -0.188656542059E+03   -0.38018E-03   -0.40306E-03 13160   0.319E-01    0.362E-01
DAV:  11    -0.188655747401E+03    0.79466E-03   -0.34139E-03 13080   0.323E-01    0.177E-01
DAV:  12    -0.188655612630E+03    0.13477E-03   -0.82859E-04 11880   0.119E-01    0.761E-02
DAV:  13    -0.188655596608E+03    0.16022E-04   -0.18916E-04  7520   0.504E-02
   2 F= -.18865560E+03 E0= -.18851746E+03  d E =-.182931E+01
       N       E                     dE             d eps       ncg     rms          rms(c)
DAV:   1    -0.190581144074E+03   -0.19255E+01   -0.31266E+01  9320   0.142E+01    0.444E+00
DAV:   2    -0.190521636668E+03    0.59507E-01   -0.27434E+00 11720   0.939E+00    0.713E+00
DAV:   3    -0.190068421145E+03    0.45322E+00   -0.12939E+00 12440   0.859E+00    0.424E+00
DAV:   4    -0.189854601310E+03    0.21382E+00   -0.67007E-01 12960   0.429E+00    0.247E+00
DAV:   5    -0.189764369896E+03    0.90231E-01   -0.28757E-01 11640   0.195E+00    0.889E-01
DAV:   6    -0.189753335395E+03    0.11035E-01   -0.45073E-02 11960   0.102E+00    0.640E-01
DAV:   7    -0.189750860136E+03    0.24753E-02   -0.11815E-02 12200   0.620E-01    0.277E-01
DAV:   8    -0.189750331299E+03    0.52884E-03   -0.20715E-03 11880   0.198E-01    0.129E-01
DAV:   9    -0.189750809977E+03   -0.47868E-03   -0.11346E-03 11320   0.140E-01    0.173E-01
DAV:  10    -0.189750764151E+03    0.45826E-04   -0.13014E-03 10280   0.222E-01    0.188E-01
DAV:  11    -0.189750473521E+03    0.29063E-03   -0.57035E-04 10400   0.148E-01    0.315E-02
DAV:  12    -0.189750481444E+03   -0.79229E-05   -0.55048E-05  6120   0.301E-02
   3 F= -.18975048E+03 E0= -.18963471E+03  d E =-.109488E+01
       N       E                     dE             d eps       ncg     rms          rms(c)
DAV:   1    -0.191354991821E+03   -0.16045E+01   -0.78647E+01  8160   0.202E+01    0.460E+00
DAV:   2    -0.191135890883E+03    0.21910E+00   -0.53739E+00 13400   0.732E+00    0.417E+00
DAV:   3    -0.191332609573E+03   -0.19672E+00   -0.14937E+00 12240   0.901E+00    0.681E+00
DAV:   4    -0.190912049376E+03    0.42056E+00   -0.13140E+00 13000   0.793E+00    0.278E+00
DAV:   5    -0.190807893696E+03    0.10416E+00   -0.30208E-01 11000   0.249E+00    0.151E+00
DAV:   6    -0.190799102251E+03    0.87914E-02   -0.13228E-01 12720   0.241E+00    0.156E+00
DAV:   7    -0.190779683826E+03    0.19418E-01   -0.52438E-02 12000   0.152E+00    0.511E-01
DAV:   8    -0.190775467966E+03    0.42159E-02   -0.72493E-03 10200   0.399E-01    0.178E-01
DAV:   9    -0.190776271987E+03   -0.80402E-03   -0.26742E-03 12840   0.327E-01    0.316E-01
DAV:  10    -0.190775765785E+03    0.50620E-03   -0.24592E-03 11120   0.313E-01    0.129E-01
DAV:  11    -0.190775566467E+03    0.19932E-03   -0.58658E-04 10160   0.102E-01    0.459E-02
DAV:  12    -0.190775557291E+03    0.91764E-05   -0.85886E-05  7280   0.353E-02
   4 F= -.19077556E+03 E0= -.19067922E+03  d E =-.102508E+01
       N       E                     dE             d eps       ncg     rms          rms(c)
DAV:   1    -0.192209551073E+03   -0.14340E+01   -0.18444E+02  8160   0.300E+01    0.566E+00
DAV:   2    -0.191940023876E+03    0.26953E+00   -0.96058E+00 10240   0.753E+00    0.309E+00
DAV:   3    -0.191759931742E+03    0.18009E+00   -0.12372E+00 10880   0.396E+00    0.259E+00
DAV:   4    -0.191806172840E+03   -0.46241E-01   -0.60961E-01 11920   0.529E+00    0.474E+00
DAV:   5    -0.191631782585E+03    0.17439E+00   -0.70662E-01 11080   0.575E+00    0.199E+00
DAV:   6    -0.191604764888E+03    0.27018E-01   -0.15278E-01 12240   0.272E+00    0.152E+00
DAV:   7    -0.191584349191E+03    0.20416E-01   -0.68597E-02 12400   0.198E+00    0.657E-01
DAV:   8    -0.191577744274E+03    0.66049E-02   -0.11735E-02 12200   0.657E-01    0.155E-01
DAV:   9    -0.191577961363E+03   -0.21709E-03   -0.22776E-03 10960   0.172E-01    0.107E-01
DAV:  10    -0.191578241661E+03   -0.28030E-03   -0.11763E-03 11280   0.248E-01    0.185E-01
DAV:  11    -0.191577914806E+03    0.32685E-03   -0.52234E-04  9240   0.169E-01    0.273E-02
DAV:  12    -0.191577926279E+03   -0.11473E-04   -0.51113E-05  6400   0.294E-02
   5 F= -.19157793E+03 E0= -.19149165E+03  d E =-.802369E+00
       N       E                     dE             d eps       ncg     rms          rms(c)
DAV:   1    -0.191689348683E+03   -0.11143E+00   -0.94179E+00  8160   0.648E+00    0.772E-01
DAV:   2    -0.191761133411E+03   -0.71785E-01   -0.39686E-01 13040   0.327E+00    0.217E+00
DAV:   3    -0.191708735747E+03    0.52398E-01   -0.10503E-01 12560   0.249E+00    0.433E-01
DAV:   4    -0.191709686121E+03   -0.95037E-03   -0.11636E-02 11640   0.742E-01    0.653E-01
DAV:   5    -0.191705958409E+03    0.37277E-02   -0.90308E-03 11800   0.726E-01    0.266E-01
DAV:   6    -0.191705538416E+03    0.41999E-03   -0.32701E-03 11520   0.262E-01    0.116E-01
DAV:   7    -0.191705210415E+03    0.32800E-03   -0.80203E-04 11600   0.112E-01    0.377E-02
DAV:   8    -0.191705270700E+03   -0.60284E-04   -0.19227E-04  6720   0.913E-02
   6 F= -.19170527E+03 E0= -.19161997E+03  d E =-.127344E+00
       N       E                     dE             d eps       ncg     rms          rms(c)
DAV:   1    -0.191835456463E+03   -0.13025E+00   -0.17777E+01  8160   0.889E+00    0.895E-01
DAV:   2    -0.191904908193E+03   -0.69452E-01   -0.53022E-01 12400   0.307E+00    0.192E+00
DAV:   3    -0.191866999245E+03    0.37909E-01   -0.11431E-01 12520   0.256E+00    0.721E-01
DAV:   4    -0.191865656456E+03    0.13428E-02   -0.20182E-02 12240   0.101E+00    0.788E-01
DAV:   5    -0.191860196209E+03    0.54602E-02   -0.14283E-02 12440   0.943E-01    0.363E-01
DAV:   6    -0.191859542248E+03    0.65396E-03   -0.56542E-03 12480   0.375E-01    0.188E-01
DAV:   7    -0.191859098998E+03    0.44325E-03   -0.23010E-03 11680   0.278E-01    0.177E-01
DAV:   8    -0.191858843775E+03    0.25522E-03   -0.83916E-04  9400   0.214E-01    0.728E-02
DAV:   9    -0.191858788912E+03    0.54863E-04   -0.15410E-04  6280   0.754E-02
   7 F= -.19185879E+03 E0= -.19177717E+03  d E =-.153518E+00
       N       E                     dE             d eps       ncg     rms          rms(c)
DAV:   1    -0.191976129483E+03   -0.11729E+00   -0.22882E+01  8160   0.102E+01    0.105E+00
DAV:   2    -0.192052430682E+03   -0.76301E-01   -0.77252E-01 12480   0.336E+00    0.173E+00
DAV:   3    -0.192027963591E+03    0.24467E-01   -0.11512E-01 12320   0.263E+00    0.943E-01
DAV:   4    -0.192018606441E+03    0.93572E-02   -0.26916E-02 11280   0.119E+00    0.742E-01
DAV:   5    -0.192016150035E+03    0.24564E-02   -0.20240E-02 12440   0.111E+00    0.605E-01
DAV:   6    -0.192013560485E+03    0.25895E-02   -0.12388E-02 12560   0.661E-01    0.254E-01
DAV:   7    -0.192012051512E+03    0.15090E-02   -0.31947E-03 10640   0.222E-01    0.586E-02
DAV:   8    -0.192012105273E+03   -0.53761E-04   -0.46449E-04 10800   0.116E-01
   8 F= -.19201211E+03 E0= -.19193198E+03  d E =-.153316E+00
       N       E                     dE             d eps       ncg     rms          rms(c)
DAV:   1    -0.192085055015E+03   -0.73004E-01   -0.14941E+01  8160   0.821E+00    0.856E-01
DAV:   2    -0.192125636774E+03   -0.40582E-01   -0.55809E-01 12000   0.198E+00    0.608E-01
DAV:   3    -0.192133728594E+03   -0.80918E-02   -0.51791E-02 11720   0.153E+00    0.117E+00
DAV:   4    -0.192121007308E+03    0.12721E-01   -0.30315E-02 11520   0.135E+00    0.491E-01
DAV:   5    -0.192119461641E+03    0.15457E-02   -0.94314E-03 12360   0.684E-01    0.399E-01
DAV:   6    -0.192119568097E+03   -0.10646E-03   -0.75666E-03 11960   0.690E-01    0.367E-01
DAV:   7    -0.192117733916E+03    0.18342E-02   -0.35556E-03 11520   0.403E-01    0.116E-01
DAV:   8    -0.192117688986E+03    0.44930E-04   -0.57969E-04  9480   0.182E-01
   9 F= -.19211769E+03 E0= -.19203718E+03  d E =-.105584E+00
       N       E                     dE             d eps       ncg     rms          rms(c)
DAV:   1    -0.192165385801E+03   -0.47652E-01   -0.12273E+01  8160   0.749E+00    0.845E-01
DAV:   2    -0.192200390897E+03   -0.35005E-01   -0.48392E-01 11720   0.193E+00    0.850E-01
DAV:   3    -0.192211764337E+03   -0.11373E-01   -0.71754E-02 12120   0.198E+00    0.146E+00
DAV:   4    -0.192190619165E+03    0.21145E-01   -0.35618E-02 12360   0.144E+00    0.353E-01
DAV:   5    -0.192189489828E+03    0.11293E-02   -0.81370E-03 10960   0.494E-01    0.310E-01
DAV:   6    -0.192190605676E+03   -0.11158E-02   -0.71458E-03 11240   0.680E-01    0.455E-01
DAV:   7    -0.192188274427E+03    0.23312E-02   -0.39026E-03 11640   0.493E-01    0.113E-01
DAV:   8    -0.192188239744E+03    0.34682E-04   -0.59274E-04  9840   0.187E-01
  10 F= -.19218824E+03 E0= -.19210575E+03  d E =-.705508E-01
       N       E                     dE             d eps       ncg     rms          rms(c)
DAV:   1    -0.192214186627E+03   -0.25912E-01   -0.48567E+00  8160   0.466E+00    0.583E-01
DAV:   2    -0.192242156008E+03   -0.27969E-01   -0.22402E-01 12320   0.188E+00    0.116E+00
DAV:   3    -0.192228003244E+03    0.14153E-01   -0.41424E-02 11280   0.159E+00    0.528E-01
DAV:   4    -0.192227067106E+03    0.93614E-03   -0.10359E-02 12520   0.760E-01    0.469E-01
DAV:   5    -0.192224924087E+03    0.21430E-02   -0.55899E-03 11800   0.630E-01    0.228E-01
DAV:   6    -0.192224595605E+03    0.32848E-03   -0.22444E-03 12160   0.265E-01    0.122E-01
DAV:   7    -0.192224316397E+03    0.27921E-03   -0.94726E-04 10480   0.111E-01    0.300E-02
DAV:   8    -0.192224328926E+03   -0.12529E-04   -0.94055E-05  8040   0.610E-02
  11 F= -.19222433E+03 E0= -.19214187E+03  d E =-.360892E-01
       N       E                     dE             d eps       ncg     rms          rms(c)
DAV:   1    -0.192233021776E+03   -0.87054E-02   -0.40051E-01  8160   0.137E+00    0.198E-01
DAV:   2    -0.192235239331E+03   -0.22176E-02   -0.18190E-02 12040   0.563E-01    0.400E-01
DAV:   3    -0.192233775515E+03    0.14638E-02   -0.51075E-03 12640   0.560E-01    0.208E-01
DAV:   4    -0.192233409686E+03    0.36583E-03   -0.10681E-03 10320   0.240E-01    0.119E-01
DAV:   5    -0.192233326372E+03    0.83315E-04   -0.57972E-04 10200   0.208E-01
  12 F= -.19223333E+03 E0= -.19215163E+03  d E =-.899745E-02
       N       E                     dE             d eps       ncg     rms          rms(c)
DAV:   1    -0.192246666925E+03   -0.13257E-01   -0.77063E-01  8160   0.187E+00    0.271E-01
DAV:   2    -0.192252601150E+03   -0.59342E-02   -0.36712E-02 11400   0.927E-01    0.635E-01
DAV:   3    -0.192248021017E+03    0.45801E-02   -0.93893E-03 11840   0.778E-01    0.191E-01
DAV:   4    -0.192248291461E+03   -0.27044E-03   -0.19871E-03 11360   0.351E-01    0.248E-01
DAV:   5    -0.192247629936E+03    0.66152E-03   -0.13283E-03 10640   0.316E-01    0.930E-02
DAV:   6    -0.192247620363E+03    0.95728E-05   -0.48203E-04 10120   0.114E-01
  13 F= -.19224762E+03 E0= -.19216679E+03  d E =-.142940E-01
       N       E                     dE             d eps       ncg     rms          rms(c)
DAV:   1    -0.192274281228E+03   -0.26651E-01   -0.59956E+00  8160   0.522E+00    0.702E-01
DAV:   2    -0.192309641180E+03   -0.35360E-01   -0.25979E-01 11480   0.223E+00    0.141E+00
DAV:   3    -0.192286062553E+03    0.23579E-01   -0.54132E-02 12280   0.189E+00    0.485E-01
DAV:   4    -0.192285512757E+03    0.54980E-03   -0.10900E-02 12560   0.756E-01    0.498E-01
DAV:   5    -0.192283349155E+03    0.21636E-02   -0.71549E-03 12640   0.733E-01    0.294E-01
DAV:   6    -0.192282724204E+03    0.62495E-03   -0.32570E-03 11840   0.339E-01    0.137E-01
DAV:   7    -0.192282304792E+03    0.41941E-03   -0.11430E-03 10760   0.134E-01    0.382E-02
DAV:   8    -0.192282338185E+03   -0.33393E-04   -0.15471E-04  8400   0.968E-02
  14 F= -.19228234E+03 E0= -.19220520E+03  d E =-.347178E-01
       N       E                     dE             d eps       ncg     rms          rms(c)
DAV:   1    -0.192299255547E+03   -0.16951E-01   -0.86555E+00  8160   0.627E+00    0.824E-01
DAV:   2    -0.192343938612E+03   -0.44683E-01   -0.37284E-01 11480   0.248E+00    0.148E+00
DAV:   3    -0.192319012188E+03    0.24926E-01   -0.65752E-02 12040   0.213E+00    0.624E-01
DAV:   4    -0.192316099143E+03    0.29130E-02   -0.14622E-02 12560   0.876E-01    0.492E-01
DAV:   5    -0.192314362387E+03    0.17368E-02   -0.86788E-03 12680   0.808E-01    0.368E-01
DAV:   6    -0.192313323412E+03    0.10390E-02   -0.48363E-03 12240   0.458E-01    0.173E-01
DAV:   7    -0.192312668517E+03    0.65490E-03   -0.16604E-03 10960   0.167E-01    0.353E-02
DAV:   8    -0.192312678159E+03   -0.96420E-05   -0.15733E-04  8280   0.645E-02
  15 F= -.19231268E+03 E0= -.19224023E+03  d E =-.303400E-01
       N       E                     dE             d eps       ncg     rms          rms(c)
DAV:   1    -0.192318072704E+03   -0.54042E-02   -0.75470E-01  8160   0.183E+00    0.239E-01
DAV:   2    -0.192321939850E+03   -0.38671E-02   -0.37210E-02 10600   0.739E-01    0.396E-01
DAV:   3    -0.192320430558E+03    0.15093E-02   -0.50134E-03 13200   0.613E-01    0.201E-01
DAV:   4    -0.192320033064E+03    0.39749E-03   -0.11087E-03 10640   0.270E-01    0.133E-01
DAV:   5    -0.192319952560E+03    0.80505E-04   -0.66586E-04 11080   0.229E-01
  16 F= -.19231995E+03 E0= -.19224918E+03  d E =-.727440E-02
       N       E                     dE             d eps       ncg     rms          rms(c)
DAV:   1    -0.192324238534E+03   -0.42055E-02   -0.66508E-01  8160   0.173E+00    0.247E-01
DAV:   2    -0.192327594232E+03   -0.33557E-02   -0.32384E-02 10840   0.740E-01    0.410E-01
DAV:   3    -0.192325819457E+03    0.17748E-02   -0.51008E-03 12840   0.615E-01    0.187E-01
DAV:   4    -0.192325452782E+03    0.36667E-03   -0.10549E-03 10400   0.250E-01    0.125E-01
DAV:   5    -0.192325438780E+03    0.14002E-04   -0.74853E-04 10960   0.233E-01
  17 F= -.19232544E+03 E0= -.19225621E+03  d E =-.548622E-02
       N       E                     dE             d eps       ncg     rms          rms(c)
DAV:   1    -0.192328495112E+03   -0.30423E-02   -0.10372E+00  8160   0.216E+00    0.275E-01
DAV:   2    -0.192332514368E+03   -0.40193E-02   -0.49175E-02 11440   0.699E-01    0.314E-01
DAV:   3    -0.192332192606E+03    0.32176E-03   -0.54441E-03 12480   0.618E-01    0.297E-01
DAV:   4    -0.192331176609E+03    0.10160E-02   -0.19343E-03 11760   0.380E-01    0.131E-01
DAV:   5    -0.192331087927E+03    0.88682E-04   -0.85949E-04 10480   0.219E-01
  18 F= -.19233109E+03 E0= -.19226346E+03  d E =-.564915E-02
       N       E                     dE             d eps       ncg     rms          rms(c)
DAV:   1    -0.192333021365E+03   -0.18448E-02   -0.97061E-01  8160   0.210E+00    0.279E-01
DAV:   2    -0.192338602975E+03   -0.55816E-02   -0.48226E-02 12520   0.834E-01    0.489E-01
DAV:   3    -0.192335989155E+03    0.26138E-02   -0.74184E-03 12120   0.738E-01    0.232E-01
DAV:   4    -0.192335539783E+03    0.44937E-03   -0.15918E-03 11040   0.313E-01    0.156E-01
DAV:   5    -0.192335388778E+03    0.15100E-03   -0.95595E-04 11480   0.269E-01    0.127E-01
DAV:   6    -0.192335312584E+03    0.76194E-04   -0.59238E-04 10000   0.161E-01
  19 F= -.19233531E+03 E0= -.19226862E+03  d E =-.422466E-02
       N       E                     dE             d eps       ncg     rms          rms(c)
DAV:   1    -0.192336067262E+03   -0.67848E-03   -0.64242E-02  8160   0.544E-01    0.774E-02
DAV:   2    -0.192336304525E+03   -0.23726E-03   -0.33604E-03 11480   0.192E-01    0.935E-02
DAV:   3    -0.192336311151E+03   -0.66267E-05   -0.56864E-04 11000   0.199E-01
  20 F= -.19233631E+03 E0= -.19226972E+03  d E =-.998567E-03
       N       E                     dE             d eps       ncg     rms          rms(c)
DAV:   1    -0.192337310557E+03   -0.10060E-02   -0.16838E-01  8160   0.876E-01    0.134E-01
DAV:   2    -0.192338542706E+03   -0.12321E-02   -0.79565E-03 12640   0.465E-01    0.304E-01
DAV:   3    -0.192337519456E+03    0.10233E-02   -0.24127E-03 12280   0.405E-01    0.103E-01
DAV:   4    -0.192337407404E+03    0.11205E-03   -0.36766E-04  9200   0.121E-01    0.596E-02
DAV:   5    -0.192337349635E+03    0.57769E-04   -0.16531E-04  6800   0.719E-02
  21 F= -.19233735E+03 E0= -.19227070E+03  d E =-.103848E-02
       N       E                     dE             d eps       ncg     rms          rms(c)
DAV:   1    -0.192337988646E+03   -0.58124E-03   -0.64118E-02  8160   0.546E-01    0.724E-02
DAV:   2    -0.192338512679E+03   -0.52403E-03   -0.35536E-03 11840   0.245E-01    0.160E-01
DAV:   3    -0.192338205460E+03    0.30722E-03   -0.67796E-04 10360   0.224E-01    0.556E-02
DAV:   4    -0.192338187504E+03    0.17955E-04   -0.62785E-05  6000   0.702E-02
  22 F= -.19233819E+03 E0= -.19227171E+03  d E =-.837869E-03
