<?xml version="1.0" encoding="ISO-8859-1"?>
<modeling>
 <generator>
  <i name="program" type="string">vasp </i>
  <i name="version" type="string">5.4.1  </i>
  <i name="subversion" type="string">05Feb16 (build Jul 05 2020 17:13:04) complex                          parallel </i>
  <i name="platform" type="string">IFC91_ompi </i>
  <i name="date" type="string">2024 04 27 </i>
  <i name="time" type="string">02:42:03 </i>
 </generator>
 <incar>
  <i type="int" name="ISTART">     0</i>
  <i type="string" name="PREC">normal</i>
  <i type="string" name="ALGO"> Normal</i>
  <i type="int" name="ISPIN">     1</i>
  <i type="int" name="ICHARG">     2</i>
  <i type="int" name="IBRION">     1</i>
  <i type="int" name="NSW">   100</i>
  <i type="int" name="ISIF">     3</i>
  <i type="int" name="ISYM">     0</i>
  <i name="SYMPREC">      0.00000001</i>
  <i name="POTIM">      0.50000000</i>
  <i type="logical" name="LREAL"> F  </i>
  <i type="logical" name="LPLANE"> F  </i>
  <i type="int" name="ISMEAR">     0</i>
  <i type="logical" name="LWAVE"> F  </i>
  <i type="logical" name="LCHARG"> F  </i>
  <v type="int" name="KPOINT_BSE">    -1     0     0     0</v>
 </incar>
 <kpoints>
  <generation param="Gamma">
   <v type="int" name="divisions">       8        8        1 </v>
   <v name="usershift">      0.00000000       0.00000000       0.00000000 </v>
   <v name="genvec1">      0.12500000       0.00000000       0.00000000 </v>
   <v name="genvec2">     -0.00000000       0.12500000       0.00000000 </v>
   <v name="genvec3">      0.00000000       0.00000000       1.00000000 </v>
   <v name="shift">      0.00000000       0.00000000       0.00000000 </v>
  </generation>
  <varray name="kpointlist" >
   <v>       0.00000000       0.00000000       0.00000000 </v>
   <v>       0.12500000       0.00000000       0.00000000 </v>
   <v>       0.25000000       0.00000000       0.00000000 </v>
   <v>       0.37500000       0.00000000       0.00000000 </v>
   <v>       0.50000000       0.00000000       0.00000000 </v>
   <v>       0.00000000       0.12500000       0.00000000 </v>
   <v>       0.12500000       0.12500000       0.00000000 </v>
   <v>       0.25000000       0.12500000       0.00000000 </v>
   <v>       0.37500000       0.12500000       0.00000000 </v>
   <v>       0.50000000       0.12500000       0.00000000 </v>
   <v>      -0.37500000       0.12500000       0.00000000 </v>
   <v>      -0.25000000       0.12500000       0.00000000 </v>
   <v>      -0.12500000       0.12500000       0.00000000 </v>
   <v>       0.00000000       0.25000000       0.00000000 </v>
   <v>       0.12500000       0.25000000       0.00000000 </v>
   <v>       0.25000000       0.25000000       0.00000000 </v>
   <v>       0.37500000       0.25000000       0.00000000 </v>
   <v>       0.50000000       0.25000000       0.00000000 </v>
   <v>      -0.37500000       0.25000000       0.00000000 </v>
   <v>      -0.25000000       0.25000000       0.00000000 </v>
   <v>      -0.12500000       0.25000000       0.00000000 </v>
   <v>      -0.00000000       0.37500000       0.00000000 </v>
   <v>       0.12500000       0.37500000       0.00000000 </v>
   <v>       0.25000000       0.37500000       0.00000000 </v>
   <v>       0.37500000       0.37500000       0.00000000 </v>
   <v>       0.50000000       0.37500000       0.00000000 </v>
   <v>      -0.37500000       0.37500000       0.00000000 </v>
   <v>      -0.25000000       0.37500000       0.00000000 </v>
   <v>      -0.12500000       0.37500000       0.00000000 </v>
   <v>       0.00000000       0.50000000       0.00000000 </v>
   <v>       0.12500000       0.50000000       0.00000000 </v>
   <v>       0.25000000       0.50000000       0.00000000 </v>
   <v>       0.37500000       0.50000000       0.00000000 </v>
   <v>       0.50000000       0.50000000       0.00000000 </v>
  </varray>
  <varray name="weights" >
   <v>       0.01562500 </v>
   <v>       0.03125000 </v>
   <v>       0.03125000 </v>
   <v>       0.03125000 </v>
   <v>       0.01562500 </v>
   <v>       0.03125000 </v>
   <v>       0.03125000 </v>
   <v>       0.03125000 </v>
   <v>       0.03125000 </v>
   <v>       0.03125000 </v>
   <v>       0.03125000 </v>
   <v>       0.03125000 </v>
   <v>       0.03125000 </v>
   <v>       0.03125000 </v>
   <v>       0.03125000 </v>
   <v>       0.03125000 </v>
   <v>       0.03125000 </v>
   <v>       0.03125000 </v>
   <v>       0.03125000 </v>
   <v>       0.03125000 </v>
   <v>       0.03125000 </v>
   <v>       0.03125000 </v>
   <v>       0.03125000 </v>
   <v>       0.03125000 </v>
   <v>       0.03125000 </v>
   <v>       0.03125000 </v>
   <v>       0.03125000 </v>
   <v>       0.03125000 </v>
   <v>       0.03125000 </v>
   <v>       0.01562500 </v>
   <v>       0.03125000 </v>
   <v>       0.03125000 </v>
   <v>       0.03125000 </v>
   <v>       0.01562500 </v>
  </varray>
 </kpoints>
 <parameters>
  <separator name="general" >
   <i type="string" name="SYSTEM">unknown system</i>
   <i type="logical" name="LCOMPAT"> F  </i>
  </separator>
  <separator name="electronic" >
   <i type="string" name="PREC">normal</i>
   <i name="ENMAX">    280.00000000</i>
   <i name="ENAUG">    373.43800000</i>
   <i name="EDIFF">      0.00010000</i>
   <i type="int" name="IALGO">    38</i>
   <i type="int" name="IWAVPR">    11</i>
   <i type="int" name="NBANDS">   120</i>
   <i name="NELECT">    159.00000000</i>
   <i type="int" name="TURBO">     0</i>
   <i type="int" name="IRESTART">     0</i>
   <i type="int" name="NREBOOT">     0</i>
   <i type="int" name="NMIN">     0</i>
   <i name="EREF">      0.00000000</i>
   <separator name="electronic smearing" >
    <i type="int" name="ISMEAR">     0</i>
    <i name="SIGMA">      0.20000000</i>
    <i name="KSPACING">      0.50000000</i>
    <i type="logical" name="KGAMMA"> T  </i>
   </separator>
   <separator name="electronic projectors" >
    <i type="logical" name="LREAL"> F  </i>
    <v name="ROPT">      0.00000000      0.00000000      0.00000000      0.00000000</v>
    <i type="int" name="LMAXPAW">  -100</i>
    <i type="int" name="LMAXMIX">     2</i>
    <i type="logical" name="NLSPLINE"> F  </i>
   </separator>
   <separator name="electronic startup" >
    <i type="int" name="ISTART">     0</i>
    <i type="int" name="ICHARG">     2</i>
    <i type="int" name="INIWAV">     1</i>
   </separator>
   <separator name="electronic spin" >
    <i type="int" name="ISPIN">     1</i>
    <i type="logical" name="LNONCOLLINEAR"> F  </i>
    <v name="MAGMOM">      1.00000000      1.00000000      1.00000000      1.00000000      1.00000000      1.00000000      1.00000000      1.00000000      1.00000000      1.00000000      1.00000000      1.00000000      1.00000000      1.00000000      1.00000000      1.00000000      1.00000000      1.00000000      1.00000000      1.00000000
      1.00000000      1.00000000      1.00000000      1.00000000      1.00000000      1.00000000      1.00000000</v>
    <i name="NUPDOWN">     -1.00000000</i>
    <i type="logical" name="LSORBIT"> F  </i>
    <v name="SAXIS">      0.00000000      0.00000000      1.00000000</v>
    <i type="logical" name="LSPIRAL"> F  </i>
    <v name="QSPIRAL">      0.00000000      0.00000000      0.00000000</v>
    <i type="logical" name="LZEROZ"> F  </i>
   </separator>
   <separator name="electronic exchange-correlation" >
    <i type="logical" name="LASPH"> F  </i>
    <i type="logical" name="LMETAGGA"> F  </i>
   </separator>
   <separator name="electronic convergence" >
    <i type="int" name="NELM">    60</i>
    <i type="int" name="NELMDL">    -5</i>
    <i type="int" name="NELMIN">     2</i>
    <i name="ENINI">    280.00000000</i>
    <separator name="electronic convergence detail" >
     <i type="logical" name="LDIAG"> T  </i>
     <i type="logical" name="LSUBROT"> F  </i>
     <i name="WEIMIN">      0.00100000</i>
     <i name="EBREAK">      0.00000021</i>
     <i name="DEPER">      0.30000000</i>
     <i type="int" name="NRMM">     4</i>
     <i name="TIME">      0.40000000</i>
    </separator>
   </separator>
   <separator name="electronic mixer" >
    <i name="AMIX">      0.40000000</i>
    <i name="BMIX">      1.00000000</i>
    <i name="AMIN">      0.10000000</i>
    <i name="AMIX_MAG">      1.60000000</i>
    <i name="BMIX_MAG">      1.00000000</i>
    <separator name="electronic mixer details" >
     <i type="int" name="IMIX">     4</i>
     <i type="logical" name="MIXFIRST"> F  </i>
     <i type="int" name="MAXMIX">   -45</i>
     <i name="WC">    100.00000000</i>
     <i type="int" name="INIMIX">     1</i>
     <i type="int" name="MIXPRE">     1</i>
     <i type="int" name="MREMOVE">     5</i>
    </separator>
   </separator>
   <separator name="electronic dipolcorrection" >
    <i type="logical" name="LDIPOL"> F  </i>
    <i type="logical" name="LMONO"> F  </i>
    <i type="int" name="IDIPOL">     0</i>
    <i name="EPSILON">      1.00000000</i>
    <v name="DIPOL">   -100.00000000   -100.00000000   -100.00000000</v>
    <i name="EFIELD">      0.00000000</i>
   </separator>
  </separator>
  <separator name="grids" >
   <i type="int" name="NGX">    42</i>
   <i type="int" name="NGY">    42</i>
   <i type="int" name="NGZ">   126</i>
   <i type="int" name="NGXF">    84</i>
   <i type="int" name="NGYF">    84</i>
   <i type="int" name="NGZF">   252</i>
   <i type="logical" name="ADDGRID"> F  </i>
  </separator>
  <separator name="ionic" >
   <i type="int" name="NSW">   100</i>
   <i type="int" name="IBRION">     1</i>
   <i type="int" name="ISIF">     3</i>
   <i name="PSTRESS">      0.00000000</i>
   <i name="EDIFFG">      0.00100000</i>
   <i type="int" name="NFREE">     0</i>
   <i name="POTIM">      0.50000000</i>
   <i name="SMASS">     -3.00000000</i>
   <i name="SCALEE">      1.00000000</i>
  </separator>
  <separator name="ionic md" >
   <i name="TEBEG">      0.00010000</i>
   <i name="TEEND">      0.00010000</i>
   <i type="int" name="NBLOCK">     1</i>
   <i type="int" name="KBLOCK">   100</i>
   <i type="int" name="NPACO">   256</i>
   <i name="APACO">     16.00000000</i>
  </separator>
  <separator name="symmetry" >
   <i type="int" name="ISYM">     0</i>
   <i name="SYMPREC">      0.00000001</i>
  </separator>
  <separator name="dos" >
   <i type="logical" name="LORBIT"> F  </i>
   <v name="RWIGS">     -1.00000000     -1.00000000     -1.00000000     -1.00000000</v>
   <i type="int" name="NEDOS">   301</i>
   <i name="EMIN">     10.00000000</i>
   <i name="EMAX">    -10.00000000</i>
   <i name="EFERMI">      0.00000000</i>
  </separator>
  <separator name="writing" >
   <i type="int" name="NWRITE">     2</i>
   <i type="logical" name="LWAVE"> F  </i>
   <i type="logical" name="LCHARG"> F  </i>
   <i type="logical" name="LPARD"> F  </i>
   <i type="logical" name="LVTOT"> F  </i>
   <i type="logical" name="LVHAR"> F  </i>
   <i type="logical" name="LELF"> F  </i>
   <i type="logical" name="LOPTICS"> F  </i>
   <v name="STM">      0.00000000      0.00000000      0.00000000      0.00000000      0.00000000      0.00000000      0.00000000</v>
  </separator>
  <separator name="performance" >
   <i type="int" name="NPAR">    40</i>
   <i type="int" name="NSIM">     4</i>
   <i type="int" name="NBLK">    -1</i>
   <i type="logical" name="LPLANE"> F  </i>
   <i type="logical" name="LSCALAPACK"> T  </i>
   <i type="logical" name="LSCAAWARE"> F  </i>
   <i type="logical" name="LSCALU"> F  </i>
   <i type="logical" name="LASYNC"> F  </i>
   <i type="logical" name="LORBITALREAL"> F  </i>
  </separator>
  <separator name="miscellaneous" >
   <i type="int" name="IDIOT">     3</i>
   <i type="logical" name="LMUSIC"> F  </i>
   <v name="POMASS">     50.94100000     95.94000000    183.85000000     32.06600000</v>
   <v name="DARWINR">      0.00000000      0.00000000      0.00000000      0.00000000</v>
   <v name="DARWINV">      1.00000000      1.00000000      1.00000000      1.00000000</v>
   <i type="logical" name="LCORR"> T  </i>
  </separator>
  <i type="logical" name="GGA_COMPAT"> T  </i>
  <i type="logical" name="LBERRY"> F  </i>
  <i type="int" name="ICORELEVEL">     0</i>
  <i type="logical" name="LDAU"> F  </i>
  <i type="int" name="I_CONSTRAINED_M">     0</i>
  <separator name="electronic exchange-correlation" >
   <i type="string" name="GGA">--</i>
   <i type="int" name="VOSKOWN">     0</i>
   <i type="logical" name="LHFCALC"> F  </i>
   <i type="string" name="PRECFOCK"></i>
   <i type="logical" name="LSYMGRAD"> F  </i>
   <i type="logical" name="LHFONE"> F  </i>
   <i type="logical" name="LRHFCALC"> F  </i>
   <i type="logical" name="LTHOMAS"> F  </i>
   <i type="logical" name="LMODELHF"> F  </i>
   <i name="ENCUT4O">     -1.00000000</i>
   <i type="int" name="EXXOEP">     0</i>
   <i type="int" name="FOURORBIT">     0</i>
   <i name="AEXX">      0.00000000</i>
   <i name="HFALPHA">      0.00000000</i>
   <i name="MCALPHA">      0.00000000</i>
   <i name="ALDAX">      1.00000000</i>
   <i name="AGGAX">      1.00000000</i>
   <i name="ALDAC">      1.00000000</i>
   <i name="AGGAC">      1.00000000</i>
   <i type="int" name="NKREDX">     1</i>
   <i type="int" name="NKREDY">     1</i>
   <i type="int" name="NKREDZ">     1</i>
   <i type="logical" name="SHIFTRED"> F  </i>
   <i type="logical" name="ODDONLY"> F  </i>
   <i type="logical" name="EVENONLY"> F  </i>
   <i type="int" name="LMAXFOCK">     0</i>
   <i type="int" name="NMAXFOCKAE">     0</i>
   <i type="logical" name="LFOCKAEDFT"> F  </i>
   <i name="HFSCREEN">      0.00000000</i>
   <i name="HFSCREENC">      0.00000000</i>
   <i type="int" name="NBANDSGWLOW">     0</i>
  </separator>
  <separator name="vdW DFT" >
   <i type="logical" name="LUSE_VDW"> F  </i>
   <i name="Zab_VDW">     -0.84910000</i>
   <i name="PARAM1">      0.12340000</i>
   <i name="PARAM2">      1.00000000</i>
   <i name="PARAM3">      0.00000000</i>
  </separator>
  <separator name="model GW" >
   <i type="int" name="MODEL_GW">     0</i>
   <i name="MODEL_EPS0">     58.26239943</i>
   <i name="MODEL_ALPHA">      1.00000000</i>
  </separator>
  <separator name="linear response parameters" >
   <i type="logical" name="LEPSILON"> F  </i>
   <i type="logical" name="LRPA"> F  </i>
   <i type="logical" name="LNABLA"> F  </i>
   <i type="logical" name="LVEL"> F  </i>
   <i type="int" name="KINTER">     0</i>
   <i name="CSHIFT">      0.10000000</i>
   <i name="OMEGAMAX">     -1.00000000</i>
   <i name="DEG_THRESHOLD">      0.00200000</i>
  </separator>
  <separator name="orbital magnetization" >
   <i type="logical" name="NUCIND"> F  </i>
   <v name="MAGPOS">      0.00000000      0.00000000      0.00000000</v>
   <i type="logical" name="LNICSALL"> T  </i>
   <i type="logical" name="ORBITALMAG"> F  </i>
   <i type="logical" name="LMAGBLOCH"> F  </i>
   <i type="logical" name="LCHIMAG"> F  </i>
   <i type="logical" name="LGAUGE"> T  </i>
   <i type="int" name="MAGATOM">     0</i>
   <v name="MAGDIPOL">      0.00000000      0.00000000      0.00000000</v>
   <v name="AVECCONST">      0.00000000      0.00000000      0.00000000</v>
  </separator>
  <separator name="response functions" >
   <i type="logical" name="LADDER"> F  </i>
   <i type="logical" name="LFXC"> F  </i>
   <i type="logical" name="LHARTREE"> T  </i>
   <i type="int" name="IBSE">     0</i>
   <v type="int" name="KPOINT">    -1     0     0     0</v>
   <i type="logical" name="LTCTE"> F  </i>
   <i type="logical" name="LTETE"> F  </i>
   <i type="logical" name="LTRIPLET"> F  </i>
   <i type="logical" name="LFXCEPS"> F  </i>
   <i type="logical" name="LFXHEG"> F  </i>
   <i type="int" name="NATURALO">     0</i>
   <i type="logical" name="L2ORDER"> F  </i>
   <i type="logical" name="LUSEW"> F  </i>
   <i name="ENCUTGW">     -2.00000000</i>
   <i name="ENCUTGWSOFT">     -2.00000000</i>
   <i name="ENCUTLF">     -1.00000000</i>
   <i type="int" name="LMAXMP2">    -1</i>
   <i name="SCISSOR">      0.00000000</i>
   <i type="int" name="NOMEGA">     0</i>
   <i type="int" name="NOMEGAR">     0</i>
   <i type="int" name="NBANDSGW">    -1</i>
   <i type="int" name="NBANDSO">    -1</i>
   <i type="int" name="NBANDSV">    -1</i>
   <i type="int" name="NELM">     1</i>
   <i type="int" name="NELMHF">     1</i>
   <i type="int" name="DIM">     3</i>
   <i type="int" name="ANTIRES">     0</i>
   <i name="OMEGAMAX">    -30.00000000</i>
   <i name="OMEGAMIN">    -30.00000000</i>
   <i name="OMEGATL">   -200.00000000</i>
   <i type="int" name="OMEGAGRID">     0</i>
   <i name="CSHIFT">     -0.10000000</i>
   <i type="logical" name="SELFENERGY"> F  </i>
   <i type="logical" name="LSPECTRAL"> F  </i>
   <i type="logical" name="LSPECTRALGW"> F  </i>
   <i type="logical" name="LSINGLES"> F  </i>
   <i type="logical" name="LFERMIGW"> F  </i>
   <i type="logical" name="ODDONLYGW"> F  </i>
   <i type="logical" name="EVENONLYGW"> F  </i>
   <i type="int" name="NKREDLFX">     1</i>
   <i type="int" name="NKREDLFY">     1</i>
   <i type="int" name="NKREDLFZ">     1</i>
   <i type="int" name="MAXMEM">  1800</i>
   <i type="int" name="TELESCOPE">     0</i>
   <i type="int" name="TAUPAR">     1</i>
   <i type="int" name="OMEGAPAR">    -1</i>
   <i name="LAMBDA">      1.00000000</i>
  </separator>
  <separator name="External order field" >
   <i name="OFIELD_KAPPA">      0.00000000</i>
   <v name="OFIELD_K">      0.00000000      0.00000000      0.00000000</v>
   <i name="OFIELD_Q6_NEAR">      0.00000000</i>
   <i name="OFIELD_Q6_FAR">      0.00000000</i>
   <i name="OFIELD_A">      0.00000000</i>
  </separator>
 </parameters>
 <atominfo>
  <atoms>      27 </atoms>
  <types>       4 </types>
  <array name="atoms" >
   <dimension dim="1">ion</dimension>
   <field type="string">element</field>
   <field type="int">atomtype</field>
   <set>
    <rc><c>V </c><c>   1</c></rc>
    <rc><c>V </c><c>   1</c></rc>
    <rc><c>V </c><c>   1</c></rc>
    <rc><c>Mo</c><c>   2</c></rc>
    <rc><c>Mo</c><c>   2</c></rc>
    <rc><c>Mo</c><c>   2</c></rc>
    <rc><c>W </c><c>   3</c></rc>
    <rc><c>W </c><c>   3</c></rc>
    <rc><c>W </c><c>   3</c></rc>
    <rc><c>S </c><c>   4</c></rc>
    <rc><c>S </c><c>   4</c></rc>
    <rc><c>S </c><c>   4</c></rc>
    <rc><c>S </c><c>   4</c></rc>
    <rc><c>S </c><c>   4</c></rc>
    <rc><c>S </c><c>   4</c></rc>
    <rc><c>S </c><c>   4</c></rc>
    <rc><c>S </c><c>   4</c></rc>
    <rc><c>S </c><c>   4</c></rc>
    <rc><c>S </c><c>   4</c></rc>
    <rc><c>S </c><c>   4</c></rc>
    <rc><c>S </c><c>   4</c></rc>
    <rc><c>S </c><c>   4</c></rc>
    <rc><c>S </c><c>   4</c></rc>
    <rc><c>S </c><c>   4</c></rc>
    <rc><c>S </c><c>   4</c></rc>
    <rc><c>S </c><c>   4</c></rc>
    <rc><c>S </c><c>   4</c></rc>
   </set>
  </array>
  <array name="atomtypes" >
   <dimension dim="1">type</dimension>
   <field type="int">atomspertype</field>
   <field type="string">element</field>
   <field>mass</field>
   <field>valence</field>
   <field type="string">pseudopotential</field>
   <set>
    <rc><c>   3</c><c>V </c><c>     50.94100000</c><c>      5.00000000</c><c> PAW_PBE V 08Apr2002                    </c></rc>
    <rc><c>   3</c><c>Mo</c><c>     95.94000000</c><c>      6.00000000</c><c> PAW_PBE Mo 08Apr2002                   </c></rc>
    <rc><c>   3</c><c>W </c><c>    183.85000000</c><c>      6.00000000</c><c> PAW_PBE W 08Apr2002                    </c></rc>
    <rc><c>  18</c><c>S </c><c>     32.06600000</c><c>      6.00000000</c><c>  PAW_PBE S 17Jan2003                   </c></rc>
   </set>
  </array>
 </atominfo>
 <structure name="initialpos" >
  <crystal>
   <varray name="basis" >
    <v>       8.66999996       5.03999989       0.00000000 </v>
    <v>      -8.66999982       5.04000013       0.00000000 </v>
    <v>       0.00000000       0.00000000      30.00000000 </v>
   </varray>
   <i name="volume">   2621.80797419 </i>
   <varray name="rec_basis" >
    <v>       0.05767013       0.09920635       0.00000000 </v>
    <v>      -0.05767013       0.09920635       0.00000000 </v>
    <v>       0.00000000       0.00000000       0.03333333 </v>
   </varray>
  </crystal>
  <varray name="positions" >
   <v>       1.00000000       0.33333334       0.00000000 </v>
   <v>       0.66666669       0.33333334       0.00000000 </v>
   <v>       0.66666669       0.00000000       0.00000000 </v>
   <v>       0.33333334       0.66666669       0.00000000 </v>
   <v>       0.33333334       0.00000000       0.00000000 </v>
   <v>       0.33333334       0.33333334       0.00000000 </v>
   <v>       0.00000000       0.00000000       0.00000000 </v>
   <v>       0.00000000       0.66666669       0.00000000 </v>
   <v>       0.66666669       0.66666669       0.00000000 </v>
   <v>       0.11068511       0.22244981       0.95539999 </v>
   <v>       0.22244981       0.11068511       0.04460000 </v>
   <v>       0.11068511       0.55578315       0.95539999 </v>
   <v>       0.22244981       0.44401845       0.04460000 </v>
   <v>       0.11068511       0.88911647       0.95539999 </v>
   <v>       0.22244981       0.77735180       0.04460000 </v>
   <v>       0.44401845       0.22244981       0.95539999 </v>
   <v>       0.55578315       0.11068511       0.04460000 </v>
   <v>       0.44401845       0.55578315       0.95539999 </v>
   <v>       0.55578315       0.44401845       0.04460000 </v>
   <v>       0.44401845       0.88911647       0.95539999 </v>
   <v>       0.55578315       0.77735180       0.04460000 </v>
   <v>       0.77735180       0.22244981       0.95539999 </v>
   <v>       0.88911647       0.11068511       0.04460000 </v>
   <v>       0.77735180       0.55578315       0.95539999 </v>
   <v>       0.88911647       0.44401845       0.04460000 </v>
   <v>       0.77735180       0.88911647       0.95539999 </v>
   <v>       0.88911647       0.77735180       0.04460000 </v>
  </varray>
 </structure>
 <calculation>
  <scstep>
   <time name="dav">   22.83   22.91</time>
   <time name="total">   22.88   22.96</time>
   <energy>
    <i name="alphaZ">     81.65567618 </i>
    <i name="ewald">  41891.17178115 </i>
    <i name="hartreedc"> -47723.81767867 </i>
    <i name="XCdc">   -242.92468731 </i>
    <i name="pawpsdc">   3467.42045192 </i>
    <i name="pawaedc">  -2871.19716117 </i>
    <i name="eentropy">     -0.53796685 </i>
    <i name="bandstr">   -239.43275290 </i>
    <i name="atom">   6761.44252427 </i>
    <i name="e_fr_energy">   1123.78018661 </i>
    <i name="e_wo_entrp">   1124.31815346 </i>
    <i name="e_0_energy">   1124.04917004 </i>
   </energy>
  </scstep>
  <scstep>
   <time name="dav">   29.34   29.41</time>
   <time name="total">   29.34   29.42</time>
   <energy>
    <i name="e_fr_energy">     -2.60096758 </i>
    <i name="e_wo_entrp">     -2.41413856 </i>
    <i name="e_0_energy">     -2.50755307 </i>
   </energy>
  </scstep>
  <scstep>
   <time name="dav">   28.85   28.92</time>
   <time name="total">   28.85   28.93</time>
   <energy>
    <i name="e_fr_energy">   -199.62788694 </i>
    <i name="e_wo_entrp">   -199.36943527 </i>
    <i name="e_0_energy">   -199.49866111 </i>
   </energy>
  </scstep>
  <scstep>
   <time name="dav">   31.38   31.46</time>
   <time name="total">   31.38   31.48</time>
   <energy>
    <i name="e_fr_energy">   -208.95689986 </i>
    <i name="e_wo_entrp">   -208.66532058 </i>
    <i name="e_0_energy">   -208.81111022 </i>
   </energy>
  </scstep>
  <scstep>
   <time name="dav">   30.25   30.33</time>
   <time name="total">   30.72   30.80</time>
   <energy>
    <i name="e_fr_energy">   -209.30347285 </i>
    <i name="e_wo_entrp">   -209.01537117 </i>
    <i name="e_0_energy">   -209.15942201 </i>
   </energy>
  </scstep>
  <scstep>
   <time name="dav">   32.76   32.84</time>
   <time name="total">   33.27   33.36</time>
   <energy>
    <i name="e_fr_energy">   -237.86686941 </i>
    <i name="e_wo_entrp">   -237.61450672 </i>
    <i name="e_0_energy">   -237.74068807 </i>
   </energy>
  </scstep>
  <scstep>
   <time name="dav">   34.41   34.49</time>
   <time name="total">   34.92   35.01</time>
   <energy>
    <i name="e_fr_energy">   -196.56944682 </i>
    <i name="e_wo_entrp">   -196.21361403 </i>
    <i name="e_0_energy">   -196.39153042 </i>
   </energy>
  </scstep>
  <scstep>
   <time name="dav">   31.40   31.47</time>
   <time name="total">   31.91   32.00</time>
   <energy>
    <i name="e_fr_energy">   -189.47098715 </i>
    <i name="e_wo_entrp">   -189.15950970 </i>
    <i name="e_0_energy">   -189.31524842 </i>
   </energy>
  </scstep>
  <scstep>
   <time name="dav">   34.84   34.93</time>
   <time name="total">   35.37   35.46</time>
   <energy>
    <i name="e_fr_energy">   -188.12707901 </i>
    <i name="e_wo_entrp">   -187.80590277 </i>
    <i name="e_0_energy">   -187.96649089 </i>
   </energy>
  </scstep>
  <scstep>
   <time name="dav">   34.62   34.71</time>
   <time name="total">   35.16   35.25</time>
   <energy>
    <i name="e_fr_energy">   -186.93612328 </i>
    <i name="e_wo_entrp">   -186.58503723 </i>
    <i name="e_0_energy">   -186.76058026 </i>
   </energy>
  </scstep>
  <scstep>
   <time name="dav">   34.94   35.02</time>
   <time name="total">   35.47   35.57</time>
   <energy>
    <i name="e_fr_energy">   -187.02670816 </i>
    <i name="e_wo_entrp">   -186.68869070 </i>
    <i name="e_0_energy">   -186.85769943 </i>
   </energy>
  </scstep>
  <scstep>
   <time name="dav">   33.12   33.20</time>
   <time name="total">   33.66   33.75</time>
   <energy>
    <i name="e_fr_energy">   -186.95093317 </i>
    <i name="e_wo_entrp">   -186.61855978 </i>
    <i name="e_0_energy">   -186.78474648 </i>
   </energy>
  </scstep>
  <scstep>
   <time name="dav">   34.03   34.11</time>
   <time name="total">   34.56   34.66</time>
   <energy>
    <i name="e_fr_energy">   -186.86539294 </i>
    <i name="e_wo_entrp">   -186.53005671 </i>
    <i name="e_0_energy">   -186.69772483 </i>
   </energy>
  </scstep>
  <scstep>
   <time name="dav">   33.55   33.63</time>
   <time name="total">   34.09   34.18</time>
   <energy>
    <i name="e_fr_energy">   -186.82723654 </i>
    <i name="e_wo_entrp">   -186.48383455 </i>
    <i name="e_0_energy">   -186.65553555 </i>
   </energy>
  </scstep>
  <scstep>
   <time name="dav">   31.10   31.18</time>
   <time name="total">   31.64   31.73</time>
   <energy>
    <i name="e_fr_energy">   -186.82369280 </i>
    <i name="e_wo_entrp">   -186.48139695 </i>
    <i name="e_0_energy">   -186.65254488 </i>
   </energy>
  </scstep>
  <scstep>
   <time name="dav">   33.44   33.52</time>
   <time name="total">   33.98   34.07</time>
   <energy>
    <i name="e_fr_energy">   -186.82527836 </i>
    <i name="e_wo_entrp">   -186.48376596 </i>
    <i name="e_0_energy">   -186.65452216 </i>
   </energy>
  </scstep>
  <scstep>
   <time name="dav">   32.91   32.99</time>
   <time name="total">   33.45   33.54</time>
   <energy>
    <i name="e_fr_energy">   -186.82157960 </i>
    <i name="e_wo_entrp">   -186.48067330 </i>
    <i name="e_0_energy">   -186.65112645 </i>
   </energy>
  </scstep>
  <scstep>
   <time name="dav">   32.09   32.17</time>
   <time name="total">   32.63   32.72</time>
   <energy>
    <i name="e_fr_energy">   -186.82120945 </i>
    <i name="e_wo_entrp">   -186.47962919 </i>
    <i name="e_0_energy">   -186.65041932 </i>
   </energy>
  </scstep>
  <scstep>
   <time name="dav">   28.24   28.31</time>
   <time name="total">   28.78   28.86</time>
   <energy>
    <i name="e_fr_energy">   -186.82177268 </i>
    <i name="e_wo_entrp">   -186.48061314 </i>
    <i name="e_0_energy">   -186.65119291 </i>
   </energy>
  </scstep>
  <scstep>
   <time name="dav">   23.58   23.63</time>
   <time name="total">   24.12   24.18</time>
   <energy>
    <i name="e_fr_energy">   -186.82207540 </i>
    <i name="e_wo_entrp">   -186.48101110 </i>
    <i name="e_0_energy">   -186.65154325 </i>
   </energy>
  </scstep>
  <scstep>
   <time name="dav">   23.99   24.04</time>
   <time name="total">   24.52   24.59</time>
   <energy>
    <i name="e_fr_energy">   -186.82329017 </i>
    <i name="e_wo_entrp">   -186.48211466 </i>
    <i name="e_0_energy">   -186.65270242 </i>
   </energy>
  </scstep>
  <scstep>
   <time name="dav">   20.11   20.16</time>
   <time name="total">   20.65   20.71</time>
   <energy>
    <i name="e_fr_energy">   -186.82407887 </i>
    <i name="e_wo_entrp">   -186.48291652 </i>
    <i name="e_0_energy">   -186.65349769 </i>
   </energy>
  </scstep>
  <scstep>
   <time name="dav">   21.73   21.78</time>
   <time name="total">   22.27   22.33</time>
   <energy>
    <i name="e_fr_energy">   -186.82489403 </i>
    <i name="e_wo_entrp">   -186.48378522 </i>
    <i name="e_0_energy">   -186.65433963 </i>
   </energy>
  </scstep>
  <scstep>
   <time name="dav">   19.06   19.11</time>
   <time name="total">   19.60   19.65</time>
   <energy>
    <i name="e_fr_energy">   -186.82550818 </i>
    <i name="e_wo_entrp">   -186.48437004 </i>
    <i name="e_0_energy">   -186.65493911 </i>
   </energy>
  </scstep>
  <scstep>
   <time name="dav">   18.82   18.87</time>
   <time name="total">   19.36   19.42</time>
   <energy>
    <i name="e_fr_energy">   -186.82595170 </i>
    <i name="e_wo_entrp">   -186.48479994 </i>
    <i name="e_0_energy">   -186.65537582 </i>
   </energy>
  </scstep>
  <scstep>
   <time name="dav">   20.61   20.66</time>
   <time name="total">   21.15   21.21</time>
   <energy>
    <i name="e_fr_energy">   -186.82612753 </i>
    <i name="e_wo_entrp">   -186.48498122 </i>
    <i name="e_0_energy">   -186.65555438 </i>
   </energy>
  </scstep>
  <scstep>
   <time name="dav">   20.04   20.09</time>
   <time name="total">   20.58   20.64</time>
   <energy>
    <i name="e_fr_energy">   -186.82623111 </i>
    <i name="e_wo_entrp">   -186.48508842 </i>
    <i name="e_0_energy">   -186.65565977 </i>
   </energy>
  </scstep>
  <scstep>
   <time name="dav">   20.62   20.67</time>
   <time name="total">   20.65   20.71</time>
   <energy>
    <i name="alphaZ">     81.65567618 </i>
    <i name="ewald">  41891.17178115 </i>
    <i name="hartreedc"> -47833.71149434 </i>
    <i name="XCdc">   -231.60909686 </i>
    <i name="pawpsdc">   4192.06991228 </i>
    <i name="pawaedc">  -3610.06606430 </i>
    <i name="eentropy">     -0.34114379 </i>
    <i name="bandstr">  -1437.43837802 </i>
    <i name="atom">   6761.44252427 </i>
    <i name="e_fr_energy">   -186.82628344 </i>
    <i name="e_wo_entrp">   -186.48513965 </i>
    <i name="e_0_energy">   -186.65571154 </i>
   </energy>
  </scstep>
  <structure>
   <crystal>
    <varray name="basis" >
     <v>       8.66999996       5.03999989       0.00000000 </v>
     <v>      -8.66999982       5.04000013       0.00000000 </v>
     <v>       0.00000000       0.00000000      30.00000000 </v>
    </varray>
    <i name="volume">   2621.80797419 </i>
    <varray name="rec_basis" >
     <v>       0.05767013       0.09920635       0.00000000 </v>
     <v>      -0.05767013       0.09920635       0.00000000 </v>
     <v>       0.00000000       0.00000000       0.03333333 </v>
    </varray>
   </crystal>
   <varray name="positions" >
    <v>       1.00000000       0.33333334       0.00000000 </v>
    <v>       0.66666669       0.33333334       0.00000000 </v>
    <v>       0.66666669       0.00000000       0.00000000 </v>
    <v>       0.33333334       0.66666669       0.00000000 </v>
    <v>       0.33333334       0.00000000       0.00000000 </v>
    <v>       0.33333334       0.33333334       0.00000000 </v>
    <v>       0.00000000       0.00000000       0.00000000 </v>
    <v>       0.00000000       0.66666669       0.00000000 </v>
    <v>       0.66666669       0.66666669       0.00000000 </v>
    <v>       0.11068511       0.22244981       0.95539999 </v>
    <v>       0.22244981       0.11068511       0.04460000 </v>
    <v>       0.11068511       0.55578315       0.95539999 </v>
    <v>       0.22244981       0.44401845       0.04460000 </v>
    <v>       0.11068511       0.88911647       0.95539999 </v>
    <v>       0.22244981       0.77735180       0.04460000 </v>
    <v>       0.44401845       0.22244981       0.95539999 </v>
    <v>       0.55578315       0.11068511       0.04460000 </v>
    <v>       0.44401845       0.55578315       0.95539999 </v>
    <v>       0.55578315       0.44401845       0.04460000 </v>
    <v>       0.44401845       0.88911647       0.95539999 </v>
    <v>       0.55578315       0.77735180       0.04460000 </v>
    <v>       0.77735180       0.22244981       0.95539999 </v>
    <v>       0.88911647       0.11068511       0.04460000 </v>
    <v>       0.77735180       0.55578315       0.95539999 </v>
    <v>       0.88911647       0.44401845       0.04460000 </v>
    <v>       0.77735180       0.88911647       0.95539999 </v>
    <v>       0.88911647       0.77735180       0.04460000 </v>
   </varray>
  </structure>
  <varray name="forces" >
   <v>       0.11861601       0.20540941      -0.00660635 </v>
   <v>      -0.02060792      -0.34981243      -0.04350172 </v>
   <v>      -0.30701109      -0.19815342      -0.03422264 </v>
   <v>       0.00631379       0.00216352       0.11589932 </v>
   <v>       0.01753827       0.00647311      -0.13144525 </v>
   <v>      -0.00294692       0.00886213       0.11815347 </v>
   <v>       0.15411593       0.47492947      -0.06822771 </v>
   <v>       0.35949041       0.37836237      -0.08332674 </v>
   <v>      -0.29453520      -0.48951146       0.12927105 </v>
   <v>      -0.66201900      -0.17434250      -2.12024406 </v>
   <v>      -0.22089038      -0.11952567       2.89231267 </v>
   <v>       0.34387977      -0.71053392      -2.16419347 </v>
   <v>      -0.51615436      -0.68117024       2.14739452 </v>
   <v>       0.04488223      -0.14115339      -2.97852761 </v>
   <v>      -0.17527975      -0.14537469       2.89758343 </v>
   <v>       0.54137054       0.67761230      -2.13662119 </v>
   <v>       0.33033846       0.67777302       1.42929724 </v>
   <v>       0.20398301       0.14413553      -2.88957318 </v>
   <v>       0.64647126       0.15641937       2.14430072 </v>
   <v>       0.49917612       0.70072459      -2.14044891 </v>
   <v>      -0.34920596       0.68453317       2.19171913 </v>
   <v>       0.05944610      -0.01255695      -0.76437679 </v>
   <v>      -0.74728823      -0.00518642       1.44407619 </v>
   <v>       0.47488371      -0.54709066      -2.12480567 </v>
   <v>       0.23416744      -0.52700137       1.39770730 </v>
   <v>      -0.58185549       0.01846828      -2.08467428 </v>
   <v>      -0.15687874      -0.03445313       2.86308051 </v>
  </varray>
  <varray name="stress" >
   <v>       7.25550407       0.12936532      -1.53281935 </v>
   <v>       0.12936522       4.49108560       0.04161407 </v>
   <v>      -1.53281925       0.04161411      30.31834878 </v>
  </varray>
  <energy>
   <i name="e_fr_energy">   -186.82628344 </i>
   <i name="e_wo_entrp">   -186.65571154 </i>
   <i name="e_0_energy">     -0.34114379 </i>
  </energy>
  <time name="totalsc">  849.34  851.62</time>
 </calculation>
 <calculation>
  <scstep>
   <time name="dav">   23.08   23.14</time>
   <time name="total">   23.63   23.68</time>
   <energy>
    <i name="alphaZ">     78.92305215 </i>
    <i name="ewald">  39379.95245827 </i>
    <i name="hartreedc"> -45337.29394004 </i>
    <i name="XCdc">   -239.07354067 </i>
    <i name="pawpsdc">   4192.05678391 </i>
    <i name="pawaedc">  -3610.05290306 </i>
    <i name="eentropy">     -0.27819748 </i>
    <i name="bandstr">  -1413.16803616 </i>
    <i name="atom">   6761.44252427 </i>
    <i name="e_fr_energy">   -187.49179880 </i>
    <i name="e_wo_entrp">   -187.21360131 </i>
    <i name="e_0_energy">   -187.35270005 </i>
   </energy>
  </scstep>
  <scstep>
   <time name="dav">   32.10   32.18</time>
   <time name="total">   32.64   32.73</time>
   <energy>
    <i name="e_fr_energy">   -189.35016471 </i>
    <i name="e_wo_entrp">   -189.03380005 </i>
    <i name="e_0_energy">   -189.19198238 </i>
   </energy>
  </scstep>
  <scstep>
   <time name="dav">   32.39   32.47</time>
   <time name="total">   32.94   33.03</time>
   <energy>
    <i name="e_fr_energy">   -189.34770265 </i>
    <i name="e_wo_entrp">   -189.08861934 </i>
    <i name="e_0_energy">   -189.21816100 </i>
   </energy>
  </scstep>
  <scstep>
   <time name="dav">   33.05   33.13</time>
   <time name="total">   33.59   33.68</time>
   <energy>
    <i name="e_fr_energy">   -188.74259901 </i>
    <i name="e_wo_entrp">   -188.46206908 </i>
    <i name="e_0_energy">   -188.60233404 </i>
   </energy>
  </scstep>
  <scstep>
   <time name="dav">   28.01   28.08</time>
   <time name="total">   28.56   28.63</time>
   <energy>
    <i name="e_fr_energy">   -188.72555022 </i>
    <i name="e_wo_entrp">   -188.44923332 </i>
    <i name="e_0_energy">   -188.58739177 </i>
   </energy>
  </scstep>
  <scstep>
   <time name="dav">   31.86   31.93</time>
   <time name="total">   32.40   32.49</time>
   <energy>
    <i name="e_fr_energy">   -188.69121171 </i>
    <i name="e_wo_entrp">   -188.41132694 </i>
    <i name="e_0_energy">   -188.55126932 </i>
   </energy>
  </scstep>
  <scstep>
   <time name="dav">   33.56   33.64</time>
   <time name="total">   34.10   34.19</time>
   <energy>
    <i name="e_fr_energy">   -188.69945745 </i>
    <i name="e_wo_entrp">   -188.41899796 </i>
    <i name="e_0_energy">   -188.55922771 </i>
   </energy>
  </scstep>
  <scstep>
   <time name="dav">   34.30   34.38</time>
   <time name="total">   34.85   34.94</time>
   <energy>
    <i name="e_fr_energy">   -188.65772174 </i>
    <i name="e_wo_entrp">   -188.38013623 </i>
    <i name="e_0_energy">   -188.51892899 </i>
   </energy>
  </scstep>
  <scstep>
   <time name="dav">   28.18   28.25</time>
   <time name="total">   28.73   28.81</time>
   <energy>
    <i name="e_fr_energy">   -188.65616188 </i>
    <i name="e_wo_entrp">   -188.37929446 </i>
    <i name="e_0_energy">   -188.51772817 </i>
   </energy>
  </scstep>
  <scstep>
   <time name="dav">   33.98   34.06</time>
   <time name="total">   34.53   34.62</time>
   <energy>
    <i name="e_fr_energy">   -188.65654206 </i>
    <i name="e_wo_entrp">   -188.38032108 </i>
    <i name="e_0_energy">   -188.51843157 </i>
   </energy>
  </scstep>
  <scstep>
   <time name="dav">   33.83   33.91</time>
   <time name="total">   34.37   34.46</time>
   <energy>
    <i name="e_fr_energy">   -188.65574740 </i>
    <i name="e_wo_entrp">   -188.37952728 </i>
    <i name="e_0_energy">   -188.51763734 </i>
   </energy>
  </scstep>
  <scstep>
   <time name="dav">   31.21   31.29</time>
   <time name="total">   31.76   31.84</time>
   <energy>
    <i name="e_fr_energy">   -188.65561263 </i>
    <i name="e_wo_entrp">   -188.37950934 </i>
    <i name="e_0_energy">   -188.51756099 </i>
   </energy>
  </scstep>
  <scstep>
   <time name="dav">   21.96   22.01</time>
   <time name="total">   22.00   22.06</time>
   <energy>
    <i name="alphaZ">     78.92305215 </i>
    <i name="ewald">  39379.95245827 </i>
    <i name="hartreedc"> -45348.16926600 </i>
    <i name="XCdc">   -237.98046480 </i>
    <i name="pawpsdc">   3950.51503552 </i>
    <i name="pawaedc">  -3365.01651775 </i>
    <i name="eentropy">     -0.27626890 </i>
    <i name="bandstr">  -1408.04614938 </i>
    <i name="atom">   6761.44252427 </i>
    <i name="e_fr_energy">   -188.65559661 </i>
    <i name="e_wo_entrp">   -188.37932770 </i>
    <i name="e_0_energy">   -188.51746216 </i>
   </energy>
  </scstep>
  <structure>
   <crystal>
    <varray name="basis" >
     <v>       8.85583287       5.10946125       0.00000000 </v>
     <v>      -8.85202000       5.10290269       0.00000000 </v>
     <v>       0.00000000       0.00000000      30.00000000 </v>
    </varray>
    <i name="volume">   2712.58519648 </i>
    <varray name="rec_basis" >
     <v>       0.05643586       0.09789945       0.00000000 </v>
     <v>      -0.05650840       0.09794162       0.00000000 </v>
     <v>       0.00000000       0.00000000       0.03333333 </v>
    </varray>
   </crystal>
   <varray name="positions" >
    <v>       1.00131309       0.33398642      -0.00001062 </v>
    <v>       0.66493516       0.33171648      -0.00006995 </v>
    <v>       0.66486417      -0.00009420      -0.00005503 </v>
    <v>       0.33336126       0.66665948       0.00018638 </v>
    <v>       0.33341312      -0.00001781      -0.00021138 </v>
    <v>       0.33336756       0.33338396       0.00019000 </v>
    <v>       0.00270178       0.00184423      -0.00010972 </v>
    <v>       0.00281099       0.66747736      -0.00013400 </v>
    <v>       0.66350445       0.66514334       0.00020788 </v>
    <v>       0.10800887       0.22345725       0.95199045 </v>
    <v>       0.22126321       0.11072762       0.04925109 </v>
    <v>       0.10824124       0.55142582       0.95191978 </v>
    <v>       0.21775372       0.44219441       0.04805320 </v>
    <v>       0.11013442       0.88831604       0.95061025 </v>
    <v>       0.22126639       0.77714369       0.04925957 </v>
    <v>       0.44876767       0.22418667       0.95196411 </v>
    <v>       0.55994601       0.11300986       0.04689844 </v>
    <v>       0.44527580       0.55590547       0.95075330 </v>
    <v>       0.55833036       0.44296849       0.04804822 </v>
    <v>       0.44876089       0.89108133       0.95195796 </v>
    <v>       0.55808777       0.78159950       0.04812448 </v>
    <v>       0.77745709       0.22222432       0.95417080 </v>
    <v>       0.88701257       0.11273936       0.04692220 </v>
    <v>       0.77605464       0.55184359       0.95198311 </v>
    <v>       0.88724574       0.44084475       0.04684764 </v>
    <v>       0.77582137       0.89082367       0.95204765 </v>
    <v>       0.88851511       0.77762337       0.04920409 </v>
   </varray>
  </structure>
  <varray name="forces" >
   <v>       0.11123246       0.20063937       0.09698460 </v>
   <v>      -0.10083170      -0.28016855      -0.09340362 </v>
   <v>      -0.18968948      -0.23048049      -0.08498052 </v>
   <v>       0.06456286       0.02520066       0.03187224 </v>
   <v>      -0.18844369      -0.33323736      -0.05865591 </v>
   <v>      -0.00977867       0.07048388       0.03061400 </v>
   <v>       0.41761101       0.44735097       0.05853295 </v>
   <v>       0.17808311       0.59137903       0.05539392 </v>
   <v>      -0.32061888      -0.55587289      -0.05304502 </v>
   <v>       0.01937639      -0.10357035      -0.06648224 </v>
   <v>      -0.05185006      -0.10206115       0.13438925 </v>
   <v>      -0.10110274      -0.05223436      -0.05082591 </v>
   <v>      -0.03399919      -0.07764128       0.09448770 </v>
   <v>      -0.06697758      -0.08915286      -0.18539030 </v>
   <v>      -0.05335795      -0.10321012       0.13714102 </v>
   <v>       0.03335192       0.07098861      -0.05325906 </v>
   <v>       0.01105605       0.05437179      -0.01044450 </v>
   <v>       0.05404868       0.10510369      -0.09627253 </v>
   <v>      -0.01397143       0.09355866       0.11651028 </v>
   <v>       0.02897051       0.07480761      -0.05689716 </v>
   <v>       0.09555685       0.04879189       0.09755894 </v>
   <v>       0.01180474      -0.00526592       0.20468217 </v>
   <v>       0.08851671       0.00821148      -0.25489318 </v>
   <v>      -0.05652009       0.07654601       0.26323727 </v>
   <v>      -0.04519709       0.06281793      -0.23243023 </v>
   <v>       0.10335079       0.00729584       0.24089507 </v>
   <v>       0.01481648      -0.00465210      -0.26531923 </v>
  </varray>
  <varray name="stress" >
   <v>     -19.88872533      -0.02387398      -0.01877246 </v>
   <v>      -0.02387415     -19.49066008      -0.10047581 </v>
   <v>      -0.01877230      -0.10047598      -1.77115609 </v>
  </varray>
  <energy>
   <i name="e_fr_energy">   -188.65559661 </i>
   <i name="e_wo_entrp">   -188.51746216 </i>
   <i name="e_0_energy">     -0.27626890 </i>
  </energy>
  <time name="totalsc">  448.17  449.36</time>
 </calculation>
 <calculation>
  <scstep>
   <time name="dav">   25.56   25.62</time>
   <time name="total">   26.10   26.16</time>
   <energy>
    <i name="alphaZ">     82.34680968 </i>
    <i name="ewald">  41303.08091183 </i>
    <i name="hartreedc"> -47301.80670853 </i>
    <i name="XCdc">   -233.85872554 </i>
    <i name="pawpsdc">   3949.71334261 </i>
    <i name="pawaedc">  -3364.20762212 </i>
    <i name="eentropy">     -0.23141369 </i>
    <i name="bandstr">  -1387.06026259 </i>
    <i name="atom">   6761.44252427 </i>
    <i name="e_fr_energy">   -190.58114407 </i>
    <i name="e_wo_entrp">   -190.34973038 </i>
    <i name="e_0_energy">   -190.46543723 </i>
   </energy>
  </scstep>
  <scstep>
   <time name="dav">   30.81   30.89</time>
   <time name="total">   31.34   31.42</time>
   <energy>
    <i name="e_fr_energy">   -190.52163667 </i>
    <i name="e_wo_entrp">   -190.30510834 </i>
    <i name="e_0_energy">   -190.41337250 </i>
   </energy>
  </scstep>
  <scstep>
   <time name="dav">   32.32   32.40</time>
   <time name="total">   32.85   32.93</time>
   <energy>
    <i name="e_fr_energy">   -190.06842114 </i>
    <i name="e_wo_entrp">   -189.82078609 </i>
    <i name="e_0_energy">   -189.94460362 </i>
   </energy>
  </scstep>
  <scstep>
   <time name="dav">   33.56   33.65</time>
   <time name="total">   34.10   34.19</time>
   <energy>
    <i name="e_fr_energy">   -189.85460131 </i>
    <i name="e_wo_entrp">   -189.63203930 </i>
    <i name="e_0_energy">   -189.74332030 </i>
   </energy>
  </scstep>
  <scstep>
   <time name="dav">   30.56   30.63</time>
   <time name="total">   31.10   31.18</time>
   <energy>
    <i name="e_fr_energy">   -189.76436990 </i>
    <i name="e_wo_entrp">   -189.53170405 </i>
    <i name="e_0_energy">   -189.64803697 </i>
   </energy>
  </scstep>
  <scstep>
   <time name="dav">   31.34   31.42</time>
   <time name="total">   31.87   31.96</time>
   <energy>
    <i name="e_fr_energy">   -189.75333539 </i>
    <i name="e_wo_entrp">   -189.52162576 </i>
    <i name="e_0_energy">   -189.63748058 </i>
   </energy>
  </scstep>
  <scstep>
   <time name="dav">   31.77   31.85</time>
   <time name="total">   32.30   32.39</time>
   <energy>
    <i name="e_fr_energy">   -189.75086014 </i>
    <i name="e_wo_entrp">   -189.51954733 </i>
    <i name="e_0_energy">   -189.63520373 </i>
   </energy>
  </scstep>
  <scstep>
   <time name="dav">   31.16   31.24</time>
   <time name="total">   31.69   31.78</time>
   <energy>
    <i name="e_fr_energy">   -189.75033130 </i>
    <i name="e_wo_entrp">   -189.51898786 </i>
    <i name="e_0_energy">   -189.63465958 </i>
   </energy>
  </scstep>
  <scstep>
   <time name="dav">   29.94   30.01</time>
   <time name="total">   30.47   30.55</time>
   <energy>
    <i name="e_fr_energy">   -189.75080998 </i>
    <i name="e_wo_entrp">   -189.51940904 </i>
    <i name="e_0_energy">   -189.63510951 </i>
   </energy>
  </scstep>
  <scstep>
   <time name="dav">   27.69   27.76</time>
   <time name="total">   28.22   28.30</time>
   <energy>
    <i name="e_fr_energy">   -189.75076415 </i>
    <i name="e_wo_entrp">   -189.51922666 </i>
    <i name="e_0_energy">   -189.63499541 </i>
   </energy>
  </scstep>
  <scstep>
   <time name="dav">   28.08   28.15</time>
   <time name="total">   28.62   28.69</time>
   <energy>
    <i name="e_fr_energy">   -189.75047352 </i>
    <i name="e_wo_entrp">   -189.51890644 </i>
    <i name="e_0_energy">   -189.63468998 </i>
   </energy>
  </scstep>
  <scstep>
   <time name="dav">   18.82   18.87</time>
   <time name="total">   18.86   18.91</time>
   <energy>
    <i name="alphaZ">     82.34680968 </i>
    <i name="ewald">  41303.08091183 </i>
    <i name="hartreedc"> -47275.31132986 </i>
    <i name="XCdc">   -235.24915721 </i>
    <i name="pawpsdc">   4038.90860042 </i>
    <i name="pawaedc">  -3454.60591099 </i>
    <i name="eentropy">     -0.23153728 </i>
    <i name="bandstr">  -1410.13139230 </i>
    <i name="atom">   6761.44252427 </i>
    <i name="e_fr_energy">   -189.75048144 </i>
    <i name="e_wo_entrp">   -189.51894416 </i>
    <i name="e_0_energy">   -189.63471280 </i>
   </energy>
  </scstep>
  <structure>
   <crystal>
    <varray name="basis" >
     <v>       8.66776696       5.00297446       0.00000000 </v>
     <v>      -8.66429515       4.99700338       0.00000000 </v>
     <v>       0.00000000       0.00000000      30.00000000 </v>
    </varray>
    <i name="volume">   2599.80324412 </i>
    <varray name="rec_basis" >
     <v>       0.05766209       0.09998020       0.00000000 </v>
     <v>      -0.05773100       0.10002026       0.00000000 </v>
     <v>       0.00000000       0.00000000       0.03333333 </v>
    </varray>
   </crystal>
   <varray name="positions" >
    <v>       1.00175415       0.33421385       0.00004439 </v>
    <v>       0.66437160       0.33134651      -0.00012293 </v>
    <v>       0.66429806      -0.00029592      -0.00010323 </v>
    <v>       0.33346525       0.66663939       0.00020445 </v>
    <v>       0.33267702      -0.00039199      -0.00024465 </v>
    <v>       0.33347559       0.33351083       0.00020737 </v>
    <v>       0.00384805       0.00218822      -0.00007652 </v>
    <v>       0.00396718       0.66829171      -0.00010258 </v>
    <v>       0.66227053       0.66452522       0.00017779 </v>
    <v>       0.10785494       0.22326601       0.95195274 </v>
    <v>       0.22104339       0.11060738       0.04932732 </v>
    <v>       0.10805713       0.55143599       0.95189095 </v>
    <v>       0.21759173       0.44209771       0.04810679 </v>
    <v>       0.10992158       0.88823186       0.95050510 </v>
    <v>       0.22104322       0.77702299       0.04933736 </v>
    <v>       0.44891796       0.22427291       0.95193391 </v>
    <v>       0.56004721       0.11308985       0.04689251 </v>
    <v>       0.44550279       0.55602866       0.95069869 </v>
    <v>       0.55847280       0.44313785       0.04811431 </v>
    <v>       0.44891334       0.89117815       0.95192569 </v>
    <v>       0.55826081       0.78158894       0.04817981 </v>
    <v>       0.77745965       0.22220420       0.95428690 </v>
    <v>       0.88711125       0.11266793       0.04677762 </v>
    <v>       0.77612787       0.55202551       0.95213242 </v>
    <v>       0.88730698       0.44099290       0.04671580 </v>
    <v>       0.77593277       0.89073645       0.95218429 </v>
    <v>       0.88852159       0.77760137       0.04905359 </v>
   </varray>
  </structure>
  <varray name="forces" >
   <v>       0.12752848       0.22658279       0.09973852 </v>
   <v>      -0.16372873      -0.25715524      -0.08051971 </v>
   <v>      -0.13528794      -0.27339068      -0.07612432 </v>
   <v>       0.09007880       0.03495329       0.00454846 </v>
   <v>      -0.25758803      -0.45185468      -0.02777713 </v>
   <v>      -0.01286903       0.09610165       0.00366093 </v>
   <v>       0.51406388       0.43283963       0.06752461 </v>
   <v>       0.11574003       0.66689161       0.06824177 </v>
   <v>      -0.33025310      -0.57607537      -0.08196314 </v>
   <v>      -0.09382916      -0.01880143      -0.57353309 </v>
   <v>       0.00089371      -0.01313856       0.69833124 </v>
   <v>       0.03007509      -0.10726909      -0.55931539 </v>
   <v>      -0.07211385      -0.13992138       0.58779185 </v>
   <v>      -0.02531373      -0.02079316      -0.79229097 </v>
   <v>      -0.00511345      -0.01252374       0.70084308 </v>
   <v>       0.06599785       0.12713089      -0.53697842 </v>
   <v>       0.03996256       0.10317830       0.42853669 </v>
   <v>       0.00358331       0.01668505      -0.65865545 </v>
   <v>       0.11039218       0.01514282       0.63803456 </v>
   <v>       0.06461137       0.13111003      -0.53958182 </v>
   <v>      -0.03913748       0.11830299       0.62166521 </v>
   <v>       0.01893487       0.00369664      -0.20152651 </v>
   <v>      -0.06545480      -0.00013138       0.18264326 </v>
   <v>       0.01982471      -0.03228384      -0.20566371 </v>
   <v>       0.02266065      -0.06938139       0.20320981 </v>
   <v>      -0.03113727       0.01626405      -0.22507810 </v>
   <v>       0.00747906      -0.01615981       0.25423775 </v>
  </varray>
  <varray name="stress" >
   <v>     -10.14551971      -0.03200317      -0.04664130 </v>
   <v>      -0.03200310      -9.85468434      -0.11849496 </v>
   <v>      -0.04664146      -0.11849488       6.46765646 </v>
  </varray>
  <energy>
   <i name="e_fr_energy">   -189.75048144 </i>
   <i name="e_wo_entrp">   -189.63471280 </i>
   <i name="e_0_energy">     -0.23153728 </i>
  </energy>
  <time name="totalsc">  402.03  403.09</time>
 </calculation>
 <calculation>
  <scstep>
   <time name="dav">   23.04   23.09</time>
   <time name="total">   23.56   23.62</time>
   <energy>
    <i name="alphaZ">     85.83505888 </i>
    <i name="ewald">  42841.31127093 </i>
    <i name="hartreedc"> -48858.01773443 </i>
    <i name="XCdc">   -232.94861650 </i>
    <i name="pawpsdc">   4038.87691516 </i>
    <i name="pawaedc">  -3454.57131291 </i>
    <i name="eentropy">     -0.18900506 </i>
    <i name="bandstr">  -1373.09409217 </i>
    <i name="atom">   6761.44252427 </i>
    <i name="e_fr_energy">   -191.35499182 </i>
    <i name="e_wo_entrp">   -191.16598676 </i>
    <i name="e_0_energy">   -191.26048929 </i>
   </energy>
  </scstep>
  <scstep>
   <time name="dav">   34.59   34.67</time>
   <time name="total">   35.11   35.20</time>
   <energy>
    <i name="e_fr_energy">   -191.13589088 </i>
    <i name="e_wo_entrp">   -190.95281285 </i>
    <i name="e_0_energy">   -191.04435187 </i>
   </energy>
  </scstep>
  <scstep>
   <time name="dav">   31.86   31.93</time>
   <time name="total">   32.37   32.45</time>
   <energy>
    <i name="e_fr_energy">   -191.33260957 </i>
    <i name="e_wo_entrp">   -191.11438192 </i>
    <i name="e_0_energy">   -191.22349575 </i>
   </energy>
  </scstep>
  <scstep>
   <time name="dav">   33.65   33.73</time>
   <time name="total">   34.17   34.26</time>
   <energy>
    <i name="e_fr_energy">   -190.91204938 </i>
    <i name="e_wo_entrp">   -190.72915740 </i>
    <i name="e_0_energy">   -190.82060339 </i>
   </energy>
  </scstep>
  <scstep>
   <time name="dav">   29.15   29.22</time>
   <time name="total">   29.68   29.75</time>
   <energy>
    <i name="e_fr_energy">   -190.80789370 </i>
    <i name="e_wo_entrp">   -190.61496641 </i>
    <i name="e_0_energy">   -190.71143005 </i>
   </energy>
  </scstep>
  <scstep>
   <time name="dav">   33.00   33.08</time>
   <time name="total">   33.52   33.60</time>
   <energy>
    <i name="e_fr_energy">   -190.79910225 </i>
    <i name="e_wo_entrp">   -190.60475224 </i>
    <i name="e_0_energy">   -190.70192725 </i>
   </energy>
  </scstep>
  <scstep>
   <time name="dav">   31.36   31.43</time>
   <time name="total">   31.88   31.96</time>
   <energy>
    <i name="e_fr_energy">   -190.77968383 </i>
    <i name="e_wo_entrp">   -190.58821884 </i>
    <i name="e_0_energy">   -190.68395134 </i>
   </energy>
  </scstep>
  <scstep>
   <time name="dav">   27.48   27.55</time>
   <time name="total">   28.00   28.08</time>
   <energy>
    <i name="e_fr_energy">   -190.77546797 </i>
    <i name="e_wo_entrp">   -190.58301152 </i>
    <i name="e_0_energy">   -190.67923974 </i>
   </energy>
  </scstep>
  <scstep>
   <time name="dav">   33.24   33.32</time>
   <time name="total">   33.76   33.85</time>
   <energy>
    <i name="e_fr_energy">   -190.77627199 </i>
    <i name="e_wo_entrp">   -190.58362975 </i>
    <i name="e_0_energy">   -190.67995087 </i>
   </energy>
  </scstep>
  <scstep>
   <time name="dav">   29.49   29.56</time>
   <time name="total">   30.02   30.10</time>
   <energy>
    <i name="e_fr_energy">   -190.77576578 </i>
    <i name="e_wo_entrp">   -190.58301295 </i>
    <i name="e_0_energy">   -190.67938937 </i>
   </energy>
  </scstep>
  <scstep>
   <time name="dav">   27.36   27.42</time>
   <time name="total">   27.88   27.95</time>
   <energy>
    <i name="e_fr_energy">   -190.77556647 </i>
    <i name="e_wo_entrp">   -190.58294116 </i>
    <i name="e_0_energy">   -190.67925381 </i>
   </energy>
  </scstep>
  <scstep>
   <time name="dav">   21.38   21.44</time>
   <time name="total">   21.42   21.48</time>
   <energy>
    <i name="alphaZ">     85.83505888 </i>
    <i name="ewald">  42841.31127093 </i>
    <i name="hartreedc"> -48829.36050749 </i>
    <i name="XCdc">   -234.27886843 </i>
    <i name="pawpsdc">   4064.64173858 </i>
    <i name="pawaedc">  -3480.52086443 </i>
    <i name="eentropy">     -0.19267802 </i>
    <i name="bandstr">  -1399.65323159 </i>
    <i name="atom">   6761.44252427 </i>
    <i name="e_fr_energy">   -190.77555729 </i>
    <i name="e_wo_entrp">   -190.58287927 </i>
    <i name="e_0_energy">   -190.67921828 </i>
   </energy>
  </scstep>
  <structure>
   <crystal>
    <varray name="basis" >
     <v>       8.48541269       4.90131806       0.00000000 </v>
     <v>      -8.48330013       4.89769669       0.00000000 </v>
     <v>       0.00000000       0.00000000      30.00000000 </v>
    </varray>
    <i name="volume">   2494.14989306 </i>
    <varray name="rec_basis" >
     <v>       0.05891021       0.10203838       0.00000000 </v>
     <v>      -0.05895377       0.10206379       0.00000000 </v>
     <v>       0.00000000       0.00000000       0.03333333 </v>
    </varray>
   </crystal>
   <varray name="positions" >
    <v>       1.00372179       0.33521334       0.00025320 </v>
    <v>       0.66213676       0.33047539      -0.00027870 </v>
    <v>       0.66206851      -0.00170451      -0.00025332 </v>
    <v>       0.33407046       0.66652021       0.00019070 </v>
    <v>       0.32852212      -0.00248734      -0.00027596 </v>
    <v>       0.33409029       0.33422770       0.00019209 </v>
    <v>       0.00851799       0.00286590       0.00007090 </v>
    <v>       0.00866015       0.67232885       0.00004959 </v>
    <v>       0.65740579       0.66207412      -0.00001641 </v>
    <v>       0.10744684       0.22386154       0.95033540 </v>
    <v>       0.22126155       0.11066758       0.05125126 </v>
    <v>       0.10754529       0.55032948       0.95030182 </v>
    <v>       0.21624514       0.44138154       0.04974199 </v>
    <v>       0.10993001       0.88830358       0.94835021 </v>
    <v>       0.22124146       0.77711964       0.05126630 </v>
    <v>       0.45013921       0.22492363       0.95041203 </v>
    <v>       0.56100077       0.11367177       0.04815195 </v>
    <v>       0.44532754       0.55597247       0.94885821 </v>
    <v>       0.55894966       0.44245929       0.04987745 </v>
    <v>       0.45015920       0.89185491       0.95039930 </v>
    <v>       0.55884003       0.78283847       0.04991126 </v>
    <v>       0.77758376       0.22217096       0.95352522 </v>
    <v>       0.88663213       0.11310440       0.04752678 </v>
    <v>       0.77583587       0.55137062       0.95130901 </v>
    <v>       0.88672251       0.44004932       0.04750593 </v>
    <v>       0.77575138       0.89116665       0.95132316 </v>
    <v>       0.88840821       0.77745495       0.05002053 </v>
   </varray>
  </structure>
  <varray name="forces" >
   <v>       0.11049714       0.19374546       0.06989067 </v>
   <v>      -0.17899960      -0.25473790      -0.02509129 </v>
   <v>      -0.12869055      -0.28502713      -0.02558899 </v>
   <v>       0.14602599       0.04462008      -0.02617287 </v>
   <v>      -0.31933620      -0.55979842       0.03503367 </v>
   <v>      -0.03442028       0.15124978      -0.02584270 </v>
   <v>       0.61347608       0.48995619       0.02650621 </v>
   <v>       0.11959514       0.77655346       0.02621780 </v>
   <v>      -0.40615592      -0.70714925      -0.03593540 </v>
   <v>      -0.00180776       0.01792282      -0.36950555 </v>
   <v>       0.03062298       0.09510674       0.54505881 </v>
   <v>       0.02231963      -0.00198589      -0.36561149 </v>
   <v>      -0.01605983      -0.02360873       0.45065832 </v>
   <v>       0.01544185       0.02557600      -0.71703561 </v>
   <v>       0.06559273       0.07557862       0.54718404 </v>
   <v>       0.02922412      -0.01075373      -0.38083773 </v>
   <v>      -0.02653665      -0.02326203       0.29300152 </v>
   <v>      -0.04917728      -0.08470882      -0.54066696 </v>
   <v>       0.03047997      -0.03118228       0.48289879 </v>
   <v>      -0.02212407       0.01899476      -0.38103925 </v>
   <v>      -0.05004955       0.02068690       0.47844161 </v>
   <v>       0.01369421       0.00644054      -0.20127316 </v>
   <v>       0.02226393       0.00522011       0.07492589 </v>
   <v>       0.01921488       0.03959231      -0.02623679 </v>
   <v>      -0.01847967       0.02243287       0.08037850 </v>
   <v>       0.03401897       0.03599601      -0.03262820 </v>
   <v>      -0.02063028      -0.03745847       0.04327016 </v>
  </varray>
  <varray name="stress" >
   <v>      -5.79318554       0.15633560      -0.03049086 </v>
   <v>       0.15633570      -5.62522148       0.07235903 </v>
   <v>      -0.03049114       0.07235883       4.56877941 </v>
  </varray>
  <energy>
   <i name="e_fr_energy">   -190.77555729 </i>
   <i name="e_wo_entrp">   -190.67921828 </i>
   <i name="e_0_energy">     -0.19267802 </i>
  </energy>
  <time name="totalsc">  405.83  406.89</time>
 </calculation>
 <calculation>
  <scstep>
   <time name="dav">   23.04   23.10</time>
   <time name="total">   23.56   23.61</time>
   <energy>
    <i name="alphaZ">     90.11137728 </i>
    <i name="ewald">  44638.75837743 </i>
    <i name="hartreedc"> -50681.03185109 </i>
    <i name="XCdc">   -231.88634264 </i>
    <i name="pawpsdc">   4064.52700218 </i>
    <i name="pawaedc">  -3480.40095329 </i>
    <i name="eentropy">     -0.16471441 </i>
    <i name="bandstr">  -1353.56497079 </i>
    <i name="atom">   6761.44252427 </i>
    <i name="e_fr_energy">   -192.20955107 </i>
    <i name="e_wo_entrp">   -192.04483666 </i>
    <i name="e_0_energy">   -192.12719387 </i>
   </energy>
  </scstep>
  <scstep>
   <time name="dav">   27.56   27.63</time>
   <time name="total">   28.07   28.14</time>
   <energy>
    <i name="e_fr_energy">   -191.94002388 </i>
    <i name="e_wo_entrp">   -191.76346152 </i>
    <i name="e_0_energy">   -191.85174270 </i>
   </energy>
  </scstep>
  <scstep>
   <time name="dav">   28.92   28.99</time>
   <time name="total">   29.43   29.51</time>
   <energy>
    <i name="e_fr_energy">   -191.75993174 </i>
    <i name="e_wo_entrp">   -191.59908422 </i>
    <i name="e_0_energy">   -191.67950798 </i>
   </energy>
  </scstep>
  <scstep>
   <time name="dav">   31.26   31.34</time>
   <time name="total">   31.77   31.85</time>
   <energy>
    <i name="e_fr_energy">   -191.80617284 </i>
    <i name="e_wo_entrp">   -191.61604263 </i>
    <i name="e_0_energy">   -191.71110774 </i>
   </energy>
  </scstep>
  <scstep>
   <time name="dav">   29.32   29.39</time>
   <time name="total">   29.82   29.90</time>
   <energy>
    <i name="e_fr_energy">   -191.63178258 </i>
    <i name="e_wo_entrp">   -191.45468653 </i>
    <i name="e_0_energy">   -191.54323456 </i>
   </energy>
  </scstep>
  <scstep>
   <time name="dav">   31.91   31.99</time>
   <time name="total">   32.42   32.50</time>
   <energy>
    <i name="e_fr_energy">   -191.60476489 </i>
    <i name="e_wo_entrp">   -191.43907922 </i>
    <i name="e_0_energy">   -191.52192206 </i>
   </energy>
  </scstep>
  <scstep>
   <time name="dav">   32.22   32.30</time>
   <time name="total">   32.73   32.82</time>
   <energy>
    <i name="e_fr_energy">   -191.58434919 </i>
    <i name="e_wo_entrp">   -191.41053303 </i>
    <i name="e_0_energy">   -191.49744111 </i>
   </energy>
  </scstep>
  <scstep>
   <time name="dav">   31.85   31.93</time>
   <time name="total">   32.36   32.45</time>
   <energy>
    <i name="e_fr_energy">   -191.57774427 </i>
    <i name="e_wo_entrp">   -191.40557892 </i>
    <i name="e_0_energy">   -191.49166160 </i>
   </energy>
  </scstep>
  <scstep>
   <time name="dav">   29.12   29.19</time>
   <time name="total">   29.63   29.71</time>
   <energy>
    <i name="e_fr_energy">   -191.57796136 </i>
    <i name="e_wo_entrp">   -191.40524795 </i>
    <i name="e_0_energy">   -191.49160466 </i>
   </energy>
  </scstep>
  <scstep>
   <time name="dav">   29.91   29.98</time>
   <time name="total">   30.42   30.50</time>
   <energy>
    <i name="e_fr_energy">   -191.57824166 </i>
    <i name="e_wo_entrp">   -191.40558163 </i>
    <i name="e_0_energy">   -191.49191165 </i>
   </energy>
  </scstep>
  <scstep>
   <time name="dav">   25.51   25.57</time>
   <time name="total">   26.02   26.09</time>
   <energy>
    <i name="e_fr_energy">   -191.57791481 </i>
    <i name="e_wo_entrp">   -191.40540859 </i>
    <i name="e_0_energy">   -191.49166170 </i>
   </energy>
  </scstep>
  <scstep>
   <time name="dav">   19.49   19.53</time>
   <time name="total">   19.52   19.58</time>
   <energy>
    <i name="alphaZ">     90.11137728 </i>
    <i name="ewald">  44638.75837743 </i>
    <i name="hartreedc"> -50648.05305332 </i>
    <i name="XCdc">   -233.35238741 </i>
    <i name="pawpsdc">   4088.36313812 </i>
    <i name="pawaedc">  -3504.33865471 </i>
    <i name="eentropy">     -0.17255238 </i>
    <i name="bandstr">  -1384.33669556 </i>
    <i name="atom">   6761.44252427 </i>
    <i name="e_fr_energy">   -191.57792628 </i>
    <i name="e_wo_entrp">   -191.40537390 </i>
    <i name="e_0_energy">   -191.49165009 </i>
   </energy>
  </scstep>
  <structure>
   <crystal>
    <varray name="basis" >
     <v>       8.28166765       4.79358622       0.00000000 </v>
     <v>      -8.27094764       4.77505556       0.00000000 </v>
     <v>       0.00000000       0.00000000      30.00000000 </v>
    </varray>
    <i name="volume">   2375.78771297 </i>
    <varray name="rec_basis" >
     <v>       0.06029649       0.10444049       0.00000000 </v>
     <v>      -0.06053049       0.10457585       0.00000000 </v>
     <v>       0.00000000       0.00000000       0.03333333 </v>
    </varray>
   </crystal>
   <varray name="positions" >
    <v>       1.00699867       0.33686567       0.00054632 </v>
    <v>       0.65778736       0.32879577      -0.00039393 </v>
    <v>       0.65771114      -0.00443172      -0.00037181 </v>
    <v>       0.33562742       0.66606323       0.00007763 </v>
    <v>       0.31932735      -0.00712318      -0.00014131 </v>
    <v>       0.33567393       0.33626150       0.00008004 </v>
    <v>       0.01863804       0.00430734       0.00020506 </v>
    <v>       0.01879795       0.68101003       0.00018682 </v>
    <v>       0.64624926       0.65646819      -0.00020927 </v>
    <v>       0.10755993       0.22453742       0.94829233 </v>
    <v>       0.22275429       0.11161887       0.05401293 </v>
    <v>       0.10757146       0.54960620       0.94827807 </v>
    <v>       0.21537196       0.44095987       0.05205652 </v>
    <v>       0.11049192       0.88859189       0.94491145 </v>
    <v>       0.22273417       0.77767430       0.05403630 </v>
    <v>       0.45068020       0.22488312       0.94837148 </v>
    <v>       0.56098483       0.11380835       0.04979356 </v>
    <v>       0.44384652       0.55524127       0.94613364 </v>
    <v>       0.55891634       0.44144993       0.05235508 </v>
    <v>       0.45071169       0.89243899       0.94835769 </v>
    <v>       0.55888622       0.78399734       0.05236763 </v>
    <v>       0.77779400       0.22215746       0.95234601 </v>
    <v>       0.88648798       0.11331086       0.04829452 </v>
    <v>       0.77615063       0.55116973       0.95066571 </v>
    <v>       0.88649391       0.43978228       0.04830116 </v>
    <v>       0.77613838       0.89163539       0.95065074 </v>
    <v>       0.88782887       0.77713435       0.05079551 </v>
   </varray>
  </structure>
  <varray name="forces" >
   <v>       0.08915157       0.15195959       0.01910568 </v>
   <v>      -0.11540274      -0.34589296      -0.01940701 </v>
   <v>      -0.23970890      -0.27226123      -0.02015356 </v>
   <v>       0.16180935      -0.02549009      -0.00984687 </v>
   <v>      -0.08672384      -0.14560954       0.13193278 </v>
   <v>      -0.10404499       0.12678730      -0.01222814 </v>
   <v>       0.38562596       0.38173497      -0.11866928 </v>
   <v>       0.13850779       0.51486948      -0.11801309 </v>
   <v>      -0.30847718      -0.53570840       0.10949722 </v>
   <v>       0.09488595       0.02400813      -0.05339453 </v>
   <v>       0.05274267       0.21315851       0.25559885 </v>
   <v>      -0.02855152       0.09522401      -0.05743256 </v>
   <v>       0.04443209       0.08086046       0.13035829 </v>
   <v>       0.02216011       0.03342941      -0.40888219 </v>
   <v>       0.15830019       0.15424223       0.25595335 </v>
   <v>      -0.00607283      -0.17194086      -0.05272943 </v>
   <v>      -0.08624604      -0.15319133       0.05052004 </v>
   <v>      -0.12136306      -0.20977659      -0.36557004 </v>
   <v>      -0.08095113      -0.05312546       0.15564197 </v>
   <v>      -0.14369504      -0.09321480      -0.05316291 </v>
   <v>      -0.00897593      -0.09400641       0.15602590 </v>
   <v>      -0.01468792      -0.02257211       0.02673267 </v>
   <v>       0.24190576       0.00626013      -0.17343647 </v>
   <v>      -0.06484474       0.19076704       0.34027299 </v>
   <v>      -0.11524849       0.21505584      -0.17494144 </v>
   <v>       0.19674611       0.03455528       0.34426884 </v>
   <v>      -0.06127320      -0.10012259      -0.33804105 </v>
  </varray>
  <varray name="stress" >
   <v>      -0.05499387       0.38166337       0.24579455 </v>
   <v>       0.38166344       0.41791481       0.45156093 </v>
   <v>       0.24579450       0.45156070      -0.43345353 </v>
  </varray>
  <energy>
   <i name="e_fr_energy">   -191.57792628 </i>
   <i name="e_wo_entrp">   -191.49165009 </i>
   <i name="e_0_energy">     -0.17255238 </i>
  </energy>
  <time name="totalsc">  390.50  391.52</time>
 </calculation>
 <calculation>
  <scstep>
   <time name="dav">   23.03   23.09</time>
   <time name="total">   23.54   23.60</time>
   <energy>
    <i name="alphaZ">     90.00807973 </i>
    <i name="ewald">  44568.75647458 </i>
    <i name="hartreedc"> -50577.87320364 </i>
    <i name="XCdc">   -233.52290385 </i>
    <i name="pawpsdc">   4088.21069613 </i>
    <i name="pawaedc">  -3504.17851784 </i>
    <i name="eentropy">     -0.16703184 </i>
    <i name="bandstr">  -1384.36546622 </i>
    <i name="atom">   6761.44252427 </i>
    <i name="e_fr_energy">   -191.68934868 </i>
    <i name="e_wo_entrp">   -191.52231685 </i>
    <i name="e_0_energy">   -191.60583276 </i>
   </energy>
  </scstep>
  <scstep>
   <time name="dav">   33.75   33.83</time>
   <time name="total">   34.26   34.35</time>
   <energy>
    <i name="e_fr_energy">   -191.76113341 </i>
    <i name="e_wo_entrp">   -191.57499787 </i>
    <i name="e_0_energy">   -191.66806564 </i>
   </energy>
  </scstep>
  <scstep>
   <time name="dav">   32.58   32.65</time>
   <time name="total">   33.08   33.17</time>
   <energy>
    <i name="e_fr_energy">   -191.70873575 </i>
    <i name="e_wo_entrp">   -191.53994891 </i>
    <i name="e_0_energy">   -191.62434233 </i>
   </energy>
  </scstep>
  <scstep>
   <time name="dav">   30.61   30.68</time>
   <time name="total">   31.12   31.20</time>
   <energy>
    <i name="e_fr_energy">   -191.70968612 </i>
    <i name="e_wo_entrp">   -191.54025297 </i>
    <i name="e_0_energy">   -191.62496955 </i>
   </energy>
  </scstep>
  <scstep>
   <time name="dav">   30.92   30.99</time>
   <time name="total">   31.43   31.51</time>
   <energy>
    <i name="e_fr_energy">   -191.70595841 </i>
    <i name="e_wo_entrp">   -191.53455660 </i>
    <i name="e_0_energy">   -191.62025750 </i>
   </energy>
  </scstep>
  <scstep>
   <time name="dav">   30.36   30.43</time>
   <time name="total">   30.87   30.95</time>
   <energy>
    <i name="e_fr_energy">   -191.70553842 </i>
    <i name="e_wo_entrp">   -191.53452947 </i>
    <i name="e_0_energy">   -191.62003394 </i>
   </energy>
  </scstep>
  <scstep>
   <time name="dav">   30.56   30.63</time>
   <time name="total">   31.07   31.15</time>
   <energy>
    <i name="e_fr_energy">   -191.70521042 </i>
    <i name="e_wo_entrp">   -191.53466189 </i>
    <i name="e_0_energy">   -191.61993615 </i>
   </energy>
  </scstep>
  <scstep>
   <time name="dav">   20.15   20.19</time>
   <time name="total">   20.18   20.24</time>
   <energy>
    <i name="alphaZ">     90.00807973 </i>
    <i name="ewald">  44568.75647458 </i>
    <i name="hartreedc"> -50579.62704525 </i>
    <i name="XCdc">   -233.45575791 </i>
    <i name="pawpsdc">   4085.36153984 </i>
    <i name="pawaedc">  -3501.28458890 </i>
    <i name="eentropy">     -0.17060831 </i>
    <i name="bandstr">  -1382.73588875 </i>
    <i name="atom">   6761.44252427 </i>
    <i name="e_fr_energy">   -191.70527070 </i>
    <i name="e_wo_entrp">   -191.53466239 </i>
    <i name="e_0_energy">   -191.61996654 </i>
   </energy>
  </scstep>
  <structure>
   <crystal>
    <varray name="basis" >
     <v>       8.28608848       4.80751929       0.00000000 </v>
     <v>      -8.26586144       4.77251976       0.00000000 </v>
     <v>       0.00000000       0.00000000      30.00000000 </v>
    </varray>
    <i name="volume">   2378.51427976 </i>
    <varray name="rec_basis" >
     <v>       0.06019539       0.10425661       0.00000000 </v>
     <v>      -0.06063684       0.10451174       0.00000000 </v>
     <v>       0.00000000       0.00000000       0.03333333 </v>
    </varray>
   </crystal>
   <varray name="positions" >
    <v>       1.00798751       0.33735389       0.00057453 </v>
    <v>       0.65576445       0.32741563      -0.00042388 </v>
    <v>       0.65569755      -0.00507715      -0.00040291 </v>
    <v>       0.33595461       0.66547240       0.00006283 </v>
    <v>       0.31841906      -0.00756560       0.00006739 </v>
    <v>       0.33599493       0.33717955       0.00006145 </v>
    <v>       0.02157584       0.00508838       0.00001542 </v>
    <v>       0.02168816       0.68311506      -0.00000183 </v>
    <v>       0.64277329       0.65472685      -0.00003368 </v>
    <v>       0.10795182       0.22437638       0.94822475 </v>
    <v>       0.22395593       0.11252248       0.05439661 </v>
    <v>       0.10796379       0.55017101       0.94820391 </v>
    <v>       0.21591070       0.44123893       0.05224472 </v>
    <v>       0.11071737       0.88869214       0.94428899 </v>
    <v>       0.22394593       0.77798204       0.05442048 </v>
    <v>       0.44980066       0.22404239       0.94830470 </v>
    <v>       0.55997220       0.11329146       0.04985989 </v>
    <v>       0.44246433       0.55455113       0.94557486 </v>
    <v>       0.55841879       0.44142783       0.05258213 </v>
    <v>       0.44982840       0.89238384       0.94829024 </v>
    <v>       0.55839139       0.78354373       0.05259545 </v>
    <v>       0.77763774       0.22208739       0.95239868 </v>
    <v>       0.88721721       0.11264117       0.04801124 </v>
    <v>       0.77691321       0.55231186       0.95121354 </v>
    <v>       0.88723672       0.44119198       0.04801526 </v>
    <v>       0.77687456       0.89123533       0.95120515 </v>
    <v>       0.88715831       0.77681436       0.05024998 </v>
   </varray>
  </structure>
  <varray name="forces" >
   <v>       0.08983471       0.15125050       0.07017300 </v>
   <v>      -0.09224670      -0.37537765      -0.04131331 </v>
   <v>      -0.27515080      -0.28661709      -0.04182326 </v>
   <v>       0.16346315      -0.04847785      -0.01180033 </v>
   <v>      -0.06659840      -0.12394071       0.06144365 </v>
   <v>      -0.13855750       0.10720867      -0.01177935 </v>
   <v>       0.35803693       0.42072230      -0.02561970 </v>
   <v>       0.18417486       0.51552735      -0.02451651 </v>
   <v>      -0.31353208      -0.52471153       0.00424328 </v>
   <v>       0.05471613       0.03267424      -0.07717935 </v>
   <v>       0.01655067       0.13085584       0.14782445 </v>
   <v>       0.00109599       0.06323555      -0.07721378 </v>
   <v>       0.02470760       0.04449496       0.09364121 </v>
   <v>       0.05920312       0.09953849      -0.28792301 </v>
   <v>       0.10267582       0.08123319       0.14721010 </v>
   <v>      -0.01511709      -0.10207945      -0.02764968 </v>
   <v>      -0.04028035      -0.08042652       0.08995144 </v>
   <v>      -0.07061844      -0.12324592      -0.23396090 </v>
   <v>      -0.05278489      -0.06806509       0.14095852 </v>
   <v>      -0.07579807      -0.05845428      -0.02174177 </v>
   <v>      -0.03752680      -0.07362995       0.13854330 </v>
   <v>      -0.01025476      -0.02533464       0.09554096 </v>
   <v>       0.17863277      -0.00565287      -0.23682560 </v>
   <v>      -0.05782948       0.14955540       0.36445279 </v>
   <v>      -0.09175456       0.15695433      -0.23146010 </v>
   <v>       0.15396964       0.02351589       0.36965301 </v>
   <v>      -0.04901145      -0.08075315      -0.37282908 </v>
  </varray>
  <varray name="stress" >
   <v>      -0.06166192       0.02997336       0.02406394 </v>
   <v>       0.02997338      -0.02376530       0.06478415 </v>
   <v>       0.02406385       0.06478410      -1.34066985 </v>
  </varray>
  <energy>
   <i name="e_fr_energy">   -191.70527070 </i>
   <i name="e_wo_entrp">   -191.61996654 </i>
   <i name="e_0_energy">     -0.17060831 </i>
  </energy>
  <time name="totalsc">  280.07  280.81</time>
 </calculation>
 <calculation>
  <scstep>
   <time name="dav">   23.01   23.06</time>
   <time name="total">   23.52   23.57</time>
   <energy>
    <i name="alphaZ">     90.04590469 </i>
    <i name="ewald">  44591.97460358 </i>
    <i name="hartreedc"> -50602.74280901 </i>
    <i name="XCdc">   -233.42068463 </i>
    <i name="pawpsdc">   4085.30468403 </i>
    <i name="pawaedc">  -3501.22712739 </i>
    <i name="eentropy">     -0.16046135 </i>
    <i name="bandstr">  -1383.05209066 </i>
    <i name="atom">   6761.44252427 </i>
    <i name="e_fr_energy">   -191.83545646 </i>
    <i name="e_wo_entrp">   -191.67499512 </i>
    <i name="e_0_energy">   -191.75522579 </i>
   </energy>
  </scstep>
  <scstep>
   <time name="dav">   32.26   32.34</time>
   <time name="total">   32.77   32.85</time>
   <energy>
    <i name="e_fr_energy">   -191.90490819 </i>
    <i name="e_wo_entrp">   -191.72667649 </i>
    <i name="e_0_energy">   -191.81579234 </i>
   </energy>
  </scstep>
  <scstep>
   <time name="dav">   32.45   32.53</time>
   <time name="total">   32.96   33.05</time>
   <energy>
    <i name="e_fr_energy">   -191.86699924 </i>
    <i name="e_wo_entrp">   -191.70688749 </i>
    <i name="e_0_energy">   -191.78694337 </i>
   </energy>
  </scstep>
  <scstep>
   <time name="dav">   31.90   31.97</time>
   <time name="total">   32.41   32.49</time>
   <energy>
    <i name="e_fr_energy">   -191.86565646 </i>
    <i name="e_wo_entrp">   -191.70401239 </i>
    <i name="e_0_energy">   -191.78483442 </i>
   </energy>
  </scstep>
  <scstep>
   <time name="dav">   32.28   32.36</time>
   <time name="total">   32.79   32.87</time>
   <energy>
    <i name="e_fr_energy">   -191.86019621 </i>
    <i name="e_wo_entrp">   -191.69620702 </i>
    <i name="e_0_energy">   -191.77820161 </i>
   </energy>
  </scstep>
  <scstep>
   <time name="dav">   32.43   32.51</time>
   <time name="total">   32.94   33.03</time>
   <energy>
    <i name="e_fr_energy">   -191.85954225 </i>
    <i name="e_wo_entrp">   -191.69581979 </i>
    <i name="e_0_energy">   -191.77768102 </i>
   </energy>
  </scstep>
  <scstep>
   <time name="dav">   30.66   30.73</time>
   <time name="total">   31.16   31.25</time>
   <energy>
    <i name="e_fr_energy">   -191.85909900 </i>
    <i name="e_wo_entrp">   -191.69573806 </i>
    <i name="e_0_energy">   -191.77741853 </i>
   </energy>
  </scstep>
  <scstep>
[...]
      <set comment="kpoint 31">
       <r>  -17.5277    1.0000 </r>
       <r>  -17.2900    1.0000 </r>
       <r>  -16.9224    1.0000 </r>
       <r>  -16.6114    1.0000 </r>
       <r>  -16.5800    1.0000 </r>
       <r>  -16.4657    1.0000 </r>
       <r>  -16.2818    1.0000 </r>
       <r>  -16.2038    1.0000 </r>
       <r>  -16.1221    1.0000 </r>
       <r>  -16.0779    1.0000 </r>
       <r>  -15.9676    1.0000 </r>
       <r>  -15.8503    1.0000 </r>
       <r>  -15.7480    1.0000 </r>
       <r>  -15.6944    1.0000 </r>
       <r>  -15.6094    1.0000 </r>
       <r>  -15.4301    1.0000 </r>
       <r>  -15.3400    1.0000 </r>
       <r>  -15.2105    1.0000 </r>
       <r>   -9.7737    1.0000 </r>
       <r>   -9.4758    1.0000 </r>
       <r>   -9.3614    1.0000 </r>
       <r>   -8.9212    1.0000 </r>
       <r>   -8.8512    1.0000 </r>
       <r>   -8.7775    1.0000 </r>
       <r>   -8.6665    1.0000 </r>
       <r>   -8.6145    1.0000 </r>
       <r>   -8.4228    1.0000 </r>
       <r>   -8.2918    1.0000 </r>
       <r>   -8.2381    1.0000 </r>
       <r>   -8.1744    1.0000 </r>
       <r>   -8.1116    1.0000 </r>
       <r>   -8.0637    1.0000 </r>
       <r>   -7.9947    1.0000 </r>
       <r>   -7.9062    1.0000 </r>
       <r>   -7.8113    1.0000 </r>
       <r>   -7.6787    1.0000 </r>
       <r>   -7.6082    1.0000 </r>
       <r>   -7.5514    1.0000 </r>
       <r>   -7.3983    1.0000 </r>
       <r>   -7.2860    1.0000 </r>
       <r>   -7.1847    1.0000 </r>
       <r>   -7.0166    1.0000 </r>
       <r>   -6.9644    1.0000 </r>
       <r>   -6.9051    1.0000 </r>
       <r>   -6.8350    1.0000 </r>
       <r>   -6.7862    1.0000 </r>
       <r>   -6.6281    1.0000 </r>
       <r>   -6.5676    1.0000 </r>
       <r>   -6.5132    1.0000 </r>
       <r>   -6.4717    1.0000 </r>
       <r>   -6.3990    1.0000 </r>
       <r>   -6.3308    1.0000 </r>
       <r>   -6.2643    1.0000 </r>
       <r>   -6.1971    1.0000 </r>
       <r>   -6.1185    1.0000 </r>
       <r>   -6.0229    1.0000 </r>
       <r>   -6.0140    1.0000 </r>
       <r>   -5.9056    1.0000 </r>
       <r>   -5.8406    1.0000 </r>
       <r>   -5.7228    1.0000 </r>
       <r>   -5.6645    1.0000 </r>
       <r>   -5.5379    1.0000 </r>
       <r>   -5.4730    1.0000 </r>
       <r>   -5.4609    1.0000 </r>
       <r>   -5.2059    1.0000 </r>
       <r>   -5.0775    1.0000 </r>
       <r>   -5.0560    1.0000 </r>
       <r>   -4.8880    1.0000 </r>
       <r>   -4.8212    1.0000 </r>
       <r>   -4.7264    1.0000 </r>
       <r>   -4.6475    1.0000 </r>
       <r>   -4.4801    1.0000 </r>
       <r>   -4.3041    1.0000 </r>
       <r>   -4.1267    1.0000 </r>
       <r>   -4.0349    1.0000 </r>
       <r>   -4.0144    1.0000 </r>
       <r>   -3.8470    1.0000 </r>
       <r>   -3.6791    0.9988 </r>
       <r>   -3.4544    0.9276 </r>
       <r>   -3.3488    0.7616 </r>
       <r>   -3.0214    0.0544 </r>
       <r>   -2.8980    0.0066 </r>
       <r>   -2.6759    0.0000 </r>
       <r>   -2.5901    0.0000 </r>
       <r>   -2.4491    0.0000 </r>
       <r>   -2.3636    0.0000 </r>
       <r>   -2.2154    0.0000 </r>
       <r>   -2.1160    0.0000 </r>
       <r>   -1.9311    0.0000 </r>
       <r>   -1.8441    0.0000 </r>
       <r>   -1.6561    0.0000 </r>
       <r>   -1.5586    0.0000 </r>
       <r>   -1.4015    0.0000 </r>
       <r>   -1.3911    0.0000 </r>
       <r>   -1.1851    0.0000 </r>
       <r>   -1.1202    0.0000 </r>
       <r>   -1.0459    0.0000 </r>
       <r>   -0.9708    0.0000 </r>
       <r>   -0.9435    0.0000 </r>
       <r>   -0.8753    0.0000 </r>
       <r>   -0.8241    0.0000 </r>
       <r>   -0.7143    0.0000 </r>
       <r>   -0.6189    0.0000 </r>
       <r>   -0.5548    0.0000 </r>
       <r>   -0.4852    0.0000 </r>
       <r>   -0.4055    0.0000 </r>
       <r>   -0.3464    0.0000 </r>
       <r>   -0.1075    0.0000 </r>
       <r>    0.0095    0.0000 </r>
       <r>    0.1336    0.0000 </r>
       <r>    0.3526    0.0000 </r>
       <r>    0.5837    0.0000 </r>
       <r>    0.7487    0.0000 </r>
       <r>    0.9892    0.0000 </r>
       <r>    1.1794    0.0000 </r>
       <r>    1.3026    0.0000 </r>
       <r>    1.5733    0.0000 </r>
       <r>    2.1619    0.0000 </r>
       <r>    2.3106    0.0000 </r>
       <r>    2.4197    0.0000 </r>
      </set>
      <set comment="kpoint 32">
       <r>  -17.5426    1.0000 </r>
       <r>  -17.2116    1.0000 </r>
       <r>  -17.0410    1.0000 </r>
       <r>  -16.6056    1.0000 </r>
       <r>  -16.5732    1.0000 </r>
       <r>  -16.3254    1.0000 </r>
       <r>  -16.2922    1.0000 </r>
       <r>  -16.2138    1.0000 </r>
       <r>  -16.1602    1.0000 </r>
       <r>  -16.0706    1.0000 </r>
       <r>  -16.0450    1.0000 </r>
       <r>  -15.8541    1.0000 </r>
       <r>  -15.7445    1.0000 </r>
       <r>  -15.6896    1.0000 </r>
       <r>  -15.5822    1.0000 </r>
       <r>  -15.4299    1.0000 </r>
       <r>  -15.3403    1.0000 </r>
       <r>  -15.2106    1.0000 </r>
       <r>   -9.6938    1.0000 </r>
       <r>   -9.6042    1.0000 </r>
       <r>   -9.4166    1.0000 </r>
       <r>   -8.9040    1.0000 </r>
       <r>   -8.7656    1.0000 </r>
       <r>   -8.7029    1.0000 </r>
       <r>   -8.6249    1.0000 </r>
       <r>   -8.4976    1.0000 </r>
       <r>   -8.3788    1.0000 </r>
       <r>   -8.3633    1.0000 </r>
       <r>   -8.3097    1.0000 </r>
       <r>   -8.2145    1.0000 </r>
       <r>   -8.1701    1.0000 </r>
       <r>   -8.1193    1.0000 </r>
       <r>   -8.0091    1.0000 </r>
       <r>   -7.9632    1.0000 </r>
       <r>   -7.8510    1.0000 </r>
       <r>   -7.6264    1.0000 </r>
       <r>   -7.5762    1.0000 </r>
       <r>   -7.5298    1.0000 </r>
       <r>   -7.3688    1.0000 </r>
       <r>   -7.3416    1.0000 </r>
       <r>   -7.1190    1.0000 </r>
       <r>   -7.0760    1.0000 </r>
       <r>   -6.9721    1.0000 </r>
       <r>   -6.9113    1.0000 </r>
       <r>   -6.8333    1.0000 </r>
       <r>   -6.6911    1.0000 </r>
       <r>   -6.6448    1.0000 </r>
       <r>   -6.5695    1.0000 </r>
       <r>   -6.5400    1.0000 </r>
       <r>   -6.4720    1.0000 </r>
       <r>   -6.4251    1.0000 </r>
       <r>   -6.3357    1.0000 </r>
       <r>   -6.3275    1.0000 </r>
       <r>   -6.2096    1.0000 </r>
       <r>   -6.0284    1.0000 </r>
       <r>   -5.9974    1.0000 </r>
       <r>   -5.9585    1.0000 </r>
       <r>   -5.9092    1.0000 </r>
       <r>   -5.7979    1.0000 </r>
       <r>   -5.7455    1.0000 </r>
       <r>   -5.6543    1.0000 </r>
       <r>   -5.5782    1.0000 </r>
       <r>   -5.5205    1.0000 </r>
       <r>   -5.4107    1.0000 </r>
       <r>   -5.1834    1.0000 </r>
       <r>   -5.0897    1.0000 </r>
       <r>   -4.9886    1.0000 </r>
       <r>   -4.8849    1.0000 </r>
       <r>   -4.8378    1.0000 </r>
       <r>   -4.8024    1.0000 </r>
       <r>   -4.7572    1.0000 </r>
       <r>   -4.4711    1.0000 </r>
       <r>   -4.2925    1.0000 </r>
       <r>   -4.1032    1.0000 </r>
       <r>   -4.0392    1.0000 </r>
       <r>   -4.0128    1.0000 </r>
       <r>   -3.8259    1.0000 </r>
       <r>   -3.6578    0.9981 </r>
       <r>   -3.4670    0.9391 </r>
       <r>   -3.3365    0.7341 </r>
       <r>   -3.0384    0.0690 </r>
       <r>   -2.8611    0.0031 </r>
       <r>   -2.6893    0.0000 </r>
       <r>   -2.5766    0.0000 </r>
       <r>   -2.4356    0.0000 </r>
       <r>   -2.3878    0.0000 </r>
       <r>   -2.2402    0.0000 </r>
       <r>   -2.1309    0.0000 </r>
       <r>   -1.9270    0.0000 </r>
       <r>   -1.8451    0.0000 </r>
       <r>   -1.6612    0.0000 </r>
       <r>   -1.5560    0.0000 </r>
       <r>   -1.4171    0.0000 </r>
       <r>   -1.3971    0.0000 </r>
       <r>   -1.1712    0.0000 </r>
       <r>   -1.1472    0.0000 </r>
       <r>   -0.9846    0.0000 </r>
       <r>   -0.9674    0.0000 </r>
       <r>   -0.9517    0.0000 </r>
       <r>   -0.8548    0.0000 </r>
       <r>   -0.8304    0.0000 </r>
       <r>   -0.7121    0.0000 </r>
       <r>   -0.6244    0.0000 </r>
       <r>   -0.5251    0.0000 </r>
       <r>   -0.4650    0.0000 </r>
       <r>   -0.4278    0.0000 </r>
       <r>   -0.3500    0.0000 </r>
       <r>   -0.1218    0.0000 </r>
       <r>   -0.0028    0.0000 </r>
       <r>    0.1047    0.0000 </r>
       <r>    0.4148    0.0000 </r>
       <r>    0.5905    0.0000 </r>
       <r>    0.7173    0.0000 </r>
       <r>    0.9455    0.0000 </r>
       <r>    1.2052    0.0000 </r>
       <r>    1.2812    0.0000 </r>
       <r>    1.5757    0.0000 </r>
       <r>    2.1306    0.0000 </r>
       <r>    2.2765    0.0000 </r>
       <r>    2.5996    0.0000 </r>
      </set>
      <set comment="kpoint 33">
       <r>  -17.5269    1.0000 </r>
       <r>  -17.2908    1.0000 </r>
       <r>  -16.9227    1.0000 </r>
       <r>  -16.6130    1.0000 </r>
       <r>  -16.5767    1.0000 </r>
       <r>  -16.4695    1.0000 </r>
       <r>  -16.2788    1.0000 </r>
       <r>  -16.2024    1.0000 </r>
       <r>  -16.1264    1.0000 </r>
       <r>  -16.0778    1.0000 </r>
       <r>  -15.9666    1.0000 </r>
       <r>  -15.8490    1.0000 </r>
       <r>  -15.7498    1.0000 </r>
       <r>  -15.6931    1.0000 </r>
       <r>  -15.6085    1.0000 </r>
       <r>  -15.4306    1.0000 </r>
       <r>  -15.3397    1.0000 </r>
       <r>  -15.2105    1.0000 </r>
       <r>   -9.7741    1.0000 </r>
       <r>   -9.4761    1.0000 </r>
       <r>   -9.3629    1.0000 </r>
       <r>   -8.9202    1.0000 </r>
       <r>   -8.8503    1.0000 </r>
       <r>   -8.7781    1.0000 </r>
       <r>   -8.6672    1.0000 </r>
       <r>   -8.6179    1.0000 </r>
       <r>   -8.4215    1.0000 </r>
       <r>   -8.2913    1.0000 </r>
       <r>   -8.2358    1.0000 </r>
       <r>   -8.1758    1.0000 </r>
       <r>   -8.1103    1.0000 </r>
       <r>   -8.0604    1.0000 </r>
       <r>   -7.9924    1.0000 </r>
       <r>   -7.9071    1.0000 </r>
       <r>   -7.8119    1.0000 </r>
       <r>   -7.6710    1.0000 </r>
       <r>   -7.6193    1.0000 </r>
       <r>   -7.5536    1.0000 </r>
       <r>   -7.4009    1.0000 </r>
       <r>   -7.2893    1.0000 </r>
       <r>   -7.1867    1.0000 </r>
       <r>   -7.0131    1.0000 </r>
       <r>   -6.9641    1.0000 </r>
       <r>   -6.9009    1.0000 </r>
       <r>   -6.8338    1.0000 </r>
       <r>   -6.7808    1.0000 </r>
       <r>   -6.6314    1.0000 </r>
       <r>   -6.5656    1.0000 </r>
       <r>   -6.5169    1.0000 </r>
       <r>   -6.4786    1.0000 </r>
       <r>   -6.3943    1.0000 </r>
       <r>   -6.3329    1.0000 </r>
       <r>   -6.2632    1.0000 </r>
       <r>   -6.1922    1.0000 </r>
       <r>   -6.1122    1.0000 </r>
       <r>   -6.0204    1.0000 </r>
       <r>   -6.0129    1.0000 </r>
       <r>   -5.9099    1.0000 </r>
       <r>   -5.8445    1.0000 </r>
       <r>   -5.7239    1.0000 </r>
       <r>   -5.6614    1.0000 </r>
       <r>   -5.5377    1.0000 </r>
       <r>   -5.4727    1.0000 </r>
       <r>   -5.4618    1.0000 </r>
       <r>   -5.2057    1.0000 </r>
       <r>   -5.0779    1.0000 </r>
       <r>   -5.0555    1.0000 </r>
       <r>   -4.8845    1.0000 </r>
       <r>   -4.8212    1.0000 </r>
       <r>   -4.7263    1.0000 </r>
       <r>   -4.6528    1.0000 </r>
       <r>   -4.4822    1.0000 </r>
       <r>   -4.3074    1.0000 </r>
       <r>   -4.1295    1.0000 </r>
       <r>   -4.0367    1.0000 </r>
       <r>   -4.0140    1.0000 </r>
       <r>   -3.8404    1.0000 </r>
       <r>   -3.6719    0.9986 </r>
       <r>   -3.4802    0.9496 </r>
       <r>   -3.3287    0.7157 </r>
       <r>   -3.0235    0.0561 </r>
       <r>   -2.9005    0.0070 </r>
       <r>   -2.6761    0.0000 </r>
       <r>   -2.5915    0.0000 </r>
       <r>   -2.4510    0.0000 </r>
       <r>   -2.3596    0.0000 </r>
       <r>   -2.2152    0.0000 </r>
       <r>   -2.1164    0.0000 </r>
       <r>   -1.9259    0.0000 </r>
       <r>   -1.8425    0.0000 </r>
       <r>   -1.6616    0.0000 </r>
       <r>   -1.5659    0.0000 </r>
       <r>   -1.4023    0.0000 </r>
       <r>   -1.3829    0.0000 </r>
       <r>   -1.1862    0.0000 </r>
       <r>   -1.1214    0.0000 </r>
       <r>   -1.0418    0.0000 </r>
       <r>   -0.9686    0.0000 </r>
       <r>   -0.9404    0.0000 </r>
       <r>   -0.8737    0.0000 </r>
       <r>   -0.8283    0.0000 </r>
       <r>   -0.7166    0.0000 </r>
       <r>   -0.6199    0.0000 </r>
       <r>   -0.5599    0.0000 </r>
       <r>   -0.4805    0.0000 </r>
       <r>   -0.4051    0.0000 </r>
       <r>   -0.3456    0.0000 </r>
       <r>   -0.1122    0.0000 </r>
       <r>    0.0116    0.0000 </r>
       <r>    0.1349    0.0000 </r>
       <r>    0.3550    0.0000 </r>
       <r>    0.5857    0.0000 </r>
       <r>    0.7498    0.0000 </r>
       <r>    0.9841    0.0000 </r>
       <r>    1.1782    0.0000 </r>
       <r>    1.3063    0.0000 </r>
       <r>    1.5713    0.0000 </r>
       <r>    2.1624    0.0000 </r>
       <r>    2.3106    0.0000 </r>
       <r>    2.4210    0.0000 </r>
      </set>
      <set comment="kpoint 34">
       <r>  -17.5053    1.0000 </r>
       <r>  -17.3492    1.0000 </r>
       <r>  -16.7442    1.0000 </r>
       <r>  -16.7168    1.0000 </r>
       <r>  -16.5814    1.0000 </r>
       <r>  -16.5541    1.0000 </r>
       <r>  -16.2775    1.0000 </r>
       <r>  -16.1979    1.0000 </r>
       <r>  -16.1194    1.0000 </r>
       <r>  -16.0822    1.0000 </r>
       <r>  -15.8785    1.0000 </r>
       <r>  -15.8365    1.0000 </r>
       <r>  -15.7710    1.0000 </r>
       <r>  -15.6973    1.0000 </r>
       <r>  -15.6411    1.0000 </r>
       <r>  -15.4311    1.0000 </r>
       <r>  -15.3391    1.0000 </r>
       <r>  -15.2104    1.0000 </r>
       <r>   -9.8138    1.0000 </r>
       <r>   -9.3526    1.0000 </r>
       <r>   -9.3033    1.0000 </r>
       <r>   -9.0064    1.0000 </r>
       <r>   -8.9387    1.0000 </r>
       <r>   -8.8308    1.0000 </r>
       <r>   -8.6806    1.0000 </r>
       <r>   -8.6631    1.0000 </r>
       <r>   -8.4391    1.0000 </r>
       <r>   -8.2916    1.0000 </r>
       <r>   -8.2272    1.0000 </r>
       <r>   -8.1316    1.0000 </r>
       <r>   -8.0825    1.0000 </r>
       <r>   -8.0106    1.0000 </r>
       <r>   -7.9208    1.0000 </r>
       <r>   -7.8465    1.0000 </r>
       <r>   -7.7483    1.0000 </r>
       <r>   -7.6823    1.0000 </r>
       <r>   -7.6432    1.0000 </r>
       <r>   -7.6002    1.0000 </r>
       <r>   -7.4693    1.0000 </r>
       <r>   -7.3377    1.0000 </r>
       <r>   -7.0909    1.0000 </r>
       <r>   -7.0748    1.0000 </r>
       <r>   -7.0000    1.0000 </r>
       <r>   -6.8546    1.0000 </r>
       <r>   -6.8234    1.0000 </r>
       <r>   -6.7145    1.0000 </r>
       <r>   -6.6530    1.0000 </r>
       <r>   -6.5902    1.0000 </r>
       <r>   -6.5234    1.0000 </r>
       <r>   -6.4619    1.0000 </r>
       <r>   -6.4131    1.0000 </r>
       <r>   -6.3457    1.0000 </r>
       <r>   -6.2712    1.0000 </r>
       <r>   -6.1834    1.0000 </r>
       <r>   -6.1106    1.0000 </r>
       <r>   -6.0949    1.0000 </r>
       <r>   -6.0104    1.0000 </r>
       <r>   -5.8477    1.0000 </r>
       <r>   -5.8182    1.0000 </r>
       <r>   -5.7928    1.0000 </r>
       <r>   -5.6292    1.0000 </r>
       <r>   -5.5969    1.0000 </r>
       <r>   -5.5327    1.0000 </r>
       <r>   -5.4083    1.0000 </r>
       <r>   -5.2234    1.0000 </r>
       <r>   -5.0707    1.0000 </r>
       <r>   -4.9990    1.0000 </r>
       <r>   -4.9527    1.0000 </r>
       <r>   -4.8322    1.0000 </r>
       <r>   -4.6312    1.0000 </r>
       <r>   -4.5818    1.0000 </r>
       <r>   -4.4534    1.0000 </r>
       <r>   -4.3325    1.0000 </r>
       <r>   -4.1785    1.0000 </r>
       <r>   -4.0350    1.0000 </r>
       <r>   -4.0131    1.0000 </r>
       <r>   -3.8576    1.0000 </r>
       <r>   -3.6856    0.9990 </r>
       <r>   -3.4851    0.9531 </r>
       <r>   -3.3274    0.7124 </r>
       <r>   -2.9891    0.0335 </r>
       <r>   -2.9557    0.0193 </r>
       <r>   -2.6595    0.0000 </r>
       <r>   -2.6111    0.0000 </r>
       <r>   -2.4607    0.0000 </r>
       <r>   -2.3360    0.0000 </r>
       <r>   -2.1897    0.0000 </r>
       <r>   -2.1021    0.0000 </r>
       <r>   -1.9237    0.0000 </r>
       <r>   -1.8465    0.0000 </r>
       <r>   -1.6623    0.0000 </r>
       <r>   -1.5718    0.0000 </r>
       <r>   -1.3914    0.0000 </r>
       <r>   -1.3627    0.0000 </r>
       <r>   -1.1988    0.0000 </r>
       <r>   -1.0934    0.0000 </r>
       <r>   -1.0717    0.0000 </r>
       <r>   -0.9993    0.0000 </r>
       <r>   -0.9302    0.0000 </r>
       <r>   -0.8948    0.0000 </r>
       <r>   -0.8247    0.0000 </r>
       <r>   -0.7104    0.0000 </r>
       <r>   -0.6348    0.0000 </r>
       <r>   -0.6028    0.0000 </r>
       <r>   -0.4835    0.0000 </r>
       <r>   -0.4073    0.0000 </r>
       <r>   -0.2949    0.0000 </r>
       <r>   -0.1239    0.0000 </r>
       <r>    0.0212    0.0000 </r>
       <r>    0.1956    0.0000 </r>
       <r>    0.2739    0.0000 </r>
       <r>    0.5855    0.0000 </r>
       <r>    0.7705    0.0000 </r>
       <r>    1.0416    0.0000 </r>
       <r>    1.1395    0.0000 </r>
       <r>    1.3264    0.0000 </r>
       <r>    1.5674    0.0000 </r>
       <r>    2.2519    0.0000 </r>
       <r>    2.2660    0.0000 </r>
       <r>    2.4056    0.0000 </r>
      </set>
     </set>
    </set>
   </array>
  </eigenvalues>
  <separator name="orbital magnetization" >
   <v name="MAGDIPOLOUT">      0.00000000      0.00000000      0.00000000</v>
  </separator>
 </calculation>
 <structure name="finalpos" >
  <crystal>
   <varray name="basis" >
    <v>       8.30887512       4.82259206       0.00000000 </v>
    <v>      -8.28878164       4.78780227       0.00000000 </v>
    <v>       0.00000000       0.00000000      30.00000000 </v>
   </varray>
   <i name="volume">   2392.63991009 </i>
   <varray name="rec_basis" >
    <v>       0.06003163       0.10392849       0.00000000 </v>
    <v>      -0.06046784       0.10418043       0.00000000 </v>
    <v>       0.00000000       0.00000000       0.03333333 </v>
   </varray>
  </crystal>
  <varray name="positions" >
   <v>       1.03237725       0.34954426      -0.00178906 </v>
   <v>       0.63185858       0.31649386       0.00192859 </v>
   <v>       0.63188606      -0.01827413       0.00198406 </v>
   <v>       0.33355192       0.66176604       0.00019904 </v>
   <v>       0.32434040      -0.00605888       0.00032089 </v>
   <v>       0.33345782       0.33989646       0.00020857 </v>
   <v>       0.03927202       0.01757235      -0.00244388 </v>
   <v>       0.03898322       0.68807557      -0.00241233 </v>
   <v>       0.62664121       0.64678625       0.00211398 </v>
   <v>       0.11221541       0.22689759       0.94473571 </v>
   <v>       0.22763674       0.11476150       0.05473184 </v>
   <v>       0.11202928       0.55189817       0.94473093 </v>
   <v>       0.21748236       0.44218601       0.05411824 </v>
   <v>       0.11910712       0.89270375       0.94186732 </v>
   <v>       0.22707317       0.77902161       0.05499928 </v>
   <v>       0.44648262       0.22352393       0.94764462 </v>
   <v>       0.55667685       0.11149676       0.05326390 </v>
   <v>       0.43936271       0.55312062       0.94451206 </v>
   <v>       0.55243331       0.43990925       0.05562282 </v>
   <v>       0.44684924       0.88970586       0.94740518 </v>
   <v>       0.55251542       0.77934207       0.05568212 </v>
   <v>       0.77612644       0.22129021       0.95816461 </v>
   <v>       0.88897339       0.11218234       0.04262819 </v>
   <v>       0.77693002       0.55384706       0.95641775 </v>
   <v>       0.88893352       0.44333793       0.04269524 </v>
   <v>       0.77700299       0.88981357       0.95638196 </v>
   <v>       0.88801537       0.77737445       0.04428829 </v>
  </varray>
 </structure>
</modeling>
