unknown system                          
           1
     8.855833    5.109461    0.000000
    -8.852020    5.102903    0.000000
     0.000000    0.000000   30.000000
   V    Mo   W    S 
   3   3   3  18
Direct configuration=     1
   1.00000000  0.33333334  0.00000000
   0.66666669  0.33333334  0.00000000
   0.66666669  0.00000000  0.00000000
   0.33333334  0.66666669  0.00000000
   0.33333334  0.00000000  0.00000000
   0.33333334  0.33333334  0.00000000
   0.00000000  0.00000000  0.00000000
   0.00000000  0.66666669  0.00000000
   0.66666669  0.66666669  0.00000000
   0.11068511  0.22244981  0.95539999
   0.22244981  0.11068511  0.04460000
   0.11068511  0.55578315  0.95539999
   0.22244981  0.44401845  0.04460000
   0.11068511  0.88911647  0.95539999
   0.22244981  0.77735180  0.04460000
   0.44401845  0.22244981  0.95539999
   0.55578315  0.11068511  0.04460000
   0.44401845  0.55578315  0.95539999
   0.55578315  0.44401845  0.04460000
   0.44401845  0.88911647  0.95539999
   0.55578315  0.77735180  0.04460000
   0.77735180  0.22244981  0.95539999
   0.88911647  0.11068511  0.04460000
   0.77735180  0.55578315  0.95539999
   0.88911647  0.44401845  0.04460000
   0.77735180  0.88911647  0.95539999
   0.88911647  0.77735180  0.04460000
unknown system                          
           1
     8.667767    5.002974    0.000000
    -8.664295    4.997003    0.000000
     0.000000    0.000000   30.000000
   V    Mo   W    S 
   3   3   3  18
Direct configuration=     2
   1.00131309  0.33398642 -0.00001062
   0.66493516  0.33171648 -0.00006995
   0.66486417 -0.00009420 -0.00005503
   0.33336126  0.66665948  0.00018638
   0.33341312 -0.00001781 -0.00021138
   0.33336756  0.33338396  0.00019000
   0.00270178  0.00184423 -0.00010972
   0.00281099  0.66747736 -0.00013400
   0.66350445  0.66514334  0.00020788
   0.10800887  0.22345725  0.95199045
   0.22126321  0.11072762  0.04925109
   0.10824124  0.55142582  0.95191978
   0.21775372  0.44219441  0.04805320
   0.11013442  0.88831604  0.95061025
   0.22126639  0.77714369  0.04925957
   0.44876767  0.22418667  0.95196411
   0.55994601  0.11300986  0.04689844
   0.44527580  0.55590547  0.95075330
   0.55833036  0.44296849  0.04804822
   0.44876089  0.89108133  0.95195796
   0.55808777  0.78159950  0.04812448
   0.77745709  0.22222432  0.95417080
   0.88701257  0.11273936  0.04692220
   0.77605464  0.55184359  0.95198311
   0.88724574  0.44084475  0.04684764
   0.77582137  0.89082367  0.95204765
   0.88851511  0.77762337  0.04920409
unknown system                          
           1
     8.485413    4.901318    0.000000
    -8.483300    4.897697    0.000000
     0.000000    0.000000   30.000000
   V    Mo   W    S 
   3   3   3  18
Direct configuration=     3
   1.00175415  0.33421385  0.00004439
   0.66437160  0.33134651 -0.00012293
   0.66429806 -0.00029592 -0.00010323
   0.33346525  0.66663939  0.00020445
   0.33267702 -0.00039199 -0.00024465
   0.33347559  0.33351083  0.00020737
   0.00384805  0.00218822 -0.00007652
   0.00396718  0.66829171 -0.00010258
   0.66227053  0.66452522  0.00017779
   0.10785494  0.22326601  0.95195274
   0.22104339  0.11060738  0.04932732
   0.10805713  0.55143599  0.95189095
   0.21759173  0.44209771  0.04810679
   0.10992158  0.88823186  0.95050510
   0.22104322  0.77702299  0.04933736
   0.44891796  0.22427291  0.95193391
   0.56004721  0.11308985  0.04689251
   0.44550279  0.55602866  0.95069869
   0.55847280  0.44313785  0.04811431
   0.44891334  0.89117815  0.95192569
   0.55826081  0.78158894  0.04817981
   0.77745965  0.22220420  0.95428690
   0.88711125  0.11266793  0.04677762
   0.77612787  0.55202551  0.95213242
   0.88730698  0.44099290  0.04671580
   0.77593277  0.89073645  0.95218429
   0.88852159  0.77760137  0.04905359
unknown system                          
           1
     8.281668    4.793586    0.000000
    -8.270948    4.775056    0.000000
     0.000000    0.000000   30.000000
   V    Mo   W    S 
   3   3   3  18
Direct configuration=     4
   1.00372179  0.33521334  0.00025320
   0.66213676  0.33047539 -0.00027870
   0.66206851 -0.00170451 -0.00025332
   0.33407046  0.66652021  0.00019070
   0.32852212 -0.00248734 -0.00027596
   0.33409029  0.33422770  0.00019209
   0.00851799  0.00286590  0.00007090
   0.00866015  0.67232885  0.00004959
   0.65740579  0.66207412 -0.00001641
   0.10744684  0.22386154  0.95033540
   0.22126155  0.11066758  0.05125126
   0.10754529  0.55032948  0.95030182
   0.21624514  0.44138154  0.04974199
   0.10993001  0.88830358  0.94835021
   0.22124146  0.77711964  0.05126630
   0.45013921  0.22492363  0.95041203
   0.56100077  0.11367177  0.04815195
   0.44532754  0.55597247  0.94885821
   0.55894966  0.44245929  0.04987745
   0.45015920  0.89185491  0.95039930
   0.55884003  0.78283847  0.04991126
   0.77758376  0.22217096  0.95352522
   0.88663213  0.11310440  0.04752678
   0.77583587  0.55137062  0.95130901
   0.88672251  0.44004932  0.04750593
   0.77575138  0.89116665  0.95132316
   0.88840821  0.77745495  0.05002053
unknown system                          
           1
     8.286088    4.807519    0.000000
    -8.265861    4.772520    0.000000
     0.000000    0.000000   30.000000
   V    Mo   W    S 
   3   3   3  18
Direct configuration=     5
   1.00699867  0.33686567  0.00054632
   0.65778736  0.32879577 -0.00039393
   0.65771114 -0.00443172 -0.00037181
   0.33562742  0.66606323  0.00007763
   0.31932735 -0.00712318 -0.00014131
   0.33567393  0.33626150  0.00008004
   0.01863804  0.00430734  0.00020506
   0.01879795  0.68101003  0.00018682
   0.64624926  0.65646819 -0.00020927
   0.10755993  0.22453742  0.94829233
   0.22275429  0.11161887  0.05401293
   0.10757146  0.54960620  0.94827807
   0.21537196  0.44095987  0.05205652
   0.11049192  0.88859189  0.94491145
   0.22273417  0.77767430  0.05403630
   0.45068020  0.22488312  0.94837148
   0.56098483  0.11380835  0.04979356
   0.44384652  0.55524127  0.94613364
   0.55891634  0.44144993  0.05235508
   0.45071169  0.89243899  0.94835769
   0.55888622  0.78399734  0.05236763
   0.77779400  0.22215746  0.95234601
   0.88648798  0.11331086  0.04829452
   0.77615063  0.55116973  0.95066571
   0.88649391  0.43978228  0.04830116
   0.77613838  0.89163539  0.95065074
   0.88782887  0.77713435  0.05079551
unknown system                          
           1
     8.284297    4.807876    0.000000
    -8.262920    4.770883    0.000000
     0.000000    0.000000   30.000000
   V    Mo   W    S 
   3   3   3  18
Direct configuration=     6
   1.00798751  0.33735389  0.00057453
   0.65576445  0.32741563 -0.00042388
   0.65569755 -0.00507715 -0.00040291
   0.33595461  0.66547240  0.00006283
   0.31841906 -0.00756560  0.00006739
   0.33599493  0.33717955  0.00006145
   0.02157584  0.00508838  0.00001542
   0.02168816  0.68311506 -0.00000183
   0.64277329  0.65472685 -0.00003368
   0.10795182  0.22437638  0.94822475
   0.22395593  0.11252248  0.05439661
   0.10796379  0.55017101  0.94820391
   0.21591070  0.44123893  0.05224472
   0.11071737  0.88869214  0.94428899
   0.22394593  0.77798204  0.05442048
   0.44980066  0.22404239  0.94830470
   0.55997220  0.11329146  0.04985989
   0.44246433  0.55455113  0.94557486
   0.55841879  0.44142783  0.05258213
   0.44982840  0.89238384  0.94829024
   0.55839139  0.78354373  0.05259545
   0.77763774  0.22208739  0.95239868
   0.88721721  0.11264117  0.04801124
   0.77691321  0.55231186  0.95121354
   0.88723672  0.44119198  0.04801526
   0.77687456  0.89123533  0.95120515
   0.88715831  0.77681436  0.05024998
unknown system                          
           1
     8.298311    4.826417    0.000000
    -8.267957    4.773876    0.000000
     0.000000    0.000000   30.000000
   V    Mo   W    S 
   3   3   3  18
Direct configuration=     7
   1.00943246  0.33806103  0.00073331
   0.65272672  0.32513681 -0.00051724
   0.65254170 -0.00598571 -0.00049744
   0.33628499  0.66445887  0.00003579
   0.31723672 -0.00818709  0.00020712
   0.33619423  0.33851288  0.00003443
   0.02603695  0.00659656 -0.00004270
   0.02610988  0.68603780 -0.00005744
   0.63775563  0.65228259 -0.00002389
   0.10840546  0.22438573  0.94804148
   0.22495524  0.11338501  0.05474336
   0.10841427  0.55061064  0.94802061
   0.21632174  0.44145053  0.05246666
   0.11165954  0.88915261  0.94362374
   0.22494601  0.77813890  0.05476589
   0.44902089  0.22338125  0.94823267
   0.55923926  0.11288795  0.05006993
   0.44129830  0.55396491  0.94503395
   0.55772442  0.44115925  0.05291120
   0.44910893  0.89228454  0.94823144
   0.55772015  0.78318217  0.05291901
   0.77741838  0.22195056  0.95260758
   0.88790438  0.11186976  0.04748252
   0.77773364  0.55360484  0.95203058
   0.88796917  0.44267660  0.04749869
   0.77766882  0.89077244  0.95203377
   0.88638658  0.77644302  0.04941487
unknown system                          
           1
     8.303636    4.836781    0.000000
    -8.266986    4.773336    0.000000
     0.000000    0.000000   30.000000
   V    Mo   W    S 
   3   3   3  18
Direct configuration=     8
   1.01146239  0.33907887  0.00087087
   0.64865812  0.32212739 -0.00056948
   0.64844963 -0.00709305 -0.00054092
   0.33623652  0.66288071  0.00001026
   0.31708287 -0.00826348  0.00043143
   0.33612844  0.34003082  0.00001348
   0.03078909  0.00846814 -0.00029473
   0.03081633  0.68888801 -0.00031127
   0.63280772  0.64979342  0.00021487
   0.10878196  0.22440727  0.94782887
   0.22640436  0.11451249  0.05517218
   0.10880103  0.55097400  0.94781270
   0.21678616  0.44170048  0.05277062
   0.11294723  0.88977852  0.94296572
   0.22638162  0.77845949  0.05519609
   0.44814718  0.22279083  0.94811544
   0.55868863  0.11261231  0.05037133
   0.43962756  0.55313066  0.94432036
   0.55693334  0.44082845  0.05321877
   0.44821372  0.89198945  0.94809797
   0.55693236  0.78276155  0.05324605
   0.77706685  0.22177094  0.95294617
   0.88866271  0.11097154  0.04677221
   0.77866668  0.55504118  0.95310800
   0.88873662  0.44433815  0.04679281
   0.77861419  0.89027245  0.95310710
   0.88539114  0.77596386  0.04833296
unknown system                          
           1
     8.316720    4.845173    0.000000
    -8.279415    4.780593    0.000000
     0.000000    0.000000   30.000000
   V    Mo   W    S 
   3   3   3  18
Direct configuration=     9
   1.01385784  0.34028376  0.00093391
   0.64496375  0.31958327 -0.00054097
   0.64458215 -0.00845471 -0.00050490
   0.33564728  0.66119438 -0.00000690
   0.31854329 -0.00757736  0.00065068
   0.33541154  0.34113242 -0.00000732
   0.03377917  0.01019967 -0.00058230
   0.03377849  0.69014685 -0.00058613
   0.63022639  0.64857259  0.00052151
   0.10897608  0.22460209  0.94761369
   0.22760444  0.11536267  0.05536367
   0.10898453  0.55095891  0.94759938
   0.21716167  0.44189450  0.05308546
   0.11478252  0.89069739  0.94263363
   0.22755859  0.77880732  0.05538448
   0.44737189  0.22262337  0.94797307
   0.55863457  0.11255975  0.05074354
   0.43840549  0.55251375  0.94390294
   0.55608643  0.44031308  0.05340674
   0.44748870  0.89141071  0.94795473
   0.55609748  0.78246731  0.05343672
   0.77659493  0.22149591  0.95345651
   0.88907761  0.11027492  0.04596174
   0.77939935  0.55604204  0.95420538
   0.88919134  0.44546135  0.04599862
   0.77935359  0.89003998  0.95421079
   0.88465533  0.77560855  0.04719125
unknown system                          
           1
     8.315558    4.845318    0.000000
    -8.277681    4.779746    0.000000
     0.000000    0.000000   30.000000
   V    Mo   W    S 
   3   3   3  18
Direct configuration=    10
   1.01667548  0.34171668  0.00086238
   0.64141633  0.31751926 -0.00044215
   0.64123124 -0.00983573 -0.00038614
   0.33478189  0.65964141 -0.00001274
   0.32007464 -0.00679307  0.00074166
   0.33472131  0.34185488  0.00000163
   0.03651904  0.01190322 -0.00082805
   0.03650194  0.69118300 -0.00084134
   0.62788459  0.64729694  0.00076307
   0.10908517  0.22499191  0.94729849
   0.22846515  0.11599507  0.05542831
   0.10910586  0.55070287  0.94729397
   0.21751971  0.44209973  0.05347921
   0.11686338  0.89171442  0.94243292
   0.22838750  0.77900873  0.05545966
   0.44668465  0.22266489  0.94782195
   0.55873354  0.11266823  0.05119203
   0.43778408  0.55220907  0.94367227
   0.55520380  0.43968852  0.05361873
   0.44666231  0.89062103  0.94775561
   0.55519360  0.78219277  0.05368850
   0.77610142  0.22127323  0.95402167
   0.88919883  0.10976006  0.04524161
   0.77997718  0.55660524  0.95513154
   0.88927353  0.44608329  0.04527632
   0.77997315  0.89005090  0.95511573
   0.88419513  0.77539793  0.04621305
unknown system                          
           1
     8.319158    4.846058    0.000000
    -8.282475    4.782554    0.000000
     0.000000    0.000000   30.000000
   V    Mo   W    S 
   3   3   3  18
Direct configuration=    11
   1.01912712  0.34296613  0.00070058
   0.63932428  0.31665657 -0.00025575
   0.63920872 -0.01102570 -0.00021163
   0.33411933  0.65879462  0.00001294
   0.32141106 -0.00614586  0.00076793
   0.33413022  0.34208455  0.00002155
   0.03774001  0.01293315 -0.00105405
   0.03772738  0.69137139 -0.00105106
   0.62707693  0.64687451  0.00100850
   0.10910449  0.22530195  0.94705730
   0.22895070  0.11629115  0.05537373
   0.10911440  0.55040589  0.94704635
   0.21774373  0.44221665  0.05376132
   0.11836459  0.89246575  0.94240655
   0.22884343  0.77918522  0.05539793
   0.44610603  0.22277789  0.94770456
   0.55887977  0.11279002  0.05149854
   0.43758148  0.55210251  0.94365181
   0.55456627  0.43930839  0.05375168
   0.44605590  0.88991413  0.94763945
   0.55452965  0.78186559  0.05381589
   0.77573258  0.22111683  0.95453448
   0.88910469  0.10962361  0.04474083
   0.78012436  0.55664777  0.95566100
   0.88913962  0.44611331  0.04476886
   0.78013597  0.89013457  0.95564131
   0.88427175  0.77544389  0.04560933
unknown system                          
           1
     8.317639    4.843472    0.000000
    -8.282453    4.782561    0.000000
     0.000000    0.000000   30.000000
   V    Mo   W    S 
   3   3   3  18
Direct configuration=    12
   1.01994114  0.34337757  0.00057237
   0.63915641  0.31688509 -0.00014963
   0.63903458 -0.01140508 -0.00011485
   0.33401482  0.65893930  0.00002596
   0.32186105 -0.00593382  0.00072799
   0.33401611  0.34184777  0.00003170
   0.03751713  0.01310352 -0.00110486
   0.03748649  0.69096629 -0.00110554
   0.62742442  0.64705704  0.00104509
   0.10907906  0.22540998  0.94695098
   0.22889184  0.11620843  0.05531690
   0.10907803  0.55026977  0.94693562
   0.21770605  0.44218912  0.05383847
   0.11856695  0.89256510  0.94241896
   0.22879763  0.77921927  0.05534499
   0.44602012  0.22287028  0.94767898
   0.55894972  0.11281426  0.05156607
   0.43777403  0.55219872  0.94373768
   0.55445590  0.43927630  0.05383039
   0.44600751  0.88974533  0.94763158
   0.55441607  0.78177059  0.05387568
   0.77570408  0.22111016  0.95471166
   0.88892129  0.10977257  0.04467460
   0.77993093  0.55638018  0.95562591
   0.88894479  0.44577876  0.04470176
   0.77993247  0.89019657  0.95560937
   0.88458585  0.77560138  0.04562208
unknown system                          
           1
     8.315975    4.840484    0.000000
    -8.282515    4.782562    0.000000
     0.000000    0.000000   30.000000
   V    Mo   W    S 
   3   3   3  18
Direct configuration=    13
   1.02131984  0.34407133  0.00042099
   0.63843480  0.31684956 -0.00001428
   0.63831274 -0.01207724  0.00001844
   0.33379442  0.65886793  0.00004565
   0.32232010 -0.00572326  0.00069349
   0.33379077  0.34171727  0.00005044
   0.03781206  0.01357242 -0.00119516
   0.03777287  0.69078888 -0.00119777
   0.62730166  0.64699367  0.00112650
   0.10911724  0.22555593  0.94680236
   0.22890060  0.11616066  0.05524455
   0.10910576  0.55016114  0.94678459
   0.21772550  0.44219408  0.05393674
   0.11897813  0.89276678  0.94242447
   0.22880807  0.77927895  0.05527732
   0.44584274  0.22296202  0.94764834
   0.55899079  0.11281854  0.05169702
   0.43791384  0.55227045  0.94381641
   0.55421874  0.43924413  0.05393523
   0.44585430  0.88948160  0.94760750
   0.55417766  0.78156503  0.05397164
   0.77565245  0.22108563  0.95499477
   0.88879887  0.10989018  0.04448734
   0.77978265  0.55621708  0.95571714
   0.88881742  0.44554047  0.04451604
   0.77978088  0.89020608  0.95570232
   0.88488955  0.77575515  0.04548780
unknown system                          
           1
     8.313604    4.835092    0.000000
    -8.283789    4.783477    0.000000
     0.000000    0.000000   30.000000
   V    Mo   W    S 
   3   3   3  18
Direct configuration=    14
   1.02489123  0.34586018 -0.00003909
   0.63630370  0.31661050  0.00037938
   0.63609227 -0.01403210  0.00041547
   0.33350285  0.65925401  0.00010437
   0.32369950 -0.00512842  0.00059917
   0.33340480  0.34110428  0.00010523
   0.03832572  0.01473560 -0.00149250
   0.03827975  0.69014765 -0.00148839
   0.62730999  0.64703747  0.00139544
   0.10930042  0.22588094  0.94632141
   0.22892300  0.11598887  0.05512030
   0.10925873  0.55000938  0.94629920
   0.21775848  0.44220157  0.05423334
   0.11974455  0.89314973  0.94238148
   0.22881440  0.77946954  0.05516616
   0.44552687  0.22318293  0.94756229
   0.55903567  0.11276186  0.05203475
   0.43821278  0.55242458  0.94396310
   0.55368454  0.43928070  0.05428872
   0.44564686  0.88898684  0.94753500
   0.55366088  0.78103936  0.05430713
   0.77556744  0.22100346  0.95582202
   0.88844824  0.11024025  0.04397143
   0.77928287  0.55573310  0.95591834
   0.88851128  0.44487289  0.04401625
   0.77925932  0.89020218  0.95591673
   0.88576834  0.77619710  0.04516316
unknown system                          
           1
     8.310936    4.829980    0.000000
    -8.284395    4.784035    0.000000
     0.000000    0.000000   30.000000
   V    Mo   W    S 
   3   3   3  18
Direct configuration=    15
   1.02916212  0.34799014 -0.00059368
   0.63364758  0.31640113  0.00088831
   0.63366974 -0.01629446  0.00094050
   0.33302084  0.65950076  0.00016654
   0.32497465 -0.00457323  0.00049828
   0.33306618  0.34051455  0.00017843
   0.03905985  0.01631546 -0.00181884
   0.03899875  0.68929577 -0.00182031
   0.62687555  0.64673587  0.00161914
   0.10977291  0.22629125  0.94571847
   0.22884222  0.11569904  0.05499345
   0.10973278  0.55010365  0.94570331
   0.21786780  0.44227527  0.05446722
   0.12035581  0.89343672  0.94225967
   0.22868783  0.77963463  0.05506711
   0.44531629  0.22340734  0.94744517
   0.55885616  0.11268838  0.05249101
   0.43860566  0.55263556  0.94419489
   0.55311840  0.43933206  0.05476476
   0.44537196  0.88851385  0.94736699
   0.55309511  0.78040878  0.05480857
   0.77564562  0.22107028  0.95683315
   0.88820031  0.11075190  0.04333870
   0.77860742  0.55512142  0.95616972
   0.88822349  0.44409700  0.04338385
   0.77861714  0.89012782  0.95615778
   0.88682227  0.77673349  0.04477774
unknown system                          
           1
     8.307315    4.824632    0.000000
    -8.283686    4.783728    0.000000
     0.000000    0.000000   30.000000
   V    Mo   W    S 
   3   3   3  18
Direct configuration=    16
   1.02984792  0.34833529 -0.00081930
   0.63316639  0.31645056  0.00107849
   0.63317993 -0.01681233  0.00110083
   0.33302111  0.65978135  0.00019412
   0.32490080 -0.00470269  0.00043050
   0.33307578  0.34032478  0.00019519
   0.03920525  0.01665733 -0.00193506
   0.03914105  0.68908218 -0.00191829
   0.62685257  0.64674684  0.00175560
   0.11019042  0.22644751  0.94553066
   0.22869920  0.11554455  0.05498409
   0.11014119  0.55035750  0.94550912
   0.21795899  0.44232726  0.05445712
   0.12015682  0.89333798  0.94222758
   0.22851088  0.77962201  0.05505589
   0.44537093  0.22339291  0.94741979
   0.55854184  0.11256117  0.05264548
   0.43862570  0.55264909  0.94422005
   0.55301283  0.43949374  0.05493939
   0.44547866  0.88860553  0.94735261
   0.55299439  0.78009778  0.05496424
   0.77586423  0.22120611  0.95715241
   0.88827947  0.11103823  0.04317104
   0.77830622  0.55489376  0.95621628
   0.88826366  0.44386380  0.04320666
   0.77832238  0.89003754  0.95620742
   0.88710586  0.77687466  0.04465801
unknown system                          
           1
     8.306312    4.821029    0.000000
    -8.285343    4.784730    0.000000
     0.000000    0.000000   30.000000
   V    Mo   W    S 
   3   3   3  18
Direct configuration=    17
   1.03071654  0.34875946 -0.00103057
   0.63273672  0.31651716  0.00126616
   0.63268590 -0.01735313  0.00128825
   0.33301807  0.66000940  0.00020126
   0.32487340 -0.00481207  0.00040216
   0.33300316  0.34016192  0.00020023
   0.03933620  0.01700356 -0.00204052
   0.03922525  0.68884120 -0.00203366
   0.62671960  0.64671561  0.00181791
   0.11055483  0.22657968  0.94534248
   0.22856612  0.11539281  0.05495377
   0.11048629  0.55058923  0.94532361
   0.21797155  0.44233528  0.05445287
   0.12002383  0.89325943  0.94216047
   0.22837436  0.77963173  0.05504913
   0.44541003  0.22339518  0.94739768
   0.55824972  0.11237577  0.05279109
   0.43875567  0.55272305  0.94429138
   0.55288388  0.43960172  0.05512177
   0.44558210  0.88867103  0.94732991
   0.55288260  0.77989747  0.05513477
   0.77601981  0.22127021  0.95743281
   0.88832818  0.11128015  0.04301361
   0.77804568  0.55470966  0.95626264
   0.88832545  0.44367500  0.04305453
   0.77805145  0.88996693  0.95625541
   0.88738808  0.77701701  0.04456073
unknown system                          
           1
     8.305920    4.819247    0.000000
    -8.286398    4.785453    0.000000
     0.000000    0.000000   30.000000
   V    Mo   W    S 
   3   3   3  18
Direct configuration=    18
   1.03158296  0.34916460 -0.00131378
   0.63238718  0.31662658  0.00150953
   0.63225359 -0.01789916  0.00154761
   0.33307171  0.66042214  0.00021093
   0.32464116 -0.00511461  0.00036819
   0.33293730  0.33994479  0.00020937
   0.03937616  0.01732076 -0.00218165
   0.03922822  0.68855007 -0.00217550
   0.62665160  0.64674003  0.00192487
   0.11111080  0.22673457  0.94509195
   0.22832839  0.11518826  0.05492325
   0.11101417  0.55097882  0.94507585
   0.21789631  0.44230656  0.05439591
   0.11966687  0.89306897  0.94203543
   0.22809118  0.77955975  0.05505661
   0.44561645  0.22339463  0.94740583
   0.55774154  0.11204956  0.05298516
   0.43890388  0.55281409  0.94434603
   0.55275037  0.43979412  0.05535750
   0.44586739  0.88891649  0.94731529
   0.55278120  0.77966361  0.05536876
   0.77625969  0.22135451  0.95774057
   0.88848920  0.11163461  0.04285566
   0.77767617  0.55445996  0.95628986
   0.88852326  0.44349182  0.04290844
   0.77768263  0.88987668  0.95628290
   0.88768510  0.77717224  0.04446534
unknown system                          
           1
     8.307314    4.820538    0.000000
    -8.287609    4.786426    0.000000
     0.000000    0.000000   30.000000
   V    Mo   W    S 
   3   3   3  18
Direct configuration=    19
   1.03230419  0.34949430 -0.00160407
   0.63204492  0.31663947  0.00174184
   0.63194542 -0.01828782  0.00179542
   0.33319859  0.66093503  0.00020843
   0.32440942 -0.00550196  0.00032489
   0.33303645  0.33981688  0.00021855
   0.03933333  0.01753319 -0.00232946
   0.03917163  0.68827707 -0.00230658
   0.62661836  0.64675296  0.00204552
   0.11167474  0.22684646  0.94486073
   0.22800572  0.11498317  0.05485711
   0.11154757  0.55142215  0.94485568
   0.21771222  0.44224285  0.05429971
   0.11926916  0.89285236  0.94192830
   0.22764115  0.77935108  0.05503145
   0.44602543  0.22346338  0.94750709
   0.55718616  0.11174183  0.05315091
   0.43910261  0.55293680  0.94442054
   0.55259719  0.43995229  0.05552824
   0.44631432  0.88928580  0.94736009
   0.55266081  0.77943437  0.05557283
   0.77637561  0.22138544  0.95801034
   0.88873759  0.11198800  0.04272256
   0.77728006  0.55417917  0.95633033
   0.88878891  0.44338200  0.04278386
   0.77730812  0.88980442  0.95631543
   0.88792477  0.77730376  0.04437016
unknown system                          
           1
     8.309226    4.822738    0.000000
    -8.289025    4.787763    0.000000
     0.000000    0.000000   30.000000
   V    Mo   W    S 
   3   3   3  18
Direct configuration=    20
   1.03239449  0.34953951 -0.00166624
   0.63196605  0.31659821  0.00179803
   0.63190662 -0.01830821  0.00185240
   0.33326045  0.66115081  0.00020885
   0.32440514 -0.00560504  0.00032313
   0.33311595  0.33977759  0.00021957
   0.03932558  0.01757705 -0.00236256
   0.03913271  0.68820580 -0.00233908
   0.62663680  0.64676224  0.00206494
   0.11181317  0.22686533  0.94480732
   0.22790706  0.11490907  0.05482974
   0.11168039  0.55153951  0.94480406
   0.21763752  0.44222142  0.05426385
   0.11920191  0.89280833  0.94190451
   0.22750929  0.77928579  0.05502480
   0.44615464  0.22347362  0.94754273
   0.55703298  0.11167896  0.05318348
   0.43917181  0.55298403  0.94444052
   0.55256030  0.43994848  0.05556651
   0.44644337  0.88940002  0.94737213
   0.55262021  0.77939428  0.05561843
   0.77635306  0.22138425  0.95806764
   0.88880838  0.11206819  0.04269420
   0.77716814  0.55407988  0.95634817
   0.88883366  0.44334816  0.04275531
   0.77721343  0.88979804  0.95632699
   0.88796138  0.77732914  0.04435045
unknown system                          
           1
     8.308875    4.822592    0.000000
    -8.288782    4.787802    0.000000
     0.000000    0.000000   30.000000
   V    Mo   W    S 
   3   3   3  18
Direct configuration=    21
   1.03230983  0.34950202 -0.00174386
   0.63188995  0.31652448  0.00188015
   0.63184505 -0.01831965  0.00193136
   0.33354353  0.66159764  0.00020723
   0.32439887 -0.00584359  0.00031981
   0.33339889  0.33984935  0.00021474
   0.03928314  0.01754886 -0.00241651
   0.03902688  0.68814397 -0.00238775
   0.62660841  0.64677733  0.00209142
   0.11204319  0.22685796  0.94476051
   0.22774112  0.11482791  0.05477548
   0.11187853  0.55176752  0.94475566
   0.21757225  0.44220983  0.05419185
   0.11912864  0.89274521  0.94188858
   0.22725856  0.77912953  0.05500893
   0.44634280  0.22351284  0.94760187
   0.55684369  0.11157836  0.05321912
   0.43928517  0.55305955  0.94448998
   0.55248359  0.43991817  0.05559161
   0.44669050  0.88957510  0.94740096
   0.55255623  0.77936441  0.05564501
   0.77619907  0.22131171  0.95812243
   0.88888341  0.11210765  0.04266039
   0.77703417  0.55394199  0.95638874
   0.88888272  0.44335484  0.04272534
   0.77708917  0.88981524  0.95636120
   0.88799710  0.77735620  0.04431565
unknown system                          
           1
     8.308875    4.822592    0.000000
    -8.288782    4.787802    0.000000
     0.000000    0.000000   30.000000
   V    Mo   W    S 
   3   3   3  18
Direct configuration=    22
   1.03237725  0.34954426 -0.00178906
   0.63185858  0.31649386  0.00192859
   0.63188606 -0.01827413  0.00198406
   0.33355192  0.66176604  0.00019904
   0.32434040 -0.00605888  0.00032089
   0.33345782  0.33989646  0.00020857
   0.03927202  0.01757235 -0.00244388
   0.03898322  0.68807557 -0.00241233
   0.62664121  0.64678625  0.00211398
   0.11221541  0.22689759  0.94473571
   0.22763674  0.11476150  0.05473184
   0.11202928  0.55189817  0.94473093
   0.21748236  0.44218601  0.05411824
   0.11910712  0.89270375  0.94186732
   0.22707317  0.77902161  0.05499928
   0.44648262  0.22352393  0.94764462
   0.55667685  0.11149676  0.05326390
   0.43936271  0.55312062  0.94451206
   0.55243331  0.43990925  0.05562282
   0.44684924  0.88970586  0.94740518
   0.55251542  0.77934207  0.05568212
   0.77612644  0.22129021  0.95816461
   0.88897339  0.11218234  0.04262819
   0.77693002  0.55384706  0.95641775
   0.88893352  0.44333793  0.04269524
   0.77700299  0.88981357  0.95638196
   0.88801537  0.77737445  0.04428829
