   27   27  100    1
  0.9710400E+02  0.1002848E-08  0.1002848E-08  0.3000000E-08  0.5000000E-15
  1.000000000000000E-004
  CAR 
 unknown system                          
    159     34    120
 
  0.0000000E+00  0.0000000E+00  0.0000000E+00  0.1562500E-01
    1      -17.825232   1.000000
    2      -16.776694   1.000000
    3      -16.608052   1.000000
    4      -16.599451   1.000000
    5      -16.536964   1.000000
    6      -16.527701   1.000000
    7      -16.415260   1.000000
    8      -16.254234   1.000000
    9      -16.202817   1.000000
   10      -16.156426   1.000000
   11      -16.104237   1.000000
   12      -15.939097   1.000000
   13      -15.908503   1.000000
   14      -15.646010   1.000000
   15      -15.598767   1.000000
   16      -15.495043   1.000000
   17      -15.273214   1.000000
   18      -15.218611   1.000000
   19       -9.306354   1.000000
   20       -9.048100   1.000000
   21       -8.938101   1.000000
   22       -8.854105   1.000000
   23       -8.724368   1.000000
   24       -8.708671   1.000000
   25       -8.695870   1.000000
   26       -8.672347   1.000000
   27       -8.542296   1.000000
   28       -8.479302   1.000000
   29       -8.467048   1.000000
   30       -8.415676   1.000000
   31       -8.344376   1.000000
   32       -8.164715   1.000000
   33       -8.068407   1.000000
   34       -8.002324   1.000000
   35       -7.801145   1.000000
   36       -7.742030   1.000000
   37       -7.685429   1.000000
   38       -7.517566   1.000000
   39       -7.505120   1.000000
   40       -7.379910   1.000000
   41       -7.337521   1.000000
   42       -7.210210   1.000000
   43       -7.073292   1.000000
   44       -6.943274   1.000000
   45       -6.869467   1.000000
   46       -6.796076   1.000000
   47       -6.739186   1.000000
   48       -6.666878   1.000000
   49       -6.606945   1.000000
   50       -6.532598   1.000000
   51       -6.437986   1.000000
   52       -6.262290   1.000000
   53       -6.225333   1.000000
   54       -6.174910   1.000000
   55       -6.154250   1.000000
   56       -6.070335   1.000000
   57       -6.000522   1.000000
   58       -5.902582   1.000000
   59       -5.882704   1.000000
   60       -5.631885   1.000000
   61       -5.613942   1.000000
   62       -5.359668   1.000000
   63       -5.308925   1.000000
   64       -5.082918   1.000000
   65       -5.027114   1.000000
   66       -4.925080   1.000000
   67       -4.901562   1.000000
   68       -4.828101   1.000000
   69       -4.762826   1.000000
   70       -4.707988   1.000000
   71       -4.687120   1.000000
   72       -4.668633   1.000000
   73       -4.458795   1.000000
   74       -4.370777   1.000000
   75       -4.304686   1.000000
   76       -3.977947   1.000000
   77       -3.784305   0.999965
   78       -3.609901   0.996947
   79       -3.490617   0.971191
   80       -3.193328   0.419346
   81       -3.182844   0.390621
   82       -2.854630   0.004681
   83       -2.767092   0.000647
   84       -2.633813   0.000016
   85       -2.575326   0.000002
   86       -2.495705   0.000000
   87       -2.244735   0.000000
   88       -2.222552   0.000000
   89       -2.211683   0.000000
   90       -2.060900   0.000000
   91       -1.707226   0.000000
   92       -1.633095   0.000000
   93       -1.384977   0.000000
   94       -1.207278   0.000000
   95       -1.078120   0.000000
   96       -0.997042   0.000000
   97       -0.952280   0.000000
   98       -0.906499   0.000000
   99       -0.819571   0.000000
  100       -0.638794   0.000000
  101       -0.600306   0.000000
  102       -0.532137   0.000000
  103       -0.385700   0.000000
  104       -0.286605   0.000000
  105       -0.225967   0.000000
  106       -0.159364   0.000000
  107       -0.107300   0.000000
  108       -0.055536   0.000000
  109        0.066988   0.000000
  110        0.230401   0.000000
  111        0.289461   0.000000
  112        0.403626   0.000000
  113        0.827998   0.000000
  114        0.943369   0.000000
  115        1.002527   0.000000
  116        1.141441   0.000000
  117        1.213709   0.000000
  118        1.652598   0.000000
  119        1.845840   0.000000
  120        2.166477   0.000000
 
  0.1250000E+00  0.2775558E-16  0.0000000E+00  0.3125000E-01
    1      -17.800329   1.000000
    2      -16.819474   1.000000
    3      -16.718558   1.000000
    4      -16.617660   1.000000
    5      -16.562478   1.000000
    6      -16.457614   1.000000
    7      -16.382896   1.000000
    8      -16.272797   1.000000
    9      -16.199843   1.000000
   10      -16.137655   1.000000
   11      -16.006281   1.000000
   12      -15.931783   1.000000
   13      -15.904055   1.000000
   14      -15.651160   1.000000
   15      -15.603272   1.000000
   16      -15.512056   1.000000
   17      -15.274949   1.000000
   18      -15.222623   1.000000
   19       -9.302580   1.000000
   20       -9.226793   1.000000
   21       -9.056383   1.000000
   22       -8.894076   1.000000
   23       -8.810748   1.000000
   24       -8.747215   1.000000
   25       -8.708906   1.000000
   26       -8.572314   1.000000
   27       -8.541228   1.000000
   28       -8.465830   1.000000
   29       -8.366985   1.000000
   30       -8.331043   1.000000
   31       -8.222563   1.000000
   32       -8.106482   1.000000
   33       -8.045198   1.000000
   34       -7.966950   1.000000
   35       -7.731521   1.000000
   36       -7.692634   1.000000
   37       -7.656337   1.000000
   38       -7.555691   1.000000
   39       -7.520554   1.000000
   40       -7.454900   1.000000
   41       -7.292665   1.000000
   42       -7.183298   1.000000
   43       -7.133505   1.000000
   44       -7.012058   1.000000
   45       -6.861986   1.000000
   46       -6.832543   1.000000
   47       -6.730024   1.000000
   48       -6.627381   1.000000
   49       -6.552388   1.000000
   50       -6.466675   1.000000
   51       -6.431481   1.000000
   52       -6.322631   1.000000
   53       -6.240548   1.000000
   54       -6.195161   1.000000
   55       -6.146462   1.000000
   56       -6.066698   1.000000
   57       -6.020941   1.000000
   58       -5.970422   1.000000
   59       -5.748193   1.000000
   60       -5.635280   1.000000
   61       -5.559765   1.000000
   62       -5.445726   1.000000
   63       -5.429948   1.000000
   64       -5.197111   1.000000
   65       -5.053958   1.000000
   66       -4.952290   1.000000
   67       -4.879758   1.000000
   68       -4.830631   1.000000
   69       -4.766404   1.000000
   70       -4.693212   1.000000
   71       -4.632125   1.000000
   72       -4.583030   1.000000
   73       -4.449756   1.000000
   74       -4.324666   1.000000
   75       -4.257988   1.000000
   76       -4.044143   1.000000
   77       -3.795505   0.999975
   78       -3.686815   0.999492
   79       -3.543560   0.988485
   80       -3.155977   0.320008
   81       -3.140575   0.282108
   82       -2.829980   0.002779
   83       -2.731354   0.000260
   84       -2.625516   0.000012
   85       -2.559884   0.000001
   86       -2.488624   0.000000
   87       -2.211151   0.000000
   88       -2.195669   0.000000
   89       -2.185547   0.000000
   90       -2.060583   0.000000
   91       -1.719825   0.000000
   92       -1.618562   0.000000
   93       -1.384039   0.000000
   94       -1.227809   0.000000
   95       -1.083146   0.000000
   96       -1.024121   0.000000
   97       -0.950439   0.000000
   98       -0.895668   0.000000
   99       -0.806400   0.000000
  100       -0.737692   0.000000
  101       -0.672084   0.000000
  102       -0.602503   0.000000
  103       -0.508599   0.000000
  104       -0.377042   0.000000
  105       -0.252210   0.000000
  106       -0.161449   0.000000
  107       -0.078232   0.000000
  108       -0.014271   0.000000
  109        0.093268   0.000000
  110        0.209923   0.000000
  111        0.328583   0.000000
  112        0.494165   0.000000
  113        0.873613   0.000000
  114        0.918696   0.000000
  115        1.001838   0.000000
  116        1.126670   0.000000
  117        1.181106   0.000000
  118        1.695228   0.000000
  119        1.886194   0.000000
  120        2.201393   0.000000
 
  0.2500000E+00  0.5551115E-16  0.0000000E+00  0.3125000E-01
    1      -17.726986   1.000000
    2      -17.009710   1.000000
    3      -16.743204   1.000000
    4      -16.659368   1.000000
    5      -16.616338   1.000000
    6      -16.429378   1.000000
    7      -16.344990   1.000000
    8      -16.246757   1.000000
    9      -16.184537   1.000000
   10      -16.074145   1.000000
   11      -15.925132   1.000000
   12      -15.898715   1.000000
   13      -15.840235   1.000000
   14      -15.671622   1.000000
   15      -15.613120   1.000000
   16      -15.550994   1.000000
   17      -15.280076   1.000000
   18      -15.233790   1.000000
   19       -9.549993   1.000000
   20       -9.266413   1.000000
   21       -9.185080   1.000000
   22       -8.992668   1.000000
   23       -8.933362   1.000000
   24       -8.781804   1.000000
   25       -8.656432   1.000000
   26       -8.551898   1.000000
   27       -8.460836   1.000000
   28       -8.426469   1.000000
   29       -8.268361   1.000000
   30       -8.218342   1.000000
   31       -8.123021   1.000000
   32       -8.092774   1.000000
   33       -7.985450   1.000000
   34       -7.774880   1.000000
   35       -7.726624   1.000000
   36       -7.664541   1.000000
   37       -7.607143   1.000000
   38       -7.555224   1.000000
   39       -7.503316   1.000000
   40       -7.385495   1.000000
   41       -7.305281   1.000000
   42       -7.168060   1.000000
   43       -7.112422   1.000000
   44       -7.031650   1.000000
   45       -6.899612   1.000000
   46       -6.828492   1.000000
   47       -6.718375   1.000000
   48       -6.648584   1.000000
   49       -6.498984   1.000000
   50       -6.442311   1.000000
   51       -6.352492   1.000000
   52       -6.316451   1.000000
   53       -6.290938   1.000000
   54       -6.230759   1.000000
   55       -6.173690   1.000000
   56       -6.089464   1.000000
   57       -6.030448   1.000000
   58       -5.902009   1.000000
   59       -5.727649   1.000000
   60       -5.655930   1.000000
   61       -5.616050   1.000000
   62       -5.567708   1.000000
   63       -5.446105   1.000000
   64       -5.411353   1.000000
   65       -5.256567   1.000000
   66       -4.987936   1.000000
   67       -4.862843   1.000000
   68       -4.826918   1.000000
   69       -4.711185   1.000000
   70       -4.652016   1.000000
   71       -4.512735   1.000000
   72       -4.471251   1.000000
   73       -4.412123   1.000000
   74       -4.307119   1.000000
   75       -4.241120   1.000000
   76       -4.145455   1.000000
   77       -3.842760   0.999994
   78       -3.780238   0.999960
   79       -3.581408   0.994466
   80       -3.111496   0.217047
   81       -3.069830   0.140777
   82       -2.797795   0.001348
   83       -2.659256   0.000034
   84       -2.605412   0.000006
   85       -2.511331   0.000000
   86       -2.461722   0.000000
   87       -2.159311   0.000000
   88       -2.131749   0.000000
   89       -2.101920   0.000000
   90       -2.006532   0.000000
   91       -1.734156   0.000000
   92       -1.592786   0.000000
   93       -1.394413   0.000000
   94       -1.314935   0.000000
   95       -1.145903   0.000000
   96       -1.075576   0.000000
   97       -0.967573   0.000000
   98       -0.914250   0.000000
   99       -0.883932   0.000000
  100       -0.828176   0.000000
  101       -0.758037   0.000000
  102       -0.714356   0.000000
  103       -0.685052   0.000000
  104       -0.512127   0.000000
  105       -0.335369   0.000000
  106       -0.193942   0.000000
  107       -0.058449   0.000000
  108        0.039076   0.000000
  109        0.089504   0.000000
  110        0.140022   0.000000
  111        0.388717   0.000000
  112        0.648627   0.000000
  113        0.863597   0.000000
  114        0.919027   0.000000
  115        1.053862   0.000000
  116        1.111820   0.000000
  117        1.158527   0.000000
  118        1.814549   0.000000
  119        2.001643   0.000000
  120        2.304802   0.000000
 
  0.3750000E+00  0.0000000E+00  0.0000000E+00  0.3125000E-01
    1      -17.611210   1.000000
    2      -17.220014   1.000000
    3      -16.752246   1.000000
    4      -16.680480   1.000000
    5      -16.656163   1.000000
    6      -16.433450   1.000000
    7      -16.332554   1.000000
    8      -16.242541   1.000000
    9      -16.107147   1.000000
   10      -16.000804   1.000000
   11      -15.930396   1.000000
   12      -15.877035   1.000000
   13      -15.737699   1.000000
   14      -15.682567   1.000000
   15      -15.660068   1.000000
   16      -15.563763   1.000000
   17      -15.286481   1.000000
   18      -15.247518   1.000000
   19       -9.760445   1.000000
   20       -9.374157   1.000000
   21       -9.162035   1.000000
   22       -9.081135   1.000000
   23       -8.972708   1.000000
   24       -8.811982   1.000000
   25       -8.571809   1.000000
   26       -8.492686   1.000000
   27       -8.439019   1.000000
   28       -8.313529   1.000000
   29       -8.276512   1.000000
   30       -8.212195   1.000000
   31       -8.162991   1.000000
   32       -8.108734   1.000000
   33       -7.894642   1.000000
   34       -7.820198   1.000000
   35       -7.759123   1.000000
   36       -7.706750   1.000000
   37       -7.579963   1.000000
   38       -7.407153   1.000000
   39       -7.375281   1.000000
   40       -7.311935   1.000000
   41       -7.213064   1.000000
   42       -7.146869   1.000000
   43       -7.061384   1.000000
   44       -6.983524   1.000000
   45       -6.825799   1.000000
   46       -6.792677   1.000000
   47       -6.703202   1.000000
   48       -6.625994   1.000000
   49       -6.541626   1.000000
   50       -6.448684   1.000000
   51       -6.406249   1.000000
   52       -6.359827   1.000000
   53       -6.286504   1.000000
   54       -6.225551   1.000000
   55       -6.138673   1.000000
   56       -6.052792   1.000000
   57       -6.033063   1.000000
   58       -5.875324   1.000000
   59       -5.845901   1.000000
   60       -5.734614   1.000000
   61       -5.693271   1.000000
   62       -5.590703   1.000000
   63       -5.564409   1.000000
   64       -5.457805   1.000000
   65       -5.310284   1.000000
   66       -5.028520   1.000000
   67       -4.875838   1.000000
   68       -4.826851   1.000000
   69       -4.758161   1.000000
   70       -4.669842   1.000000
   71       -4.567612   1.000000
   72       -4.448110   1.000000
   73       -4.394895   1.000000
   74       -4.261591   1.000000
   75       -4.179421   1.000000
   76       -4.075614   1.000000
   77       -3.972560   1.000000
   78       -3.740394   0.999876
   79       -3.566012   0.992486
   80       -3.095536   0.185378
   81       -3.016935   0.073410
   82       -2.777831   0.000840
   83       -2.656310   0.000032
   84       -2.559818   0.000001
   85       -2.463540   0.000000
   86       -2.402217   0.000000
   87       -2.085202   0.000000
   88       -2.068957   0.000000
   89       -2.022929   0.000000
   90       -1.881419   0.000000
   91       -1.723233   0.000000
   92       -1.576914   0.000000
   93       -1.481797   0.000000
   94       -1.425788   0.000000
   95       -1.258323   0.000000
   96       -1.157585   0.000000
   97       -1.037664   0.000000
   98       -1.001035   0.000000
   99       -0.965755   0.000000
  100       -0.893312   0.000000
  101       -0.838772   0.000000
  102       -0.705779   0.000000
  103       -0.669104   0.000000
  104       -0.607078   0.000000
  105       -0.389371   0.000000
  106       -0.251258   0.000000
  107       -0.117315   0.000000
  108        0.031265   0.000000
  109        0.050877   0.000000
  110        0.096199   0.000000
  111        0.421044   0.000000
  112        0.735401   0.000000
  113        0.835826   0.000000
  114        0.903350   0.000000
  115        1.066933   0.000000
  116        1.163852   0.000000
  117        1.225167   0.000000
  118        1.993940   0.000000
  119        2.180990   0.000000
  120        2.427285   0.000000
 
  0.5000000E+00  0.1110223E-15  0.0000000E+00  0.1562500E-01
    1      -17.505943   1.000000
    2      -17.358900   1.000000
    3      -16.758365   1.000000
    4      -16.680392   1.000000
    5      -16.673738   1.000000
    6      -16.437405   1.000000
    7      -16.329562   1.000000
    8      -16.245889   1.000000
    9      -16.043666   1.000000
   10      -15.995627   1.000000
   11      -15.937847   1.000000
   12      -15.847320   1.000000
   13      -15.725820   1.000000
   14      -15.709842   1.000000
   15      -15.657326   1.000000
   16      -15.559439   1.000000
   17      -15.289537   1.000000
   18      -15.254196   1.000000
   19       -9.835903   1.000000
   20       -9.416699   1.000000
   21       -9.168196   1.000000
   22       -9.106503   1.000000
   23       -8.955271   1.000000
   24       -8.824215   1.000000
   25       -8.538130   1.000000
   26       -8.463303   1.000000
   27       -8.421319   1.000000
   28       -8.306791   1.000000
   29       -8.276783   1.000000
   30       -8.197489   1.000000
   31       -8.148775   1.000000
   32       -8.107196   1.000000
   33       -7.966728   1.000000
   34       -7.880284   1.000000
   35       -7.777661   1.000000
   36       -7.735263   1.000000
   37       -7.518251   1.000000
   38       -7.356807   1.000000
   39       -7.314628   1.000000
   40       -7.239088   1.000000
   41       -7.129273   1.000000
   42       -7.084704   1.000000
   43       -7.049329   1.000000
   44       -7.044805   1.000000
   45       -6.819469   1.000000
   46       -6.747824   1.000000
   47       -6.618292   1.000000
   48       -6.583400   1.000000
   49       -6.562371   1.000000
   50       -6.539829   1.000000
   51       -6.449210   1.000000
   52       -6.347255   1.000000
   53       -6.261726   1.000000
   54       -6.227642   1.000000
   55       -6.164716   1.000000
   56       -6.073034   1.000000
   57       -6.044382   1.000000
   58       -5.877556   1.000000
   59       -5.846076   1.000000
   60       -5.806667   1.000000
   61       -5.713104   1.000000
   62       -5.610261   1.000000
   63       -5.533656   1.000000
   64       -5.402432   1.000000
   65       -5.273176   1.000000
   66       -5.206396   1.000000
   67       -4.953356   1.000000
   68       -4.872932   1.000000
   69       -4.796404   1.000000
   70       -4.658716   1.000000
   71       -4.524234   1.000000
   72       -4.447886   1.000000
   73       -4.357404   1.000000
   74       -4.233326   1.000000
   75       -4.157826   1.000000
   76       -4.044670   1.000000
   77       -4.023474   1.000000
   78       -3.720059   0.999785
   79       -3.544561   0.988697
   80       -3.095454   0.185222
   81       -2.997622   0.056209
   82       -2.771084   0.000713
   83       -2.658052   0.000033
   84       -2.551180   0.000001
   85       -2.451067   0.000000
   86       -2.360058   0.000000
   87       -2.050715   0.000000
   88       -2.026408   0.000000
   89       -1.974692   0.000000
   90       -1.821120   0.000000
   91       -1.704992   0.000000
   92       -1.631091   0.000000
   93       -1.517606   0.000000
   94       -1.441264   0.000000
   95       -1.336249   0.000000
   96       -1.214524   0.000000
   97       -1.069333   0.000000
   98       -1.062434   0.000000
   99       -0.977350   0.000000
  100       -0.909636   0.000000
  101       -0.859637   0.000000
  102       -0.690690   0.000000
  103       -0.651820   0.000000
  104       -0.625431   0.000000
  105       -0.405429   0.000000
  106       -0.279747   0.000000
  107       -0.164543   0.000000
  108        0.011455   0.000000
  109        0.026110   0.000000
  110        0.093163   0.000000
  111        0.430739   0.000000
  112        0.754283   0.000000
  113        0.822034   0.000000
  114        0.906211   0.000000
  115        1.060112   0.000000
  116        1.197246   0.000000
  117        1.265687   0.000000
  118        2.188312   0.000000
  119        2.256861   0.000000
  120        2.407608   0.000000
 
  0.0000000E+00  0.1250000E+00  0.0000000E+00  0.3125000E-01
    1      -17.800598   1.000000
    2      -16.783647   1.000000
    3      -16.734244   1.000000
    4      -16.650771   1.000000
    5      -16.544519   1.000000
    6      -16.467302   1.000000
    7      -16.386216   1.000000
    8      -16.299212   1.000000
    9      -16.196028   1.000000
   10      -16.081758   1.000000
   11      -16.035093   1.000000
   12      -15.973253   1.000000
   13      -15.863563   1.000000
   14      -15.643262   1.000000
   15      -15.597669   1.000000
   16      -15.500518   1.000000
   17      -15.292329   1.000000
   18      -15.225359   1.000000
   19       -9.310105   1.000000
   20       -9.103626   1.000000
   21       -9.081852   1.000000
   22       -8.969333   1.000000
   23       -8.803327   1.000000
   24       -8.732938   1.000000
   25       -8.678630   1.000000
   26       -8.649254   1.000000
   27       -8.549074   1.000000
   28       -8.526772   1.000000
   29       -8.449023   1.000000
   30       -8.302661   1.000000
   31       -8.211549   1.000000
   32       -8.031260   1.000000
   33       -7.973699   1.000000
   34       -7.881152   1.000000
   35       -7.850937   1.000000
   36       -7.728736   1.000000
   37       -7.685757   1.000000
   38       -7.535306   1.000000
   39       -7.447563   1.000000
   40       -7.403302   1.000000
   41       -7.329385   1.000000
   42       -7.205594   1.000000
   43       -7.124889   1.000000
   44       -6.981060   1.000000
   45       -6.890157   1.000000
   46       -6.809675   1.000000
   47       -6.751973   1.000000
   48       -6.664844   1.000000
   49       -6.594344   1.000000
   50       -6.519878   1.000000
   51       -6.438222   1.000000
   52       -6.309315   1.000000
   53       -6.256110   1.000000
   54       -6.183802   1.000000
   55       -6.096416   1.000000
   56       -6.069668   1.000000
   57       -6.027183   1.000000
   58       -5.890773   1.000000
   59       -5.774169   1.000000
   60       -5.599333   1.000000
   61       -5.572020   1.000000
   62       -5.362993   1.000000
   63       -5.328557   1.000000
   64       -5.217354   1.000000
   65       -5.105272   1.000000
   66       -5.028374   1.000000
   67       -4.955543   1.000000
   68       -4.878798   1.000000
   69       -4.822207   1.000000
   70       -4.669519   1.000000
   71       -4.622910   1.000000
   72       -4.513321   1.000000
   73       -4.399823   1.000000
   74       -4.323944   1.000000
   75       -4.283978   1.000000
   76       -3.919768   1.000000
   77       -3.828731   0.999991
   78       -3.689832   0.999529
   79       -3.493883   0.972677
   80       -3.413779   0.912332
   81       -2.970379   0.037534
   82       -2.873113   0.006797
   83       -2.756289   0.000494
   84       -2.612439   0.000008
   85       -2.567434   0.000002
   86       -2.491328   0.000000
   87       -2.251056   0.000000
   88       -2.197487   0.000000
   89       -2.176259   0.000000
   90       -2.061232   0.000000
   91       -1.704785   0.000000
   92       -1.613843   0.000000
   93       -1.384256   0.000000
   94       -1.213730   0.000000
   95       -1.094911   0.000000
   96       -0.992650   0.000000
   97       -0.959510   0.000000
   98       -0.903618   0.000000
   99       -0.835549   0.000000
  100       -0.705244   0.000000
  101       -0.635449   0.000000
  102       -0.599007   0.000000
  103       -0.487338   0.000000
  104       -0.364335   0.000000
  105       -0.297217   0.000000
  106       -0.146827   0.000000
  107       -0.110581   0.000000
  108        0.028550   0.000000
  109        0.040094   0.000000
  110        0.225143   0.000000
  111        0.286972   0.000000
  112        0.457794   0.000000
  113        0.755575   0.000000
  114        0.892755   0.000000
  115        1.042276   0.000000
  116        1.194859   0.000000
  117        1.300250   0.000000
  118        1.697346   0.000000
  119        1.884583   0.000000
  120        2.201819   0.000000
 
  0.1250000E+00  0.1250000E+00  0.0000000E+00  0.3125000E-01
    1      -17.752686   1.000000
    2      -16.888374   1.000000
    3      -16.815757   1.000000
    4      -16.718014   1.000000
    5      -16.474493   1.000000
    6      -16.440277   1.000000
    7      -16.377390   1.000000
    8      -16.304494   1.000000
    9      -16.184615   1.000000
   10      -16.043894   1.000000
   11      -15.973741   1.000000
   12      -15.922838   1.000000
   13      -15.845590   1.000000
   14      -15.657358   1.000000
   15      -15.606322   1.000000
   16      -15.522801   1.000000
   17      -15.299783   1.000000
   18      -15.228657   1.000000
   19       -9.383306   1.000000
   20       -9.340796   1.000000
   21       -9.165716   1.000000
   22       -9.023298   1.000000
   23       -8.869538   1.000000
   24       -8.711073   1.000000
   25       -8.638892   1.000000
   26       -8.574352   1.000000
   27       -8.538166   1.000000
   28       -8.462541   1.000000
   29       -8.354262   1.000000
   30       -8.236828   1.000000
   31       -8.118861   1.000000
   32       -8.065887   1.000000
   33       -7.997087   1.000000
   34       -7.802751   1.000000
   35       -7.749882   1.000000
   36       -7.699288   1.000000
   37       -7.617222   1.000000
   38       -7.552400   1.000000
   39       -7.452466   1.000000
   40       -7.374356   1.000000
   41       -7.272925   1.000000
   42       -7.230847   1.000000
   43       -7.132899   1.000000
   44       -7.024166   1.000000
   45       -6.901979   1.000000
   46       -6.839807   1.000000
   47       -6.762142   1.000000
   48       -6.654152   1.000000
   49       -6.513023   1.000000
   50       -6.463812   1.000000
   51       -6.395355   1.000000
   52       -6.332682   1.000000
   53       -6.274119   1.000000
   54       -6.218300   1.000000
   55       -6.156154   1.000000
   56       -6.056057   1.000000
   57       -5.976069   1.000000
   58       -5.945280   1.000000
   59       -5.736470   1.000000
   60       -5.568675   1.000000
   61       -5.552974   1.000000
   62       -5.534659   1.000000
   63       -5.428548   1.000000
   64       -5.316786   1.000000
   65       -5.211016   1.000000
   66       -5.069744   1.000000
   67       -4.932470   1.000000
   68       -4.833693   1.000000
   69       -4.807169   1.000000
   70       -4.634354   1.000000
   71       -4.530980   1.000000
   72       -4.449098   1.000000
   73       -4.374531   1.000000
   74       -4.275960   1.000000
   75       -4.207127   1.000000
   76       -4.115802   1.000000
   77       -3.932996   1.000000
   78       -3.699968   0.999636
   79       -3.522024   0.983025
   80       -3.323247   0.762726
   81       -2.947382   0.026028
   82       -2.833389   0.002991
   83       -2.698282   0.000106
   84       -2.615084   0.000009
   85       -2.527698   0.000000
   86       -2.475499   0.000000
   87       -2.186201   0.000000
   88       -2.144581   0.000000
   89       -2.136650   0.000000
   90       -2.064352   0.000000
   91       -1.712410   0.000000
   92       -1.595812   0.000000
   93       -1.385250   0.000000
   94       -1.251762   0.000000
   95       -1.127084   0.000000
   96       -1.039511   0.000000
   97       -0.971586   0.000000
   98       -0.894486   0.000000
   99       -0.868363   0.000000
  100       -0.821103   0.000000
  101       -0.749212   0.000000
  102       -0.681703   0.000000
  103       -0.632920   0.000000
  104       -0.453045   0.000000
  105       -0.306987   0.000000
  106       -0.169823   0.000000
  107       -0.100634   0.000000
  108        0.047236   0.000000
  109        0.075915   0.000000
  110        0.154231   0.000000
  111        0.328714   0.000000
  112        0.537163   0.000000
  113        0.815095   0.000000
  114        0.876135   0.000000
  115        1.067772   0.000000
  116        1.180206   0.000000
  117        1.283932   0.000000
  118        1.777967   0.000000
  119        1.963002   0.000000
  120        2.270951   0.000000
 
  0.2500000E+00  0.1250000E+00  0.0000000E+00  0.3125000E-01
    1      -17.658947   1.000000
    2      -17.094095   1.000000
    3      -16.883885   1.000000
    4      -16.717788   1.000000
    5      -16.479228   1.000000
    6      -16.416188   1.000000
    7      -16.351257   1.000000
    8      -16.260263   1.000000
    9      -16.168556   1.000000
   10      -16.003322   1.000000
   11      -15.965222   1.000000
   12      -15.873172   1.000000
   13      -15.750836   1.000000
   14      -15.697747   1.000000
   15      -15.625975   1.000000
   16      -15.538694   1.000000
   17      -15.311144   1.000000
   18      -15.233714   1.000000
   19       -9.639456   1.000000
   20       -9.445143   1.000000
   21       -9.228247   1.000000
   22       -9.045302   1.000000
   23       -8.929110   1.000000
   24       -8.665473   1.000000
   25       -8.587419   1.000000
   26       -8.499972   1.000000
   27       -8.418815   1.000000
   28       -8.397204   1.000000
   29       -8.285733   1.000000
   30       -8.204388   1.000000
   31       -8.162250   1.000000
   32       -8.143453   1.000000
   33       -7.968615   1.000000
   34       -7.866237   1.000000
   35       -7.770975   1.000000
   36       -7.623051   1.000000
   37       -7.575035   1.000000
   38       -7.497671   1.000000
   39       -7.403687   1.000000
   40       -7.327723   1.000000
   41       -7.209410   1.000000
   42       -7.133737   1.000000
   43       -7.054250   1.000000
   44       -6.955873   1.000000
   45       -6.922078   1.000000
   46       -6.822778   1.000000
   47       -6.759043   1.000000